/*--------------------------------*- C++ -*----------------------------------*\
| =========                 |                                                 |
| \\      /  F ield         | OpenFOAM: The Open Source CFD Toolbox           |
|  \\    /   O peration     | Version:  2306                                  |
|   \\  /    A nd           | Website:  www.openfoam.com                      |
|    \\/     M anipulation  |                                                 |
\*---------------------------------------------------------------------------*/
FoamFile
{
    version     2.0;
    format      ascii;
    arch        "LSB;label=32;scalar=64";
    class       volScalarField;
    location    "14.1";
    object      p;
}
// * * * * * * * * * * * * * * * * * * * * * * * * * * * * * * * * * * * * * //

dimensions      [0 2 -2 0 0 0 0];

internalField   nonuniform List<scalar> 
2186
(
0.698663
-0.428396
-0.121719
1.01066
-1.04458
-0.0456193
0.607206
-1.08426
-1.11142
1.26091
0.999383
-1.03885
-1.08965
0.959189
-0.658951
0.966208
0.989249
-1.5964
-0.00588834
-0.8871
1.35981
-0.847036
0.967313
-1.11639
0.960346
0.985417
1.18222
0.83624
0.535449
0.95916
-0.873585
0.960609
-0.831084
-1.10724
-1.03164
0.0534576
-1.00127
1.34964
-0.94104
-0.0584125
-1.11631
-0.847905
-0.769062
-0.911332
0.845223
1.24406
0.272486
0.444645
-1.54752
-1.15634
-0.880095
0.844327
-0.769743
1.28449
-0.800269
0.886928
-0.817483
0.914689
-1.08904
0.736595
-0.847363
0.572767
0.493628
-0.0613207
0.507674
0.38555
0.612451
1.24926
1.14559
-1.14043
-1.09248
-0.907051
1.21686
0.940691
1.13448
1.09784
-1.18858
0.983964
-1.03624
-0.819866
-1.98868
-0.0850596
0.955697
0.558178
0.947855
0.955541
1.25687
-0.033907
-0.242239
-1.04417
0.889219
-0.916078
0.869491
1.11553
0.970284
0.361148
-0.247144
0.524767
-1.12754
0.929169
-2.35969
-2.28729
0.583474
0.891369
0.991707
-0.933277
1.1756
-0.8488
0.874103
-1.59299
-0.758781
-1.0733
0.470367
1.28311
-1.06366
-0.976178
-0.220655
-1.54184
-1.04652
1.2183
-0.0787888
-1.3987
0.803789
-1.90061
0.970849
-0.210422
-1.06755
1.08932
-1.66208
0.587603
1.33409
1.18366
0.16133
0.579473
-2.06724
-1.19063
0.857388
-1.11923
-0.808071
-1.05345
0.747245
-0.296769
-1.05777
0.632489
0.854764
0.899448
-0.784394
-1.06863
0.541563
-0.902663
-0.99056
0.508219
0.986782
1.12863
0.987099
0.455499
1.25413
0.367802
0.266173
0.347669
-1.05712
-1.39897
0.940442
0.930476
-0.0157655
-0.00779824
-0.971141
-1.00803
-0.28433
-0.29078
0.30142
0.935039
0.989549
1.05402
0.369549
-0.462792
-1.0545
0.941581
-1.62338
0.808062
-1.00415
0.974502
-0.883012
0.489691
0.47517
-1.09719
-0.835877
1.09512
-0.726816
-1.07827
-1.21011
1.21852
-1.90455
0.922376
-1.05364
-1.45938
0.0301658
1.13796
1.0291
-0.857337
-1.25723
-0.920921
0.00193509
0.99016
-1.04089
-1.00905
-1.0514
-1.24345
0.907254
-1.33033
0.448847
-0.281693
1.2696
0.775649
0.873414
0.891025
1.14743
0.96484
0.835848
1.06134
0.29771
-0.899082
-0.861077
0.0404837
0.11045
-1.61699
-1.05678
0.997132
1.08622
-1.01887
-0.983273
-1.88633
0.295924
0.586362
0.716868
0.837036
1.06503
-2.04922
0.826202
-1.05555
-1.17549
-0.967363
0.956816
0.676346
1.11478
1.13752
1.07348
1.05123
-1.08294
0.762501
1.07359
-1.12385
0.943373
0.724353
-2.06604
-1.03744
-0.98975
1.11633
0.98829
-1.11354
-1.28734
-0.480565
0.895739
-2.02132
0.697102
1.02989
0.809023
-1.07375
-0.888417
0.935499
0.567856
-0.790094
-0.729411
1.30897
-1.00785
-1.07845
0.790292
1.13231
0.949353
-1.11671
-1.15714
-0.978286
0.865503
-1.14163
0.475632
0.933861
0.968371
-0.292054
-0.635836
0.924951
-1.15036
0.873861
1.14274
0.984803
0.980795
-0.574807
-1.12224
-1.10779
-0.991675
-1.74577
-1.86776
0.304982
-0.659647
0.554473
1.11805
1.17234
0.870034
-0.834068
1.10538
-1.29882
-0.274178
-1.31306
-1.0582
-1.09327
0.276964
-0.988345
-0.938814
0.111288
0.880803
-0.369444
0.328193
-1.04927
-0.268522
-1.06512
-1.04884
1.18071
-0.0694351
-0.179222
-0.893177
0.726184
0.493336
-0.595502
0.45547
-0.786016
-1.13777
0.608067
0.986997
1.03613
-1.22347
1.11392
0.829266
0.319689
1.19463
0.961883
0.893539
0.288656
-0.313265
-1.05741
0.821973
-0.962936
-1.01196
-1.33486
-0.867444
-1.05128
1.33346
-0.486863
-0.882807
-1.13895
0.960834
-1.02878
-1.98579
-1.10505
0.696931
-0.22447
-1.50167
1.21962
1.28081
1.0739
-1.06372
-0.185472
1.34884
0.966226
-1.27763
0.392841
-1.06275
0.095677
1.14279
0.943305
0.81869
1.25736
-0.622774
-0.385276
-0.358135
-0.853145
-1.54757
-0.830584
-0.124314
1.27851
-1.74255
-1.34886
0.952478
0.515746
-1.04498
-2.12135
-1.06014
-1.42636
-1.37898
-1.05126
-0.920017
-1.00646
1.14851
-0.350441
-0.919681
0.976965
-1.39942
1.21316
-1.56718
-1.90383
-1.14142
0.959115
-1.00324
0.986573
0.787824
-0.772565
0.99421
-1.47876
-1.05127
-1.26971
0.957596
0.897012
-1.08746
-1.06945
-1.32449
0.942735
-1.51656
-1.75207
0.458254
0.904575
0.835435
0.652188
-1.11331
-1.14464
0.781593
-1.02585
0.753105
-1.74166
0.982872
-0.0948615
1.08128
-1.04718
0.792897
0.649063
0.993181
-1.27663
0.958864
-0.740629
-1.05003
0.961703
-1.55675
0.0561712
-0.921143
-0.277011
0.96815
0.00926993
0.215573
0.966642
0.185181
-0.24191
-0.0738322
-0.881619
0.149538
-1.14799
0.649372
-0.797211
1.03482
1.08261
-1.11259
-1.05496
-0.389817
-0.848313
0.36188
-1.07873
0.789795
-0.144096
-1.08059
1.06169
-0.330254
0.319981
0.222493
-0.233991
0.751597
0.292254
-0.797636
-1.48798
-0.190138
-0.708792
0.97781
-1.64708
1.06351
1.17976
1.16688
0.600045
1.13383
-1.01622
-0.758109
0.850538
0.142121
0.95334
-0.811714
-1.05982
-1.76333
0.731642
-1.05112
-1.9481
-0.87476
-0.915386
-0.0135351
-1.15573
0.686216
0.654327
-0.8744
-0.954505
0.688221
-0.00248643
1.10279
-1.66836
-0.233617
-1.05215
0.714038
-0.247047
1.1225
1.36349
-1.82965
-1.03339
-0.953116
0.21268
-2.19564
0.984625
-0.980278
0.939485
0.707469
-1.07422
0.8246
0.785556
-1.88938
0.828927
-1.09028
-0.905897
-1.4117
-1.00662
-1.12132
-1.88856
-1.02038
0.962461
0.158349
-1.04413
0.524163
1.1106
1.16565
-0.447989
0.692945
-0.227362
0.715894
-0.264718
-1.64981
-0.933755
0.4434
0.766952
1.02505
-1.6956
-1.13659
-1.49557
-1.05274
-0.19443
0.669426
-1.8485
-0.00806509
-1.31435
0.902468
-1.01048
0.91551
-0.659476
-0.616729
0.90671
0.599976
-1.92438
-0.22841
0.92747
1.24685
0.984375
-0.918645
-1.69892
0.743039
-0.544962
0.729639
-0.746688
0.391811
0.924296
-1.06658
-0.885382
0.983114
-1.30977
1.21021
-0.125256
0.819002
0.113926
0.561044
-0.881348
1.19471
-0.893447
-2.05012
0.923303
0.469259
0.439418
-1.28876
-0.86968
-1.01881
0.730128
-0.295916
-1.11751
-1.09925
0.977743
0.332277
-1.4712
0.693796
0.852668
0.946796
-1.82409
-0.789917
-0.927182
0.976004
1.14369
0.422864
0.971457
0.134029
1.00743
0.150105
-0.956994
-0.463916
0.87927
0.924189
-1.60332
0.810331
-0.903481
0.758889
-1.13985
0.964656
0.901866
0.980179
-1.76649
0.883646
-1.97709
-0.987551
1.12747
-1.91265
-1.54263
1.08061
-1.31733
1.07274
-2.0039
-0.919275
1.00951
0.721762
1.31582
0.961259
-1.99541
1.03277
1.05078
-0.663201
0.591196
0.0990958
-0.95092
1.45408
-1.06325
1.10208
-1.00488
0.229893
0.962006
-1.34939
0.952356
-1.49344
0.886603
0.90724
0.975206
-0.0137534
-1.02699
-0.695106
0.522644
0.61745
1.02038
-0.260361
0.788028
-1.95522
-0.52941
-1.68243
0.777865
1.09742
-1.20995
-1.15095
-0.108369
1.2027
-0.106662
0.692091
-0.0438691
-2.43524
-1.07135
-0.8657
-0.935804
0.756788
-1.71095
-0.237842
-0.35986
-0.664788
-0.893263
-1.33442
-0.307548
0.933188
0.98126
-1.29979
-0.539467
0.94588
0.890367
0.982139
-2.20923
0.945325
1.01098
0.956857
1.00869
-1.25017
-0.346714
-0.889011
0.57392
0.963719
0.6461
0.0801489
-0.257155
-1.85593
0.0160091
1.21416
-0.309111
0.141071
-0.788119
-0.320213
-1.07735
0.743934
-1.0111
-1.439
-1.04854
0.963386
0.963292
0.973405
-0.0356755
0.281455
1.18983
-0.229302
0.958267
-0.287705
-0.0621462
0.720337
0.982551
1.06005
-0.0368674
0.939792
0.938819
-1.41391
-0.321211
0.974868
0.987252
0.982802
-1.05441
-1.089
0.983316
0.547112
0.964093
0.163052
-0.170928
0.050733
-1.63167
-0.41881
-0.972269
-1.5776
-0.175403
0.990356
0.994143
0.709324
-1.05545
0.964019
-0.248377
-0.205301
-0.0122614
0.960944
0.987629
0.983802
0.997648
0.974358
0.968076
0.958669
-0.248909
-0.264286
-0.0572628
-0.117962
-0.014386
-0.000239332
-0.00853763
-0.081224
-0.177402
-0.27219
-0.284738
0.956859
0.975465
0.971189
0.994111
0.992081
0.983827
0.988148
0.965261
0.972481
-0.14685
-0.147339
0.984999
0.98396
-0.0174715
0.985563
0.98524
-0.0948528
0.0599275
-0.303275
-1.01315
-1.35595
0.966694
-1.18595
0.964178
0.571679
1.02925
-1.0595
0.963182
0.907712
0.906343
-0.882089
-0.0474324
-1.18441
-0.326281
-0.0927479
-0.866882
0.979304
0.025615
1.05548
0.969977
-0.221817
1.15087
1.30031
-0.232397
0.835791
0.604746
0.96396
0.982127
0.972644
-1.05763
0.439758
-0.032067
0.968279
0.978063
-1.13691
0.0286783
0.971364
-0.0597305
-0.388634
0.970075
-1.07717
0.950804
0.983396
-1.08341
0.974936
0.0751647
0.965406
1.04668
-2.02335
0.980781
0.988843
-0.0105675
0.644491
0.966666
0.972024
0.0985012
-0.781263
0.658352
1.30765
0.979788
0.968809
0.973765
0.0640454
0.969378
0.954621
0.975429
0.969878
0.971858
0.968058
1.07646
-0.615556
-2.06719
0.97079
0.965161
0.232771
-1.05216
-0.565466
-0.67693
0.837384
-1.52425
-0.599877
-0.0114621
0.967188
0.671929
-0.00307813
-0.00164918
-0.134469
-0.515158
-1.04026
0.0332793
-0.469581
-1.73572
-0.376431
0.974196
0.0217726
0.962322
0.88562
-1.04807
1.22302
-0.451154
-1.32929
0.701828
1.1107
0.41538
-1.04781
0.966035
0.0290622
0.97186
-1.31588
0.972883
-1.38561
0.964638
-0.0403211
-0.640614
0.974455
0.990182
0.913786
0.070158
-1.04414
-0.866231
0.178615
0.986598
0.869822
0.105179
0.965604
1.00827
0.959504
0.353684
-1.99623
-0.763947
-1.999
0.254617
0.971344
-0.0616975
0.967565
-2.22867
0.966551
1.00582
0.975755
-0.0124105
-0.013111
1.00129
-1.1945
0.977823
0.98226
-0.0657401
-1.07299
0.918437
1.11519
0.96188
0.960815
0.202678
0.317747
0.934414
0.347376
0.976616
0.790963
-1.06593
-1.06567
0.815015
1.20791
0.966805
0.276806
-0.509383
0.259364
-1.80561
-0.340029
0.949382
-1.22795
0.952909
-1.66932
-1.05595
-1.02809
0.410471
-1.18039
-0.313674
0.113711
0.963631
-1.04929
0.889536
-1.0609
-0.248201
0.203459
-0.00582107
-0.0906139
0.939121
0.169129
-0.904441
0.12654
-1.32645
0.953145
-0.153387
-0.00449161
-2.35303
1.06001
-0.333189
-1.05829
1.03662
0.951916
0.939768
0.422514
-1.01342
0.971562
0.999719
-1.26717
-0.967475
0.963684
0.740818
1.23089
0.983977
-0.943312
-0.446329
-0.998937
-1.3519
-1.19447
-1.05139
-0.0108556
-1.22951
0.745326
-0.0943707
0.973063
1.1849
0.962589
-1.04769
-1.25913
0.965332
-0.857363
-0.0545289
0.941014
-0.391929
-0.972081
-2.13597
0.00369606
0.917929
0.889957
-1.01707
0.782452
0.654185
-1.34185
0.948268
-1.55594
0.78165
-0.836224
0.939583
-1.38514
0.359678
0.966004
1.07587
-2.28861
-1.78305
0.801213
1.33992
0.986983
1.0006
-0.708108
1.20061
-0.962226
0.0793657
-0.916352
0.407995
-2.19159
1.07947
1.11584
-1.0615
-1.2476
0.963242
-1.07601
0.802753
0.996109
0.936383
-2.19669
0.967151
-0.0191624
0.993051
-0.0249671
0.0442513
-0.167683
0.969708
-0.198242
-0.509293
-0.159741
0.961008
0.126892
1.17181
0.195088
1.30361
0.970029
-1.14749
0.944329
-0.921588
0.942284
0.941355
0.0544093
-0.162401
1.10785
0.956036
1.20656
0.924429
0.0123009
0.92867
0.950692
0.839141
0.97432
-1.09006
-1.1654
-0.977062
1.06066
-1.37874
-0.122658
-0.900739
-1.43622
-0.0821492
-0.151538
0.851778
0.0631382
0.916514
0.970641
-0.979089
-1.2901
-1.20397
-1.38669
-1.26073
-0.924516
0.971816
-1.88652
0.983922
1.19322
1.02315
-0.244577
0.990261
0.903767
-1.38938
0.92057
0.951998
-1.07146
0.950386
0.927349
-0.105335
-1.30675
1.42233
-1.72173
-1.41874
-1.19185
0.169298
0.942754
-1.52376
-0.616661
-0.867703
1.10778
-0.271391
0.840181
0.983461
0.947145
-1.308
0.930705
-2.19717
0.979278
0.99586
-0.465393
0.985276
0.489192
0.953907
0.656545
-2.3663
-0.00624414
-0.00931955
0.0405368
1.21843
-0.163411
1.00002
1.3688
-0.580174
-0.0155354
1.03146
-0.025009
1.02846
-0.0166915
-0.0296441
1.03038
1.03451
0.362112
-1.51728
0.750314
-0.745356
-1.06239
-0.700783
0.991013
0.959435
1.38293
-1.04924
-0.508725
0.686765
-1.18613
1.04774
0.972198
0.951331
0.959955
0.918487
-1.98218
-1.05324
-1.38104
0.790246
0.894492
-2.16292
-0.941222
-1.06829
0.982087
0.9974
-1.17211
-1.90302
1.00496
-0.977619
0.182448
0.763449
0.911823
-0.308969
-1.23883
-0.278038
-1.03413
-0.75758
-1.95184
-1.38871
1.33175
1.34649
-0.984629
-0.950217
0.982441
0.957715
-1.20417
-0.141563
-0.435578
0.642629
1.0673
-1.48555
0.974342
-0.934255
-1.23278
-1.22687
-1.41034
-0.95378
0.945817
-0.999692
-1.57438
1.34015
-1.03049
0.976129
1.20973
-0.947672
0.999713
1.2098
-1.02459
1.23037
-1.05603
-1.26453
1.00271
0.094936
0.969003
0.977562
-1.06811
1.02244
0.077942
-1.98128
1.01194
0.987364
-0.98428
-1.44382
0.920461
0.96943
-1.07058
-2.32
1.26921
-1.07293
0.884355
-0.0976391
0.902844
-1.02459
-1.94428
-1.06457
-1.02089
1.08321
0.99701
1.24792
1.1948
0.96955
1.03118
1.05451
-1.06252
1.12322
1.10131
-1.00285
-1.07772
-1.1325
1.30868
-1.46902
-1.2492
0.111075
0.929804
-1.01715
-0.94588
1.01226
0.976306
-1.06668
-0.960419
-1.21525
0.0129102
-2.30716
-1.02111
-1.06003
0.883537
0.846682
-0.9251
-0.461259
-0.950336
0.835417
-1.07318
-1.01062
-1.05814
0.899861
-1.69397
-0.974424
1.28855
0.857613
0.334141
1.15522
0.275001
0.935933
0.982801
1.08689
1.1682
-0.25498
0.678749
0.999426
0.202503
-1.05527
1.39616
0.92557
0.866701
1.02534
-0.989865
-1.93047
0.810257
0.787525
0.927706
-2.00988
-2.03926
0.953987
-1.05266
0.776703
-0.0894093
1.39588
-1.05314
0.732333
0.688518
-0.898639
-1.05109
-1.73524
1.01924
-0.906657
-1.05171
0.649927
0.616738
-1.36222
1.03977
0.793024
-0.914865
-0.862457
0.930826
-2.09252
-1.04924
-1.20288
-0.86903
-1.01387
0.957737
0.974583
-1.96775
0.566842
0.974273
1.31945
0.215784
0.294471
0.0249134
0.839002
-0.527858
-0.891773
-1.28286
-0.596462
-0.88535
0.965112
-0.897898
0.186246
-1.04735
0.549779
0.516368
-0.877936
0.585671
-1.93707
0.441946
-0.871315
0.475994
-0.893159
0.333453
-1.04488
0.393386
-0.86451
0.772187
-1.7019
-0.863418
-0.8674
-1.043
0.984607
0.0260156
-0.896545
-1.05094
0.0553507
0.0937422
-0.887134
-1.04985
-0.94136
-0.185841
-1.06576
-0.104964
-1.09748
-0.307264
-1.02092
-0.358588
0.865584
-0.191535
-1.90726
0.956839
-0.124916
-0.234877
0.395282
0.933515
-2.10276
-2.01112
-1.04631
-1.57538
0.848348
1.3951
-0.834868
-0.206697
-0.0465868
-1.01892
-0.440451
-0.442271
0.948869
-0.994522
0.917761
-1.74938
1.46122
0.397694
1.38127
-0.94779
1.14992
-0.547384
0.970936
-1.07857
-1.04352
1.03331
0.961572
-2.40774
-1.0491
-0.867185
0.953614
-1.07264
0.956707
-1.43892
-1.15296
-1.06434
1.27948
1.01559
1.0705
0.992827
0.984401
-0.135017
-0.667121
1.19396
-2.08298
-0.948256
1.39514
-0.952777
0.886564
0.912575
1.34046
1.39121
-0.979998
-1.5679
1.00329
0.163671
-0.532589
-0.812848
-0.829949
-2.08568
-0.95504
0.499941
-1.519
1.16106
-1.23179
1.03465
1.1135
1.01731
-1.81844
-1.01896
-1.14779
1.0575
-1.03634
1.163
-0.710081
-1.19569
1.22535
1.26568
-1.0469
0.0932834
0.909527
-1.32536
-1.28541
0.611292
1.25972
1.18621
-1.26747
0.855416
0.836533
-1.04659
1.19765
0.285239
-0.934076
-0.785642
-0.190332
-0.15525
1.1034
-0.934581
0.264159
-0.0586632
0.0389732
-0.852304
-1.03708
0.964926
-2.28378
1.00116
-0.0998145
0.0193488
0.640955
0.191668
-1.03784
-0.615629
-1.26223
-0.330215
-0.0266631
-1.64822
0.925443
-1.90056
-1.83081
0.992421
-1.2394
-1.00913
0.981994
-1.08223
0.961127
-0.0910254
-1.06069
-0.422742
0.742169
-0.90146
-1.70493
0.843992
-1.11535
1.03979
-0.655676
-1.12441
-0.977767
-1.04649
1.44901
-2.11758
1.08578
-0.0184443
0.924187
1.16188
0.671681
0.98714
1.14821
-0.202032
-1.978
0.933295
1.05298
1.32231
-1.01493
1.02279
0.664837
-1.04601
0.739093
1.16785
-0.584695
1.32781
0.135817
-0.967639
0.78549
-1.06276
-0.866253
0.907041
-0.477035
1.0254
1.01183
0.938841
-1.00076
0.891329
1.24937
-1.31995
-0.349766
-2.17114
-1.20043
-1.09839
-1.04978
1.31166
0.697651
-1.02557
0.862905
-1.07228
-0.995598
1.22993
1.21344
-2.27003
-1.47688
-1.04559
-1.09197
0.936969
-1.02419
0.00254455
-0.829113
-0.49754
1.03302
-1.07776
1.37159
1.02103
0.832831
0.999457
1.28883
-1.23302
-1.0798
0.976585
1.10388
-0.857478
0.97302
-2.02581
-1.06509
-1.06248
1.07358
1.10299
-1.06757
-1.04461
0.494035
-0.156703
-1.58442
0.956203
0.951989
-1.51639
0.991767
1.03408
-1.40492
-1.00983
-1.0172
-1.06281
-1.06583
1.2719
-0.27613
0.905784
-1.02456
1.26812
0.852528
0.857545
0.929621
-2.02392
-1.00973
-1.06045
0.518388
-0.969446
0.871409
0.230051
-0.665477
0.847825
0.958609
1.00908
0.982404
-0.019216
1.00784
-0.0279686
0.354793
0.780326
-0.58311
-0.997743
-0.961235
-0.695175
0.979851
0.920858
0.979259
-1.76355
-0.887009
-1.05785
-0.798718
0.978902
1.27103
0.991966
-0.983601
-0.941498
-1.32959
-0.559265
-1.04714
-1.04659
-0.229073
0.96947
-0.916232
-0.920786
-0.0462571
-0.170465
0.709935
-1.50352
-1.05534
-1.21599
0.920704
1.39736
-0.00360653
1.06918
1.45766
0.649368
1.1861
-1.01929
-0.098581
1.3563
-1.05258
0.246004
-0.955783
-1.07187
-0.86231
-0.902852
0.938409
0.678436
1.17919
1.14158
-0.00180055
0.726692
0.0211646
-0.0342714
-1.04973
1.07917
0.711604
0.987287
1.00386
-0.0584717
-0.0501092
0.999109
-1.16162
-1.05183
-0.911672
-0.873255
0.533823
-0.895338
0.925902
0.613589
-1.05248
1.18937
-0.984867
-0.346614
0.94993
-0.900342
-1.02563
-1.97146
0.585405
-0.931972
-1.40802
0.901399
0.994888
-0.137732
-0.040182
-2.11436
-1.04772
-0.249885
-1.81809
-0.287387
0.54404
-1.21171
-0.888564
1.24815
0.245485
0.346902
-0.881971
-1.07707
0.969959
0.999301
0.514827
0.477422
-0.874541
-0.996183
-0.859443
0.438047
0.383676
-0.867715
0.813951
0.128488
-0.860327
1.42211
-0.861238
-1.73843
-1.06758
-0.817504
0.791904
-0.876801
-1.0213
-1.05578
-0.063501
-0.915394
-0.0153237
-0.979489
-0.211102
1.16088
-0.974276
-0.249768
-1.0818
-0.193053
1.32291
1.35547
1.21536
0.976356
1.19244
-0.704393
0.964224
-0.993015
0.996729
-1.04731
-1.04434
1.22072
-1.17574
0.417878
-2.00065
1.36188
-0.090749
1.29774
0.583519
0.749419
-0.94308
-0.962023
-1.04423
-1.27055
1.27812
1.17626
0.962361
0.57396
0.9646
0.817078
0.797424
-0.86722
-1.08775
0.222706
0.00640001
0.772159
0.979167
-0.103038
-0.942514
-0.860743
-1.5036
-1.04414
-1.7439
1.30194
0.99775
0.973404
-0.0470241
-0.0357387
0.995895
-0.877197
-1.04916
-2.08755
-1.04316
0.760764
-0.915481
-0.878555
-0.395887
0.978265
-1.79945
-1.06688
0.964051
0.552492
0.666737
0.964039
-1.04638
0.848453
1.14734
0.787174
-1.04397
0.956181
0.292295
0.437195
-1.09028
-0.900197
1.4168
0.173359
-1.39878
-0.0569543
0.885141
0.943741
-0.982412
-1.42255
-0.134322
-0.967814
-0.982843
-1.02968
-0.104408
0.959728
-1.25434
0.962039
1.23736
1.04598
0.964889
1.06586
1.12637
0.967577
-1.44569
-0.745528
-0.436129
-1.12306
-0.994164
-0.875199
1.12527
1.03092
-1.06825
0.91971
-0.915054
0.216928
-0.866013
-0.433246
0.476422
-1.35188
0.957265
0.88406
-1.64867
-0.480876
1.30508
-1.68251
-0.477302
-1.19189
-1.03548
-0.834141
1.0074
0.748296
1.05181
-1.25041
-0.769824
-1.02033
-0.392925
-1.06668
-1.42426
-1.52661
-2.00366
0.888725
-0.84567
1.4129
-1.10848
-0.677908
-1.07904
-0.872724
0.883723
-1.10346
-1.20705
-1.04043
-0.454057
1.17505
1.17906
-2.13462
-1.0632
0.798358
-1.06392
-0.978214
1.06291
-1.60829
-2.08058
-1.31185
0.725159
-0.534773
-1.06199
0.959768
-0.0383287
-1.06784
0.973563
-0.943681
-1.63133
-1.34553
-0.935374
-0.176943
-1.06485
1.29483
-1.05311
0.0807165
-1.04822
0.767003
-0.738587
-1.02007
0.623849
0.707408
1.02149
0.920786
1.15473
-0.877092
0.795549
0.492063
-1.39639
0.90499
-0.402133
-0.809421
-1.9355
1.1373
1.12376
-0.893095
-0.994176
-1.24657
0.992333
-0.995085
0.0114643
-1.36232
-0.883666
1.25981
0.991147
-0.951324
-1.00424
-0.958614
-0.927555
0.871431
-1.02322
0.957119
0.203896
0.683356
0.810625
-0.844955
-1.04033
0.917478
-0.876486
-0.0751175
1.2468
-1.05731
-0.920247
0.795494
-1.41955
-1.01556
-0.296215
-1.01529
1.31838
-0.731723
0.0544595
-0.958864
1.26166
-0.975812
-0.998415
0.619132
-1.29866
-1.04715
1.29795
0.648986
0.959745
-1.02139
1.21121
-0.32424
-0.944524
-1.02264
-1.03086
-0.985056
1.2431
0.551571
-1.06137
-0.972169
-1.04858
1.10237
-0.937796
1.23747
-1.04777
0.687326
-0.909018
0.347955
0.514728
0.480436
0.39964
0.112144
-0.965766
0.986278
-1.0213
-0.713231
-1.2239
0.202918
1.2787
-0.422031
-1.02166
-1.01237
-0.915204
0.242232
-1.10541
-0.904943
0.792349
0.109127
-0.935515
1.34484
-1.05561
-1.73166
1.322
-0.921036
0.128816
-0.941742
-0.869984
-0.897901
1.31913
-0.855309
1.23805
-0.894211
-1.03515
1.15011
-0.341447
-0.991047
0.541596
-1.01451
-0.00383012
-0.52677
-0.904968
0.753846
-1.18216
-0.906544
-0.873204
-0.869692
-1.05386
0.791806
-0.17463
-0.591178
-0.942646
1.26674
-0.960993
-1.01101
-0.854691
-0.252658
-0.995095
-0.847456
-0.934285
-0.204107
1.22586
-0.995772
-1.04372
-1.44975
-0.858963
-0.254842
-1.05902
1.35411
1.28835
0.390824
-1.09552
-1.05126
0.3064
-1.0508
1.36734
0.186702
1.0264
0.675103
1.24252
0.0696059
-1.00759
-1.12304
-0.0816293
-1.02436
-0.0815682
-0.197835
-0.891722
1.26317
-0.413706
0.197771
-0.552971
-1.04577
-1.14335
)
;

boundaryField
{
    frontback
    {
        type            empty;
    }
    Top
    {
        type            zeroGradient;
    }
    outlet
    {
        type            fixedValue;
        value           uniform 0;
    }
    bottom
    {
        type            zeroGradient;
    }
    Inlet
    {
        type            zeroGradient;
    }
    rectangle
    {
        type            zeroGradient;
    }
}


// ************************************************************************* //
