/*--------------------------------*- C++ -*----------------------------------*\
| =========                 |                                                 |
| \\      /  F ield         | OpenFOAM: The Open Source CFD Toolbox           |
|  \\    /   O peration     | Version:  2306                                  |
|   \\  /    A nd           | Website:  www.openfoam.com                      |
|    \\/     M anipulation  |                                                 |
\*---------------------------------------------------------------------------*/
FoamFile
{
    version     2.0;
    format      ascii;
    arch        "LSB;label=32;scalar=64";
    class       surfaceScalarField;
    location    "14.1";
    object      phi;
}
// * * * * * * * * * * * * * * * * * * * * * * * * * * * * * * * * * * * * * //

dimensions      [0 3 -1 0 0 0 0];

oriented        oriented;

internalField   nonuniform List<scalar> 
3181
(
-1.04908
0.413497
0.635583
-0.390073
0.367129
0.0229441
0.524307
-0.359985
-0.164322
0.121886
-0.201696
0.0798095
-0.0780324
0.102073
-0.0240401
0.810712
0.467615
-1.27833
0.149538
-0.143154
-0.00638418
0.0891182
0.000692326
-0.0898105
0.583393
-0.776799
0.193406
-0.0745867
0.137308
-0.0627215
-0.010424
-0.050695
0.061119
0.125875
0.048814
-0.17469
-0.0123801
-0.0668745
0.0792547
-1.09321
0.15045
0.942757
-0.328213
0.700348
-0.372135
-1.11974
0.639036
0.4807
0.0856261
-0.936269
0.850643
-0.380895
0.344249
0.0366461
-0.606863
-0.563293
-0.00215315
0.0657647
-0.0636116
0.0351
-0.0843452
0.0492452
-0.0765669
0.0627468
0.01382
1.05835
-1.03292
-0.025431
0.024264
0.0350823
-0.0593463
-0.955759
0.325459
0.6303
-0.108641
0.230527
0.30485
-0.24178
-0.06307
0.0298593
0.0627468
-0.0926062
-0.410637
0.338786
0.0718509
-0.0348549
-0.00726898
0.00808541
-0.000816432
-0.0394546
-0.916304
0.118556
-0.080447
-0.0381089
0.106885
1.42373
-1.53061
-0.0469807
0.0446065
0.00237416
0.177571
0.276888
-0.454458
1.51585
-1.40897
0.0707215
-0.0356215
1.57661
-0.810577
-0.766036
-0.16081
0.971522
-0.129658
0.117278
-0.0805138
0.00394692
-0.410238
0.0820249
-0.144523
0.0640095
-0.635203
0.130564
0.50464
-0.148583
0.0739962
-0.169365
0.173666
-0.00430063
-0.271931
-0.076718
0.348648
-0.102451
1.55012
-1.44767
0.0889489
0.213147
-0.302096
-0.00942212
-0.0994056
0.105442
-0.00603661
0.515893
0.184455
-0.0959536
0.139156
-0.0432019
0.0787586
0.0397973
-0.171913
0.198344
-0.0264315
0.163993
0.0566467
-0.22064
0.10965
-0.115616
0.0059666
1.31088
0.26573
-0.862284
-0.186797
0.178306
-1.54643
1.36812
0.54682
0.230332
-0.777152
-0.443408
-0.207164
0.650572
-0.782004
0.621195
-0.274024
0.820844
-0.325195
-0.102844
0.428039
-0.206814
-0.203823
-0.18996
0.164994
0.0249661
0.135516
0.283002
-0.418518
-0.194974
0.778367
-0.015806
0.104924
-1.76332
1.94163
0.186932
0.117918
-0.178858
-0.111732
0.29059
-0.270199
0.357031
-0.0868326
-0.0814881
0.0896997
-0.00821163
-1.86577
-0.917678
0.0105403
0.907138
-0.0512023
0.0042216
-1.05097
0.817207
0.23376
0.573404
-0.32303
-0.250374
-0.875411
0.0934064
1.10735
-0.956899
-0.717432
1.14303
-0.20027
1.06789
0.165844
-0.174271
0.00842664
1.27541
-0.807791
0.42032
-0.42032
-0.00830834
-0.0003413
0.00864964
-0.212898
-0.0532431
0.266141
0.137448
-0.0946662
-0.0427817
-0.456797
0.836982
-0.380185
-0.0186052
-0.234249
0.252854
-1.07596
0.0430335
0.348363
0.0546445
-0.403008
0.134234
-0.846806
1.07714
0.0959032
0.108719
-0.204622
-0.0176291
-0.154283
-0.467273
0.191861
0.275413
-0.260898
-0.206375
0.118886
-0.965692
0.322129
-0.778926
0.919107
-0.83348
-0.013627
0.221385
-0.207758
0.0821448
0.0518255
-0.13397
-1.37119
-0.105185
1.47638
-0.245526
0.41131
-0.165784
-1.16874
0.624335
0.54441
-0.472116
-0.578852
0.183091
-0.0941425
-0.153668
0.148057
0.00561157
-0.077407
-0.0128821
0.0902892
-0.555066
-0.221733
-0.094445
0.0480828
0.0463622
-1.08886
-0.0299145
1.11877
1.78581
-0.235686
-0.0128784
0.00457004
0.0388341
0.148098
-0.200371
0.377941
0.0148273
0.309176
-0.324003
0.137904
0.0679972
-0.205901
0.300575
0.086669
-0.387244
-0.593907
-0.525829
-1.0076
-0.0812544
-0.0656291
0.161532
-0.105949
0.184168
-0.0782188
-0.0803198
0.0250018
0.124537
-0.0568525
0.0707002
-0.0138477
-0.095811
-0.0218124
0.117623
0.0749887
-0.0749887
-0.185532
0.210533
0.312506
0.227974
0.10519
0.0931539
-1.25985
1.06488
-1.59028
0.116205
1.47408
0.0258738
-0.0207173
-0.00515654
-0.026478
-0.0510456
0.0775236
0.539543
-0.021944
-0.517599
-0.0461519
0.0482697
-0.00211785
-0.200777
0.0152452
0.164357
0.672624
-0.369313
0.53367
-0.152454
-1.21874
-0.13551
0.0574774
0.489614
-0.306848
-0.182766
0.147516
-0.128378
-0.0191382
0.0479835
-0.319914
0.0236254
-0.941304
0.0493027
-0.155252
-0.287499
-0.401913
0.0698907
1.39539
-0.946963
-0.448425
1.0985
0.296888
0.0665518
0.282097
0.0273219
-0.00144804
-0.0267986
0.148413
-0.121615
-0.251335
-0.587352
0.838688
-0.357258
0.668543
0.793186
-1.35648
0.150139
0.0300447
-0.0590929
0.0290483
-1.3657
0.338668
1.02703
-0.287111
-1.07859
-0.30364
0.652003
-0.912643
-0.0175278
0.00550692
-0.267072
0.261565
1.49342
-1.60169
0.108272
-0.1236
-0.0119097
0.568788
-0.820123
0.265663
-0.508235
0.242572
-0.297212
-0.117933
0.415145
0.180184
-1.00047
-0.0754806
-0.0195799
-0.0440317
-0.558295
0.351131
-0.245749
0.0183363
0.227413
-0.00237126
-0.121229
0.0197222
-0.0197222
-0.118808
0.130171
-0.0113632
-0.311945
-1.27834
0.0776772
0.0378617
-0.115539
-0.118111
-0.0284335
0.146545
-0.219932
0.0299716
1.65577
-0.422101
-1.23367
-0.189792
0.449402
-0.25961
0.00568737
-0.00517495
-0.00051242
-0.764605
-0.40414
-0.184453
-0.00491943
0.189372
-0.172436
0.307953
-0.100964
0.0992653
0.0016984
0.0736422
0.00942741
-0.0830696
-0.134311
0.169137
-0.0348262
-0.459945
0.981078
-0.521133
-0.219652
-0.0511564
0.270809
-0.692377
0.661627
0.0307495
-0.00501485
0.0400971
0.0371894
-0.0373625
0.000173176
-0.00170998
-0.0576363
0.76503
1.02078
0.174551
-0.885745
0.711195
-0.0543398
2.08363
-2.02929
0.386769
0.20365
0.216669
0.0617485
0.203544
-0.0656395
-0.0709074
-0.0284982
0.237347
0.156578
-0.0744332
0.737163
-0.411705
0.0607817
0.205359
0.0479426
-0.164331
0.116389
-0.775278
-0.135178
0.910457
-0.0355258
0.0355258
-0.0940739
-0.264698
0.541586
0.01282
-0.232472
0.217053
0.127196
0.0447578
-0.110387
0.135124
-0.145548
-0.343962
0.325357
0.0527308
0.0552321
-0.107963
0.385673
-0.336859
0.600228
-0.224265
-0.375963
-0.207184
0.273736
0.186616
-0.493464
-0.192806
0.606303
0.165972
-0.0337097
0.0337097
-0.260259
0.486164
-0.225905
0.384823
0.0264875
-0.0281861
0.0355735
-0.00738739
-0.193377
-0.0371491
-0.0572959
-0.049343
0.184467
-0.179919
0.240791
-0.060872
0.128447
0.0281309
-0.388036
0.146256
0.190339
-0.0618917
-0.045668
-0.0552956
-0.0927524
0.0765802
0.0161722
0.148227
-0.105134
-0.0430932
-0.0191396
0.39548
-0.37634
-0.140441
0.124635
0.103779
-0.108094
0.00431499
0.0236251
0.563472
0.0367562
-0.0963885
-0.0191436
0.115532
-0.0980565
-0.0117907
0.109847
-0.0906767
0.0988516
-0.72086
0.622008
-0.0519805
-1.49
-0.417032
1.90704
0.688503
0.978305
-1.66681
0.0832182
-0.264241
0.35091
0.278521
0.251424
-0.529945
-0.207819
0.255761
0.129452
-0.883845
0.754393
0.054685
-0.152741
-0.0237654
0.00418552
-0.988914
0.448572
0.540341
0.946963
-0.828077
-1.67844
1.57325
-1.49342
1.60963
0.0399809
-0.0831828
0.0107481
0.0264413
0.0121717
0.788294
-0.658842
0.122457
-0.0731544
0.409784
0.733243
-0.147144
-1.77007
1.71573
-0.674008
-0.585847
-0.24286
-0.392343
-0.0231631
-0.166255
0.214238
-0.57913
-0.372883
0.183091
0.775854
-0.236311
-0.890138
-0.788301
0.743339
0.196727
-0.142042
0.283618
0.0382002
-0.0382002
0.671179
0.147332
-0.818511
-0.226289
0.897468
0.41089
-1.23962
0.828734
0.26291
-0.0349358
0.00690361
0.00608721
-0.0129908
-1.54643
-1.18135
0.945665
0.990366
0.665402
-0.0346574
-0.134708
-0.242091
0.757985
-0.197202
-0.0485469
-0.00304541
-0.0784427
-0.052669
0.104495
0.37968
-0.249116
-0.826462
-0.289338
-0.101529
-0.0676255
0.169155
-0.693745
0.897396
-0.160006
0.117104
0.0429019
0.0247736
0.00254825
-0.099994
0.0331096
0.0668844
0.00906255
0.418977
0.101185
0.046331
0.0230149
0.0106383
-0.0336532
-0.0157694
-0.168684
-0.726288
0.371453
0.354835
0.482364
-1.4593
0.976938
0.13783
-0.158813
0.020983
0.00123
0.181861
0.0758843
-0.496204
-0.114008
0.014014
-0.145848
0.0517059
0.142593
-0.342963
-1.52073
0.663268
0.85746
0.0433739
0.0931934
0.0550339
-0.775278
0.0725282
-0.532473
0.1278
-0.09469
0.0435886
-0.638422
-0.0539551
0.0610449
0.129294
0.216472
0.0413843
-0.459902
0.123013
0.347061
-0.292416
-0.117428
0.0216168
0.222158
0.840875
-1.06303
0.103622
-0.709793
0.60617
-0.942419
0.807241
-1.06114
0.277822
0.783316
-0.00995639
0.0109573
-0.00100094
0.16853
-0.465741
0.205817
-0.120341
-0.085476
0.0537831
-0.0655738
-0.0286631
-0.0728659
-0.0158036
0.0243415
-0.0260515
0.020774
0.0764429
-0.0972168
1.09939
-0.00421754
0.00475347
-0.000535933
0.121658
0.00297616
0.861194
0.0611339
-0.0730436
-0.224977
-0.956374
0.223831
0.0390787
0.00775191
0.0854415
-0.783316
0.496204
0.16848
-0.292015
0.123535
-0.251092
0.0768207
0.118804
-0.110378
-0.00144512
0.0911448
-0.0454596
-1.35323
-0.167501
-0.0418468
0.0626208
0.739422
-0.258722
-0.271114
0.153003
0.346932
0.0179637
-0.0461498
-0.00772541
0.0827141
0.147237
0.209794
0.157604
-0.331531
0.173927
0.107891
0.564733
-0.0403875
-0.108195
0.928797
-0.254444
-0.674353
-1.06114
-0.451606
0.93397
1.51585
-0.154565
0.392478
-0.237913
0.348815
-0.0682416
-0.280573
-0.300557
-0.574854
-0.0718268
0.0725693
-0.000742481
-0.0972789
-0.162354
0.259633
0.458144
-0.961216
0.503072
0.0396619
0.659783
-0.699445
-0.0442786
-0.10939
0.00464915
-0.101038
0.275596
-0.535855
-0.0123956
0.00243923
0.204229
-0.00355546
-0.200674
0.0929501
-0.119749
0.00127092
0.0235027
0.0709858
0.150399
-0.0327084
-0.0046541
0.193104
-0.427352
-0.445577
1.42388
0.0298574
0.00566844
-0.983043
-0.0174318
0.11975
-0.0725337
-0.0448941
-0.0506511
0.316315
0.790413
-1.08171
0.291298
0.199607
0.0242239
-0.942761
-0.0141382
-0.0063621
-0.648628
0.74748
-0.017879
0.183851
0.00497272
-1.2446
0.185471
-0.442183
0.256712
0.0154753
0.293701
0.00135284
-0.00155278
0.000199935
-0.0442382
-0.0900724
-0.0210088
-0.133275
0.749567
-0.645945
-0.148092
0.0945439
-0.0670559
0.311961
-0.154358
0.0468653
1.2025
-0.262683
-0.939813
-0.120263
0.138599
-0.50772
-0.218569
-0.561717
0.615477
-0.595488
-0.0199888
-0.0931052
-0.0549872
-1.77007
0.553204
-0.553204
-1.7784
1.7784
0.788294
-0.0536762
-0.239086
0.292762
-0.892512
-0.0905308
0.628059
-0.369786
-0.258273
0.16266
-0.240879
-0.0112219
-0.00165652
-0.884027
-0.0816643
-0.934133
0.213273
0.0218927
-0.0895182
0.698499
-0.105012
-0.593487
1.07692
0.43893
-0.00168009
0.00303293
-0.968192
0.457376
-0.681642
-0.0652378
-0.607617
0.672855
-0.0529527
-0.888524
-0.713168
0.218786
-0.812693
-0.910457
1.3553
-0.444846
-0.138679
0.28042
-0.14174
-0.0293348
0.727834
-0.107398
-1.00729
1.00729
-0.824635
0.283072
0.541563
0.000428659
-0.0046462
0.0758191
-0.43891
0.822577
-0.00536903
-0.0845028
-0.0351548
0.137831
0.00386758
0.00181979
1.52417
-1.24634
-0.325863
0.399506
-0.628713
1.0075
-0.378789
-0.0813708
-0.0326372
0.123587
-0.0555895
0.348016
0.0080916
-0.0749661
0.354062
0.0414179
0.0423378
-0.246903
0.204565
0.139532
0.0341336
0.0971087
0.180168
1.36659
0.575041
0.10694
0.752881
-0.859822
-1.0143
1.35297
0.182726
-0.118716
0.0739376
-0.764737
0.690799
0.0532643
0.128517
-0.472479
-0.0741552
0.133635
-0.0594799
0.131388
-0.205543
-0.450467
-0.107827
-0.0712813
0.0743347
-0.00305343
-0.0020032
-0.0307052
0.0293396
0.0104578
0.658842
-0.60617
-0.0526716
-0.291159
0.303979
0.880537
0.590832
-0.242017
-0.0326389
0.0705007
-0.347581
-0.160654
0.170007
-0.578659
0.408652
-0.00154834
-4.43484e-06
0.102398
0.0353929
-0.13779
0.00167604
-0.00804271
0.00636666
-0.0220629
0.0138743
0.00818864
-1.21232
0.404528
-0.150851
-1.33915
-0.199043
-0.828077
1.60963
1.57325
-0.193025
-0.17307
0.121914
-0.0629715
0.0686067
-0.00563512
-0.194626
0.985577
-0.790951
0.556052
0.072007
0.000547116
-0.00209546
0.120734
-0.344335
0.0351548
-0.0464419
0.00459512
-0.697498
0.349917
-0.0613807
0.106138
-0.233532
0.619205
1.0985
0.0113552
-0.0615073
0.00133442
0.0601729
1.92925
-0.356
-0.0611339
-0.0544824
-0.986166
0.158089
0.39523
-0.215046
-0.4756
-0.128593
0.604193
0.813804
-0.36411
-0.449694
-0.0635799
0.853993
-1.71573
0.169299
-0.0147843
-0.0405137
0.055298
0.387159
1.69647
-0.170365
0.177269
0.0989192
2.26111
-0.651484
-0.676549
0.0546277
0.621921
0.387305
0.0156838
-0.346652
0.533762
0.80559
0.409585
0.0764876
-0.0214537
-0.553384
0.225785
0.327599
1.37753
0.0832954
-0.0602805
-0.051877
-0.361415
0.103729
-0.311548
0.838512
0.363984
-0.133635
0.0405302
0.284336
-0.4389
-0.022766
0.0177512
0.110913
-0.147686
0.0367732
-0.298862
0.312872
-0.0140105
0.473905
-0.736588
-1.20538
0.0432319
1.16215
0.0659196
-0.213541
0.147621
0.271563
0.0403981
-0.278347
0.350875
-0.667171
0.667171
1.36812
1.07692
-0.709793
0.32781
0.477779
-0.564859
0.338954
0.913716
-0.357664
0.0105381
-0.87427
0.863732
0.132014
0.00529461
0.0265947
-0.8001
0.521753
0.119774
-0.168587
-0.121278
0.289864
0.306986
-0.51503
0.346443
-1.12252
-0.286909
-0.656633
-0.0486545
0.00430508
0.000448388
-0.227802
0.123771
0.0453833
0.0344978
-0.14521
0.110712
-0.33832
-0.486315
-0.00571824
0.0684651
-1.08365
0.524771
0.558876
-0.570334
0.387569
-0.10537
0.160603
0.231938
-0.00723403
-0.0165314
-1.01319
0.591089
0.0341799
0.0695996
-0.15057
0.0835144
0.197766
0.00805068
-0.432962
1.10292
0.491042
-0.0472184
0.86504
-0.791102
0.788986
-0.442055
-0.614617
0.175706
0.15363
-0.79007
0.762568
0.0275015
1.13204
-0.293532
-0.194754
-0.131109
-0.11642
0.0217534
0.958243
-0.844589
-0.113654
-0.182418
0.107985
0.0276031
0.120454
0.882763
0.713597
-0.820477
0.10688
-0.32446
-0.0484236
-0.422771
-0.660875
0.136422
1.33995
1.00499
0.0719316
0.169451
0.554645
-0.724096
-0.0494431
0.0498527
-0.00740238
0.000168348
-0.513587
-0.101029
0.183537
-0.185908
-0.186972
0.137629
-0.532352
0.272742
-0.991026
-0.433712
-0.291814
-0.700683
1.56998
-0.0958996
-0.281096
-0.415512
-0.281986
0.125755
0.299185
0.054877
1.30425
-0.846104
-0.189828
0.127937
-0.426643
-0.353783
0.780426
-0.0175663
0.00278201
0.0485703
-0.0599452
-0.238917
-0.119574
0.696593
-0.419836
-0.276758
0.188556
0.134274
-0.0967177
-0.0375558
0.242448
0.0567373
-0.427226
-1.23958
-0.0957143
0.139303
0.953016
-0.239418
0.00608702
0.10376
-0.0212428
0.0196198
0.00162303
0.0172954
-0.0380127
-0.242727
0.0783951
-0.0766722
-0.559053
0.420374
0.0200448
0.134363
-0.0684429
-0.692364
1.59596
-1.23198
0.0157531
-0.192876
0.177123
-0.135179
-0.538115
0.673294
0.0745337
-0.712955
-1.11086
-0.0945175
-0.0718616
0.000226662
0.071635
-0.246245
-0.615477
-0.159801
-0.138988
-0.553384
-0.230966
0.165327
-0.331314
-1.17007
-0.565484
0.394871
0.170613
0.263545
0.114246
0.549648
0.150511
-0.70016
0.147237
0.0494897
0.911692
0.144745
-1.05644
-0.22112
0.294775
1.05819
-0.241553
0.180681
-0.73837
1.03315
0.252581
-0.0607201
-0.0340185
0.0461902
-0.00549474
1.14539
-1.19261
0.725938
0.0878654
-1.25286
-0.100366
0.229749
0.683967
0.914495
0.0143024
-0.0203869
-1.00499
-0.656633
-0.712735
0.723275
-0.0162077
-0.890138
0.659783
0.614388
-0.93512
0.866501
-0.00472225
-0.785347
-0.313666
0.634818
-0.771556
0.136738
0.0808083
0.0534652
-0.465169
-0.140293
1.00608
-0.865786
0.00220874
0.00209634
-0.263258
0.214711
0.709352
0.222339
-0.207093
-0.180795
0.644096
-0.674011
0.218402
0.0743601
0.583753
0.646859
-1.23061
-0.740367
0.966151
1.17733
-0.652561
0.0880323
0.187306
-0.327599
-0.0105558
0.216102
-0.0541799
0.0643682
0.055382
0.00271354
-0.0222851
0.0195716
-1.02885
-0.0341793
0.317328
-0.810068
-0.401222
1.29109
-0.889869
0.368835
0.638667
-0.0496321
0.0531053
-0.00347314
0.0570412
0.587055
-0.716928
0.661744
0.637636
-1.03886
0.314642
-0.09854
-0.584061
-0.406965
-0.594158
1.17791
-0.0575553
-0.878992
-1.94331
-0.0859801
0.187306
0.0502121
-0.86028
0.834888
-0.648083
-0.186804
-0.98183
0.397769
0.0051385
0.113718
-0.000299842
-0.113418
-0.973539
0.566575
-0.215297
0.909624
-0.923762
0.191611
-0.20738
-0.095713
0.238306
1.20573
0.341094
-0.168679
-1.42594
0.486123
1.27693
-0.867347
-0.551998
-0.517373
1.06937
0.448002
0.0179105
-0.0118233
-0.733624
0.699445
0.23208
-0.175038
-0.216669
0.268874
-0.0522046
0.605882
0.685209
0.779399
-0.814254
-0.491818
-0.449486
-0.472742
-0.500797
0.802572
-0.802572
0.683412
-0.683412
-0.733624
-0.36228
0.36228
-0.268874
-0.399942
-0.452665
-0.561892
-0.392844
0.392844
0.23208
-0.175038
0.779399
0.771221
-0.771221
0.814254
0.762058
-0.762058
0.508182
0.527258
0.482627
-0.160765
-0.499203
-0.550514
1.07777
-0.36085
-1.32262
0.72846
0.66088
0.516452
-0.0122674
-0.0176761
0.0788101
-0.886345
0.092947
0.793398
-0.132685
0.109522
-0.998795
0.587091
0.914125
-0.586314
-0.124839
0.00580079
-0.00668027
-0.806177
-0.0795687
-0.540341
-0.00318334
0.00736886
0.538561
-0.14411
0.0494203
0.1718
0.00777009
-0.0119616
0.00419153
-0.81516
0.067644
0.747516
0.591241
0.614494
-0.532561
0.417027
0.115534
0.915336
-0.741897
-0.173438
0.0786373
0.299304
-0.0138178
-0.0574635
-0.0574239
-0.0144029
0.410927
-1.10467
-0.83971
0.0975754
-0.743297
0.796201
-0.0529048
0.121416
-0.898494
0.777078
-0.802753
0.902932
-0.100178
-0.0690248
0.0863203
0.0194906
-0.286562
0.580086
0.597825
-0.0919755
-0.794369
0.916407
-0.0937465
-0.822661
0.0328661
-0.114237
1.25212
0.82336
-0.698241
0.455459
-0.383452
0.0987561
-0.893125
1.40897
0.369435
-0.791795
0.00644724
1.01623
-0.894812
1.2013
1.23205
-0.853696
-0.378349
-0.88208
-0.116715
-0.412766
0.0364253
-0.530184
0.821481
-0.788653
0.788653
-0.601446
-0.0854294
-0.86463
0.122733
-0.935555
0.870318
0.075764
-0.196105
-0.0577127
0.0594983
0.0112018
0.188309
0.827919
0.817502
0.770393
0.141554
-0.911947
-0.718744
1.2352
-0.783292
-0.105469
0.888761
0.174005
-0.890933
-0.676321
0.885659
-0.786903
-0.10626
0.461775
-0.0192589
-0.442516
0.00995523
1.33554
-1.34549
0.150941
-0.339417
0.188476
-0.889551
-0.830325
0.0870286
0.530817
0.258169
-1.67357
1.15535
-0.581527
0.581527
-0.887216
-0.53872
-0.104007
0.62576
-1.06153
1.10476
0.78019
-0.2036
1.12028
-0.715757
1.00027
-1.25974
0.259464
-0.030432
-1.42887
0.270593
0.513301
-0.295529
-0.236944
0.275108
0.300507
-0.22187
0.781105
-0.881283
0.761363
0.473833
-0.151033
0.738124
0.587602
-0.587602
-0.06658
0.0691283
0.109998
-0.0755003
1.26251
0.0730274
0.317924
-0.0010479
0.00371434
-0.00266644
-0.674048
0.697197
-0.0231485
0.390874
-1.24457
0.108447
-0.89535
-1.12778
1.45227
-0.324493
0.188139
0.873137
-1.03567
1.42654
-0.753795
0.604901
-0.658857
-0.660196
0.152477
-0.244297
0.0289115
0.0565405
-0.890711
0.646413
0.00607533
-1.03091
0.0701666
0.726035
0.694497
-0.0895958
0.0740943
0.7871
-0.252714
0.807268
-0.554554
-0.842156
0.524453
0.499892
-0.952363
0.731108
0.221255
-0.684041
-0.128651
0.920708
-0.375335
-0.160521
-0.0369276
0.486131
0.513869
-0.770039
-0.111244
-0.57158
-0.378089
-0.559858
-0.348597
0.404462
0.595538
-0.13842
0.141396
-0.863785
-0.070225
-0.588632
-0.154909
-0.248332
0.403241
-0.0401366
-0.00532299
0.112364
0.0721028
-0.129711
-0.113016
0.756422
-0.644742
0.718836
-0.111063
-0.779648
0.363777
-0.0437811
-0.319996
-0.745423
-0.192336
0.937758
-0.241841
0.230278
-0.0249182
-0.110227
-0.011002
0.0142513
0.71508
-0.133553
0.122148
0.109789
-0.739306
0.0652571
1.05134
-0.384497
-0.00926158
-0.366702
0.33023
-0.287704
1.02095
-0.00469481
0.378732
-0.279813
-0.00662299
-0.0633839
-0.120149
0.0421605
1.00918
0.228783
-0.0243314
-0.204451
0.843451
-0.0219458
0.0032966
0.0186492
0.128117
-0.0113843
-0.00101131
0.2174
-0.106487
0.236195
-1.29773
0.336687
-0.107904
0.00315024
0.289859
-0.0681124
-1.0057
1.34581
-0.340106
-0.780191
0.836886
-0.0566949
0.0997436
0.163812
0.0887684
-0.0690999
1.30467
-0.459974
-0.0725873
0.275524
0.453274
0.188096
-0.64137
0.404159
0.0397748
0.657422
-0.572153
0.559269
0.0128844
1.30588
-1.18012
-0.0410552
0.0508794
-0.00982421
0.692418
-0.00917383
-0.0834615
0.0197273
1.34007
0.483473
-0.38373
0.102415
-0.0239289
-0.189612
0.183776
0.00945007
-0.193226
0.00839915
-0.00568561
0.938471
-0.793727
0.19262
0.221104
-0.0257726
-0.0910344
0.224058
0.0946807
0.00614548
0.0796186
0.762584
0.338403
0.325103
-0.663506
0.797703
0.143808
-0.941511
0.644551
0.117148
-0.0752656
-0.00661919
0.0818848
-0.729117
-0.0938643
-1.16587
-0.00435482
0.747694
0.71727
0.113268
-0.164426
-0.300743
0.818556
0.118995
-0.0721298
-0.882655
0.179738
-0.27564
-0.173687
-0.172284
0.690861
0.0717238
0.013311
0.669198
-0.505385
-0.215567
0.161876
0.0270058
-0.111351
0.420742
-0.0576782
-0.0376594
-0.0714445
0.16669
0.281917
0.515786
-0.152404
0.444221
-0.0428753
-0.109491
0.0187717
-0.000995923
-0.0177758
-1.45501
0.274891
-0.0132708
0.918494
-0.231412
-0.617438
0.641555
-0.0241167
0.361116
0.756118
-0.304456
-0.0155394
0.0778914
-0.173604
0.629586
0.126531
0.627059
0.270337
-0.269168
0.724627
0.0821307
0.927049
-0.599984
0.346972
0.253012
-0.412361
-0.0717061
0.0412633
0.0635607
-0.0469754
1.21498
0.736004
0.0825512
0.621793
0.216895
-0.875842
-0.0818432
-0.671533
0.67798
-0.0239721
-0.585754
0.430845
0.872742
0.669361
0.15325
0.0363924
-0.159593
-0.312887
1.11392
0.482045
-0.060643
0.0387667
0.889052
0.0379971
0.707533
0.41124
-0.0777845
0.873512
-0.7439
0.92901
-0.185109
-0.409301
-0.190683
-0.0601934
-0.182849
-0.209282
0.815378
0.0157314
-0.00509308
0.628087
0.00988829
-0.37659
0.599136
-0.131547
0.234523
0.764375
0.230053
-0.994428
0.276486
-0.924569
0.139105
-1.37109
-0.174921
0.767231
-0.592311
-0.664863
-0.117571
0.00734365
-0.0552472
-0.998798
0.0216303
-0.0428731
0.955553
0.212429
-0.373159
0.16073
-0.0568659
-0.57913
0.0586855
0.320046
-1.37592
0.00439844
0.00337165
-0.444373
-0.0538431
-0.589922
0.0177691
0.565694
0.307048
1.02207
0.884963
-0.244722
-0.387047
0.631769
0.0676311
-0.615768
0.615768
-0.25244
-0.91402
1.16646
0.0300491
-0.150312
0.67832
-0.112625
-0.223891
-0.347653
0.187132
0.652099
0.600255
-0.29214
0.175424
-0.105533
-0.499085
0.481376
0.0778926
0.0572359
0.0134856
-1.35694
-0.342379
-0.263007
0.695573
0.304427
-0.342379
0.695573
-0.3338
-0.252011
-0.3338
-0.695676
0.695676
0.304324
-0.014254
0.174377
-0.0762263
0.193183
0.146926
-0.463922
0.637301
-0.0381649
0.654024
-0.503399
-0.150625
-0.0571136
0.0563707
0.000742947
-0.0100157
0.00896777
-0.119269
0.0187749
-0.111244
-0.432025
-0.35434
0.126538
0.0473031
0.831055
-0.276409
-0.650882
0.368896
0.00121758
-0.188192
-0.00894771
0.679531
0.0681631
0.104387
-0.0314361
-0.00221713
0.0255191
0.0844775
0.561469
-0.476851
-0.0846179
1.90577
0.547705
-0.658533
0.899652
0.0112131
-0.0622587
0.106283
0.193603
0.132935
1.1315
-0.367124
0.0193226
-0.0679771
0.624847
-0.83222
0.0220584
-0.0220584
0.0199398
-0.0199398
-0.0221025
0.0221025
0.0298574
0.365037
0.461366
-0.0021317
-0.721359
0.485047
0.188441
0.0289589
-0.0825772
-0.485391
0.787407
0.112764
-0.796806
-1.14411
-0.100489
0.0760688
0.0183952
-0.00452089
-0.0234687
0.0234687
0.248687
-0.0236954
0.0236954
0.699267
0.0919623
-0.0229256
-0.00851047
0.00665702
-0.0681643
-0.0225419
0.0225419
-0.0127814
0.0127814
-0.0219344
0.0219344
-0.0186394
0.0186394
0.118971
-0.297603
-0.0821428
0.221148
-0.0174144
0.0174144
-0.370787
0.510513
-0.139726
0.50165
-0.221231
-0.449597
-0.201285
0.56059
-0.0646568
0.0766016
0.564953
0.564638
-0.00818437
0.00818437
0.193156
0.0243942
-0.0243942
-0.0156252
0.0156252
0.756133
-1.11692
0.0382444
-0.306988
0.342381
0.00370428
-0.00370428
0.0160982
-0.0160982
0.0181169
-0.0181169
0.0233149
-0.0233149
-0.0231259
0.0231259
0.0347212
-0.0347212
0.488002
-0.031428
0.031428
-0.00269298
0.00269298
0.0237521
-0.0237521
-0.00648517
0.00648517
0.0103022
-0.0103022
-0.10812
-0.0251367
0.0251367
0.123333
0.0288982
-0.0390362
0.0390362
0.00631199
-0.00631199
0.0248627
-0.0248627
0.0331263
-0.0331263
0.0257915
-0.0257915
0.00470021
-0.00470021
-0.00209223
0.00209223
-0.536364
-0.154497
-0.0109661
0.0109661
-0.00169203
0.00169203
-0.0377284
0.0377284
-0.0280606
0.0280606
-0.000673868
0.000673868
-0.417333
0.647082
0.259293
-0.0316918
0.0316918
-0.0506924
-0.0181609
0.0181609
-0.00086983
0.00086983
0.0374486
-0.0374486
-0.206428
0.134299
0.00355158
-0.00355158
-0.0230677
0.0230677
-0.499089
0.044469
-0.447674
-0.031482
0.031482
-0.440689
0.0339737
0.0191315
-0.00929307
-1.24357
-0.0363109
0.0363109
-0.199656
0.141978
-0.0408551
-0.000357408
0.000357408
0.00256714
0.046678
0.262456
-0.330111
-0.278353
0.608465
0.197626
-0.00499654
0.00499654
-0.235658
0.390747
-0.155089
0.773902
-0.395965
-0.377937
-0.462445
-0.661349
-0.0968168
0.465713
-0.371884
-0.470271
-0.573605
0.0197403
0.195244
-1.33337
0.0153447
-0.0153447
-8.17441e-05
8.17441e-05
0.0304988
-0.0304988
0.0262606
-0.0262606
0.00189374
-0.00189374
-7.73088e-05
7.73088e-05
0.0199463
-0.342976
0.174167
-0.299006
-0.00170252
0.00170252
-0.0450355
0.0450355
-0.0398588
0.0398588
0.171414
0.0914478
-0.262862
0.00261132
0.314733
-0.546145
0.00120559
-0.00120559
-0.0247534
0.0247534
-0.0952434
0.0949646
-0.191781
-0.000277242
0.000277242
0.10657
0.0120323
0.983954
-0.484612
-0.0820502
0.566663
-0.627476
0.0885865
-0.61877
-0.0386513
0.0386513
-0.679666
0.277236
0.0488765
-0.0488765
-0.645474
0.387201
0.263835
0.120884
0.00217879
-0.00217879
-0.831292
0.00173041
-0.00173041
0.31771
0.410125
0.0821406
-0.0527525
0.0527525
-0.000643731
0.000643731
-0.0418563
0.0418563
-0.0537982
0.0537982
0.00226634
-0.00226634
-0.0594097
0.0594097
0.00229712
-0.00229712
-0.0451122
0.0451122
-0.000974602
-0.0451557
0.0451557
0.00270156
-0.00270156
0.0475719
-0.0475719
0.00147973
-0.00147973
0.0477143
-0.0477143
-0.255871
-0.000880626
0.000880626
-0.00338944
0.00338944
-0.0499847
0.0827141
-0.0097561
0.0097561
0.00546709
-0.00546709
-0.0583957
0.0583957
0.292035
-0.0179447
0.0179447
-0.0569415
0.0569415
-0.00767323
0.00767323
-0.066041
0.066041
-0.0132907
0.0132907
-0.0788871
0.0788871
-0.021419
0.021419
-0.0937147
0.0937147
-0.687233
0.305059
-0.531095
0.506978
-0.888524
-0.00175429
-0.568259
0.395975
0.068608
0.119948
0.0039138
-0.0039138
0.34422
-0.726077
0.0425614
-0.0290758
-0.968667
1.4076
1.29538
0.253318
-0.052539
-0.0385679
-0.394079
-0.579856
-0.0862676
0.390895
-1.31965
-0.0192252
0.0192252
-0.754323
0.0203627
-0.0203627
-0.000928952
0.000928952
0.307294
-0.355199
-0.00236026
0.00236026
0.0191344
0.0145753
0.596726
0.126412
-0.00671907
-0.0082146
-0.0121723
-0.0957017
0.497157
-0.401456
0.233656
0.0369368
0.0131171
1.02132
-0.0270652
0.0546164
-0.406331
0.442757
-0.488381
-1.00052
-0.218212
-0.0705273
0.0178582
-0.274582
-0.064835
0.0537513
-0.00388052
-0.0140043
0.785433
-0.553994
-0.0364486
0.0634544
-0.0354834
0.0179874
0.15639
0.422264
0.239363
-0.16538
0.211385
0.00864271
0.000784706
-1.26266
0.0279538
-0.143404
-0.229754
-0.0190687
-1.39151
-0.07172
0.264671
-0.351887
0.393305
0.298333
-0.999016
0.0499583
0.0143139
-0.128551
-0.347714
0.463249
-0.0995638
0.00963063
0.0899332
-0.0268055
0.0268055
0.18421
-0.426226
-0.154481
0.126047
-0.0783342
0.054362
-0.0647929
-0.00638124
0.0711742
-0.028588
-0.151352
0.147485
-0.0402235
-0.290375
-0.359188
0.649563
0.0143875
0.0581817
0.150753
-0.0286052
-0.196933
0.0688995
-0.156037
0.309667
-0.0096564
0.0283056
-0.0270965
0.17785
0.00281482
0.25875
0.000124887
-0.000124887
-0.0879703
0.795503
0.0881775
-0.170021
-0.0643003
0.0113475
0.703747
0.722797
0.0193335
-0.0390557
-0.534604
0.00350943
0.137767
0.0908697
-0.679236
0.321573
-0.0560056
0.380237
-0.670611
0.218642
0.512466
-0.0878908
0.0878908
-0.000299842
-1.21705
0.58002
0.637028
-0.211366
0.156118
0.0491878
-0.116165
-0.620423
-0.127452
-0.0443993
0.0551473
0.931612
0.26751
-0.11426
-0.0693873
-0.309189
-0.72967
-0.0812974
-0.267511
0.801274
0.583079
-0.268346
-0.270233
0.560093
0.0207417
0.371736
-0.273403
0.110765
-0.463818
0.324092
0.122674
-0.122674
0.0852499
-0.136801
0.0515507
0.00638864
-0.00225409
0.0196198
-0.345395
-0.383722
0.227437
-0.186369
-0.0410685
0.544598
-1.08029
0.0701438
-1.02652
0.697942
-0.119992
-0.179014
-0.0408152
-0.0787587
-0.483988
0.0519631
-0.2864
0.00505601
-0.0190687
0.376271
-0.00519689
0.0027602
0.001225
0.0105515
-0.0130156
0.00246411
-0.105632
-0.0164359
-0.165185
0.18162
-0.126172
-0.337646
0.0191344
0.348094
0.00394165
-0.37458
0.0827653
0.00245987
0.234018
-0.236149
-0.0120695
0.0120695
-0.00100929
0.00331679
-0.00938792
0.00178919
-0.0546696
0.000773087
-0.00119156
0.254269
0.062046
-0.000891034
0.000891034
0.136285
0.515468
0.00181531
-0.290514
0.426944
1.12789
-0.473887
0.335062
-0.436418
-0.252178
0.0976972
0.230932
-0.229483
-0.00541991
0.0186269
-0.00437566
-0.00831433
-0.18069
-0.379679
0.864726
0.523744
-0.503798
0.200816
-0.00159489
0.219926
-0.0317864
0.00206267
0.000891501
0.0177354
0.232046
0.00130781
-0.000247281
0.720779
-0.65188
-0.248041
0.141096
0.937106
0.000822204
0.00145936
-0.0408551
-0.00569049
0.818193
-0.431403
0.509296
-0.641096
0.899966
-0.600607
0.582405
-0.186429
0.692058
0.00148864
0.00347428
0.0149209
-0.118932
0.14051
-0.214916
0.00925523
0.00314797
0.0639467
-0.0491578
-0.0147888
0.00144495
0.0277081
0.0499895
-0.0776976
-0.0876514
0.00346703
0.000247304
0.00181052
0.471103
-0.427894
-0.000109341
0.000531725
0.984387
-0.404367
0.387552
-0.0058121
0.000275664
0.248932
-0.0563119
-0.0403059
-0.116597
-0.0176022
-0.00354786
0.118525
0.0617392
-0.00169565
0.417024
0.00116327
-0.0038087
0.0038087
0.0088241
-0.0170387
0.000191222
-0.323062
-0.00367956
0.0717115
-0.106896
0.0590446
0.0199017
-0.0664851
0.000496923
0.00250881
0.468872
0.000285056
-0.00429514
-0.0558982
-0.00199749
0.000798755
0.11963
0.198294
-0.711297
0.480553
-0.860232
0.0301296
-0.000366487
-0.709465
0.130426
0.144682
0.597215
-0.0151469
-0.0391033
-0.00387599
-0.00130457
-0.553135
-0.00325594
3.0776e-05
-0.0461504
0.932324
-0.528165
-0.00245965
-0.000817392
-0.0056432
-0.00236035
0.0666569
-0.0223424
0.0223424
-0.0399198
0.0432365
-0.00220613
-0.00764531
0.0541733
-0.0514131
-0.163332
0.0916256
-0.00561743
-0.0128462
0.042523
-0.0161652
0.0611431
-0.0432848
-0.622391
0.569486
0.0279299
-0.00155329
0.335993
-0.169303
-0.0706714
-0.685518
-0.0762986
-0.119146
-0.0931831
0.0911856
0.68311
0.000804065
0.0167149
-0.0152555
0.353287
0.0567346
-0.142884
0.0861497
-0.0713694
-0.616636