/*--------------------------------*- C++ -*----------------------------------*\
| =========                 |                                                 |
| \\      /  F ield         | OpenFOAM: The Open Source CFD Toolbox           |
|  \\    /   O peration     | Version:  2306                                  |
|   \\  /    A nd           | Website:  www.openfoam.com                      |
|    \\/     M anipulation  |                                                 |
\*---------------------------------------------------------------------------*/
FoamFile
{
    version     2.0;
    format      ascii;
    arch        "LSB;label=32;scalar=64";
    class       volScalarField;
    location    "19.3";
    object      p;
}
// * * * * * * * * * * * * * * * * * * * * * * * * * * * * * * * * * * * * * //

dimensions      [0 2 -2 0 0 0 0];

internalField   nonuniform List<scalar> 
2186
(
0.936761
-0.178576
0.122173
1.22961
-0.767029
-0.0350815
0.836217
-0.840659
-0.880931
1.47405
1.18989
-0.753093
-0.852209
1.16942
-0.403863
1.17165
1.19703
-1.12414
0.0171408
-0.735185
1.56705
-0.716191
1.17785
-0.83114
1.16973
1.20491
1.39093
1.05955
0.71615
1.16939
-0.721642
1.16973
-0.672662
-1.16099
-0.762371
0.226273
-1.08252
1.5557
-0.622448
-0.117871
-0.866911
-0.698377
-0.510973
-0.818085
1.03571
1.45765
0.509055
0.678096
-1.39638
-0.857094
-0.727205
1.03114
-0.511071
1.48668
-0.69544
1.10897
-0.559257
1.13616
-0.708824
0.972958
-0.991497
0.757404
0.675515
-0.102022
0.691724
0.619975
0.794028
1.45585
1.35073
-0.915242
-0.844834
-1.05532
1.42613
1.16112
1.33594
1.31472
-1.20087
1.19148
-0.769151
-0.633446
-1.23145
-0.170236
1.16501
0.742127
1.15878
1.16565
1.46022
0.0141832
-0.000804707
-0.777658
1.11131
-0.728444
1.08754
1.32964
1.17793
0.538035
-0.000581647
0.706728
-0.831288
1.15011
-1.31344
-1.3289
0.763045
1.11141
1.19874
-0.725531
1.37217
-0.654305
1.09601
-1.92029
-0.610685
-0.806245
0.702945
1.48405
-0.830533
-0.785314
-0.0384726
-1.51925
-0.778966
1.4288
0.0906384
-0.986917
0.989833
-1.27617
1.17666
-0.0191493
-0.795166
1.30642
-1.16843
0.817182
1.54533
1.39836
0.401093
0.809326
-1.27741
-0.87153
1.08029
-0.921017
-0.570293
-0.800547
0.931984
-0.0483246
-0.82291
0.8611
1.07815
1.11801
-0.573228
-0.783957
0.77217
-0.772502
-0.758536
0.740127
1.19442
1.34485
1.20641
0.688216
1.45593
0.548731
0.449109
0.58314
-0.80144
-1.10629
1.14201
1.15093
0.00268351
0.0300588
-0.675028
-0.733056
-0.267994
-0.292233
0.47756
1.15591
1.1977
1.272
0.547199
-0.236991
-0.763038
1.14217
-1.35178
0.994325
-0.731428
1.1832
-0.728991
0.669924
0.654526
-0.792899
-0.688869
1.28861
-0.48375
-0.852931
-0.905569
1.42407
-1.25671
1.14245
-0.79594
-1.86199
0.200819
1.34174
1.22046
-0.723429
-0.946537
-1.35735
0.243712
1.20052
-0.773582
-0.760861
-0.770989
-1.38676
1.10553
-1.10224
0.681952
0.0144272
1.47038
0.961011
1.06098
1.11293
1.3428
1.17242
1.05938
1.25548
0.535851
-0.7403
-0.702787
0.21267
0.350303
-1.11775
-0.785653
1.18766
1.30163
-0.753627
-0.707555
-1.58328
0.532171
0.815968
0.949261
1.06056
1.28288
-1.37586
1.04978
-0.810314
-0.867628
-0.775669
1.1464
0.859566
1.30891
1.34697
1.26637
1.24341
-0.831177
0.987805
1.27402
-0.861398
1.13252
0.908536
-1.66848
-0.776421
-0.749264
1.31055
1.19426
-0.872525
-1.19645
-0.810846
1.11757
-1.29961
0.88137
1.22342
1.03147
-0.807222
-0.725132
1.14906
0.749368
-0.613545
-0.462654
1.51231
-0.762163
-0.831638
1.01024
1.34853
1.16089
-0.822647
-0.968589
-0.761151
1.05751
-0.878627
0.707991
1.14567
1.18744
-0.04459
-0.443854
1.12416
-0.868298
1.09561
1.35881
1.19055
1.18768
-1.12671
-0.834591
-0.839745
-1.03937
-1.68026
-1.2687
0.540556
-0.404796
0.735331
1.33438
1.36876
1.06092
-0.608345
1.30678
-0.991557
-0.0475412
-1.01603
-0.79927
-0.868169
0.514112
-0.757667
-0.743289
0.283711
1.07493
-0.394942
0.504766
-0.793453
-0.00843173
-0.846562
-0.791471
1.38737
0.0996741
0.0217058
-0.717247
0.952538
0.674926
-0.346979
0.694812
-1.11464
-0.900358
0.789935
1.19581
1.2279
-1.58657
1.32004
1.05274
0.496063
1.40903
1.16671
1.10791
0.525903
-0.482105
-0.807008
1.00926
-0.819506
-0.761654
-1.03056
-0.711041
-0.78059
1.53724
-0.876204
-0.727432
-0.867401
1.16612
-0.742165
-1.58492
-0.820707
0.924012
-0.190728
-1.19483
1.4224
1.48558
1.29144
-0.829502
-0.104711
1.55326
1.17139
-0.951135
0.572348
-0.817704
0.336487
1.34354
1.13335
1.045
1.47045
-0.381619
-0.604607
-0.372504
-0.944634
-1.27239
-0.70514
-0.148173
1.47964
-1.15003
-1.15218
1.15726
0.747325
-0.786073
-1.37131
-0.810972
-1.00462
-1.0912
-0.791036
-0.708542
-0.75441
1.36105
-0.678373
-0.756491
1.18523
-1.09014
1.42702
-1.2888
-1.81779
-0.82139
1.16842
-0.73035
1.1929
1.01253
-1.36564
1.21257
-1.01105
-0.787971
-0.959196
1.17782
1.11266
-0.81638
-0.820206
-1.03113
1.1323
-1.21028
-1.73879
0.637258
1.09944
1.05
0.875697
-0.836186
-0.917794
0.972111
-0.993815
0.978521
-2.19777
1.19114
0.0709894
1.2984
-0.780132
1.01744
0.831483
1.19971
-0.965968
1.1626
-0.861073
-0.785569
1.17148
-1.54217
0.241304
-0.741472
-0.0709556
1.17414
0.243385
0.454422
1.1702
0.359681
-0.0228745
-0.0720615
-0.727757
0.393714
-0.898306
0.835032
-0.560033
1.22644
1.29994
-0.846495
-0.795809
-0.591927
-0.713747
0.548872
-0.855216
0.97557
0.0818076
-0.847562
1.26038
-0.543721
0.496295
0.46029
-0.296778
0.936478
0.468158
-1.05673
-1.78153
-0.292708
-0.655125
1.18546
-2.08267
1.27911
1.39474
1.38215
0.78203
1.32885
-0.757857
-0.641504
1.06843
0.381626
1.15842
-0.699863
-0.840519
-1.50738
0.96292
-0.788057
-2.21202
-0.739453
-0.77825
0.0815524
-1.03932
0.870064
0.839924
-0.594001
-0.816941
0.915461
0.239465
1.29637
-2.03162
-0.0729438
-0.790151
0.897999
-0.0613722
1.33883
1.56905
-1.541
-0.770176
-0.685706
0.4045
-1.34298
1.2041
-0.865814
1.16025
0.896586
-0.799756
1.01608
0.977142
-1.68792
1.04798
-1.01961
-0.730416
-1.20014
-0.743001
-0.966135
-1.3038
-0.722938
1.17189
0.331306
-0.78534
0.755415
1.31843
1.38101
-0.198304
0.923474
-0.53836
0.942536
-0.134356
-1.25391
-0.737049
0.622245
0.953294
1.21885
-1.782
-0.853467
-1.22754
-0.782534
0.051004
0.897085
-1.8172
0.0860504
-1.04224
1.09089
-1.28712
1.11541
-0.87731
-0.718434
1.11968
0.826716
-1.38534
-0.0696223
1.12788
1.46018
1.19275
-1.12778
-1.13939
0.96824
-0.779946
0.955203
-0.498643
0.569718
1.12473
-0.848074
-0.7266
1.17507
-1.00463
1.40814
-0.132341
1.043
0.274697
0.790967
-0.635869
1.40671
-0.72903
-1.2077
1.11206
0.648676
0.619695
-1.00914
-0.728879
-0.946204
0.917791
-0.101854
-0.855108
-1.23629
1.18598
0.512661
-1.03134
0.881227
1.03998
1.14844
-1.97243
-0.645017
-0.730669
1.18448
1.3391
0.656236
1.18079
0.0229701
1.22582
0.251361
-0.767314
-0.555275
1.09576
1.14123
-1.33276
0.996528
-0.731754
0.947925
-0.836217
1.15442
1.12251
1.18653
-2.15834
1.07291
-1.14289
-0.685141
1.33913
-1.70723
-1.84058
1.27943
-1.13299
1.26576
-1.54896
-0.736831
1.2004
0.948028
1.52745
1.16982
-1.26646
1.25112
1.2466
-0.93904
0.772713
-0.0131095
-0.722563
1.66297
-0.810453
1.29753
-0.764066
0.467766
1.17057
-1.06905
1.15485
-1.60473
1.07429
1.12272
1.18475
0.101908
-0.819595
-0.439182
0.750752
0.832534
1.23838
-0.227756
0.973593
-2.19972
-0.315831
-1.33
1.00253
1.31434
-0.790373
-0.878695
-0.0819333
1.4064
-0.181548
0.875546
-0.212832
-1.26338
-0.829397
-0.735137
-1.20857
0.945055
-1.75978
-0.159605
-0.206193
-0.428338
-0.756886
-1.02257
-0.309565
1.13431
1.18946
-1.02149
-0.333193
1.15047
1.10861
1.18998
-1.32306
1.14749
1.22829
1.16829
1.22762
-1.40529
-0.113105
-0.727211
0.755092
1.1743
0.874595
0.320743
-0.0855133
-2.26279
0.127799
1.42811
-0.140772
0.371259
-0.552189
-0.0862793
-0.838827
0.928705
-0.754597
-1.12746
-0.783438
1.16903
1.17256
1.17969
0.0148975
0.469587
1.40448
-0.130881
1.1687
-0.0876463
-0.0151383
0.903757
1.18871
1.25247
0.0431769
1.14114
1.14071
-1.06859
-0.0699322
1.18026
1.19283
1.19021
-0.793232
-0.823554
1.19048
0.777544
1.17296
0.336454
-0.00374389
0.200015
-1.8919
-0.456162
-0.736822
-1.54319
-0.583844
1.19607
1.20068
0.894255
-0.78864
1.16899
-0.121738
-0.0521627
0.00587194
1.17043
1.19537
1.19129
1.20331
1.18014
1.17329
1.1633
-0.0656174
0.0193758
-0.125552
-0.149336
-0.0110963
0.0213603
0.0140965
-0.0988064
-0.128962
-0.101159
-0.10185
1.16513
1.18502
1.17962
1.20229
1.19968
1.1914
1.19438
1.17444
1.17781
-0.130293
-0.0909465
1.19162
1.19104
-0.00753156
1.19319
1.19149
0.0154946
0.277285
-0.110848
-0.729935
-1.72686
1.17365
-0.910054
1.1721
0.798336
1.24739
-0.806654
1.17211
1.10685
1.12121
-0.725314
-0.315714
-0.935179
-0.0822262
0.0756924
-0.722423
1.18633
0.17935
1.26252
1.17709
-0.0553794
1.34653
1.5023
-0.00901417
1.02806
0.834104
1.1697
1.18815
1.18125
-0.80578
0.618618
0.051061
1.17598
1.18663
-0.901835
0.20743
1.17745
-0.0251702
-0.223906
1.17757
-1.08358
1.15477
1.18929
-0.89839
1.18354
0.33681
1.17442
1.24684
-2.01715
1.18973
1.19692
0.104155
0.830125
1.17586
1.17978
0.289341
-0.631555
0.886256
1.51933
1.18548
1.17767
1.18152
0.340047
1.17782
1.16512
1.18261
1.17747
1.17924
1.17657
1.27941
-0.793172
-2.12859
1.17918
1.17222
0.413824
-1.07848
-0.824132
-0.879117
1.03229
-1.40901
-0.729781
0.0965272
1.17452
0.899321
0.133541
0.127456
-0.0533532
-0.607606
-0.740686
0.279324
-0.802213
-1.14918
-0.214946
1.18226
0.183618
1.16963
1.08357
-0.79076
1.4213
-0.527938
-0.927949
0.928084
1.30481
0.593637
-0.782169
1.17115
0.250763
1.1802
-0.878748
1.18057
-1.08005
1.17205
0.167072
-0.865537
1.18251
1.19814
1.11026
0.22192
-0.77678
-0.594176
0.245874
1.19508
1.06646
0.266096
1.17141
1.21585
1.16356
0.342012
-1.70681
-0.507277
-1.53548
0.488898
1.17818
-0.0644947
1.17675
-1.44698
1.17321
1.21196
1.18434
-0.0701714
-0.0484525
1.20973
-0.90362
1.18641
1.18976
0.178209
-0.839456
1.10708
1.31172
1.16978
1.16505
0.382955
0.179086
1.14708
0.582402
1.18466
1.01563
-0.775598
-0.828154
1.00889
1.42103
1.17307
0.514067
-0.821146
0.476461
-1.60943
-0.735567
1.16062
-1.11565
1.15695
-1.21476
-0.799257
-0.765866
0.594884
-0.888886
-0.560775
-0.563167
1.17023
-0.780359
1.07735
-0.813543
-0.00174621
0.0865658
0.1228
-0.570151
1.14248
0.166754
-0.644337
-0.255622
-0.862063
1.16483
-0.750299
0.0995888
-1.37135
1.25579
-0.351332
-0.810687
1.24245
1.16176
1.15261
0.653535
-0.744
1.17672
1.20303
-1.48136
-0.748515
1.1696
0.966706
1.42997
1.19034
-1.25274
-0.887054
-0.762542
-1.07566
-0.880162
-0.786958
-0.0298041
-0.940749
0.97117
0.149237
1.18195
1.3862
1.16843
-0.779892
-0.945472
1.17179
-1.23635
-0.656964
1.15489
-0.174582
-0.699859
-1.51687
0.0980566
1.11661
1.08682
-1.28099
1.01294
0.836371
-1.53399
1.15995
-1.26909
0.974151
-0.669055
1.15942
-1.68518
0.594689
1.17297
1.26872
-1.52057
-1.42713
0.993526
1.54786
1.19337
1.19138
-1.07529
1.41484
-0.73676
-0.361586
-0.646492
0.641738
-1.64627
1.28488
1.33221
-0.818525
-1.45988
1.16885
-0.743105
1.02648
1.20256
1.13486
-1.44414
1.17323
-0.0527351
1.20144
-0.0319236
-0.260755
-0.000312863
1.1765
-0.0543833
-0.350815
-0.488944
1.17731
-0.479146
1.36845
0.433287
1.50577
1.15985
-0.736488
1.15679
-0.734312
1.14319
1.14462
-0.25213
-0.492998
1.30212
1.15997
1.40428
1.12507
0.254265
1.12743
1.16432
1.03237
1.18025
-0.830474
-0.858972
-1.256
1.27476
-1.54294
-0.764142
-0.729682
-1.62553
-0.245173
-0.0158184
1.03887
-0.0447161
1.13179
1.18528
-0.75288
-1.07439
-0.798889
-1.24913
-0.822445
-0.736829
1.17579
-1.62492
1.19014
1.40788
1.23146
-0.0661912
1.1968
1.1029
-1.45267
1.13677
1.15419
-0.785225
1.15433
1.11609
-0.0437434
-0.926743
1.63126
-1.80764
-1.07157
-0.922578
0.408095
1.15336
-1.1132
-0.848104
-0.721074
1.31064
-1.02642
1.02684
1.18725
1.16081
-1.27597
1.14653
-1.59995
1.18627
1.20081
-0.301141
1.19119
0.668722
1.16596
0.884472
-1.39096
0.047608
0.0393735
0.0955724
1.4187
-0.138205
1.20215
1.57449
-0.672334
-0.0641148
1.24024
-0.0681178
1.23701
-0.0370469
-0.0601877
1.23639
1.24085
0.596481
-1.20687
0.934968
-0.627623
-0.798215
-0.553607
1.19642
1.17362
1.59231
-0.782027
-1.09663
0.914117
-0.94065
1.24946
1.16462
1.16694
1.16381
1.13401
-1.90356
-0.788503
-1.098
0.980082
1.09148
-1.66995
-0.741657
-0.815573
1.19011
1.20953
-1.29897
-1.45265
1.2108
-1.28149
0.36561
0.948609
1.10026
-0.222601
-0.968944
-0.0922272
-0.82729
-0.66582
-1.97661
-1.60991
1.54213
1.55128
-0.701714
-0.779467
1.18961
1.16633
-0.884168
0.102706
-0.185432
0.825023
1.27142
-1.26297
1.1814
-1.37245
-0.956964
-0.789245
-1.04549
-0.815792
1.16028
-0.812782
-1.39543
1.54445
-0.827628
1.1821
1.40872
-0.742356
1.21883
1.42361
-0.755191
1.42942
-0.840038
-0.976313
1.19675
0.167331
1.18913
1.18444
-0.843317
1.23541
0.319259
-2.06443
1.2173
1.20682
-0.72174
-1.15614
1.11802
1.17488
-0.831577
-1.41266
1.46998
-0.842054
1.08106
0.102027
1.11885
-0.753199
-2.14693
-0.81757
-0.744627
1.27645
1.20947
1.46062
1.39224
1.15935
1.23662
1.24655
-0.812353
1.31782
1.31814
-0.760704
-0.841265
-0.833345
1.5113
-1.68234
-0.953474
0.143461
1.11846
-0.764066
-0.667833
1.2031
1.1961
-0.823125
-0.749059
-0.924037
0.189563
-1.39098
-0.760009
-0.806731
1.07119
1.06978
-0.738884
-0.311326
-0.691674
1.02195
-0.840966
-0.72872
-0.801868
1.12191
-1.39406
-0.752975
1.50012
1.0753
0.566989
1.37073
0.0571272
1.15674
1.18723
1.29911
1.38346
-0.223238
0.861807
1.1903
0.440979
-0.796384
1.60437
1.14197
1.09006
1.23977
-0.757673
-1.72285
1.03423
0.975679
1.14209
-1.93098
-1.83805
1.16446
-0.797931
1.00483
-0.0284991
1.6028
-0.792068
0.916628
0.915391
-0.731194
-0.78827
-1.08621
1.23732
-0.733508
-0.782749
0.878477
0.798555
-1.07433
1.24425
1.01742
-0.735733
-0.604767
1.12811
-2.11539
-0.785042
-0.905212
-0.722544
-0.854509
1.15482
1.18821
-2.13243
0.79677
1.18166
1.52437
0.454444
0.470206
0.194921
1.06223
-0.275401
-0.729452
-1.49075
-0.436269
-0.727645
1.16752
-0.724046
0.359871
-0.782136
0.730256
0.74819
-0.725278
0.815802
-2.06964
0.675481
-0.723355
0.655054
-0.730443
0.56851
-0.778869
0.570849
-0.72165
0.998019
-1.43523
-0.723765
-0.732065
-0.780039
1.19157
0.268161
-0.761376
-0.783467
0.226268
0.277698
-0.719665
-0.788055
-0.804463
0.0588546
-0.797518
0.0625465
-0.82916
-0.144697
-0.882613
-0.109322
1.05963
-0.107895
-1.66671
1.15556
0.0782631
-0.106344
0.62882
1.14838
-1.27186
-2.00659
-0.779295
-1.2642
1.07129
1.60191
-0.998574
-0.171474
0.196703
-0.816242
-0.238741
-0.191824
1.14667
-0.719614
1.13307
-1.16273
1.67011
0.630964
1.59044
-0.745498
1.3656
-0.39464
1.19018
-0.923102
-0.777309
1.25145
1.17363
-1.39221
-0.782355
-0.728249
1.14765
-0.721107
1.16027
-0.924784
-0.867901
-0.818717
1.48563
1.21453
1.28812
1.19202
1.19277
-0.0364598
-0.451539
1.39131
-2.04097
-0.774242
1.60197
-0.742371
1.08272
1.13352
1.54939
1.60079
-0.748156
-1.25023
1.21425
0.402463
-0.281003
-0.684636
-1.12794
-2.34085
-0.745478
0.726565
-1.16267
1.37662
-1.25578
1.22665
1.31352
1.21418
-1.0818
-0.762386
-0.907969
1.26566
-0.809962
1.35894
-0.569547
-0.906571
1.4239
1.47829
-0.769934
0.265537
1.12434
-1.05084
-0.949268
0.841366
1.45987
1.40057
-0.920897
1.05012
1.02326
-0.776549
1.41193
0.461514
-0.741651
-1.15665
-0.0874878
-0.0644059
1.29789
-0.729101
0.439466
0.119832
-0.0928128
-0.65396
-0.770449
1.16526
-1.35676
1.19853
0.0708756
0.261198
0.869761
0.426639
-0.766475
-0.461202
-0.989392
-0.103254
0.134215
-1.04812
1.11423
-1.66261
-1.69479
1.18722
-0.98112
-0.762011
1.18961
-0.823563
1.15105
-0.0100919
-0.80108
-0.175791
0.969055
-0.660662
-1.44922
1.06703
-0.844514
1.25119
-0.399561
-0.867409
-0.798999
-0.779546
1.65725
-1.55813
1.30212
0.17638
1.14074
1.36482
0.90014
1.20354
1.34374
-0.00495732
-1.48469
1.14961
1.27019
1.53367
-0.820391
1.22436
0.847567
-0.837016
0.964692
1.38271
-0.42974
1.53136
0.310261
-0.68564
1.01014
-0.84226
-0.727268
1.12333
-0.317279
1.23598
1.23045
1.13477
-0.71741
1.0818
1.44931
-0.956886
-0.186864
-1.4423
-1.06447
-0.856909
-0.784388
1.52264
0.92481
-0.751902
1.08553
-0.844109
-0.770763
1.44316
1.41167
-1.34995
-1.18616
-0.780095
-0.827156
1.15427
-0.758917
0.244088
-0.68105
-0.315654
1.24262
-0.838458
1.57741
1.22318
1.05837
1.19992
1.49051
-0.945361
-0.845498
1.19414
1.32028
-0.634516
1.18568
-1.72466
-0.816145
-0.823969
1.26617
1.29693
-0.821853
-0.771897
0.72537
0.0861799
-0.985339
1.15698
1.14121
-1.19431
1.1821
1.22553
-1.10901
-0.762668
-0.737729
-0.810799
-0.825344
1.48447
-0.656353
1.09396
-0.765308
1.48028
1.04745
1.04462
1.12159
-2.21763
-1.18886
-0.805239
0.698548
-0.752296
1.09391
0.467169
-0.450102
1.03775
1.17885
1.21528
1.18382
-0.0667464
1.21576
-0.0393743
0.589031
0.969285
-0.433273
-0.760338
-0.820538
-0.554149
1.18782
1.1423
1.18769
-1.49044
-0.626355
-0.799883
-0.665578
1.18431
1.47135
1.19798
-0.756495
-0.706009
-1.02105
-0.405315
-0.780944
-0.780542
-0.0617073
1.17027
-0.644566
-0.737817
0.0873452
0.0745419
0.89367
-2.08127
-0.795316
-0.945013
1.11329
1.60607
0.149327
1.27975
1.666
0.831816
1.38622
-0.764746
0.0837809
1.56615
-0.790639
0.483014
-0.748273
-0.829985
-0.724027
-0.732651
1.15763
0.906174
1.37581
1.33684
0.0194287
0.952936
0.195149
0.0607934
-0.786236
1.28813
0.895448
1.19324
1.20951
-0.1109
-0.14614
1.20769
-1.1645
-0.781925
-0.735119
-0.734638
0.765102
-0.730449
1.13915
0.842653
-0.790354
1.40367
-0.752863
-0.183736
1.16014
-0.690244
-0.81073
-1.84085
0.766574
-0.741104
-0.952647
1.08965
1.20126
-0.111057
0.198796
-2.02348
-0.783079
-0.805858
-1.15034
-0.0437248
0.775013
-0.935805
-0.728738
1.44773
0.420262
0.52358
-0.726751
-0.835607
1.1774
1.21852
0.694623
0.710118
-0.724098
-0.807815
-0.614699
0.616353
0.61793
-0.722004
1.00777
0.300937
-0.719938
1.62983
-0.724622
-1.54801
-0.825292
-0.674138
1.01621
-0.742143
-0.750395
-0.787706
0.1796
-0.779557
0.154115
-0.698789
-0.0760838
1.35753
-0.836604
-0.00314876
-0.813286
-0.0275621
1.52617
1.56571
1.41352
1.18371
1.38969
-0.582811
1.16882
-0.756135
1.21609
-0.780108
-0.790314
1.43435
-0.993563
0.650442
-1.24597
1.57216
0.0875979
1.50955
0.764735
0.936685
-0.744252
-0.74727
-0.778284
-0.862139
1.48686
1.37421
1.1662
0.803184
1.17247
1.0408
0.983489
-0.721337
-0.821447
0.415725
0.184986
0.957684
1.18607
0.14068
-0.739817
-0.719535
-1.21013
-0.777567
-1.42225
1.51331
1.20424
1.18034
-0.0853303
-0.125605
1.20365
-1.12822
-0.783656
-2.22727
-0.830382
0.945684
-0.735509
-0.724968
-0.146689
1.1786
-1.47646
-0.823841
1.17188
0.783182
0.890911
1.16964
-0.781109
1.03516
1.36235
1.01235
-0.778281
1.1681
0.52828
0.615575
-0.830777
-0.731623
1.62482
0.410497
-0.904065
0.179219
1.07297
1.13882
-0.795881
-1.13409
-0.0750889
-0.665305
-0.719308
-0.754251
0.0365637
1.16471
-0.914748
1.16105
1.45069
1.26409
1.16084
1.2595
1.322
1.174
-1.14752
-0.489233
-0.276608
-0.853863
-0.757603
-0.724082
1.32404
1.2231
-0.838811
1.14014
-0.663662
-0.147006
-0.724568
-0.398033
0.709004
-1.06763
1.1612
1.07181
-1.07385
-0.228964
1.51263
-1.37799
-1.15707
-0.931831
-0.757918
-0.697401
1.21855
0.932515
1.26902
-0.990526
-0.936373
-0.755248
-0.229498
-0.839868
-1.42731
-1.10354
-1.81086
1.07652
-0.606876
1.62177
-0.971259
-0.428233
-0.812444
-0.723676
1.1055
-0.835251
-0.954603
-0.796497
-0.22323
1.37161
1.39389
-2.22987
-1.29442
0.984143
-0.796918
-0.738341
1.27947
-0.999382
-1.45443
-0.842235
0.909019
-0.287583
-0.839703
1.16495
0.158676
-0.748751
1.17638
-0.693517
-1.2324
-0.966219
-0.798403
0.0599182
-0.839159
1.49644
-0.79295
0.31858
-0.781282
0.951814
-0.583136
-0.777693
0.805962
0.936031
1.23168
1.1388
1.35377
-0.739507
1.02187
0.722124
-1.01768
1.09904
-0.240935
-0.593896
-1.65568
1.35302
1.3395
-0.638216
-0.747642
-0.98018
1.18277
-0.726329
0.199385
-1.09238
-0.72886
1.45976
1.18236
-0.745594
-0.722073
-0.746234
-0.739194
1.06654
-0.769914
1.14707
0.378633
0.866624
0.996414
-0.70641
-0.77307
1.10618
-0.726047
0.0405685
1.45497
-0.802839
-0.736247
0.981261
-1.0207
-0.738598
-0.057616
-0.81298
1.52814
-0.486593
0.290935
-0.747612
1.47397
-0.750966
-0.71642
0.801079
-1.04913
-0.780261
1.50928
0.831532
1.17982
-0.747323
1.40936
-0.272664
-0.706939
-0.754847
-0.758833
-0.754188
1.44261
0.732213
-0.820497
-0.751555
-0.835109
1.29926
-0.662666
1.45062
-0.780603
0.872772
-0.734037
0.524762
0.694639
0.659691
0.577391
0.352694
-0.689138
1.17765
-0.756974
-0.559992
-0.97179
0.440562
1.49077
-0.185449
-0.742846
-0.766274
-0.735679
0.417046
-0.965177
-0.732553
1.01715
0.348312
-0.740545
1.5551
-0.837138
-1.32486
1.53241
-0.736993
0.301499
-0.677084
-0.723833
-0.731179
1.53025
-0.719407
1.45075
-0.729945
-0.758902
1.348
-0.112635
-0.711812
0.722043
-0.813581
0.165991
-0.285096
-0.732481
0.981541
-0.889271
-0.732646
-0.724931
-0.725258
-0.786334
1.01959
-0.00843208
-0.364732
-0.74291
1.47831
-0.695036
-0.732046
-0.706053
-0.00596877
-0.854541
-0.710691
-0.741049
0.0316275
1.42455
-0.756593
-0.7762
-1.02259
-0.618837
-0.0900796
-0.791796
1.56407
1.49813
0.568457
-0.817143
-0.783488
0.482426
-0.783684
1.57656
0.360484
1.24496
0.858131
1.45573
0.24124
-0.866369
-0.848367
0.0865442
-0.757253
0.0870584
0.0486216
-0.730102
1.47396
-0.192665
0.371822
-0.338011
-0.773208
-0.850561
)
;

boundaryField
{
    frontback
    {
        type            empty;
    }
    Top
    {
        type            zeroGradient;
    }
    outlet
    {
        type            fixedValue;
        value           uniform 0;
    }
    bottom
    {
        type            zeroGradient;
    }
    Inlet
    {
        type            zeroGradient;
    }
    rectangle
    {
        type            zeroGradient;
    }
}


// ************************************************************************* //
