/*--------------------------------*- C++ -*----------------------------------*\
| =========                 |                                                 |
| \\      /  F ield         | OpenFOAM: The Open Source CFD Toolbox           |
|  \\    /   O peration     | Version:  2306                                  |
|   \\  /    A nd           | Website:  www.openfoam.com                      |
|    \\/     M anipulation  |                                                 |
\*---------------------------------------------------------------------------*/
FoamFile
{
    version     2.0;
    format      ascii;
    arch        "LSB;label=32;scalar=64";
    class       volScalarField;
    location    "13";
    object      p;
}
// * * * * * * * * * * * * * * * * * * * * * * * * * * * * * * * * * * * * * //

dimensions      [0 2 -2 0 0 0 0];

internalField   nonuniform List<scalar> 
2186
(
0.69767
-0.448955
-0.142072
0.988969
-1.02476
-0.0292484
0.584585
-1.12616
-1.10461
1.24331
0.977814
-1.06064
-1.15073
0.937088
-0.677404
0.945247
0.968917
-1.58149
-0.0049134
-0.915213
1.34043
-0.872023
0.949017
-1.14212
0.939562
0.963233
1.16283
0.813565
0.515535
0.940018
-0.896586
0.93946
-0.853612
-1.04146
-1.04256
0.0339287
-0.940039
1.32968
-0.995927
-0.0324565
-1.17603
-0.866796
-0.791316
-0.951716
0.826285
1.22601
0.251306
0.422445
-1.4263
-1.19979
-0.904288
0.823592
-0.785631
1.26354
-0.829592
0.864385
-0.84058
0.892422
-1.1449
0.735139
-0.755417
0.55233
0.472022
-0.0341862
0.488409
0.362972
0.591932
1.22974
1.12549
-1.14006
-1.13325
-0.817372
1.19736
0.918094
1.1152
1.07774
-1.09456
0.965158
-1.04454
-0.888602
-2.02348
-0.0541828
0.934198
0.538139
0.928433
0.935561
1.23732
-0.0192513
-0.220372
-1.06332
0.866417
-0.939332
0.845446
1.09677
0.94992
0.340876
-0.267506
0.505054
-1.13523
0.906774
-2.3938
-2.32797
0.566898
0.873256
0.971002
-0.994251
1.15282
-0.857132
0.851016
-1.51451
-0.817738
-1.11714
0.448186
1.2608
-1.05133
-1.0488
-0.163448
-1.40536
-1.06519
1.19915
-0.0981964
-1.42897
0.783296
-1.91273
0.950581
-0.160761
-1.08009
1.0687
-1.66305
0.565083
1.31785
1.16516
0.139952
0.55688
-2.10294
-1.25319
0.834738
-1.11886
-0.82503
-1.0737
0.727107
-0.316223
-1.10206
0.609689
0.836711
0.877429
-0.790439
-1.05252
0.51731
-0.946491
-1.00778
0.485781
0.967102
1.10876
0.964978
0.433315
1.23368
0.348365
0.245242
0.325794
-1.07565
-1.49739
0.920848
0.907894
-0.00715659
0.00237138
-0.994468
-1.01892
-0.268508
-0.310274
0.280482
0.912538
0.969636
1.03296
0.350144
-0.489355
-1.02271
0.921774
-1.73572
0.786763
-1.01518
0.95518
-0.908207
0.468767
0.45592
-1.06944
-0.882668
1.07272
-0.755295
-1.15749
-1.2394
1.1986
-1.88362
0.900815
-1.07141
-1.33408
0.0108928
1.11826
1.0073
-0.878945
-1.28313
-0.797116
-0.0187726
0.97156
-1.06728
-0.99541
-1.06898
-1.10231
0.887127
-1.25584
0.425003
-0.233967
1.24782
0.755241
0.852548
0.868341
1.12481
0.942662
0.813049
1.04033
0.282896
-0.966413
-0.894108
0.0202947
0.089627
-1.58801
-1.05987
0.97547
1.0675
-1.02029
-1.00196
-1.69963
0.274547
0.563173
0.706086
0.81421
1.04428
-2.11133
0.80304
-1.08453
-1.20038
-1.03187
0.935297
0.656435
1.09229
1.11762
1.05122
1.02919
-1.1128
0.739528
1.05442
-1.16201
0.92211
0.704332
-2.00432
-1.04646
-0.991878
1.09377
0.967328
-1.19045
-1.29418
-0.407091
0.873324
-2.06164
0.676454
1.00914
0.792061
-1.07591
-0.909239
0.916786
0.550178
-0.786102
-0.752668
1.28818
-0.99547
-1.11258
0.764047
1.11254
0.92929
-1.11512
-1.11048
-0.974214
0.846915
-1.1933
0.453469
0.912705
0.946742
-0.311215
-0.638426
0.905874
-1.15034
0.851005
1.12322
0.963276
0.96158
-0.440286
-1.20586
-1.13418
-0.893126
-1.55804
-1.81293
0.28367
-0.674277
0.534938
1.09835
1.14941
0.850428
-0.831179
1.08644
-1.33365
-0.20658
-1.40766
-1.07415
-1.19095
0.254813
-1.00946
-0.948392
0.0921651
0.861465
-0.361911
0.309065
-1.09973
-0.291406
-1.15484
-1.08349
1.16064
-0.0886388
-0.187148
-0.916345
0.70328
0.474244
-0.619749
0.444239
-0.637244
-1.24346
0.588454
0.968119
1.01406
-1.03438
1.09379
0.806508
0.299994
1.17624
0.94115
0.872684
0.26856
-0.288188
-1.08084
0.800961
-0.979973
-1.01355
-1.40559
-0.922411
-1.07033
1.31083
-0.390004
-0.904857
-1.17066
0.941093
-0.984301
-1.82472
-1.21385
0.673979
-0.250972
-1.60475
1.20016
1.26108
1.05339
-1.11079
-0.195861
1.32565
0.945277
-1.30633
0.371542
-1.09341
0.0745958
1.12325
0.922634
0.803392
1.23946
-0.624741
-0.332127
-0.368927
-0.793701
-1.58527
-0.855281
-0.0899475
1.25511
-1.73041
-1.36247
0.932688
0.493317
-1.05408
-2.21085
-1.08567
-1.4231
-1.50108
-1.06613
-0.988943
-0.989948
1.12904
-0.289396
-0.991046
0.957085
-1.48019
1.19521
-1.64886
-1.81326
-1.25102
0.93869
-1.01332
0.966311
0.764868
-0.591204
0.975116
-1.52449
-1.0668
-1.30559
0.935517
0.877129
-1.09129
-1.09649
-1.42345
0.921748
-1.62934
-1.74364
0.439041
0.88535
0.808851
0.623962
-1.12109
-1.10747
0.76587
-0.997933
0.73966
-1.71654
0.963723
-0.117062
1.06031
-1.06495
0.769932
0.633019
0.972498
-1.29325
0.939921
-0.671876
-1.06524
0.942816
-1.42833
0.0329436
-0.975039
-0.302988
0.947056
-0.00208635
0.192319
0.946814
0.165978
-0.261481
-0.0359617
-0.904231
0.150504
-1.23843
0.629425
-0.860374
1.0128
1.06217
-1.13569
-1.07214
-0.355081
-0.869174
0.339448
-1.16845
0.769334
-0.161081
-1.1406
1.04313
-0.315869
0.30103
0.201392
-0.247619
0.73136
0.273207
-0.700312
-1.37179
-0.15616
-0.754149
0.959186
-1.57204
1.04479
1.16075
1.14756
0.579394
1.11111
-0.997777
-0.810843
0.830809
0.120874
0.93332
-0.852482
-1.13317
-1.8288
0.712654
-1.06696
-1.82732
-0.896536
-0.934649
-0.00837225
-1.15879
0.665793
0.637397
-0.889062
-0.950362
0.665282
-0.0232094
1.08038
-1.61488
-0.256886
-1.06803
0.694087
-0.240883
1.10279
1.34024
-1.87473
-1.02781
-0.963067
0.186221
-2.27049
0.963044
-0.970559
0.917413
0.68952
-1.07643
0.80562
0.767737
-1.86823
0.806638
-1.01249
-0.921263
-1.3228
-1.03206
-1.06167
-1.92647
-1.0208
0.941295
0.137398
-1.06576
0.501801
1.08964
1.14645
-0.464809
0.670878
-0.166367
0.69293
-0.303333
-1.55536
-0.946157
0.422807
0.746577
1.00484
-1.68792
-1.14489
-1.53345
-1.07817
-0.215068
0.646633
-1.8839
-0.000519318
-1.43858
0.881127
-0.893605
0.895661
-0.565784
-0.565272
0.885902
0.573189
-1.98706
-0.256153
0.90712
1.22925
0.965101
-0.819143
-1.66825
0.719016
-0.461241
0.705233
-0.790069
0.372042
0.90465
-1.15117
-0.90629
0.963035
-1.33219
1.18807
-0.0732048
0.796203
0.0798957
0.536346
-0.871038
1.17598
-0.91343
-2.05348
0.902203
0.449109
0.418666
-1.40464
-0.884394
-1.00256
0.713969
-0.279701
-1.09645
-1.02078
0.958904
0.311761
-1.48291
0.674797
0.831388
0.927404
-1.81639
-0.810119
-0.949471
0.957556
1.12134
0.40103
0.953309
0.149494
0.986699
0.127587
-0.95735
-0.434557
0.858686
0.90547
-1.73206
0.789768
-0.921664
0.739713
-1.1329
0.942996
0.88035
0.960098
-1.72733
0.862912
-2.00432
-1.00802
1.10781
-1.94719
-1.43621
1.06192
-1.33513
1.05061
-2.03919
-0.934549
0.987858
0.698415
1.29919
0.941512
-2.01745
1.01165
1.03138
-0.563487
0.571681
0.103536
-0.943137
1.43666
-1.08486
1.08121
-1.02243
0.206234
0.941123
-1.4761
0.933148
-1.46916
0.86544
0.886051
0.955801
-0.00410088
-1.09976
-0.717326
0.498425
0.573762
1.0005
-0.28211
0.767417
-1.90665
-0.553955
-1.74599
0.754448
1.07716
-1.2928
-1.1575
-0.0822238
1.18305
-0.0994809
0.67197
-0.0294743
-2.49095
-1.10977
-0.888581
-0.878591
0.739759
-1.5474
-0.237474
-0.390722
-0.665635
-0.913738
-1.40415
-0.3093
0.913704
0.962064
-1.4227
-0.542326
0.927472
0.871935
0.962866
-2.20648
0.925355
0.992363
0.936558
0.987264
-1.08539
-0.338194
-0.90949
0.554194
0.942152
0.623233
0.0592114
-0.211853
-1.80585
0.00753332
1.19603
-0.344736
0.0864539
-0.786036
-0.343346
-1.12735
0.722833
-1.00614
-1.50906
-1.06198
0.943454
0.943709
0.953685
-0.0170972
0.257131
1.17142
-0.169399
0.938906
-0.265538
-0.0343807
0.698966
0.96154
1.03796
-0.0335388
0.92052
0.918908
-1.35511
-0.308816
0.953656
0.966184
0.963085
-1.07023
-1.11431
0.962884
0.52472
0.944299
0.144181
-0.190141
0.033131
-1.58138
-0.395919
-1.02463
-1.56432
-0.117353
0.969584
0.974285
0.692743
-1.08307
0.943956
-0.188716
-0.148335
-0.00328739
0.941327
0.967965
0.964076
0.976885
0.95399
0.948099
0.938581
-0.281224
-0.201174
-0.0360453
-0.0755477
-0.00761471
-7.77277e-05
-0.00401245
-0.0433209
-0.122193
-0.219941
-0.324867
0.935958
0.95582
0.951033
0.973896
0.972035
0.964488
0.966985
0.944767
0.951758
-0.0941984
-0.100823
0.964726
0.963718
-0.0059625
0.96567
0.965033
-0.0723971
0.0369763
-0.260921
-0.963639
-1.27875
0.946565
-1.24953
0.942108
0.54357
1.00754
-1.08139
0.944464
0.88708
0.88471
-0.90521
-0.00727142
-1.30109
-0.289744
-0.112862
-0.889986
0.959547
0.0128306
1.03636
0.949675
-0.241435
1.12801
1.27702
-0.185681
0.817959
0.582234
0.944103
0.961577
0.952669
-1.07794
0.420401
-0.0269255
0.948838
0.959224
-1.24427
0.0206565
0.951787
-0.0460159
-0.409332
0.949815
-1.04918
0.932268
0.962738
-1.08562
0.956166
0.0491767
0.944974
1.02757
-1.81048
0.962274
0.968675
-0.0070356
0.625067
0.947506
0.952818
0.0683318
-0.79963
0.63551
1.29125
0.960137
0.949356
0.954063
0.0311831
0.949307
0.933948
0.956921
0.949779
0.952331
0.948984
1.05671
-0.563763
-2.08238
0.951107
0.945113
0.211613
-1.01361
-0.489953
-0.604984
0.819869
-1.53563
-0.529731
-0.000596187
0.947305
0.648424
-0.00042947
-0.00548452
-0.109949
-0.484865
-1.12694
0.0102838
-0.354549
-1.78251
-0.39549
0.954292
0.00838727
0.941471
0.866676
-1.06263
1.20051
-0.421728
-1.41753
0.681791
1.08814
0.396247
-1.06384
0.946925
0.0160286
0.95275
-1.317
0.95311
-1.43105
0.94528
-0.0476295
-0.55583
0.955192
0.969423
0.895056
0.0564385
-1.06398
-0.933889
0.144436
0.967772
0.850838
0.0755491
0.945439
0.988622
0.93852
0.320222
-2.0042
-0.774817
-2.00876
0.228907
0.951402
-0.031574
0.947988
-2.28281
0.945573
0.985162
0.956145
-0.00559796
-0.00456817
0.982237
-1.22672
0.958887
0.961819
-0.0875904
-1.12419
0.897192
1.09503
0.942672
0.940911
0.183998
0.372392
0.915474
0.325835
0.956834
0.768041
-1.03869
-1.10723
0.797932
1.1895
0.947421
0.254859
-0.442881
0.199335
-1.58743
-0.268468
0.929348
-1.14044
0.933194
-1.7117
-1.07479
-1.01366
0.390458
-1.18548
-0.271564
0.279454
0.942776
-1.06348
0.8685
-1.08828
-0.268983
0.206068
0.00508488
0.0262717
0.920554
0.159931
-0.891116
0.223867
-1.35692
0.935246
-0.0206711
0.00288474
-2.36225
1.0404
-0.311597
-1.08415
1.01677
0.932704
0.921957
0.396678
-1.01731
0.952075
0.97964
-1.16051
-0.966534
0.942114
0.717888
1.20925
0.963143
-0.81977
-0.313384
-1.02224
-1.47416
-1.19884
-1.0661
0.000454605
-1.24786
0.722423
-0.115007
0.953054
1.16543
0.943793
-1.07014
-1.26986
0.945938
-0.694457
0.0685716
0.923667
-0.400614
-0.920928
-2.17542
0.0121963
0.897963
0.870045
-0.955817
0.774451
0.633247
-1.1224
0.92837
-1.68185
0.765052
-0.887328
0.919964
-1.13951
0.335522
0.946482
1.05372
-2.25913
-1.84277
0.784344
1.3211
0.966903
0.978663
-0.57724
1.18249
-0.943677
0.161047
-0.937096
0.386145
-2.10705
1.05924
1.09559
-1.0937
-1.14213
0.943529
-1.08708
0.779408
0.975016
0.916718
-2.155
0.947187
-0.0138552
0.974135
-0.0140234
0.14235
-0.186903
0.950081
-0.148684
-0.529761
-0.11588
0.941725
0.184401
1.14979
0.174046
1.281
0.9486
-1.18699
0.924833
-0.938334
0.922035
0.923605
0.0954818
-0.0988117
1.08577
0.937218
1.18377
0.905298
-0.0102902
0.907902
0.931632
0.819231
0.953751
-1.08159
-1.17063
-0.807742
1.04146
-1.30711
0.0276295
-0.921375
-1.33759
-0.0443142
-0.113222
0.830955
0.0822225
0.89808
0.950365
-0.979551
-1.30002
-1.22136
-1.39951
-1.32381
-0.934119
0.951487
-1.67824
0.963439
1.1744
1.00286
-0.272324
0.969449
0.884247
-1.37908
0.902309
0.931576
-1.05603
0.930921
0.90581
-0.0766128
-1.28195
1.40529
-1.51505
-1.48569
-1.27619
0.148289
0.923346
-1.55868
-0.555833
-0.890338
1.08825
-0.130483
0.819154
0.963499
0.925902
-1.30725
0.909288
-2.083
0.960161
0.974269
-0.499677
0.963899
0.469842
0.932981
0.632305
-2.42544
-0.00052019
6.01694e-07
0.0333159
1.19782
-0.103024
0.980154
1.34784
-0.546577
-0.0101398
1.01128
-0.0146079
1.00896
-0.0108227
-0.0169691
1.01019
1.01481
0.340577
-1.59995
0.729796
-0.806004
-1.12554
-0.722718
0.970242
0.938846
1.36787
-1.06542
-0.398142
0.663853
-1.30689
1.02826
0.952458
0.930179
0.939862
0.89892
-1.95214
-1.06733
-1.50542
0.771519
0.874745
-2.11957
-0.944497
-1.09049
0.963306
0.976576
-1.09901
-1.96532
0.98446
-0.827184
0.162292
0.743195
0.890655
-0.338559
-1.35224
-0.306262
-1.11556
-0.804804
-1.95989
-1.19412
1.31657
1.32265
-0.911747
-1.02816
0.962046
0.938853
-1.20438
-0.162292
-0.456799
0.622563
1.04709
-1.51373
0.95518
-0.759472
-1.33245
-1.26228
-1.45675
-0.971118
0.926556
-1.08287
-1.60492
1.3186
-1.10958
0.955576
1.18858
-0.949205
0.97835
1.19204
-0.993187
1.20691
-1.12803
-1.35434
0.983481
0.104415
0.947036
0.958697
-1.13211
1.00271
0.0553154
-1.89425
0.992089
0.965757
-1.0086
-1.55427
0.900946
0.948805
-1.1133
-2.36486
1.24555
-1.12909
0.866105
-0.0839847
0.880762
-1.03595
-1.79195
-1.09307
-0.977139
1.0608
0.975729
1.23103
1.17165
0.948223
1.01113
1.03267
-1.08724
1.10058
1.08124
-0.992338
-1.1268
-1.1293
1.28494
-1.28398
-1.30856
0.102317
0.908796
-1.00305
-0.860041
0.990647
0.954609
-1.09976
-0.962162
-1.265
0.0105987
-2.35435
-0.998616
-1.08152
0.862817
0.824011
-0.936894
-0.489866
-0.976185
0.814861
-1.12822
-0.952841
-1.07677
0.877269
-1.7952
-0.97255
1.27252
0.837083
0.307052
1.13607
0.277984
0.913788
0.963062
1.06685
1.14927
-0.241529
0.659064
0.977457
0.181376
-1.07263
1.37677
0.902429
0.847337
1.00646
-0.984189
-1.96377
0.78687
0.767679
0.910285
-1.97484
-1.96499
0.934018
-1.06877
0.756386
-0.0868813
1.37235
-1.06953
0.712402
0.665854
-0.917803
-1.06666
-1.78383
0.99778
-0.923795
-1.06455
0.626947
0.597196
-1.46126
1.01989
0.769557
-0.92925
-0.766277
0.911733
-2.05675
-1.06499
-1.22472
-0.894102
-1.00964
0.937905
0.956211
-1.78735
0.544452
0.953854
1.29947
0.193312
0.275168
0.00109363
0.816048
-0.548592
-0.91242
-1.13593
-0.639715
-0.907216
0.946199
-0.921499
0.16696
-1.06351
0.530359
0.49394
-0.900636
0.562934
-1.89463
0.419863
-0.894631
0.456684
-0.9134
0.312171
-1.06293
0.374133
-0.888221
0.74881
-1.80653
-0.886348
-0.889776
-1.05345
0.964277
0.00505708
-0.917085
-1.07448
0.0360935
0.0732417
-0.911349
-1.06092
-0.959629
-0.206137
-1.09117
-0.12421
-1.12363
-0.326218
-1.03689
-0.379934
0.847629
-0.130862
-1.91562
0.936252
-0.151878
-0.201537
0.370168
0.916345
-2.13591
-1.89781
-1.0678
-1.65121
0.8282
1.37356
-0.763386
-0.192621
-0.0687177
-1.09383
-0.468362
-0.462146
0.929206
-0.954863
0.897407
-1.7346
1.43877
0.374459
1.36675
-0.953212
1.13069
-0.570964
0.949049
-1.07736
-1.06289
1.01243
0.940284
-2.4678
-1.06396
-0.888585
0.934389
-1.1596
0.936902
-1.4504
-1.16679
-1.09451
1.25988
0.996194
1.04969
0.97317
0.965496
-0.121681
-0.669114
1.17091
-2.10322
-1.0235
1.37222
-0.973925
0.867717
0.893285
1.32213
1.375
-1.03078
-1.6295
0.984527
0.140356
-0.553731
-0.834584
-0.76896
-1.91966
-0.954993
0.471178
-1.5858
1.14194
-1.19242
1.01268
1.09437
0.998844
-1.84388
-1.02692
-1.24863
1.03778
-1.09586
1.14019
-0.745247
-1.23549
1.2023
1.24876
-1.06374
0.0743453
0.890613
-1.43734
-1.30082
0.586396
1.23642
1.16772
-1.28157
0.837637
0.815153
-1.0612
1.17916
0.266129
-0.943497
-0.661071
-0.132061
-0.119496
1.08171
-0.96247
0.245267
-0.0559434
0.0579588
-0.840718
-1.04216
0.944766
-2.34401
0.982246
-0.126854
-0.00158846
0.614994
0.16642
-1.05116
-0.633817
-1.28995
-0.340783
-0.0213623
-1.6557
0.903789
-1.93593
-1.88512
0.973398
-1.36425
-1.00228
0.962732
-1.07266
0.939264
-0.0566566
-1.07247
-0.437112
0.71863
-0.884547
-1.74557
0.822238
-1.13114
1.01969
-0.678478
-1.18507
-1.0592
-1.06331
1.43454
-2.14742
1.06607
-0.0216885
0.90503
1.14222
0.647651
0.967964
1.12541
-0.228966
-1.86056
0.912292
1.03199
1.30542
-1.09782
1.00332
0.644391
-1.12312
0.71517
1.1493
-0.60428
1.30401
0.113743
-0.887311
0.762447
-1.13138
-0.889209
0.8863
-0.496307
1.00532
0.99076
0.918915
-0.935018
0.871165
1.22578
-1.31544
-0.38012
-2.2144
-1.21574
-1.16881
-1.06473
1.29606
0.674767
-0.987403
0.840339
-1.13307
-1.03308
1.21264
1.19012
-2.33586
-1.57502
-1.06228
-1.10637
0.916651
-0.997047
-0.0201358
-0.890022
-0.529322
1.01293
-1.12327
1.34787
1.00103
0.813662
0.979767
1.26507
-1.29803
-1.13331
0.957486
1.08347
-0.808143
0.95326
-1.99197
-1.09191
-1.10189
1.05152
1.08045
-1.09849
-1.0339
0.468825
-0.175071
-1.64523
0.935991
0.930817
-1.59746
0.970295
1.01234
-1.44621
-0.996926
-0.965941
-1.08613
-1.10252
1.25484
-0.204094
0.884906
-1.00692
1.25166
0.83485
0.836904
0.909753
-1.98883
-0.93293
-1.08104
0.498662
-0.970068
0.848762
0.209264
-0.705997
0.828061
0.936685
0.98871
0.962789
-0.0109701
0.988265
-0.0137742
0.329622
0.762825
-0.618371
-0.990292
-0.978111
-0.725481
0.960695
0.898465
0.960286
-1.80916
-0.911021
-1.07633
-0.819069
0.957919
1.24825
0.971335
-0.980625
-0.928276
-1.40634
-0.580497
-1.06386
-1.06376
-0.248856
0.948744
-0.826049
-0.934515
-0.0307433
-0.191363
0.690131
-1.62072
-1.07194
-1.23089
0.901339
1.37938
-0.00283657
1.04819
1.43785
0.629754
1.16601
-1.01558
-0.0903141
1.34145
-1.06817
0.222068
-0.959737
-1.10927
-0.884591
-0.921496
0.918637
0.65555
1.15621
1.11883
-0.000973255
0.703642
-0.00321514
-0.0183062
-1.06525
1.05905
0.691772
0.966164
0.9825
-0.0272994
-0.0261055
0.979594
-1.13982
-1.06883
-0.928057
-0.89538
0.508941
-0.915564
0.90494
0.590838
-1.0676
1.17124
-0.982633
-0.365679
0.930219
-0.900832
-1.09686
-1.98321
0.56594
-0.942153
-1.48878
0.880444
0.974138
-0.131729
-0.0595977
-2.09977
-1.06336
-0.12082
-1.85223
-0.301874
0.521622
-1.28539
-0.910165
1.22507
0.226199
0.327625
-0.904311
-1.11706
0.950038
0.977874
0.495467
0.455191
-0.897676
-1.07628
-0.853334
0.418782
0.362025
-0.891369
0.79762
0.109212
-0.884057
1.39921
-0.88428
-1.78309
-1.1032
-0.833726
0.769211
-0.898439
-0.98939
-1.0804
-0.084088
-0.934756
-0.0345742
-0.911136
-0.152436
1.13931
-0.991258
-0.27051
-1.10793
-0.21225
1.29951
1.33982
1.19221
0.956525
1.16937
-0.726957
0.943256
-0.983713
0.97502
-1.06972
-1.02228
1.20309
-1.18495
0.391667
-2.03105
1.34505
-0.115507
1.28029
0.564038
0.731155
-0.949771
-0.959697
-1.06262
-1.36149
1.25957
1.15524
0.94253
0.547562
0.944451
0.794361
0.776821
-0.890619
-1.0992
0.193418
0.00526577
0.751585
0.959525
-0.123626
-0.953786
-0.883264
-1.55997
-1.06454
-1.62206
1.286
0.977303
0.954144
-0.0180288
-0.0191962
0.975817
-0.814158
-1.06511
-2.08248
-1.11556
0.740589
-0.928807
-0.900452
-0.416434
0.958444
-1.86329
-1.10146
0.944277
0.530013
0.637599
0.943568
-1.06263
0.827131
1.12871
0.764083
-1.06139
0.939155
0.271247
0.417949
-1.1293
-0.918494
1.39628
0.154494
-1.44342
-0.0738809
0.863495
0.924844
-1.06017
-1.53455
-0.0838759
-1.05923
-1.01184
-0.99809
-0.0838699
0.940491
-1.26249
0.942573
1.2193
1.0251
0.945387
1.04447
1.10501
0.947036
-1.54374
-0.768022
-0.454967
-1.14999
-0.980384
-0.897575
1.10568
1.0092
-1.12475
0.900883
-0.859441
0.273244
-0.889334
-0.418431
0.451111
-1.38012
0.936675
0.863168
-1.69023
-0.502619
1.2861
-1.75179
-0.339687
-1.19308
-1.00609
-0.852095
0.986734
0.727106
1.03133
-1.36904
-0.712848
-1.04958
-0.413164
-1.12763
-1.41765
-1.54307
-2.03073
0.867145
-0.83369
1.39823
-1.1238
-0.684895
-1.10808
-0.895649
0.863624
-1.13258
-1.31643
-1.02065
-0.458303
1.1521
1.16011
-2.10173
-0.987952
0.777149
-1.08987
-0.959618
1.04306
-1.6537
-2.00959
-1.39001
0.704329
-0.544575
-1.12771
0.940749
-0.0677774
-1.15698
0.95397
-0.908949
-1.68168
-1.33992
-0.952886
-0.188945
-1.12981
1.27186
-1.06926
0.058552
-1.07103
0.74611
-0.809418
-1.04605
0.604238
0.683093
1.00228
0.904879
1.13478
-0.895533
0.77902
0.465376
-1.40735
0.886116
-0.421318
-0.879041
-1.97707
1.11784
1.1044
-0.97363
-0.997899
-1.34176
0.970821
-0.965926
-0.0121589
-1.3854
-0.906223
1.23731
0.969513
-0.954329
-0.945294
-0.96676
-0.937872
0.854392
-1.02549
0.935309
0.18482
0.663644
0.789356
-0.870222
-1.03993
0.895793
-0.899915
-0.0501989
1.22777
-1.07743
-0.930943
0.775025
-1.41546
-0.972607
-0.306554
-1.09469
1.30036
-0.733117
0.0387217
-0.959819
1.24504
-0.969471
-0.939145
0.599565
-1.30998
-1.06867
1.28032
0.629358
0.937888
-0.9855
1.18799
-0.321774
-0.93462
-0.995302
-1.00678
-0.977196
1.21974
0.53216
-1.09638
-0.968651
-1.12143
1.08263
-0.856094
1.2202
-1.06848
0.668892
-0.92532
0.328718
0.495372
0.46114
0.380444
0.090109
-0.899142
0.965069
-0.997399
-0.732026
-1.22586
0.179377
1.2622
-0.427713
-0.980947
-1.01719
-0.929462
0.222985
-1.12213
-0.922052
0.769346
0.0863605
-0.941243
1.32956
-1.12503
-1.78171
1.30434
-0.932923
0.109472
-0.878695
-0.893292
-0.917563
1.30327
-0.875368
1.21994
-0.914176
-1.01614
1.12975
-0.352047
-0.935894
0.522137
-1.093
-0.0230244
-0.532196
-0.921717
0.731394
-1.19408
-0.923398
-0.896408
-0.892943
-1.0788
0.77158
-0.193815
-0.593473
-0.947496
1.24865
-0.989067
-0.963193
-0.872335
-0.273562
-1.01093
-0.871296
-0.942572
-0.212031
1.20262
-0.994211
-1.06894
-1.44142
-0.851122
-0.274
-1.08482
1.33683
1.27019
0.371624
-1.10939
-1.07538
0.287217
-1.07733
1.34953
0.167445
1.00534
0.65532
1.22513
0.0502079
-1.02233
-1.15636
-0.100713
-1.00301
-0.100835
-0.218435
-0.913945
1.24484
-0.423958
0.178612
-0.559676
-1.07489
-1.15663
)
;

boundaryField
{
    frontback
    {
        type            empty;
    }
    Top
    {
        type            zeroGradient;
    }
    outlet
    {
        type            fixedValue;
        value           uniform 0;
    }
    bottom
    {
        type            zeroGradient;
    }
    Inlet
    {
        type            zeroGradient;
    }
    rectangle
    {
        type            zeroGradient;
    }
}


// ************************************************************************* //
