/*--------------------------------*- C++ -*----------------------------------*\
| =========                 |                                                 |
| \\      /  F ield         | OpenFOAM: The Open Source CFD Toolbox           |
|  \\    /   O peration     | Version:  2306                                  |
|   \\  /    A nd           | Website:  www.openfoam.com                      |
|    \\/     M anipulation  |                                                 |
\*---------------------------------------------------------------------------*/
FoamFile
{
    version     2.0;
    format      ascii;
    arch        "LSB;label=32;scalar=64";
    class       surfaceScalarField;
    location    "13";
    object      phi;
}
// * * * * * * * * * * * * * * * * * * * * * * * * * * * * * * * * * * * * * //

dimensions      [0 3 -1 0 0 0 0];

oriented        oriented;

internalField   nonuniform List<scalar> 
3181
(
-1.02536
0.392403
0.632958
-0.38899
0.365381
0.0236085
0.521259
-0.358518
-0.162741
0.120695
-0.199754
0.0790585
-0.0974157
0.109311
-0.0118952
0.825091
0.406833
-1.23192
0.148177
-0.141863
-0.00631315
0.0906044
-0.00111559
-0.0894888
0.581738
-0.765305
0.183567
-0.0748807
0.136203
-0.0613225
-0.0105403
-0.051148
0.0616884
0.131731
0.044655
-0.176386
9.90577e-05
-0.0767265
0.0766275
-1.08992
0.150508
0.939411
-0.325536
0.697355
-0.37182
-1.12401
0.64131
0.482695
0.0829425
-0.935932
0.85299
-0.39748
0.349119
0.0483611
-0.594767
-0.525905
-0.00229586
0.073675
-0.0713792
0.0377547
-0.0862186
0.0484639
-0.080186
0.0682752
0.0119107
1.05788
-1.03343
-0.0244415
0.0218247
0.0331511
-0.0549759
-0.956489
0.324282
0.632207
-0.107328
0.228023
0.305769
-0.244566
-0.0612029
0.0296693
0.0621738
-0.0918431
-0.411806
0.339598
0.0722083
-0.0320438
-0.0111089
0.0133722
-0.00226334
-0.0369993
-0.91949
0.124707
-0.0821389
-0.0425679
0.0820633
1.41011
-1.49217
-0.0416652
0.0383734
0.00329174
0.177723
0.278088
-0.455811
1.47723
-1.39517
0.0716872
-0.0339325
1.5943
-0.830069
-0.764234
-0.162287
0.987378
-0.145039
0.145138
-0.0794386
-0.0007474
-0.409155
0.083619
-0.156427
0.076988
-0.634529
0.127008
0.507521
-0.147533
0.0726522
-0.168181
0.172403
-0.00422146
-0.269064
-0.0769264
0.34599
-0.148235
1.55135
-1.40312
0.110305
0.16481
-0.275115
-0.0134047
-0.100364
0.106461
-0.00609723
0.510756
0.186599
-0.0956872
0.141509
-0.0458221
0.0827516
0.0419552
-0.170332
0.196619
-0.0262874
0.162838
0.0571962
-0.220034
0.108798
-0.114698
0.0059008
1.30304
0.29126
-0.843192
-0.18217
0.19444
-1.46279
1.26835
0.54818
0.231633
-0.779813
-0.444805
-0.208827
0.653631
-0.818353
0.656067
-0.275572
0.823752
-0.321389
-0.104098
0.425487
-0.207485
-0.204321
-0.189569
0.166664
0.0229042
0.133889
0.282746
-0.416635
-0.183781
0.76552
-0.00877744
0.0993818
-1.67661
1.87105
0.185479
0.12029
-0.176964
-0.109912
0.286876
-0.271878
0.358788
-0.0869101
-0.0808832
0.0890465
-0.00816327
-1.82485
-0.916893
0.0080829
0.90881
-0.0466188
0.00495367
-1.0683
0.825607
0.24269
0.587978
-0.356336
-0.231642
-0.903167
0.0848138
1.10605
-0.955543
-0.720377
1.13983
-0.200418
1.06905
0.168882
-0.174205
0.00532334
1.2376
-0.830772
0.438058
-0.438058
-0.00856059
-5.92724e-05
0.00861986
-0.210728
-0.0524257
0.263154
0.163193
-0.108614
-0.0545798
-0.455765
0.835289
-0.379524
-0.0202355
-0.233146
0.253382
-1.07346
0.0400287
0.349687
0.0545794
-0.404266
0.132269
-0.848188
1.07982
0.11867
0.0706359
-0.189305
-0.017295
-0.153037
-0.494431
0.247082
0.247349
-0.300555
-0.193876
0.117636
-0.965824
0.320033
-0.775798
0.916032
-0.833089
-0.0339008
0.263841
-0.22994
0.0834088
0.0521661
-0.135575
-1.36266
-0.111566
1.47422
-0.244001
0.40723
-0.163229
-1.08479
0.429321
0.655468
-0.481333
-0.586964
0.193324
-0.0830181
-0.152387
0.146789
0.0055972
-0.0776009
-0.0138938
0.0914947
-0.545026
-0.220279
-0.1299
0.0564978
0.0734018
-1.07267
0.0486462
1.02402
1.74663
-0.195281
-0.0116475
0.00308687
0.0364135
0.149066
-0.201941
0.379664
0.0671373
0.238712
-0.305849
0.138848
0.0686221
-0.20747
0.317218
0.0985724
-0.415791
-0.595413
-0.528593
-0.9267
-0.145969
-0.0512792
0.169949
-0.104673
0.182427
-0.0777536
-0.0802612
0.0247198
0.123457
-0.0568876
0.0697939
-0.0129063
-0.0949911
-0.0215192
0.11651
0.0745583
-0.0745583
-0.183915
0.208635
0.287423
0.231947
0.104321
0.0922982
-1.24769
1.06391
-1.58066
0.102115
1.47855
0.0224162
-0.0180155
-0.00440073
-0.0267387
-0.0515437
0.0782824
0.533985
-0.0200168
-0.513969
-0.0403246
0.0422753
-0.00195076
-0.1989
0.0149849
0.170194
0.665095
-0.365995
0.53619
-0.149146
-1.21351
-0.12686
0.0294443
0.486569
-0.303278
-0.18329
0.17813
-0.152623
-0.0255073
0.0478758
-0.316939
0.0237
-0.940593
0.0490249
-0.153698
-0.284292
-0.398315
0.0731944
1.40377
-0.956928
-0.44684
1.10205
0.301723
0.0665656
0.279424
0.0239979
-0.00158169
-0.0726391
0.140083
-0.0674434
-0.252233
-0.588984
0.841217
-0.353913
0.642838
0.751263
-1.27717
0.153556
0.0211469
-0.0540605
0.0329136
-1.28951
0.288814
1.0007
-0.241341
-1.04817
-0.304631
0.654318
-0.912232
-0.0173267
0.00556039
-0.268141
0.26258
1.49926
-1.6118
0.112548
-0.136145
0.00928479
0.57093
-0.823163
0.302465
-0.527251
0.224786
-0.297543
-0.120619
0.418162
0.174703
-1.00082
-0.07264
-0.0216795
-0.0496997
-0.561073
0.352247
-0.247323
0.0183651
0.228957
-0.0308305
-0.105314
0.0422797
-0.0422797
-0.119835
0.131329
-0.0114937
-0.295524
-1.28514
0.109698
0.0319671
-0.141665
-0.141908
-0.0163761
0.158284
-0.221543
0.0319746
1.67077
-0.397142
-1.27363
-0.192144
0.448509
-0.256365
0.00350122
-0.00310749
-0.00039373
-0.678629
-0.406159
-0.18562
-0.00510058
0.19072
-0.174901
0.30879
-0.10189
0.100171
0.00171834
0.075393
0.00768113
-0.0830741
-0.133234
0.189296
-0.056062
-0.386873
0.86964
-0.482766
-0.218491
-0.0505745
0.269066
-0.688461
0.656823
0.0316386
-0.00415816
0.0373093
0.0519629
-0.0528604
0.000897519
0.0020644
-0.0570403
0.71727
1.02936
0.171163
-0.887158
0.715994
-0.076734
2.04661
-1.96987
0.38247
0.123328
0.314731
0.0639084
0.204963
-0.0661149
-0.0715857
-0.0287785
0.23445
0.157886
-0.0744769
0.733352
-0.40907
0.0600227
0.203131
0.051015
-0.167283
0.116268
-0.769144
-0.149541
0.918685
-0.052238
0.052238
-0.11604
-0.264895
0.542983
0.0120937
-0.230585
0.202488
0.146631
0.0577707
-0.10905
0.136153
-0.146693
-0.345756
0.325521
0.0522132
0.0435807
-0.095794
0.382403
-0.337748
0.517684
-0.0839761
-0.433708
-0.205275
0.27184
0.185966
-0.489244
-0.209843
0.602246
0.164344
-0.0335548
0.0335548
-0.24643
0.510843
-0.264413
0.381089
0.0261414
-0.0249321
0.0313492
-0.00641703
-0.204479
-0.0700387
-0.0598609
-0.0496976
0.18585
-0.181143
0.242416
-0.0612726
0.129689
0.0281969
-0.387187
0.142621
0.191667
-0.0619786
-0.046088
-0.0558015
-0.0888944
0.0714296
0.0174649
0.14691
-0.104179
-0.0427315
-0.0159291
0.39676
-0.380831
-0.147907
0.139129
0.104737
-0.109096
0.00435851
0.02382
0.600584
-0.0828997
-0.0899104
-0.0202139
0.110124
-0.0958897
-0.019284
0.115174
-0.0916381
0.0999254
-0.72136
0.621434
-0.0353415
-1.49477
-0.414648
1.90942
0.677438
0.949491
-1.62693
0.0825102
-0.272488
0.371061
0.28204
0.251001
-0.533042
-0.207914
0.258929
0.153297
-0.884262
0.730965
0.0522896
-0.148179
-0.0290097
0.00733017
-0.985992
0.446823
0.539169
0.956928
-0.839292
-1.6687
1.55713
-1.49926
1.60137
0.0394246
-0.0852467
0.0131647
0.0387982
0.0104874
0.801326
-0.648029
0.121394
-0.0723692
0.405873
0.733956
-0.159861
-1.72804
1.65131
-0.665438
-0.582255
-0.240594
-0.393935
-0.00276871
-0.164673
0.212548
-0.580119
-0.372658
0.180514
0.769688
-0.235702
-0.89081
-0.777887
0.742093
0.202774
-0.150484
0.285281
0.0380313
-0.0380313
0.671033
0.149924
-0.820956
-0.224672
0.895705
0.405509
-1.2234
0.817894
0.261029
-0.0290826
0.00652768
0.00686569
-0.0133934
-1.46279
-1.17694
0.981663
0.95701
0.713763
-0.0345318
-0.13365
-0.242725
0.753481
-0.198514
-0.0488088
-0.00302404
-0.0778591
-0.0533717
0.105538
0.37911
-0.252102
-0.814585
-0.287807
-0.104962
-0.0864373
0.1914
-0.73506
0.858388
-0.147912
0.14325
0.00466232
0.0210614
0.00293649
-0.140232
0.0721838
0.0680479
0.0101329
0.415354
0.122622
0.0555082
0.0301597
0.0148909
-0.0450506
-0.01556
-0.17006
-0.727084
0.372945
0.354139
0.44738
-1.38348
0.936097
0.139088
-0.160182
0.0210937
0.00112554
0.192198
-0.00950107
-0.428557
-0.138948
-0.0012837
-0.145118
0.0620997
0.142963
-0.344904
-1.43772
0.705932
0.731789
0.0471537
0.0923807
0.0545297
-0.769144
-0.0193402
-0.367533
0.153015
-0.080831
0.0439019
-0.638136
-0.0503251
0.0614524
0.130215
0.191011
0.0408354
-0.457471
0.121967
0.347718
-0.293139
-0.116143
0.0211518
0.220612
0.84203
-1.06264
0.106703
-0.711231
0.604528
-0.941737
0.792196
-0.949882
0.279983
0.669899
-0.00760282
0.00842305
-0.000820233
0.172433
-0.469976
0.205366
-0.119713
-0.0856529
0.0460952
-0.0653792
0.0230877
-0.12805
-0.00995833
0.0258294
-0.023765
0.0205547
0.0783798
-0.0989345
1.08295
-0.00119941
0.00167054
-0.00047113
0.120827
0.0183026
0.861922
0.0698577
-0.0605729
-0.184177
-0.992766
0.230091
0.0309387
0.00770234
0.0846784
-0.669899
0.428557
0.165137
-0.274482
0.109345
-0.253854
0.0796495
0.119179
-0.113856
-0.00145248
0.0904989
-0.0414401
-1.2463
-0.191418
-0.0432498
0.0638045
0.739161
-0.256466
-0.292009
0.150101
0.349
0.0162759
-0.0412081
-0.00776235
0.0823206
0.147023
0.211765
0.156448
-0.33512
0.178672
0.112227
0.552868
-0.0389246
-0.108608
0.914588
-0.250462
-0.664126
-0.949882
-0.440756
0.888136
1.47723
-0.150763
0.400444
-0.249681
0.352217
-0.0733721
-0.278845
-0.323778
-0.579389
-0.0728568
0.0736877
-0.0008309
-0.0623867
-0.181462
0.243848
0.459661
-0.951409
0.491748
0.0355359
0.664376
-0.699911
-0.0439624
-0.108424
0.00530048
-0.0952109
0.278026
-0.524456
-0.00991859
0.00231578
0.165748
0.0320181
-0.197766
0.050714
-0.123353
0.000746075
0.0203153
0.100959
0.162882
-0.0463116
-0.00654877
0.195658
-0.428804
-0.404102
1.35359
0.0372824
0.0149556
-0.983838
-0.0169844
0.16317
-0.0719631
-0.0441798
-0.0265643
0.329029
0.648839
-0.971809
0.32297
0.185361
0.0447301
-0.944977
-0.0105657
-0.00184727
-0.646746
0.746671
-0.0177885
0.182132
0.00500692
-1.22841
0.183143
-0.442118
0.258975
-0.0132027
0.251914
6.52556e-05
-0.000244841
0.000179585
-0.0152002
-0.118034
-0.02091
-0.132127
0.751472
-0.644769
-0.142879
0.0877055
-0.0971984
0.314263
-0.157815
0.0976938
1.20581
-0.254002
-0.951809
-0.121368
0.139733
-0.508063
-0.219021
-0.564228
0.599957
-0.591483
-0.00847325
-0.0899774
-0.0529014
-1.72804
0.56192
-0.56192
-1.754
1.754
0.801326
0.0789816
-0.308656
0.229675
-0.8889
-0.094938
0.630062
-0.371738
-0.258325
0.161031
-0.238785
-0.0107534
-0.000894098
-0.882187
-0.0836363
-0.934268
0.212908
0.0224283
-0.108866
0.698291
-0.105457
-0.592834
1.01439
0.462838
-0.00175905
0.00182431
-0.969419
0.542489
-0.626465
-0.0666691
-0.610882
0.677551
-0.0799971
-0.892818
-0.718986
0.217926
-0.813339
-0.918685
1.36555
-0.446862
-0.139889
0.279262
-0.139373
-0.0256769
0.723968
-0.108093
-1.01527
1.01527
-0.902134
0.321811
0.580323
0.00131761
-0.00251702
0.117673
-0.438337
0.838108
-0.0125004
-0.0852407
-0.0350072
0.138292
0.00279554
0.000705678
1.45227
-1.17229
-0.326043
0.401436
-0.632981
1.0132
-0.380222
-0.0761136
-0.0628344
0.124728
-0.0561055
0.350279
0.00525396
-0.0819805
0.356419
0.0403408
0.0424789
-0.248456
0.205977
0.138457
0.0339456
0.097989
0.181567
1.28287
0.588182
0.0934078
0.813733
-0.907141
-0.990249
1.27906
0.189905
-0.112917
0.0771434
-0.767318
0.690175
0.172389
0.125972
-0.471729
-0.0740646
0.132546
-0.0584819
0.1299
-0.203964
-0.452263
-0.10881
-0.0719625
0.0750492
-0.00308673
-0.00626476
-0.0400468
0.0275385
0.0144167
0.648029
-0.604528
-0.0435017
-0.289557
0.301651
0.877566
0.59425
-0.242032
-0.0421368
0.0741039
-0.308382
-0.21887
0.169391
-0.573586
0.404195
-0.000413479
0.000168638
0.116375
0.0435662
-0.159941
0.00278735
-0.00905376
0.00626641
-0.0227955
0.0147118
0.00808366
-1.17632
0.345553
-0.153737
-1.34103
-0.201262
-0.839292
1.60137
1.55713
-0.191198
-0.17195
0.121376
-0.0635554
0.0692333
-0.00567784
-0.173956
1.0237
-0.84974
0.559693
0.0703693
0.000325365
-0.000738843
0.121809
-0.220769
0.0350072
-0.0477802
0.00453034
-0.71112
0.402739
-0.0680268
0.125797
-0.23597
0.618373
1.10205
0.00553722
-0.0611016
0.00137463
0.059727
1.90773
-0.350603
-0.0606056
-0.0540928
-0.99628
0.156988
0.395396
-0.220693
-0.471295
-0.132351
0.603646
0.810918
-0.363052
-0.447866
-0.120283
0.769123
-1.65131
0.188512
-0.0176256
-0.0480797
0.0657053
0.410275
1.63633
-0.170858
0.177386
0.095052
2.22797
-0.626597
-0.677229
0.0516039
0.625625
0.389423
0.0248309
-0.346352
0.526963
0.802349
0.363344
0.0757879
-0.0212582
-0.473971
0.197918
0.276053
1.36729
0.10266
-0.0724998
-0.0520195
-0.360608
0.107719
-0.315633
0.884784
0.321026
-0.137603
0.0476254
0.293832
-0.444595
-0.0221959
0.0180377
0.110233
-0.146951
0.0367183
-0.295626
0.309277
-0.0136506
0.504675
-0.758677
-1.0984
0.0215293
1.07687
0.0743455
-0.219088
0.144742
0.27454
0.0397231
-0.25311
0.23377
-0.667721
0.667721
1.26835
1.01439
-0.711231
0.324924
0.477425
-0.610537
0.346124
0.918294
-0.358601
0.00796167
-0.873235
0.865273
0.130445
0.00575819
0.0271311
-0.880009
0.6269
0.140101
-0.167802
-0.120251
0.288054
0.318472
-0.514085
0.346283
-1.12559
-0.287578
-0.65976
-0.0736169
0.00156692
0.000103619
-0.227401
0.13668
0.0547191
0.0339365
-0.146984
0.113047
-0.386878
-0.515257
-0.0056835
0.0678574
-1.16362
0.545359
0.618265
-0.568918
0.385628
-0.11108
0.154661
0.232071
-0.00841825
-0.0205914
-1.04325
0.646104
0.0344637
0.0702735
-0.154816
0.057618
0.197777
0.00758825
-0.43436
0.9912
0.499927
-0.0662761
0.867479
-0.790335
0.79253
-0.44353
-0.616713
0.178376
0.153921
-0.788966
0.766659
0.0223066
1.15347
-0.26869
-0.193738
-0.132305
-0.1445
0.0358863
0.955283
-0.842933
-0.11235
-0.184285
0.109808
0.0272581
0.119531
0.882643
0.786011
-0.824799
0.0387876
-0.323004
-0.0496533
-0.535817
-0.627807
0.137081
1.33714
0.914727
0.0996651
0.172062
0.552522
-0.724583
-0.049696
0.0503558
-0.0112599
0.00284167
-0.511812
-0.104901
0.167863
-0.198693
-0.188054
0.138356
-0.534024
0.277658
-0.99199
-0.482613
-0.291304
-0.755823
1.55703
-0.0784871
-0.286183
-0.375105
-0.336015
0.116555
0.302157
0.0542621
1.30616
-0.846499
-0.191425
0.129447
-0.478305
-0.32601
0.804315
-0.0233461
0.00572048
0.0490232
-0.0596468
-0.235979
-0.11821
0.695919
-0.420183
-0.275736
0.189599
0.133209
-0.095904
-0.0373054
0.24324
0.0589172
-0.429049
-1.19788
-0.0966006
0.140502
0.96224
-0.176229
0.00654266
0.108631
-0.0220618
0.0187951
0.0032667
0.0156495
-0.0336649
-0.244996
0.0777134
-0.0905231
-0.556153
0.416264
0.0186903
0.118191
-0.0438454
-0.694442
1.56971
-1.24868
0.0159347
-0.193832
0.177897
-0.143742
-0.532122
0.675864
0.0729517
-0.711088
-1.05518
-0.0432185
-0.0808515
-0.00221539
0.0830669
-0.246316
-0.599957
-0.169187
-0.139862
-0.473971
-0.232018
0.165904
-0.366238
-1.17259
-0.596517
0.399291
0.197226
0.260837
0.113231
0.544946
0.188507
-0.733453
0.151419
0.051355
0.916336
0.0685969
-0.984932
-0.22188
0.228593
1.05047
-0.242535
0.181262
-0.756468
0.98506
0.296709
-0.0496271
-0.0305596
0.041047
-0.00509684
1.1643
-1.23057
0.7252
0.0857182
-1.18111
-0.0651888
0.230373
0.687922
0.901459
0.0131291
-0.0200082
-0.914727
-0.65976
-0.714989
0.723072
-0.0366256
-0.89081
0.664376
0.60773
-0.937871
0.893453
-0.00413411
-0.784832
-0.316146
0.636814
-0.766542
0.129729
0.080141
0.0530684
-0.435454
-0.0632864
0.908241
-0.844954
0.00160296
-3.60345e-05
-0.26424
0.215431
0.709765
0.220012
-0.205027
-0.179713
0.691963
-0.643317
0.20322
0.0264544
0.607932
0.60393
-1.21186
-0.712225
0.910143
1.24351
-0.698154
0.0868745
0.212767
-0.276053
-0.0128613
0.216901
-0.0496988
0.0687727
0.0943975
0.0023365
-0.0184069
0.0160704
-1.02779
-0.0348548
0.31317
-0.809861
-0.360461
1.23592
-0.875459
0.37001
0.643193
-0.049276
0.0527376
-0.00346159
0.0795639
0.612399
-0.714938
0.687472
0.635614
-0.996075
0.316295
-0.0993947
-0.583906
-0.408084
-0.520892
1.12882
-0.0565035
-0.877369
-1.91783
-0.052043
0.212767
0.0508157
-0.860677
0.836096
-0.648344
-0.187752
-0.981732
0.397826
0.00354161
0.113662
-6.68698e-05
-0.113595
-0.971983
0.563899
-0.212349
0.910184
-0.92075
0.193066
-0.208626
-0.0967323
0.239695
1.22219
0.303734
-0.199002
-1.42441
0.472606
1.23463
-0.871284
-0.551417
-0.518459
1.06988
0.448583
0.0191242
-0.0122585
-0.734766
0.699911
0.336485
-0.256922
-0.314731
0.367347
-0.0526163
0.594688
0.641231
0.780537
-0.812581
-0.492274
-0.448319
-0.472175
-0.499808
0.801703
-0.801703
0.683951
-0.683951
-0.734766
-0.452161
0.452161
-0.367347
-0.425172
-0.413711
-0.522048
-0.517716
0.517716
0.336485
-0.256922
0.780537
0.772552
-0.772552
0.812581
0.762405
-0.762405
0.507726
0.527825
0.481541
-0.181231
-0.500192
-0.551681
1.07951
-0.417232
-1.23801
0.71712
0.674328
0.569185
0.044155
-0.00979625
0.079654
-0.886814
0.0923959
0.794418
-0.146565
0.143796
-0.998391
0.589321
0.918697
-0.593773
-0.123261
0.00402232
-0.00930576
-0.80877
-0.0783881
-0.539169
-0.00613567
0.0134658
0.47816
-0.165496
0.0846647
0.171245
0.00513224
-0.0105355
0.00540329
-0.818257
0.0699996
0.748257
0.562496
0.659699
-0.528346
0.413197
0.115149
0.914032
-0.744548
-0.169484
0.0781961
0.301468
-0.0138998
-0.0580627
-0.0586408
-0.014216
0.321677
-1.05674
-0.834347
0.0969271
-0.742584
0.799754
-0.0571702
0.11942
-0.898611
0.779191
-0.802224
0.903795
-0.101571
-0.0645145
0.080164
0.0194985
-0.287639
0.612199
0.516625
-0.09337
-0.793444
0.914574
-0.0906453
-0.823928
0.0658876
-0.142001
1.23682
0.820662
-0.619725
0.456309
-0.38594
0.0999716
-0.893415
1.39517
0.358829
-0.787606
0.00277411
1.01601
-0.896595
1.20099
1.22363
-0.771371
-0.452264
-0.882818
-0.115573
-0.413177
0.0323463
-0.546607
0.869577
-0.789536
0.789536
-0.601437
-0.0867759
-0.86316
0.118612
-0.944916
0.878247
0.0773957
-0.197108
-0.057185
0.0584404
0.0113535
0.18921
0.826804
0.81702
0.774804
0.137126
-0.91193
-0.64943
1.21862
-0.78488
-0.107245
0.892124
0.172248
-0.887187
-0.67395
0.884903
-0.784931
-0.10373
0.462708
-0.0217749
-0.440933
0.0326998
1.31586
-1.34856
0.130253
-0.353332
0.223079
-0.88861
-0.830619
0.0880348
0.533333
0.259197
-1.60134
1.197
-0.588114
0.588114
-0.891512
-0.532903
-0.115193
0.742093
-0.999836
1.02137
0.777658
-0.201191
1.06078
-0.715224
0.923506
-1.22988
0.306378
0.000935957
-1.38441
0.28632
0.574205
-0.242972
-0.124561
0.230645
0.30186
-0.223664
0.781063
-0.882634
0.694628
0.523987
-0.146553
0.735874
0.589333
-0.589333
-0.0619878
0.0649243
0.110976
-0.0770395
1.25898
0.0568756
0.296644
-0.00168769
0.00308535
-0.00139766
-0.670927
0.693283
-0.0223553
0.426489
-1.19786
0.107547
-0.892478
-1.1202
1.4179
-0.297704
0.205453
0.870054
-0.892198
1.31869
-0.755352
0.607254
-0.657579
-0.659495
0.151432
-0.274353
0.0289162
0.0738735
-0.978158
0.703804
0.00121972
-1.15042
0.0660027
0.733752
0.692077
-0.0848228
0.0791291
0.782793
-0.403749
0.98243
-0.578681
-0.85341
0.517511
0.4803
-0.94749
0.727389
0.220101
-0.684611
-0.128728
0.957425
-0.358158
-0.166298
-0.0362011
0.485685
0.514315
-0.770508
-0.112127
-0.562206
-0.435088
-0.540193
-0.432707
0.404506
0.595494
-0.143816
0.162118
-0.861153
-0.0629569
-0.594622
-0.156095
-0.24534
0.401435
-0.0363642
-0.00507595
0.113129
0.0727209
-0.12897
-0.116026
0.754481
-0.639268
0.718397
-0.157305
-0.820853
0.561054
-0.0979013
-0.463153
-0.743023
-0.196752
0.939775
-0.239807
0.227743
-0.0246125
-0.111289
0.00597454
0.0117157
0.724176
-0.136063
0.121318
0.110753
-0.738317
0.0673894
1.08181
-0.446613
-0.0108573
-0.42285
0.49912
-0.286827
1.02078
-0.00481329
0.398216
-0.303164
-0.00468918
-0.0742916
-0.128056
0.0313393
1.05047
0.124268
0.168384
-0.292652
0.842516
-0.0193621
0.00429865
0.0150635
0.129064
-0.00902255
-0.000896041
0.216558
-0.106325
0.216391
-1.21623
0.246639
-0.12237
0.0046159
0.284316
0.0704828
-1.03479
1.35143
-0.31664
-0.782224
0.840414
-0.0581897
0.122078
0.135639
0.16107
-0.0723937
1.29032
-0.458951
-0.0693957
0.27776
0.449631
0.192227
-0.641859
0.397679
0.0424918
0.650791
-0.569512
0.564762
0.00475028
1.31486
-1.19831
-0.0538205
0.0679411
-0.0141206
0.695963
-0.00906547
-0.0830756
0.0178391
1.30545
0.469297
-0.347219
0.123747
-0.0254766
-0.193611
0.174299
0.03297
-0.207269
0.00620348
-0.00386698
0.877429
-0.808832
0.206138
0.218678
-0.0255755
-0.0854632
0.226672
0.0998936
0.00672036
0.0804305
0.761966
0.297856
0.426364
-0.72422
0.816049
0.100398
-0.916447
0.643662
0.124458
-0.084878
0.0078692
0.0770088
-0.684168
-0.111691
-1.11819
-0.00507087
0.747164
0.717214
0.0842886
-0.151068
-0.284386
0.81591
0.102945
-0.005251
-0.882227
0.19042
-0.275048
-0.161925
-0.173682
0.688192
0.0737737
0.0134318
0.714258
-0.578619
-0.193778
0.162256
0.0251258
-0.111344
0.423131
-0.0578391
-0.0134696
-0.0707952
0.161204
0.346639
0.469411
-0.151149
0.530081
-0.0442736
-0.108885
0.0154396
-0.000897915
-0.0145417
-1.43126
0.232948
-0.00456496
0.930437
-0.228805
-0.618136
0.641573
-0.0234368
0.314834
0.755582
-0.459848
-0.00330511
0.0782137
-0.174946
0.628098
0.127484
0.632005
0.226383
-0.272291
0.7286
0.0830978
0.967368
-0.600481
0.354873
0.245608
-0.582218
-0.0712378
0.0412555
0.064486
-0.0474073
1.22456
0.736486
0.0794241
0.623207
0.21801
-0.872753
-0.0816169
-0.672763
0.675537
-0.024599
-0.582658
0.426563
0.866215
0.67059
0.159986
0.00800158
-0.153283
-0.318446
1.12752
0.442184
-0.192254
0.0451139
0.935849
0.0315193
0.725056
0.298967
-0.0784062
0.932544
-0.73882
0.926952
-0.188133
-0.414544
-0.185937
-0.0793278
-0.185889
-0.189763
0.836207
0.0217552
-0.00686428
0.625114
-0.00904879
-0.413802
0.607633
-0.131312
0.233126
0.770521
0.231185
-1.00171
0.277176
-0.925521
0.122184
-1.37086
-0.176819
0.771558
-0.594739
-0.672135
-0.135855
0.0245665
-0.0554756
-0.943503
0.0198486
-0.0419104
0.972614
0.22285
-0.403453
0.180603
-0.0288918
-0.580119
0.0691594
0.329056
-1.34762
0.00194155
0.00319069
-0.539473
-0.054121
-0.591069
0.0215565
0.566371
0.299844
1.01116
0.898258
-0.243929
-0.392033
0.635962
0.116279
-0.613951
0.613951
-0.252567
-0.919107
1.17167
0.0302817
-0.15165
0.679666
-0.113295
-0.222635
-0.330875
0.164577
0.607655
0.554825
-0.334433
0.178064
-0.10487
-0.568109
0.480271
0.0844914
0.0595099
0.0121773
-1.28475
-0.408611
-0.264529
0.696648
0.303352
-0.408611
0.696648
-0.409206
-0.256126
-0.409206
-0.695804
0.695804
0.304196
-0.0141182
0.197342
-0.076631
0.204322
0.163115
-0.466029
0.641678
-0.034045
0.658473
-0.502847
-0.155626
-0.0560073
0.0548168
0.00119055
-0.00874307
0.00705538
-0.11311
0.0186029
-0.0996081
-0.434952
-0.357698
0.130297
0.0456335
0.832901
-0.28038
-0.667433
0.331418
0.00190843
-0.167198
-0.00429095
0.677131
0.0700326
0.0333794
-0.0423299
-0.00272076
0.023191
0.0848814
0.560121
-0.472483
-0.0876378
1.8523
0.556855
-0.719213
0.903342
0.0113306
-0.0628743
0.107185
0.175911
0.142283
1.13901
-0.368488
0.015947
-0.0895639
0.634928
-0.881138
0.0218336
-0.0218336
0.020297
-0.020297
-0.0237512
0.0237512
0.0372824
0.364516
0.460138
-0.0243939
-0.715327
0.479625
0.187453
0.0291045
-0.0829776
-0.485207
0.785579
0.11242
-0.79703
-1.12084
-0.107572
0.113391
0.0190619
-0.00435005
-0.0263855
0.0263855
0.252677
-0.0241701
0.0241701
0.698076
0.0949887
-0.0301971
-0.0121328
0.00659604
-0.0676977
-0.0224733
0.0224733
-0.0182096
0.0182096
-0.0221132
0.0221132
-0.0176173
0.0176173
0.118053
-0.298781
-0.0815156
0.221755
-0.0155712
0.0155712
-0.374184
0.505828
-0.131644
0.498377
-0.219114
-0.444997
-0.222436
0.561605
-0.0578533
0.0745695
0.567004
0.564196
-0.00622543
0.00622543
0.194449
0.0246299
-0.0246299
-0.0132521
0.0132521
0.751701
-1.03817
0.0365261
-0.338535
0.382101
0.00234048
-0.00234048
0.021216
-0.021216
0.0182449
-0.0182449
0.0232199
-0.0232199
-0.0233045
0.0233045
0.0350108
-0.0350108
0.49221
-0.0316766
0.0316766
-0.00144444
0.00144444
0.0239227
-0.0239227
-0.0109109
0.0109109
0.00817619
-0.00817619
-0.102885
-0.0254608
0.0254608
0.0914763
1.91876e-05
-0.0393693
0.0393693
0.0100134
-0.0100134
0.0226809
-0.0226809
0.033395
-0.033395
0.0256467
-0.0256467
0.00323839
-0.00323839
-0.00457821
0.00457821
-0.521599
-0.136426
-0.0165622
0.0165622
-0.000624205
0.000624205
-0.0380572
0.0380572
-0.0278487
0.0278487
0.000910916
-0.000910916
-0.421552
0.651925
0.261005
-0.0319599
0.0319599
-0.0492255
-0.0218878
0.0218878
4.26529e-05
-4.26529e-05
0.0371817
-0.0371817
-0.16025
0.154999
0.00671537
-0.00671537
-0.0229317
0.0229317
-0.497858
0.0441411
-0.539893
-0.0312809
0.0312809
-0.439466
0.033718
0.0190195
-0.0122301
-1.16888
-0.0366386
0.0366386
-0.200989
0.14315
-0.0406127
0.000436381
-0.000436381
0.000361028
0.0481029
0.269967
-0.329255
-0.279221
0.608476
0.187382
-0.00890253
0.00890253
-0.240493
0.39944
-0.158947
0.765048
-0.39435
-0.370698
-0.465509
-0.659395
-0.121669
0.453087
-0.424581
-0.428829
-0.574017
0.0181762
0.191462
-1.30961
0.0157667
-0.0157667
0.000469547
-0.000469547
0.0307721
-0.0307721
0.0260329
-0.0260329
0.000700415
-0.000700415
0.000300907
-0.000300907
-0.0269726
-0.329363
0.1734
-0.29666
-0.000340653
0.000340652
-0.0446358
0.0446358
-0.0402072
0.0402072
0.187199
0.0998251
-0.287024
0.00700295
0.318977
-0.547782
-0.000265584
0.000265584
-0.0165049
0.0165049
-0.0924915
0.101134
-0.222803
0.000121321
-0.000121321
0.106056
0.0126248
0.986541
-0.490653
-0.0801621
0.570815
-0.628109
0.135315
-0.681922
-0.0383226
0.0383226
-0.680086
0.275981
0.0492369
-0.0492369
-0.648621
0.390296
0.260592
0.119065
0.00104447
-0.00104447
-0.839531
0.000940851
-0.000940851
0.315032
0.408936
0.0922676
-0.0531166
0.0531166
-0.000305334
0.000305334
-0.0422115
0.0422115
-0.0533551
0.0533551
0.00141198
-0.00141198
-0.0589523
0.0589523
0.00151765
-0.00151765
-0.045481
0.045481
-0.00453272
-0.0448341
0.0448341
0.00249659
-0.00249659
0.0479445
-0.0479445
0.000870514
-0.000870514
0.0472911
-0.0472911
-0.209946
-0.00127084
0.00127084
-0.00359966
0.00359966
-0.0447104
0.0823206
-0.00986607
0.00986607
0.00580151
-0.00580151
-0.0587648
0.0587648
0.292461
-0.0179497
0.0179497
-0.0567451
0.0567451
-0.00796816
0.00796816
-0.0664062
0.0664062
-0.0134602
0.0134602
-0.0792442
0.0792442
-0.0213895
0.0213895
-0.0934634
0.0934634
-0.682915
0.234217
-0.533014
0.509577
-0.892818
-0.0655379
-0.566792
0.393109
0.0733889
0.11621
0.00414243
-0.00414243
0.372726
-0.723605
0.0434075
-0.0312302
-0.901288
1.36413
1.27809
0.253037
-0.0649045
-0.0335797
-0.391837
-0.583145
-0.0789034
0.39483
-1.32567
-0.0201394
0.0201394
-0.74951
0.0199857
-0.0199857
-0.00295561
0.00295561
0.307048
-0.354494
-0.00243732
0.00243732
0.0190506
0.0145041
0.59647
0.11495
-0.00444442
-0.00917557
-0.0108326
-0.0974085
0.499508
-0.4021
0.264172
0.0221475
0.00340233
1.05373
-0.0315467
0.0528086
-0.413604
0.44595
-0.493766
-0.986062
-0.22745
-0.0713695
0.0179978
-0.280277
-0.0730547
0.0714534
-0.00437271
-0.0207524
0.787247
-0.554269
-0.0379257
0.0630514
-0.0361588
0.0188584
0.178484
0.420853
0.23597
-0.166394
0.211062
0.0072039
0.000477237
-1.26333
0.037744
-0.163267
-0.240187
-0.0190117
-1.36999
-0.0715421
0.266028
-0.355849
0.396189
0.271946
-1.02777
0.0447451
-0.00388265
-0.138119
-0.343792
0.458942
-0.109096
-0.0135991
0.122695
-0.0270094
0.0270094
0.187606
-0.429638
-0.159596
0.14322
-0.079517
0.0549181
-0.0641986
-0.0061101
0.0703087
-0.0241267
-0.151839
0.161723
-0.0571678
-0.288653
-0.360895
0.649549
0.0147918
0.0588959
0.150779
-0.0294607
-0.172461
0.0687863
-0.157282
0.311202
-0.0123995
0.027463
-0.0261515
0.17693
0.00264864
0.259932
0.00194043
-0.00194043
-0.0442903
0.769347
0.0902875
-0.171904
-0.0678088
-0.0121883
0.569971
0.748716
-0.00461158
-0.0376681
-0.533042
2.77823e-05
0.120488
0.0901017
-0.682757
0.324156
-0.0568668
0.380803
-0.669456
0.222601
0.504788
-0.0881306
0.0881306
-6.68697e-05
-1.14418
0.612979
0.531197
-0.212497
0.157022
0.0242712
-0.119163
-0.639514
-0.136234
-0.0575985
0.0707631
0.928416
0.266149
-0.106163
-0.0693475
-0.25409
-0.741985
-0.0770347
-0.264442
0.791404
0.58353
-0.264553
-0.267805
0.552121
0.0136071
0.386837
-0.270124
0.106745
-0.458519
0.326875
0.122568
-0.122568
0.112979
-0.152945
0.0399664
0.0108969
-0.00369799
0.0187951
-0.343874
-0.340293
0.226911
-0.185659
-0.0412521
0.542255
-1.08747
0.0358307
-1.0286
0.694673
-0.119402
-0.177258
-0.0391075
-0.0791027
-0.487274
0.0523217
-0.287299
0.00655281
-0.0190117
0.379256
-0.00516376
-0.00107028
0.00204612
0.0113826
-0.0123348
0.000952214
-0.0999341
-0.0160313
-0.166306
0.182338
-0.125304
-0.333215
0.0190506
0.351794
0.00186341
-0.377703
0.0863988
0.0025167
0.215594
-0.239988
-0.012293
0.012293
-0.00109808
0.00300642
-0.00933293
0.00231907
-0.0814079
0.00074659
-0.00119134
0.251464
0.0775648
-0.000676931
0.000676931
0.129936
0.515575
0.00164737
-0.288764
0.447012
1.13809
-0.469097
0.338352
-0.441444
-0.280428
0.120833
0.22611
-0.228287
-0.0211165
0.0152479
-0.0035322
0.000261036
-0.181164
-0.373169
0.852794
0.508202
-0.535174
0.20946
-0.00161585
0.230823
-0.0253695
0.000671805
0.000545157
0.0147027
0.211663
0.00131215
-0.000288259
0.71997
-0.651184
-0.247406
0.159665
0.951008
0.000666857
0.00213716
-0.0406127
-0.00563418
0.818511
-0.43052
0.515012
-0.699616
0.898846
-0.688833
0.580005
-0.186896
0.689364
0.00200841
0.00343976
0.0156221
-0.122591
0.138081
-0.226886
0.00897273
0.00210705
0.0647252
-0.05027
-0.0144552
0.00218716
0.0498564
0.0317446
-0.081601
-0.0867736
0.00271376
0.000371594
0.00181966
0.472713
-0.430493
-0.00617597
0.00064533
0.918677
-0.305698
0.385305
-0.00586651
3.31657e-05
0.255594
-0.0494565
-0.0415494
-0.11259
-0.0168727
-0.00356866
0.121802
0.068199
-0.00184788
0.413611
0.0016226
-0.00269323
0.00269323
0.00693151
-0.0161071
0.000359762
-0.328159
-0.00370488
0.0724159
-0.105899
0.10851
0.0435497
-0.0657571
0.000606237
0.00232882
0.468385
0.000344055
-0.00605778
-0.07327
-0.00200427
0.00102951
0.0824949
0.21415
-0.712613
0.476566
-0.849736
0.028079
-0.000426655
-0.704785
0.115432
0.115214
0.588353
-0.0150325
-0.0321127
-0.00387968
-0.00129241
-0.552602
-0.0032695
0.000105666
-0.0540076
0.921328
-0.523649
-0.00246352
-0.000647134
-0.00564819
-0.00214135
0.0654727
-0.0221652
0.0221652
-0.0493034
0.0523099
-0.00216665
-0.00764135
0.0489259
-0.0499962
-0.165429
0.0941911
-0.00549209
-0.0128381
0.0419104
-0.0164514
0.0617676
-0.0437698
-0.627888
0.570718
0.0408066
-0.00165908
0.326442
-0.165238
-0.0700486
-0.684754
-0.0752662
-0.118027
-0.0940555
0.0920513
0.685073
0.00101518
0.0249526
-0.0228154
0.346667
0.0585357
-0.143194
0.0846583
-0.0704402