/*--------------------------------*- C++ -*----------------------------------*\
| =========                 |                                                 |
| \\      /  F ield         | OpenFOAM: The Open Source CFD Toolbox           |
|  \\    /   O peration     | Version:  2306                                  |
|   \\  /    A nd           | Website:  www.openfoam.com                      |
|    \\/     M anipulation  |                                                 |
\*---------------------------------------------------------------------------*/
FoamFile
{
    version     2.0;
    format      ascii;
    arch        "LSB;label=32;scalar=64";
    class       volVectorField;
    location    "13";
    object      U;
}
// * * * * * * * * * * * * * * * * * * * * * * * * * * * * * * * * * * * * * //

dimensions      [0 1 -1 0 0 0 0];

internalField   nonuniform List<vector> 
2186
(
(1.30037 -0.0780591 1.68815e-19)
(1.62308 -0.94479 -1.20481e-19)
(1.4673 -0.92081 -1.42299e-21)
(0.7469 -0.590415 -1.1751e-19)
(-0.527039 0.514662 -2.1385e-19)
(1.07474 0.118948 0)
(0.730065 -0.674804 0)
(-0.313186 -0.541437 1.35037e-19)
(1.48364 -0.256397 2.09688e-19)
(0.559439 -0.322262 -2.4043e-21)
(0.672662 0.60532 0)
(0.847997 -0.275117 -1.56944e-19)
(-0.392916 -0.662725 -5.51128e-20)
(1.18563 0.020919 -2.98101e-19)
(1.81209 -0.688458 -1.26091e-19)
(1.01863 -0.000661473 1.4123e-19)
(0.991294 0.0151863 0)
(-0.720598 0.644251 0)
(1.12425 0.0620694 0)
(-0.0670605 0.275072 -7.34811e-20)
(0.481454 0.0770011 -9.75787e-20)
(-0.236861 0.176388 9.89927e-20)
(1.17389 0.0280674 2.47039e-19)
(-0.210534 -0.00390898 4.18831e-21)
(1.0337 0.000238341 -1.94241e-19)
(0.795814 -0.564995 0)
(0.759288 -0.0385938 1.2009e-19)
(0.61915 -0.599354 -1.31213e-19)
(1.20535 0.710563 0)
(0.96604 0.0202249 -2.65294e-19)
(-0.0107581 0.0555391 0)
(1.02757 -0.013078 9.16999e-21)
(0.0146244 0.384562 0)
(2.38429 0.203255 2.16481e-19)
(-0.109605 -0.138445 3.27056e-21)
(1.52422 0.779261 2.85474e-20)
(1.75558 0.147442 1.30769e-19)
(0.506825 0.125528 -2.90426e-19)
(1.93669 0.321341 -4.22612e-19)
(1.03012 0.115014 4.45091e-21)
(-0.450401 -0.714138 0)
(-0.209944 0.152981 0)
(1.89084 -0.885363 1.03732e-19)
(-0.415327 0.204352 0)
(1.10425 0.280077 1.23344e-19)
(0.602084 -0.303894 2.36009e-19)
(0.929331 -0.791793 0)
(1.19315 -0.793003 7.23654e-20)
(2.32023 -0.503624 0)
(-0.472956 0.640911 2.34194e-19)
(0.000786323 0.122726 1.08664e-19)
(0.625411 0.576917 6.41348e-20)
(2.08074 -0.764903 1.334e-19)
(0.591128 0.261774 -2.32825e-19)
(-0.225277 0.260186 3.70837e-20)
(0.771522 -0.659216 0)
(1.67658 -0.974327 1.86433e-20)
(0.589786 -0.550459 0)
(2.39317 0.261151 1.36171e-19)
(1.12523 -0.171212 -2.73515e-19)
(1.63035 -0.099326 1.3883e-19)
(1.3404 0.303176 -1.33922e-19)
(1.33848 0.535551 0)
(0.938298 0.127404 -4.87629e-21)
(1.35042 0.38699 -7.61748e-20)
(1.26101 -0.7373 -9.37713e-20)
(1.16448 0.660529 4.04526e-20)
(0.677321 0.0616178 -4.67637e-19)
(0.813714 0.0473184 0)
(2.08718 -0.224484 -7.56927e-20)
(-0.290706 -0.608248 -1.56946e-19)
(1.83527 -0.46451 -1.23767e-19)
(0.724558 -0.0478938 -2.05431e-19)
(0.877776 -0.524695 0)
(0.828675 0.169714 -7.54701e-20)
(0.557393 -0.519032 -2.42209e-19)
(2.28831 -0.357076 0)
(1.00218 0.0054226 2.92205e-19)
(-0.0906789 -0.2222 0)
(1.96976 0.464054 0)
(0.882487 0.403555 1.6302e-19)
(0.845543 0.112758 -1.09215e-20)
(1.03523 0.00787408 3.21678e-20)
(1.31648 0.428904 1.99378e-20)
(0.971125 0.0252019 3.37212e-19)
(1.0363 0.0265482 -8.01123e-21)
(0.66733 0.166475 -2.79841e-19)
(1.1402 0.0967934 -4.28845e-22)
(0.264096 -0.0653452 0)
(-0.0713284 -0.036737 1.12386e-19)
(0.866161 -0.629834 -1.26897e-19)
(-0.0979769 0.601636 -3.02595e-21)
(1.12878 -0.072004 1.93611e-19)
(0.819181 -0.189972 0)
(0.976569 0.0232586 3.23845e-20)
(1.36014 0.65084 0)
(1.63297 -0.957607 0)
(1.29291 0.223343 0)
(-0.552812 0.603172 0)
(0.799651 -0.675242 2.29036e-19)
(0.713705 0.0862603 -4.89483e-19)
(0.858904 0.285069 3.19961e-19)
(1.52181 0.193929 0)
(1.12746 -0.100476 -1.76993e-19)
(1.09818 0.0225679 1.44694e-19)
(-0.00087777 0.69107 1.48344e-19)
(0.629925 0.49493 0)
(2.1909 -0.163713 -1.49716e-19)
(0.970835 -0.488497 6.38797e-20)
(-1.40889 0.0779478 2.17204e-19)
(1.71381 0.336128 1.31512e-19)
(-0.38253 0.665183 -3.32083e-19)
(0.824066 -0.749146 0)
(0.558738 0.336384 1.41239e-19)
(1.65828 -0.261789 -6.04769e-19)
(-0.57538 -0.452096 -5.25019e-19)
(1.11699 0.00808191 5.28363e-20)
(1.96041 -0.603315 0)
(-0.0939762 -0.0368359 -3.36446e-19)
(0.709475 -0.0828527 6.49714e-20)
(1.54494 0.882398 0)
(-0.422578 0.747079 -3.69907e-19)
(0.880994 0.755821 -2.17836e-19)
(-0.959598 0.58927 5.51706e-19)
(1.02843 -0.0232824 0)
(1.17762 0.0598265 -6.65707e-20)
(-0.484227 0.61908 0)
(0.704563 -0.503424 -8.63767e-20)
(-0.89347 0.63138 -2.93451e-19)
(0.796627 -0.727495 0)
(0.443406 -0.291057 3.46727e-19)
(0.551268 -0.46719 2.29165e-19)
(0.417434 -0.377872 0)
(0.991561 -0.788746 -8.64438e-20)
(0.924407 0.252046 0)
(-0.259446 0.711518 -1.83712e-19)
(0.819696 -0.707121 1.07318e-19)
(2.3983 -0.256044 3.32854e-19)
(2.27781 0.16129 0)
(-0.0592668 -0.14377 0)
(0.68072 0.632434 -2.66356e-19)
(1.79254 -0.630451 2.78471e-20)
(-0.185473 -0.265208 0)
(0.991763 -0.814209 -9.68411e-21)
(1.14948 -0.0946331 0)
(1.10835 -0.118041 3.08744e-19)
(2.10177 -0.17833 -1.47694e-19)
(-0.560543 0.514564 0)
(1.23879 -0.562008 -3.77642e-20)
(-0.188997 0.417834 -4.63086e-20)
(-0.339238 0.653212 0)
(1.10065 -0.819709 1.24558e-20)
(1.00648 0.00539085 -4.88076e-19)
(0.65937 -0.489913 -8.55567e-21)
(0.82154 -0.523698 0)
(1.20832 -0.734756 -6.18708e-20)
(0.654387 0.227544 2.18143e-19)
(1.23718 0.101559 0)
(1.50481 0.102212 -1.26648e-19)
(1.2056 -0.861091 -1.10511e-19)
(-0.0500966 -0.122207 -1.24157e-19)
(-0.0988529 -0.360448 -2.36529e-19)
(1.06878 0.00613219 1.82345e-19)
(0.921311 -0.472935 -8.03303e-20)
(1.12833 0.103669 3.97052e-22)
(1.20563 0.0504881 -6.15415e-22)
(0.749786 -0.10723 1.39745e-19)
(-0.19974 -0.00276171 -3.04617e-19)
(1.24115 -0.33005 0)
(1.30231 -0.446522 4.99561e-20)
(1.43872 0.65426 8.63642e-20)
(0.815241 -0.622715 -1.67068e-19)
(0.996692 0.00719115 9.99828e-21)
(0.728807 -0.540178 2.37463e-19)
(1.29319 0.799829 8.44143e-20)
(1.89558 0.0715659 2.76676e-20)
(-0.591797 0.432198 0)
(1.0792 0.0528798 -1.88722e-19)
(-1.04314 -0.00812872 -3.22098e-19)
(1.07258 0.492124 6.31062e-20)
(0.0832274 -0.0847843 1.8401e-19)
(1.13814 0.0303306 -3.45542e-20)
(-0.154022 0.279311 -1.78956e-19)
(1.29183 0.589469 -5.33779e-20)
(1.12948 0.882065 0)
(-0.64303 0.449967 -1.12597e-19)
(-0.267243 -0.209529 0)
(0.646012 0.552706 -2.28253e-19)
(2.0829 0.253125 -2.97377e-20)
(-0.52516 -0.67505 1.88111e-19)
(-0.926788 0.311408 -7.6634e-19)
(0.72223 0.0631372 2.05268e-19)
(2.19241 -0.132625 -6.94985e-20)
(0.991577 -0.359541 -2.38154e-20)
(-0.00928723 -0.0229149 0)
(-0.923646 -0.0523507 2.88726e-19)
(1.31427 0.968368 9.30828e-21)
(0.839182 0.0618264 -1.1153e-19)
(0.549388 0.51459 1.58163e-19)
(0.393906 0.188633 0)
(-0.0259968 -0.626226 -2.72014e-19)
(-0.545641 -0.0841753 1.4489e-19)
(1.30628 -0.963885 4.86749e-23)
(0.983373 -0.0352772 -1.51657e-19)
(-0.16071 -0.139017 7.52022e-21)
(-0.264892 0.324589 1.73677e-19)
(-0.324458 -0.11505 -2.19895e-19)
(1.95973 -0.581584 0)
(1.12123 0.0423516 -2.52187e-19)
(2.24487 -0.0440625 2.54192e-19)
(1.29243 -0.627522 6.14647e-20)
(0.479724 0.031499 1.38065e-20)
(0.587093 0.316396 0)
(0.936526 0.743487 -1.27701e-20)
(0.678486 0.623638 1.46846e-19)
(0.901019 -0.570852 1.14897e-19)
(0.678244 0.490926 0)
(1.02065 -0.000836398 6.47484e-21)
(0.888488 -0.671541 1.63351e-19)
(0.836949 0.419177 -3.7412e-19)
(1.2352 -0.12228 0)
(-0.265561 -0.280056 -3.47366e-19)
(0.0332858 0.569686 -1.11131e-19)
(1.57519 0.729831 0)
(1.35919 -0.944157 -4.16585e-23)
(-0.756179 0.673085 0)
(-0.51781 0.603746 1.35289e-19)
(0.729286 0.64398 -7.93886e-20)
(0.855689 -0.224914 0)
(-0.194166 -0.125141 0)
(1.62649 -0.456361 0)
(-0.642153 -0.514062 5.46861e-19)
(1.22117 -0.889791 7.28008e-20)
(1.19043 -0.612033 4.19363e-20)
(1.03473 -0.160883 -1.20655e-19)
(0.886071 -0.70181 -1.27863e-19)
(0.190399 -0.194557 0)
(-1.26059 0.383139 0)
(1.00893 -0.519233 1.31243e-19)
(-0.11528 -0.23904 0)
(-0.463085 0.644647 0)
(-0.548787 -0.410595 4.47072e-19)
(0.785595 0.661924 6.88776e-20)
(1.00497 0.787973 0)
(0.689477 0.543065 -6.97671e-20)
(0.827737 -0.0507746 -1.83384e-19)
(0.738992 0.55229 -1.85929e-19)
(0.584447 0.542105 -1.36207e-19)
(-0.235222 -0.585682 3.06821e-21)
(0.727097 -0.65289 0)
(0.900647 0.164221 -2.62876e-19)
(-0.351536 -0.714951 7.24709e-20)
(0.597234 0.553106 3.03516e-19)
(0.950278 0.791168 0)
(-0.779307 -0.320511 4.91747e-19)
(-0.0505606 -0.441182 3.7314e-19)
(0.0320341 -0.364538 -1.90773e-19)
(0.656198 0.559475 -1.21375e-20)
(0.96786 -0.0102429 4.71444e-20)
(-0.469233 -0.714758 0)
(2.3152 0.00261979 -3.44585e-19)
(1.62422 -0.642723 -1.44312e-19)
(0.660806 -0.612837 -5.81905e-20)
(-0.458433 0.454596 2.02232e-20)
(1.19185 0.465979 1.37121e-19)
(0.884247 0.410214 0)
(1.0555 -0.184907 1.47483e-19)
(0.152942 -0.547818 -9.97446e-21)
(-0.0688992 0.152933 4.15461e-19)
(0.92592 0.0204368 -4.15403e-20)
(1.12985 0.131315 0)
(1.9242 -0.0486549 -3.48766e-19)
(1.96564 0.0917174 0)
(0.540041 0.240636 -3.84019e-19)
(-0.285753 0.386723 0)
(-0.265601 -0.534179 3.0786e-19)
(0.709301 0.0916925 0)
(0.62966 -0.524288 -1.46933e-19)
(1.12087 0.0225902 1.65057e-19)
(-0.590374 0.555824 5.06658e-20)
(2.05806 -0.114595 -4.07879e-21)
(2.08761 -0.26352 -1.54532e-19)
(1.11028 0.227618 -1.72966e-19)
(-0.377806 -0.754414 -1.45003e-19)
(1.08297 -0.857588 0)
(0.804823 0.0185821 -1.20167e-19)
(0.932647 -0.388945 -2.29497e-19)
(1.7372 -0.576067 -1.11601e-20)
(1.73745 0.0366028 3.26879e-19)
(1.0766 -0.00343375 3.03303e-19)
(0.149251 -0.510967 -1.89669e-19)
(1.00717 -0.452036 -9.63875e-20)
(0.200671 -0.19335 2.08298e-19)
(1.00917 -0.00885539 0)
(1.00598 -0.00715691 0)
(1.2465 -0.708641 4.61743e-20)
(-0.173783 0.700891 -1.25102e-19)
(0.18699 -0.119877 -1.628e-19)
(1.72341 -0.162978 2.13919e-20)
(1.28778 -0.496553 0)
(2.14617 -0.104865 -1.69767e-19)
(0.951916 -0.82807 -4.45451e-20)
(1.80727 -0.556664 -1.00746e-19)
(1.09584 0.831418 0)
(0.48067 -0.463054 0)
(0.596626 0.507006 -1.46225e-19)
(1.09723 0.282054 -3.17348e-19)
(2.25163 -0.253565 5.04512e-22)
(0.867037 0.148137 1.13064e-19)
(0.132811 -0.514978 -5.76898e-19)
(0.98366 0.0239001 -2.8911e-20)
(-0.194975 -0.454007 0)
(-0.0655384 -0.148401 0)
(-0.594677 -0.567027 0)
(1.35141 -0.728024 -3.76167e-20)
(-0.353674 0.675128 -2.58206e-19)
(-0.129587 0.299108 0)
(1.27583 0.970271 -1.51467e-20)
(1.11039 0.144033 -3.30586e-19)
(1.5984 0.461961 -4.49841e-20)
(1.07003 0.915974 5.06176e-20)
(-0.326068 0.731648 1.71003e-19)
(0.557914 0.0181189 0)
(-0.600755 -0.465066 -3.9346e-19)
(-0.420617 0.689912 3.19685e-19)
(0.773892 0.0212159 1.50552e-19)
(1.51602 0.946692 3.5189e-20)
(1.39614 0.294357 -2.31734e-20)
(-0.163863 0.580957 -3.71624e-21)
(0.753401 -0.688087 -2.70483e-20)
(1.15976 0.00645534 0)
(1.74329 -0.0201328 0)
(1.03107 0.0407979 0)
(-0.844673 0.28767 -1.61712e-19)
(-0.514306 -0.55865 1.46765e-19)
(1.03845 0.83764 0)
(0.996274 -0.00533349 4.0755e-19)
(0.760581 0.5945 -1.8583e-19)
(-1.40917 0.0397747 -1.67872e-19)
(0.857195 0.00919732 -3.34577e-20)
(0.722392 -0.66037 -1.65533e-19)
(1.37327 0.708823 -1.75888e-20)
(0.572176 -0.462026 -2.39396e-19)
(1.11711 0.000195999 -3.65278e-19)
(0.829501 0.0425032 3.50136e-20)
(1.53335 -0.199056 3.07317e-20)
(0.915309 -0.125238 -4.21025e-20)
(-0.0330517 -0.0550712 -5.60942e-23)
(1.08137 0.469505 -2.10698e-19)
(1.2862 0.608536 8.89613e-20)
(-0.0572904 -0.39577 0)
(0.0926808 -0.457677 2.15537e-19)
(-0.367845 -0.380755 1.45721e-19)
(-0.208382 -0.069 -1.56152e-19)
(0.466922 0.301052 0)
(1.36954 -0.713085 0)
(0.0142915 -0.00818848 -1.50838e-19)
(-0.277897 -0.753303 -8.3411e-20)
(1.05004 -0.0295633 1.44777e-19)
(-0.515553 0.412572 -5.10245e-20)
(1.68874 -0.527274 -5.79277e-19)
(-0.100313 0.756544 0)
(0.840739 -0.746072 -2.17218e-19)
(0.629107 -0.0857872 7.37044e-20)
(-0.574777 -0.171163 2.05971e-19)
(0.719058 0.150249 2.72442e-19)
(0.619994 0.12516 8.87545e-20)
(0.509714 -0.483216 1.62408e-19)
(-0.20896 -0.341572 -1.64011e-19)
(1.3621 0.340489 0)
(0.383699 0.33102 -1.63026e-19)
(1.02798 -0.0137948 -2.30511e-19)
(-1.01446 0.323655 2.98324e-19)
(1.41171 0.496402 -7.38914e-20)
(-0.141724 -0.318287 -6.14693e-20)
(0.69455 -0.633787 -7.10064e-21)
(0.818031 0.177027 -1.69091e-19)
(0.978058 0.423945 1.82225e-20)
(1.14171 -0.144767 2.64384e-20)
(0.611031 -0.241465 -2.47576e-19)
(2.00051 -0.361617 -2.11305e-19)
(1.04816 -0.200447 0)
(1.17777 0.434577 -3.70989e-20)
(1.67612 0.140817 -2.08263e-20)
(0.957823 -0.244413 1.55627e-19)
(0.865846 0.352131 -2.01138e-19)
(0.922598 0.110237 1.99108e-20)
(0.409836 0.377353 -2.10284e-19)
(-0.183043 0.43036 3.40975e-19)
(1.9436 -0.181912 0)
(0.93497 0.00975362 0)
(0.880559 -0.779227 3.91729e-20)
(-0.0466993 -0.535026 -4.08103e-19)
(-0.842402 0.18657 -3.89925e-19)
(-0.0524651 -0.0959152 -2.64281e-19)
(-0.58221 0.72861 -2.14381e-19)
(-0.321129 -0.323893 0)
(-0.0485002 -0.101022 4.68921e-20)
(0.338446 0.665834 -1.12642e-19)
(-0.294696 0.361486 -3.97258e-19)
(0.80316 -0.117612 0)
(1.42383 -0.57939 5.45612e-20)
(-0.334889 -0.399763 0)
(0.999314 0.020235 2.93513e-19)
(-0.00942757 -0.459542 2.73968e-20)
(0.548187 -0.434205 3.20828e-19)
(-1.01418 0.00530854 5.34394e-19)
(-1.45952 -0.276525 0)
(0.248583 0.688347 1.46073e-19)
(1.00563 0.0244468 -8.78824e-21)
(-0.198542 -0.0839709 0)
(1.00497 -0.0119046 -4.57279e-20)
(0.867315 -0.734174 -2.13405e-19)
(1.33499 -0.82413 0)
(0.942943 -0.280484 1.63542e-19)
(0.0534219 0.65633 3.09022e-19)
(-0.00468261 0.000697977 0)
(-0.0776909 -0.552162 -7.95336e-21)
(0.733812 -0.642423 -3.32686e-19)
(0.973361 -0.0278024 -2.0752e-19)
(-0.0457577 -0.599574 5.08312e-19)
(-0.193117 -0.472545 1.88011e-19)
(-0.26358 -0.418806 0)
(0.956463 0.472671 0)
(-0.376879 -0.389165 2.60648e-19)
(1.89355 0.0690863 -2.44519e-19)
(1.06632 0.89137 1.29789e-20)
(1.06965 0.206202 -9.81148e-20)
(1.14863 0.0154269 -1.69297e-19)
(1.05981 -0.0464228 -5.70168e-20)
(-0.0211041 -0.63809 -4.70738e-19)
(1.96185 0.0172022 5.38458e-19)
(0.697603 0.0234733 1.60745e-19)
(1.90802 -0.0588409 1.56811e-19)
(1.04478 -0.173318 0)
(0.0835027 0.553633 4.49923e-19)
(1.11542 0.0210933 -3.97809e-19)
(1.73299 0.630361 -1.93474e-20)
(0.746223 -0.462315 -1.29541e-19)
(-0.0745319 -0.0283522 2.51609e-19)
(0.804924 -0.707238 2.82865e-19)
(1.22515 0.197431 5.60356e-20)
(1.00694 -0.0103835 2.0259e-19)
(0.172275 -0.563656 -2.10548e-19)
(1.02702 0.018888 0)
(1.48161 0.184805 -1.89645e-19)
(-0.0163203 -0.00341907 0)
(1.02602 0.0125112 -1.18955e-19)
(-1.27206 -0.265361 -5.93932e-19)
(1.69441 0.337839 6.4149e-21)
(-0.509377 -0.356609 1.86308e-19)
(1.6331 0.0306592 -3.33338e-20)
(1.0177 -0.0198904 4.18338e-20)
(1.33074 -0.0943322 0)
(1.46066 -0.61311 -6.50101e-20)
(1.02203 0.0321634 -1.23918e-19)
(1.42914 0.789057 -1.44483e-20)
(1.38895 -0.0619366 0)
(0.886306 -0.158871 -4.41567e-21)
(0.0147111 -0.0079791 0)
(1.37174 0.0451863 0)
(-0.486974 -0.641647 0)
(1.23456 0.443667 0)
(1.87064 0.34057 6.66634e-20)
(0.733932 0.606481 3.25433e-19)
(0.29703 -0.298976 -1.92243e-19)
(-0.242741 -0.682512 -4.54791e-19)
(-0.0102199 -0.0234843 0)
(1.41196 -0.520255 7.00812e-20)
(1.29001 0.518639 0)
(1.44571 0.299793 0)
(-0.640503 -0.394922 1.74785e-19)
(0.802429 0.708508 9.98398e-20)
(1.71039 -0.0215684 0)
(-0.416726 -0.598498 1.0516e-19)
(0.907136 0.211542 1.54309e-19)
(1.44463 -0.405914 -4.47009e-20)
(1.23116 0.92346 2.89021e-20)
(0.929113 -0.835741 -1.51458e-20)
(0.66836 -0.181976 -3.49207e-20)
(0.788924 0.712582 1.01487e-19)
(1.16872 0.922235 0)
(2.00123 -0.409515 1.37462e-19)
(1.23385 0.717184 0)
(1.31966 -0.440338 2.15625e-20)
(0.866628 0.111158 2.00916e-19)
(1.00512 -0.00688484 0)
(0.136588 0.23529 3.80042e-19)
(0.890163 -0.173922 3.82986e-20)
(0.635996 -0.416929 0)
(0.674296 -0.389889 1.72836e-19)
(1.23637 0.559095 -2.4972e-20)
(0.468132 0.440634 2.2837e-19)
(-0.338295 0.438692 4.71811e-20)
(0.104678 0.105223 1.08298e-19)
(0.771927 0.0631757 0)
(1.33212 -0.904713 -1.46385e-20)
(1.0459 -0.0387418 3.21151e-19)
(1.45091 0.335659 1.59454e-19)
(-0.457558 -0.645007 9.14909e-20)
(-1.04938 -0.0140331 0)
(1.21601 -0.245018 -8.25934e-20)
(-0.00168463 -0.000338083 -2.15862e-19)
(0.035688 0.0999166 -5.2843e-20)
(-0.122085 0.0294124 -3.12392e-22)
(-0.198 0.0809816 3.28082e-19)
(1.20655 0.0707583 1.56107e-23)
(2.37411 -0.0355033 4.6144e-19)
(1.19286 0.468151 -2.2112e-19)
(0.915713 -0.0299351 0)
(1.91599 -0.0718434 3.23953e-19)
(1.83595 0.126932 1.42852e-19)
(0.917819 -0.77224 1.01765e-19)
(1.16496 -0.980898 -2.87096e-21)
(0.472979 0.4383 1.52317e-19)
(1.47863 0.508508 0)
(1.74183 0.594788 5.1862e-20)
(-0.00547438 -0.00826174 -4.39952e-19)
(0.879013 0.767019 0)
(1.19968 0.153953 0)
(0.29841 -0.298165 -3.86384e-21)
(0.316243 0.291443 0)
(-1.4143 0.0219767 -5.03402e-19)
(-0.433928 0.570312 -1.41421e-19)
(1.75664 -0.413417 0)
(1.2885 0.0647544 8.48146e-20)
(-0.670903 0.241015 3.27791e-19)
(0.541155 -0.514626 -3.64657e-19)
(1.94196 -0.0845682 -5.83539e-20)
(0.61904 -0.562709 0)
(1.04091 0.11592 0)
(1.39453 -0.217608 0)
(1.10233 0.227295 -1.82544e-19)
(1.31798 0.108689 2.56028e-19)
(-1.2865 -0.0938648 0)
(0.859066 -0.0518951 0)
(1.91169 -0.121234 1.3928e-20)
(-0.121096 0.308974 1.15888e-19)
(2.43475 -0.232653 -3.37136e-19)
(1.07934 -0.516257 2.28603e-19)
(1.89215 -0.0676044 -3.46831e-19)
(-1.1656 0.428288 -2.49344e-19)
(2.01889 0.0925163 -2.75262e-19)
(1.01547 -0.024911 3.29319e-19)
(1.50946 0.614752 0)
(-0.47855 0.617518 3.75354e-20)
(1.01054 -0.834959 1.16985e-19)
(0.852053 -0.0222243 3.91079e-20)
(0.64088 -0.439894 0)
(1.90791 -0.541914 1.19199e-20)
(1.2144 -0.185299 1.04919e-19)
(1.41024 -0.517363 0)
(0.613667 -0.5703 3.22421e-19)
(0.503122 0.0824168 -5.38192e-20)
(2.39347 -0.279226 6.38752e-19)
(-0.180192 0.469439 -2.4315e-19)
(1.32873 0.622321 1.0241e-19)
(1.14678 0.408141 2.86059e-21)
(0.90404 0.371089 1.82952e-19)
(1.95962 0.182597 -2.58104e-19)
(-0.0409032 -0.663362 -7.27355e-21)
(0.946635 -0.184415 0)
(-0.153302 -0.101612 4.17146e-19)
(1.10015 -0.956376 0)
(1.06751 -0.656317 1.56123e-20)
(1.24319 -0.00919898 -7.33032e-19)
(1.19754 -0.0702129 4.71762e-22)
(-0.755992 -0.0913027 -4.99532e-19)
(0.98777 0.48305 1.3983e-19)
(-0.0820249 0.259932 1.78929e-19)
(0.710486 -0.0429294 0)
(1.42481 -0.194306 0)
(1.28921 0.152083 1.96534e-20)
(0.759136 -0.0148371 0)
(1.36166 -0.212439 -1.07961e-19)
(-1.71733 0.262657 6.95848e-19)
(1.91598 0.50807 5.23178e-20)
(1.05147 -0.0333128 0)
(0.558812 -0.358803 8.46294e-20)
(1.01261 0.0273281 1.57605e-19)
(0.884644 0.806402 -1.87763e-19)
(-0.537851 0.769008 0)
(1.12592 -0.487436 3.57088e-19)
(1.27125 -0.112017 -3.21546e-22)
(1.11695 -0.509652 -1.5574e-19)
(2.38613 0.22605 2.39597e-19)
(1.28007 0.788875 0)
(0.869271 0.0185695 0)
(-0.532315 -0.633188 -2.32e-19)
(0.01291 -0.00620101 1.69692e-19)
(0.951574 0.365956 -1.6754e-19)
(0.336222 -0.425391 -1.85179e-19)
(0.643204 0.400422 2.01502e-19)
(0.851173 -0.158098 0)
(0.544212 -0.506383 0)
(1.23631 -0.0563649 2.21068e-21)
(1.25294 -0.518393 -6.83509e-20)
(0.650944 0.0260824 1.51597e-20)
(0.73167 -0.161976 9.71542e-20)
(-0.0680299 0.161616 -3.05508e-19)
(1.51519 0.0975284 3.88182e-19)
(0.656222 0.610792 0)
(1.26379 0.69501 0)
(1.5856 0.257233 0)
(-0.422933 -0.354604 -2.20436e-19)
(1.22397 0.5548 2.28298e-19)
(1.96831 0.09004 5.69254e-20)
(0.953469 -0.00168027 0)
(1.20525 -0.254627 0)
(2.14518 -0.104193 -4.18196e-19)
(0.850494 0.559158 2.1469e-19)
(1.00607 0.00381559 -1.57453e-19)
(1.48289 0.476321 0)
(-0.440807 0.694886 0)
(1.24032 0.325044 2.19987e-19)
(1.0225 0.527566 -1.02287e-19)
(1.06446 0.0272319 0)
(1.76961 0.288841 0)
(1.94616 0.685362 -3.45795e-19)
(-0.142633 0.718086 -7.96537e-21)
(0.998904 0.0127683 0)
(0.704274 0.465798 -2.74525e-20)
(0.942116 -0.83035 0)
(1.009 0.0171284 3.65364e-20)
(1.10067 -0.271211 5.48568e-20)
(0.909125 -0.331534 2.40631e-19)
(1.14129 -0.0735027 -4.74298e-20)
(2.17087 -0.124836 4.25554e-19)
(1.11707 0.167132 7.68615e-20)
(0.765698 -0.0243937 0)
(1.01889 0.00780051 0)
(-0.762133 -0.177894 0)
(0.661268 0.632797 -1.48705e-19)
(-0.0336683 0.0856848 2.06328e-19)
(1.16222 0.349235 -3.54214e-19)
(-0.709411 0.478335 0)
(0.823491 0.634905 1.35817e-19)
(1.0229 -0.346903 0)
(1.00641 -0.00128373 9.2181e-20)
(0.473566 0.125509 6.61111e-20)
(1.03646 0.406689 2.02567e-19)
(1.595 0.110418 0)
(2.20586 0.193349 -1.12503e-19)
(0.823018 -0.114451 -2.94591e-19)
(-1.29333 0.0355557 -6.6569e-19)
(1.247 0.389799 0)
(0.879239 0.235017 1.43361e-19)
(2.05533 -0.136274 0)
(0.772155 0.51487 2.96408e-19)
(-1.71432 0.157426 2.77573e-19)
(-0.067605 0.173764 0)
(0.585592 0.555666 -5.73338e-20)
(1.02818 -0.643703 -1.09831e-19)
(0.485102 -0.258273 -1.02063e-19)
(1.0149 -0.0169924 0)
(-0.494678 0.461351 -3.24419e-19)
(0.645158 -0.57634 6.47266e-20)
(0.905181 0.284404 0)
(1.57203 -0.671918 8.20453e-20)
(0.977264 0.83343 1.83795e-20)
(1.13505 -0.221476 -4.03145e-20)
(0.237524 -0.250017 -2.89493e-19)
(0.235054 -0.0572379 -4.66075e-19)
(-0.0892327 -0.2191 1.14127e-20)
(0.81716 0.355471 2.01938e-19)
(-0.384591 0.666969 -6.44806e-21)
(1.43016 -0.655916 3.51463e-21)
(1.02406 0.0071782 -2.71906e-19)
(-0.554367 -0.24469 0)
(1.03367 0.0348931 -3.2198e-19)
(2.1377 0.314278 2.14594e-19)
(0.881661 0.682143 2.2436e-19)
(1.11121 -0.0618915 1.24312e-19)
(1.00288 -0.0293896 1.2605e-19)
(1.23777 -0.0832627 -4.62675e-22)
(-0.420831 -0.515001 -3.61316e-22)
(1.74131 -0.874984 1.54769e-20)
(1.12611 -0.13739 -5.19256e-20)
(0.804627 0.050103 5.9108e-20)
(0.913396 -0.300903 7.16355e-20)
(0.53453 0.149662 0)
(0.955451 0.727119 0)
(0.860524 0.205736 -7.88089e-20)
(2.07554 0.21336 -4.20519e-20)
(-1.30504 0.111973 2.44851e-19)
(1.03433 -0.545834 -3.85143e-19)
(0.623897 -0.54161 3.14096e-19)
(1.361 0.280537 -2.05021e-19)
(0.352243 -0.492212 2.13642e-20)
(1.30114 -0.203825 0)
(0.754083 0.105252 -5.57063e-21)
(1.31093 -0.335309 -4.48859e-20)
(1.03258 0.754913 0)
(1.21801 -0.365286 0)
(0.706564 0.0251511 0)
(-0.190553 -0.367301 -7.45557e-20)
(-0.178391 0.168891 0)
(1.5764 0.745647 2.55511e-19)
(1.20756 0.181839 4.93197e-21)
(-1.06468 -0.148694 2.20419e-19)
(1.41244 0.424838 2.55163e-20)
(1.807 0.495197 -9.99874e-20)
(2.1226 -0.316778 -4.4409e-20)
(-0.167837 -0.00293815 -2.33077e-19)
(-0.09564 -0.514811 5.92653e-21)
(0.804934 0.103215 0)
(0.692208 -0.0365019 0)
(1.00153 -0.000737881 1.78671e-22)
(-0.496498 -0.318632 0)
(1.52197 0.00469966 -1.50454e-19)
(0.687881 -0.0297039 0)
(1.06913 0.00594975 9.95092e-20)
(0.999489 0.0132083 -3.58389e-20)
(1.42894 -0.0514449 2.38701e-19)
(1.05915 -0.0162822 -7.3464e-22)
(0.954025 -0.192323 -4.32681e-20)
(1.02137 -0.0290387 2.91753e-19)
(0.678494 -0.617768 1.44885e-19)
(-0.465098 -0.236899 -2.01646e-19)
(0.990929 0.195728 4.33259e-20)
(0.0106783 0.0068596 0)
(1.11761 0.788937 0)
(1.02671 -0.00461224 0)
(1.00684 -0.778739 -7.33411e-20)
(1.04613 -0.895919 3.09155e-21)
(0.729707 -0.101285 -3.41342e-20)
(0.0474572 0.273212 -8.80926e-19)
(1.21124 -0.124748 2.38369e-21)
(0.591837 -0.391563 -5.18294e-19)
(1.03687 0.373913 -7.06343e-20)
(1.24251 0.0240972 -2.77639e-20)
(2.0553 -0.3232 1.44408e-19)
(0.420814 -0.0335803 -5.44771e-20)
(-0.353448 -0.590311 -1.57285e-19)
(1.11473 0.553451 1.5155e-19)
(-0.0775975 -0.336365 0)
(0.281097 -0.437123 4.77233e-19)
(-0.0593862 -0.0803188 1.98161e-23)
(1.0418 -0.0432189 2.63427e-19)
(1.02048 0.00471229 -6.75499e-21)
(1.099 -0.00986512 -7.28918e-20)
(1.11957 -0.129176 -5.63972e-21)
(1.61512 0.319456 2.9382e-20)
(0.406176 -0.381176 -2.55559e-19)
(0.772697 -0.102482 5.8679e-20)
(1.02941 0.00321674 -1.9244e-19)
(0.801149 0.0602651 -4.45881e-20)
(1.06673 -0.171647 0)
(1.10741 0.590559 -2.83098e-19)
(1.00164 6.77942e-05 7.5212e-20)
(0.668907 0.595849 2.12011e-19)
(1.18536 -0.0344461 5.72658e-22)
(1.06567 -0.00685475 -2.39049e-20)
(1.11378 0.0131257 6.78609e-22)
(2.45356 -0.112492 2.50007e-20)
(0.0745029 0.0222909 0)
(1.06321 -0.0402522 0)
(1.06254 -0.0372288 4.63366e-19)
(1.004 -0.0012107 0)
(-0.028161 -0.0492009 0)
(0.96516 -0.584631 0)
(0.998644 -0.00317578 -4.37543e-19)
(1.16298 -0.685557 5.46617e-20)
(1.02382 0.000436672 9.13274e-21)
(1.33216 0.95459 -1.02728e-20)
(1.51165 1.00372 -9.39483e-20)
(1.22892 -0.0279631 -4.07987e-21)
(1.59265 0.32875 2.13719e-19)
(1.02112 0.225655 0)
(0.0438184 0.72018 0)
(2.1452 -0.00426632 5.36055e-19)
(1.22223 -0.570712 0)
(0.99759 -0.00203032 -1.35996e-19)
(1.00913 -0.00106876 2.63935e-19)
(1.41034 0.145232 -5.25467e-20)
(0.0080128 -0.127215 3.21737e-19)
(0.973705 0.000371075 1.42938e-19)
(0.485888 -0.0795949 3.61646e-20)
(0.50315 0.0818629 -1.99528e-20)
(1.10823 -0.130225 -4.7283e-23)
(0.922795 0.0175237 -1.4332e-19)
(0.999938 0.00527165 1.70223e-19)
(1.0026 0.000162322 1.00434e-20)
(0.788098 -0.0119632 0)
(0.725211 -0.0287812 0)
(0.721934 -0.024694 6.32845e-22)
(0.700542 -0.0302925 0)
(0.313869 -0.0606394 0)
(0.220668 0.00486699 0)
(0.425802 0.0181472 1.39875e-20)
(0.589383 0.0725095 -9.38531e-21)
(1.07013 0.0836856 0)
(1.16627 0.0168921 3.40718e-22)
(1.11938 -0.0805335 0)
(0.458093 -0.0214357 0)
(0.257405 -0.023158 0)
(0.127693 -0.000775155 8.25024e-21)
(0.206185 0.055738 1.05663e-19)
(0.792128 0.0242032 0)
(0.808645 0.0208774 0)
(0.957282 0.0257298 -1.76916e-19)
(0.829294 0.0102684 3.32111e-19)
(1.00571 -0.000828057 0)
(1.0007 -0.000565462 3.14327e-19)
(0.999926 -0.00172063 -3.77071e-22)
(0.802425 0.0197467 2.80616e-19)
(0.992167 -0.00587371 -1.64163e-19)
(0.587966 -0.0689343 0)
(0.293969 0.0204339 1.99717e-20)
(1.00049 0.000119913 -1.58912e-19)
(0.997055 0.00214675 -2.72641e-19)
(1.05954 -0.0969236 0)
(1.00128 0.00266325 0)
(0.998939 1.2187e-05 0)
(1.19579 -0.0779457 1.50702e-20)
(1.31098 0.0183529 4.33919e-21)
(0.803577 -0.00574923 0)
(-0.475009 0.41646 2.3867e-19)
(-0.474371 0.524555 -3.69778e-19)
(1.02021 -0.0142875 -2.1101e-19)
(-0.357114 -0.703133 -1.52499e-19)
(1.02151 0.00346438 -1.69407e-19)
(1.17159 -0.213444 -6.26049e-20)
(0.800926 -0.478465 2.4015e-19)
(-0.0348403 -0.0632813 -1.06854e-19)
(1.02469 0.0131776 0)
(1.06341 -0.010921 -4.57668e-20)
(0.865496 0.0186885 0)
(-0.0332061 0.0698056 2.99409e-19)
(1.19845 -0.521418 0)
(-0.551527 -0.439122 -3.84818e-19)
(0.432359 -0.0752484 -4.18973e-20)
(1.64264 0.692974 6.41348e-20)
(-0.0442493 -0.0416707 0)
(1.06944 -0.0354066 1.43062e-19)
(1.25661 -0.00912674 5.00703e-22)
(0.923034 -0.0110129 2.27348e-19)
(1.0161 -0.00351464 -1.43973e-19)
(1.65746 0.867969 6.89889e-20)
(0.515786 0.482708 0)
(0.437852 0.390253 1.70166e-19)
(1.13191 -0.0669527 -4.59184e-21)
(1.13172 0.123938 1.5165e-19)
(1.08812 -0.713869 0)
(1.02398 0.00126101 0)
(1.00165 -0.0143372 -3.322e-19)
(1.01602 0.0150415 -3.22701e-19)
(-0.13431 -0.375156 0)
(1.21296 0.817677 -8.61742e-20)
(1.17969 0.00682189 -6.09655e-22)
(1.01686 0.00449316 1.24172e-19)
(1.01005 0.0137692 -1.5624e-19)
(-0.680387 -0.320577 -3.7713e-20)
(1.27541 0.0211049 -1.09207e-20)
(1.01467 -0.0125939 5.30615e-19)
(1.09769 0.0815771 0)
(1.83814 0.669116 -8.22536e-20)
(1.02003 -0.0081982 -1.65169e-19)
(1.92203 0.125365 -1.43066e-19)
(1.05209 0.00575917 -3.81173e-22)
(1.00963 -0.00873282 3.3133e-20)
(2.07373 -0.235675 -3.48839e-19)
(1.01506 0.0089121 1.60223e-19)
(1.28599 0.105829 5.43978e-21)
(1.02144 0.00344898 0)
(0.932834 0.143181 4.00878e-20)
(-1.29986 -0.07351 6.19725e-21)
(0.992352 0.0226446 1.59609e-19)
(1.03572 0.0171956 -5.14391e-22)
(1.20739 0.0454432 6.3304e-22)
(1.24272 0.315651 3.06298e-19)
(1.00179 0.0122361 1.09135e-19)
(1.01496 -0.0135533 6.22161e-22)
(1.74162 0.261041 -4.24389e-21)
(1.73911 0.936776 -1.14333e-19)
(0.780112 -0.700558 4.17898e-20)
(0.456312 -0.333317 -2.53135e-19)
(1.00121 -0.0140753 0)
(1.0221 0.00400743 3.97425e-20)
(1.01336 -0.00563103 8.39567e-20)
(1.30172 0.0126624 3.01603e-21)
(1.01734 0.005159 -1.66565e-19)
(1.02673 -0.0262366 1.89735e-19)
(1.00949 -0.00715788 -1.57164e-19)
(1.01109 0.00552059 -4.76069e-22)
(1.01183 0.00761376 -3.77804e-22)
(1.0168 0.0180031 1.59541e-19)
(0.905145 0.082548 4.13927e-19)
(1.73886 0.670424 0)
(0.61376 -0.00467259 2.76353e-19)
(1.01165 -0.00247174 0)
(1.02267 -0.0189305 -4.62276e-20)
(1.53212 0.461685 -3.96077e-20)
(1.78355 0.0322538 0)
(1.73042 -0.425002 -7.31997e-20)
(1.38767 0.703202 -4.02198e-20)
(0.783933 -0.0111303 0)
(1.97348 -0.0598451 0)
(0.666286 0.525113 -1.24894e-19)
(1.22009 -0.0153724 -4.63067e-22)
(1.01439 -0.00598889 -1.6798e-19)
(1.127 -0.569682 -4.36075e-20)
(1.24339 0.0669282 -1.39908e-21)
(1.41988 0.376928 0)
(1.22417 -0.107121 0)
(1.62904 0.524096 0)
(0.269495 0.60437 1.31399e-19)
(1.33985 0.065949 2.77475e-21)
(-0.0489891 0.12703 0)
(-0.0977901 0.638424 -3.99705e-19)
(1.68111 0.970768 -1.01368e-19)
(1.00734 -0.00310496 -3.28575e-19)
(1.31965 -0.0167484 1.16186e-21)
(1.02149 0.00981576 2.16768e-19)
(0.70814 -0.0412185 0)
(-0.106841 -0.314352 -3.25726e-20)
(0.608998 0.424996 -2.83574e-19)
(1.69657 0.706544 7.76852e-20)
(0.114058 0.652829 0)
(0.799549 0.0886442 5.59019e-20)
(0.514104 0.490374 4.25431e-20)
(1.17814 0.881921 -2.25209e-20)
(-0.0295682 -0.0102763 1.59511e-19)
(1.02009 0.011765 0)
(1.35498 0.2061 6.10987e-21)
(1.00973 1.79439e-05 1.23289e-19)
(2.4554 0.0318854 0)
(1.01165 0.00802492 2.06861e-19)
(0.348577 -0.449044 -2.24846e-19)
(1.01399 0.0105494 -1.27876e-19)
(1.29481 0.0777387 0)
(1.6392 -0.499162 3.47795e-22)
(1.01097 0.00521691 -8.59765e-20)
(0.996698 -0.0226694 2.27155e-19)
(1.09084 0.0891643 -2.50904e-21)
(1.30047 0.240657 -1.90704e-20)
(-0.163282 -0.062142 4.20003e-19)
(2.0227 0.361656 2.52087e-19)
(1.11561 0.262779 2.26184e-20)
(0.817003 0.018641 -3.11162e-19)
(0.804786 0.0266119 0)
(1.25233 0.0984312 1.72975e-20)
(1.02909 -0.0134343 -2.48775e-20)
(0.974997 0.0318235 0)
(1.04682 -0.00171284 -1.57828e-19)
(0.855638 -0.0792246 -5.40723e-20)
(-1.60912 -0.024102 2.87686e-19)
(2.15477 -0.581765 0)
(-0.926118 -0.371012 -8.68936e-19)
(1.52299 -0.353743 0)
(1.0351 -0.0178307 4.63333e-20)
(0.99788 -0.145314 5.44016e-22)
(1.01926 -0.00511488 1.33208e-19)
(-1.0408 0.137454 6.26425e-19)
(1.02079 0.00627212 0)
(0.98806 0.00372659 -3.23227e-19)
(1.01115 0.0095962 1.69664e-19)
(0.995909 0.0764713 0)
(0.970377 -0.0768983 -1.67231e-21)
(0.968516 -0.000443879 -1.4583e-19)
(-0.233702 -0.708858 5.05374e-19)
(1.00071 -0.000520071 -1.65729e-19)