/*--------------------------------*- C++ -*----------------------------------*\
| =========                 |                                                 |
| \\      /  F ield         | OpenFOAM: The Open Source CFD Toolbox           |
|  \\    /   O peration     | Version:  2306                                  |
|   \\  /    A nd           | Website:  www.openfoam.com                      |
|    \\/     M anipulation  |                                                 |
\*---------------------------------------------------------------------------*/
FoamFile
{
    version     2.0;
    format      ascii;
    arch        "LSB;label=32;scalar=64";
    class       volScalarField;
    location    "7.5";
    object      p;
}
// * * * * * * * * * * * * * * * * * * * * * * * * * * * * * * * * * * * * * //

dimensions      [0 2 -2 0 0 0 0];

internalField   nonuniform List<scalar> 
2186
(
0.709357
-0.368682
-0.0652841
1.01733
-1.19045
0.0058516
0.640998
-1.12199
-1.04232
1.25495
0.946228
-0.990217
-1.14914
0.954548
-0.593985
0.950659
0.974156
-1.84494
0.00242251
-1.09031
1.33234
-1.02222
0.954401
-1.0781
0.94747
0.993388
1.16439
0.855237
0.463454
0.951847
-1.07419
0.949444
-1.00405
-0.48869
-0.975882
-0.0427518
-0.399679
1.31932
-1.01147
0.00618819
-1.17722
-1.03603
-0.709387
-1.12508
0.800635
1.23822
0.321652
0.484272
-0.432927
-1.44703
-1.08499
0.783764
-0.701089
1.24759
-0.963022
0.902044
-0.758758
0.928307
-1.14714
0.746166
-0.249636
0.517259
0.422767
0.0110744
0.450158
0.425338
0.543297
1.22457
1.12339
-1.15105
-1.12565
-0.274221
1.19963
0.95051
1.10378
1.09965
-0.405694
0.968768
-0.980539
-0.953351
-2.26889
0.00691393
0.934065
0.502527
0.940445
0.944753
1.22538
0.00821955
0.00153441
-0.989038
0.902691
-1.10235
0.872815
1.10936
0.957826
0.283294
-0.189807
0.473812
-1.34223
0.940846
-2.00809
-2.27708
0.545287
0.900115
0.973514
-1.13775
1.12901
-0.763413
0.885497
0.0969285
-0.887281
-1.30428
0.512041
1.24181
-0.981358
-1.07979
0.0173132
-0.306848
-0.99646
1.2035
-0.184022
-1.79536
0.741626
-2.00433
0.954145
0.0165246
-1.26705
1.09181
-1.85785
0.623007
1.32587
1.18199
0.213637
0.614623
-2.17247
-1.51312
0.874724
-1.05683
-0.659366
-1.03794
0.682087
-0.2372
-1.09125
0.663816
0.858251
0.903574
-0.700995
-1.21978
0.569093
-1.11626
-1.17224
0.546164
0.972499
1.12908
0.994438
0.493542
1.21831
0.319328
0.214866
0.392013
-1.03924
-1.9781
0.922409
0.939641
0.00615703
0.00393648
-0.932518
-0.926607
-0.0254424
-0.0491061
0.222812
0.945937
0.974375
1.05828
0.288523
-0.447382
-1.17004
0.921692
-2.21937
0.751465
-0.927163
0.964764
-1.07527
0.416666
0.395699
-1.21309
-0.924233
1.04536
-0.651669
-1.1629
-1.35017
1.19311
-1.28797
0.928994
-1.03079
0.124889
-0.0766512
1.1131
0.976944
-1.04993
-1.35165
0.218783
0.0570511
0.978019
-0.986173
-1.15618
-1.00823
-0.16906
0.887666
-0.690661
0.481537
0.00323849
1.22943
0.71222
0.814573
0.903952
1.09988
0.950975
0.853407
1.01384
0.334656
-1.00697
-1.05542
-0.0546982
0.16352
-1.90215
-1.23986
0.943826
1.08202
-0.91333
-0.925164
-0.146499
0.343773
0.614426
0.740271
0.855101
1.06873
-1.8042
0.841465
-1.0581
-1.43348
-1.07096
0.901779
0.608019
1.06601
1.122
1.02323
1.00001
-1.09912
0.786533
1.04191
-1.15839
0.88761
0.658419
-0.388863
-0.99665
-0.912899
1.06737
0.970924
-1.19429
-0.9957
-0.00246922
0.910541
-2.21991
0.636156
0.981602
0.832397
-1.02809
-1.07983
0.927671
0.527288
-0.579967
-0.636758
1.27371
-1.15928
-1.10092
0.809441
1.13271
0.942018
-1.30572
-0.591747
-0.892835
0.824998
-1.19539
0.516149
0.924067
0.973778
-0.232384
-0.454687
0.906517
-1.14149
0.883498
1.14202
0.966567
0.964384
0.0597007
-1.43126
-1.05395
-0.300567
-0.331933
-1.01298
0.352858
-0.587254
0.479635
1.11874
1.12527
0.825403
-0.740568
1.07608
-1.51431
0.00691099
-1.57173
-1.03466
-1.20356
0.320797
-1.17597
-1.11215
0.0108617
0.844383
-0.0902806
0.240663
-1.29482
-0.0239074
-1.17037
-1.26691
1.15876
-0.177359
0.0192356
-1.07919
0.753036
0.436155
-0.565848
0.484646
0.28914
-1.26121
0.535796
0.972337
0.984259
0.304563
1.09475
0.848374
0.239171
1.19263
0.943386
0.902711
0.32961
-0.13083
-1.0472
0.76643
-1.15839
-0.937588
-1.66573
-0.969481
-0.997623
1.29373
0.0293748
-1.07383
-1.16604
0.948861
-1.12272
-0.580793
-1.43493
0.725743
-0.0720447
-2.22321
1.18869
1.25007
1.07718
-1.10192
0.0193025
1.30826
0.946614
-1.42889
0.319658
-1.06971
0.149684
1.10851
0.893211
0.826485
1.24912
-0.525812
-0.158669
-0.109893
-0.310367
-2.06791
-1.01467
0.00930976
1.23485
-2.10275
-1.4284
0.93489
0.5551
-1.01031
-1.95729
-1.05504
-1.72204
-1.91327
-1.02456
-1.09811
-1.14993
1.13892
-0.0231688
-1.03106
0.968213
-1.90236
1.21035
-1.95735
-0.21645
-1.49131
0.944035
-0.916045
0.970477
0.809286
0.0506466
0.995073
-1.90165
-1.01528
-1.3672
0.967274
0.899834
-1.05874
-1.07688
-1.64632
0.890658
-2.26865
-1.52752
0.377469
0.871417
0.854113
0.694526
-1.09936
-0.629984
0.763949
-0.715112
0.776262
-0.307313
0.970262
-0.196891
1.08397
-0.996278
0.814366
0.611696
0.978345
-1.42822
0.938234
-0.262447
-1.01257
0.95142
0.0904849
-0.00332905
-1.02261
-0.27915
0.953163
0.0774506
0.257824
0.946809
0.0959441
-0.16552
0.00460652
-1.07448
0.196161
-1.24568
0.596259
-0.910699
0.982803
1.08529
-1.12405
-1.03095
-0.101754
-1.03899
0.284295
-1.19157
0.726755
-0.0638408
-1.14429
1.02563
-0.0559239
0.232436
0.273328
-0.093518
0.68665
0.202995
-0.199276
-0.0619276
-0.000470164
-0.891622
0.963961
-0.0869613
1.05891
1.17841
1.16586
0.534416
1.08533
-1.15883
-0.895699
0.86544
0.192954
0.935485
-0.972533
-1.14031
-2.19428
0.742238
-1.01953
-1.33009
-1.07048
-1.12137
0.0116051
-0.932091
0.626596
0.616667
-0.670091
-0.664737
0.716527
0.052898
1.05307
-0.501611
-0.340325
-1.02196
0.647302
0.00943579
1.12283
1.32363
-1.87362
-1.19722
-0.867977
0.13266
-2.19169
0.993001
-0.628209
0.951134
0.668011
-0.968031
0.78981
0.752133
-0.431137
0.849044
-0.395422
-1.08535
-0.640672
-0.950003
-0.46041
-1.88101
-0.725473
0.947081
0.0725056
-1.24776
0.562481
1.09404
1.16474
-0.380162
0.709246
0.00784352
0.743583
-0.0586321
-0.735574
-1.11043
0.368431
0.711142
0.978607
-1.09642
-1.11679
-1.89686
-1.00152
-0.1368
0.696251
-1.87793
0.00586325
-1.66394
0.847806
0.149369
0.900923
-0.218412
-0.249852
0.907886
0.627912
-1.78636
-0.324499
0.909544
1.24213
0.968315
0.176366
-2.01048
0.76115
-0.197657
0.746628
-0.781738
0.31359
0.90688
-1.16186
-1.07609
0.935335
-1.54797
1.16681
0.00731159
0.839684
0.0302877
0.586178
-0.759323
1.183
-1.0784
-1.66105
0.866799
0.394986
0.378414
-1.57459
-1.06651
-0.659839
0.704521
-0.017445
-0.700274
0.0850293
0.965906
0.264125
-1.86663
0.647308
0.796476
0.928947
-1.09117
-0.962291
-1.10819
0.96585
1.09671
0.466782
0.965246
0.0583082
1.01033
0.0387251
-0.876491
-0.209927
0.887307
0.914312
-2.37282
0.748101
-1.08847
0.712617
-1.30269
0.909981
0.908681
0.96351
-0.603389
0.83141
-1.87363
-0.803046
1.11569
-1.70604
-0.216805
1.04293
-1.33998
1.02293
-1.49349
-1.10018
0.956668
0.744028
1.30753
0.94882
-2.28155
1.03808
1.00969
-0.0647718
0.517613
0.0466537
-0.848026
1.43327
-1.0528
1.05713
-1.18738
0.270649
0.946191
-1.76445
0.933862
-0.776962
0.828573
0.911274
0.966714
0.00974022
-1.11434
-0.635754
0.563598
0.676736
1.02064
-0.0973107
0.725361
-1.1566
-0.49395
-1.81621
0.795524
1.0993
-1.38025
-1.18361
0.0160914
1.17481
0.0189791
0.624992
0.0350775
-1.86698
-1.09304
-1.04027
0.000794257
0.718801
-0.0182835
0.00438303
-0.458148
-0.566692
-1.09249
-1.60574
-0.114376
0.917299
0.965534
-1.61782
-0.403004
0.930872
0.894714
0.969916
-1.71844
0.92765
1.00723
0.947941
1.01553
0.183503
-0.00908695
-1.07949
0.501227
0.954626
0.676417
0.134037
0.00654698
-0.368259
0.0250203
1.21104
-0.0388376
0.0282294
-0.69377
-0.020702
-1.12453
0.684833
-0.91811
-2.01998
-1.01362
0.942957
0.95099
0.95496
0.00594842
0.190255
1.18801
0.00752322
0.944705
0.00104078
0.00626958
0.656589
0.963415
1.00912
0.0191783
0.921295
0.921165
-0.775343
-0.00884877
0.956494
0.971325
0.966703
-1.02733
-1.03275
0.966731
0.580253
0.952297
0.0672038
-0.288187
0.0244748
-0.639081
-0.159151
-1.17263
-1.33124
0.0382301
0.970092
0.976156
0.669488
-1.00176
0.94647
0.00672058
0.0110944
0.00242493
0.949307
0.972594
0.969362
0.97683
0.959035
0.952332
0.938985
-0.0412875
0.010335
0.00694788
0.00544707
0.00149067
0.000642988
0.000776406
0.00775887
0.00716016
0.00485846
-0.0348692
0.948048
0.96414
0.961208
0.981659
0.975745
0.968493
0.970709
0.953758
0.956538
0.00412842
0.00897839
0.969071
0.967952
-0.000585643
0.969846
0.970055
0.0160893
0.0205981
0.00477418
-1.10696
0.179788
0.952865
-1.25899
0.95303
0.612172
1.03445
-1.048
0.947265
0.888712
0.901052
-1.0732
0.0541197
-1.34676
-0.00369281
-0.1961
-1.06061
0.963751
0.0186178
1.03829
0.957494
-0.335041
1.10293
1.25761
0.00735654
0.802814
0.635981
0.946928
0.964211
0.959611
-1.04933
0.361009
0.0180752
0.954043
0.966164
-1.28677
0.0183387
0.955862
0.0105382
-0.508238
0.955246
-0.540473
0.932761
0.964857
-0.975717
0.96505
0.0252252
0.957145
1.01613
-0.54879
0.970666
0.975298
0.017048
0.592227
0.956318
0.966251
-0.0113414
-0.954187
0.689157
1.30077
0.963622
0.953467
0.960639
0.0181024
0.95595
0.944528
0.967336
0.955093
0.96003
0.95556
1.05165
-0.0268741
-2.07811
0.959478
0.949562
0.167052
-0.466073
-0.106096
0.0285337
0.816551
-1.48806
0.142831
0.0043912
0.950507
0.694887
0.0123569
0.0331453
0.0107248
-0.119247
-1.28807
0.0191162
0.190244
-2.20512
-0.506203
0.963166
0.0153125
0.946766
0.871987
-1.0248
1.17923
-0.0175981
-1.71464
0.734288
1.06132
0.333228
-1.00419
0.948317
0.0281636
0.959919
-0.941002
0.960454
-1.82132
0.949062
0.0214892
-0.172525
0.962086
0.975666
0.887112
0.0350009
-0.988061
-0.994567
0.0422653
0.974853
0.85362
0.0323754
0.948384
0.990792
0.942642
0.0593677
-1.48426
-0.684648
-0.542219
0.295039
0.964528
0.00412578
0.955256
-1.73285
0.950798
0.987554
0.963874
0.000868844
0.000940102
0.987008
-1.24022
0.962618
0.966145
-0.0119611
-1.11892
0.861598
1.07281
0.944091
0.940617
0.0560358
0.0938291
0.927157
0.393469
0.96523
0.811387
-1.16895
-1.09344
0.79553
1.19815
0.95094
0.321996
0.0777253
0.0422729
-0.065716
0.188443
0.939762
-0.490149
0.93209
-1.7412
-1.03593
-1.17879
0.348978
-1.22206
0.0671528
0.13961
0.946533
-1.00805
0.831529
-1.05944
-0.190216
0.0692499
0.00932416
0.148441
0.92532
0.0455646
-0.755477
0.100337
-1.26319
0.938458
0.218052
0.00913077
-1.48848
1.01706
0.02763
-1.05507
1.01844
0.938366
0.930989
0.455515
-0.911136
0.954175
0.97781
-0.209276
-1.1312
0.948182
0.765312
1.18966
0.968888
-0.187861
0.198224
-1.19659
-1.74057
-1.33215
-1.01843
0.0280339
-1.35078
0.769327
-0.0378195
0.964138
1.15121
0.944347
-0.991686
-1.3616
0.949894
0.176312
0.105834
0.932415
-0.262852
-1.03591
-1.33153
0.0435387
0.899085
0.871536
-0.0699041
0.797431
0.587512
0.250531
0.938835
-2.43018
0.759921
-1.00599
0.943173
0.117495
0.394504
0.952733
1.02552
-1.31275
-1.74282
0.77875
1.31551
0.969314
0.947365
0.28889
1.19837
-0.863744
0.0831139
-0.858961
0.451702
-0.855967
1.05912
1.1169
-1.06985
-0.291419
0.947435
-0.796938
0.81454
0.978959
0.910428
-1.33274
0.951516
0.00128184
0.977781
0.00031967
0.0992292
-0.285403
0.953548
0.0139166
-0.645057
0.0882367
0.959151
0.137311
1.12688
0.246374
1.26274
0.915536
-1.10146
0.936554
-1.10196
0.92346
0.928794
0.0606617
0.12791
1.05989
0.941068
1.16131
0.907639
0.0609715
0.906693
0.946808
0.803663
0.95815
-1.03629
-1.37386
0.210685
1.05293
-0.543905
0.135828
-1.086
-0.516267
0.0695843
0.017378
0.792122
0.0777296
0.913268
0.964155
-1.14507
-1.36498
-0.944105
-1.30953
-1.36114
-1.09731
0.95326
-0.263744
0.969003
1.19021
1.00662
-0.333405
0.970409
0.88643
-0.78828
0.912708
0.932069
-1.17323
0.932663
0.871076
0.0113003
-0.812295
1.40374
-0.228328
-1.58425
-1.29348
0.221759
0.94004
-1.6708
-0.0856544
-1.05965
1.08125
0.18028
0.780035
0.960339
0.942654
-0.861945
0.927871
-0.692631
0.963732
0.977176
-0.542883
0.965778
0.409867
0.94534
0.677561
-1.65258
0.00193944
0.00250505
0.0317428
1.18045
0.00900157
0.978211
1.33486
-0.192704
-0.00475316
1.01888
0.000915095
1.01583
-0.00359087
-0.000260999
1.00975
1.01229
0.408264
-2.26216
0.686049
-0.888499
-1.32379
-0.861103
0.972816
0.954718
1.3727
-1.00651
0.154499
0.716306
-1.3707
1.02089
0.926093
0.947724
0.945212
0.916299
-1.82912
-1.02296
-1.90626
0.74515
0.873045
-0.77193
-1.10816
-1.06749
0.967607
0.988169
-0.436497
-1.77415
0.986132
0.113849
0.128573
0.699092
0.854663
-0.0504738
-1.42731
-0.342887
-1.13331
-0.917354
-1.90583
0.056899
1.32532
1.3046
-1.04839
-1.05868
0.965528
0.944408
-1.36351
-0.0862589
-0.376761
0.573516
1.04391
-1.73507
0.962472
-0.00594092
-1.38204
-1.16605
-1.56479
-1.16423
0.940256
-1.10102
-1.78866
1.30357
-1.11995
0.962184
1.16927
-1.11327
1.00732
1.20728
-1.15299
1.18479
-1.1328
-1.43002
0.959725
0.059099
0.978341
0.962123
-1.13272
1.01365
0.126059
-1.43701
0.993031
0.995728
-0.926578
-2.08237
0.89438
0.951319
-1.10073
-1.18603
1.22477
-1.1259
0.85791
0.0197546
0.903581
-0.960435
-0.991268
-1.0663
-1.1321
1.03281
0.986498
1.24409
1.14826
0.915085
1.01285
1.00358
-1.05601
1.0744
1.10287
-1.15555
-1.1191
-1.24697
1.26549
-0.0700223
-1.35735
0.03882
0.873578
-1.16711
-0.983599
0.959518
0.985572
-1.07801
-1.12586
-1.28913
0.0147031
-1.25829
-1.16079
-1.04696
0.825237
0.865491
-1.10095
-0.579536
-0.891547
0.774455
-1.12513
-1.10027
-1.03956
0.914616
-2.63126
-1.13629
1.28351
0.869826
0.367661
1.15458
0.0682402
0.948096
0.963652
1.07648
1.16685
-0.000925465
0.609725
0.946395
0.254155
-1.03114
1.36972
0.924107
0.872187
1.01948
-1.14794
-2.61649
0.819334
0.73758
0.922814
-2.18406
-1.08077
0.942796
-1.03476
0.790847
0.0350835
1.35619
-1.02429
0.666385
0.71838
-1.08536
-1.01723
-2.03826
1.02423
-1.08997
-1.01489
0.681928
0.544134
-1.62924
1.01794
0.804771
-1.09446
-0.874724
0.903754
-2.21117
-1.01042
-1.24728
-1.07796
-0.860027
0.927318
0.964688
-0.590882
0.60379
0.959659
1.28775
0.260103
0.203387
-0.0698422
0.855015
-0.467905
-1.08105
-0.118045
-0.707398
-1.07627
0.944842
-1.0883
0.0887452
-1.00437
0.473315
0.556585
-1.06798
0.618719
-1.39485
0.485643
-1.05917
0.395321
-1.08446
0.381394
-0.992999
0.30793
-1.04992
0.796096
-2.60281
-1.04921
-1.057
-1.00377
0.969458
0.081132
-1.09463
-0.992139
-0.0503532
0.0418776
-1.07791
-1.01647
-1.14385
-0.128039
-1.00853
-0.221231
-1.04249
-0.438263
-1.22564
-0.300289
0.837841
0.0153202
-2.38584
0.931183
-0.161215
-0.000291447
0.427038
0.922523
-2.41471
-0.935505
-0.988337
-1.86297
0.856298
1.36059
-0.307452
0.0274298
0.00600282
-1.11212
-0.470172
-0.380503
0.921242
-1.06919
0.915201
-1.26482
1.42513
0.43737
1.37281
-1.11693
1.14931
-0.686304
0.977976
-0.921812
-0.987299
1.03897
0.95275
-1.9735
-1.00912
-1.06686
0.91348
-1.32041
0.936662
-1.237
-1.15138
-1.06931
1.25206
0.984203
1.07383
0.96351
0.971612
0.0439323
-0.557145
1.14759
-2.4108
-1.05743
1.35689
-1.13701
0.865725
0.914622
1.31936
1.37731
-1.1875
-2.29489
0.992337
0.206684
-0.472765
-1.00478
-0.120702
-0.671141
-1.1208
0.547118
-1.66254
1.16008
-0.656358
0.983423
1.07611
0.980329
-1.71033
-0.966661
-1.304
1.04239
-1.14068
1.11559
-0.855856
-1.33602
1.1803
1.26105
-0.994291
-0.00443711
0.911321
-1.63382
-1.4414
0.633926
1.21545
1.17917
-1.5149
0.829393
0.777745
-1.00051
1.19151
0.199368
-1.10686
-0.0934108
0.00992846
0.0165873
1.05621
-1.02114
0.174504
0.0173852
0.0399773
-0.913128
-0.971442
0.941773
-2.25059
0.966478
-0.197954
0.0728889
0.663204
0.233023
-0.980821
-0.771106
-1.20852
-0.0143146
0.0135088
-1.39164
0.869296
-2.62585
-2.1719
0.952135
-1.49289
-1.16759
0.965699
-1.0525
0.906608
0.00560948
-1.03945
-0.350673
0.756467
-0.787163
-2.28797
0.852823
-1.11628
1.02959
-0.59758
-1.25487
-1.08387
-0.998509
1.43661
-1.03763
1.08566
0.0169549
0.919407
1.13428
0.690268
0.983517
1.1003
-0.247479
-0.760364
0.931253
1.05612
1.31199
-1.11148
0.996662
0.597532
-1.12993
0.758402
1.16705
-0.732504
1.28515
0.0523754
-1.01589
0.804814
-1.13359
-1.05556
0.911166
-0.617058
1.01276
1.01926
0.906622
-1.07717
0.842178
1.20434
-1.48802
-0.436693
-0.941829
-1.4101
-1.22757
-1.01303
1.30588
0.724567
-1.14585
0.879959
-1.13108
-1.09228
1.22664
1.1674
-2.42196
-1.93616
-0.996829
-1.08889
0.936936
-1.15881
0.0514544
-0.990684
-0.555173
1.02017
-1.11325
1.3307
0.997067
0.843146
0.972139
1.24491
-1.38442
-1.12719
0.971581
1.10479
-0.89289
0.962319
-0.863843
-1.06454
-1.08545
1.02305
1.05345
-1.07508
-1.20584
0.521602
-0.0975378
-1.7856
0.936186
0.896702
-1.76828
0.938219
0.982292
-1.83789
-1.16084
-1.11786
-1.05476
-1.08372
1.26651
0.0556446
0.848531
-1.17174
1.26371
0.835158
0.797864
0.883402
-1.51403
-0.306583
-1.04497
0.443776
-1.13416
0.888155
0.281286
-0.742309
0.800778
0.969204
0.993626
0.959574
0.000505771
0.993282
0.000153505
0.389139
0.741201
-0.707025
-1.15462
-1.16417
-0.856303
0.965224
0.93429
0.963439
-2.50376
-0.829505
-1.03648
-0.98025
0.961652
1.22826
0.977753
-1.14485
-1.01136
-1.50328
-0.702291
-1.00236
-0.997486
-0.337917
0.947644
-0.941974
-1.09914
0.0108859
-0.113954
0.642658
-0.0569765
-1.02837
-1.3702
0.877789
1.37564
0.0120655
1.05836
1.42878
0.578594
1.1489
-1.18334
0.0225479
1.349
-1.02079
0.285159
-1.12383
-1.09219
-1.0583
-1.08807
0.937996
0.709075
1.13221
1.09345
0.00132133
0.753659
-0.0677739
0.00932198
-1.01372
1.06501
0.644569
0.967156
0.983293
0.00442715
0.00674444
0.984278
-0.636009
-1.00386
-1.09353
-1.06416
0.562044
-1.08398
0.923461
0.647825
-1.02204
1.18756
-1.14583
-0.476137
0.941002
-0.974204
-1.13203
-2.46096
0.510985
-1.10701
-1.7551
0.844021
0.978759
0.0140553
0.00949939
-2.52918
-1.00665
0.0956709
-2.22875
-0.218821
0.582851
-1.36252
-1.07865
1.20397
0.151527
0.258837
-1.07306
-1.10271
0.956355
1.0073
0.436337
0.519623
-1.06367
-1.09851
-0.766765
0.355167
0.429674
-1.05367
0.800022
0.0274601
-1.04392
1.38439
-1.04677
-2.11684
-1.08382
-1.00444
0.814652
-1.07047
-1.14641
-0.997424
-0.00697312
-1.1166
-0.125569
-1.04467
0.00765035
1.11677
-1.17828
-0.191692
-1.02609
-0.31552
1.28094
1.34627
1.16966
0.960107
1.14589
-0.898898
0.947577
-1.14619
1.00416
-0.987928
-0.921153
1.21798
-1.10917
0.451026
-2.34833
1.34814
-0.173662
1.28699
0.509194
0.705784
-1.11429
-1.12302
-0.989352
-1.5998
1.25771
1.13448
0.944686
0.598546
0.950695
0.837977
0.734632
-1.06347
-1.08001
0.110083
0.0169073
0.707718
0.9649
-0.0464171
-1.11995
-1.05349
-2.10111
-0.986579
-0.638665
1.29619
0.982106
0.956742
-0.00098763
0.00540906
0.980171
-0.175142
-1.00881
-1.79644
-1.12695
0.695933
-1.09156
-1.07357
-0.336092
0.951475
-2.70925
-1.08023
0.950947
0.590294
0.695854
0.946544
-1.00036
0.788928
1.14223
0.810456
-0.992264
0.943616
0.341982
0.354664
-1.20344
-1.08469
1.38622
0.220172
-1.43063
-0.0110884
0.828082
0.905153
-1.08661
-1.96398
0.00803104
-1.1874
-0.928529
-1.15716
0.0116862
0.943851
-1.48499
0.936334
1.22918
1.05074
0.929366
1.01751
1.08109
0.948696
-1.75791
-0.686648
-0.576789
-1.06867
-0.903029
-1.0668
1.08602
0.980319
-1.12556
0.92084
-0.959331
0.0864603
-1.05397
-0.0462763
0.509739
-1.64196
0.938373
0.825878
-1.98891
-0.42219
1.28061
-2.51801
0.104081
-1.26735
-1.16737
-1.03741
0.997056
0.684594
1.0539
-1.51191
-0.22961
-0.963677
-0.515736
-1.13024
-0.957793
-1.7021
-2.72776
0.831173
-0.745099
1.40223
-1.31723
-0.595531
-1.02612
-1.06706
0.889492
-1.05449
-1.40898
-0.904284
-0.358644
1.12796
1.17577
-1.95993
-0.291329
0.737099
-1.00969
-0.863731
1.06178
-1.65526
-1.10089
-1.569
0.660512
-0.452715
-1.13199
0.941661
-0.115594
-1.26754
0.951182
-1.00652
-1.71138
-1.5398
-1.14834
-0.138741
-1.13566
1.25264
-1.02528
0.127018
-0.9907
0.703956
-0.905908
-1.11208
0.551972
0.725263
1.00867
0.91822
1.11565
-1.08324
0.80763
0.520762
-1.56115
0.866819
-0.537382
-1.0317
-2.78795
1.13588
1.12195
-1.07068
-1.0771
-1.4455
0.938895
-1.06888
-0.0254765
-1.62401
-1.08107
1.21732
0.939122
-1.11763
-1.08769
-1.13348
-1.10114
0.852017
-1.19609
0.903146
0.114155
0.614808
0.749544
-1.03441
-1.12808
0.862124
-1.0733
0.00774177
1.22575
-1.0391
-1.09547
0.732399
-1.57662
-1.12358
-0.222182
-1.1232
1.30009
-0.645923
0.10971
-1.12358
1.25735
-1.13252
-1.07698
0.546909
-1.43755
-0.989962
1.28496
0.578432
0.969867
-1.14032
1.16523
-0.0315626
-0.852257
-1.15483
-1.16948
-1.14091
1.19812
0.475484
-1.07709
-1.13278
-1.13001
1.06094
-0.975345
1.23414
-0.993043
0.642363
-1.0904
0.260387
0.43655
0.400455
0.31514
0.160869
-1.02379
0.935497
-1.15758
-0.875829
-1.30036
0.244544
1.2736
-0.332753
-1.13501
-1.18465
-1.09449
0.148491
-1.30615
-1.08775
0.814868
0.155458
-1.10445
1.33736
-1.13135
-1.76406
1.30625
-1.09704
0.0282523
-0.988937
-1.05866
-1.084
1.31249
-1.05993
1.22773
-1.08215
-1.11819
1.10914
-0.285707
-1.06442
0.465003
-1.115
-0.112772
-0.435702
-1.08788
0.771583
-1.20826
-1.08496
-1.06416
-1.05838
-0.997079
0.805548
-0.294749
-0.48615
-1.11083
1.25391
-0.906627
-1.11003
-1.02842
-0.195221
-1.20029
-1.03375
-1.10658
-0.174071
1.18038
-1.1581
-0.987523
-1.69071
-0.75894
-0.37918
-1.00409
1.33806
1.27023
0.306213
-1.20025
-0.994955
0.216636
-0.997283
1.34787
0.0897491
1.03259
0.605942
1.2387
-0.0344913
-1.20579
-1.24187
-0.195409
-1.16476
-0.194918
-0.141007
-1.0799
1.24767
-0.330788
0.102291
-0.442342
-0.998721
-1.26113
)
;

boundaryField
{
    frontback
    {
        type            empty;
    }
    Top
    {
        type            zeroGradient;
    }
    outlet
    {
        type            fixedValue;
        value           uniform 0;
    }
    bottom
    {
        type            zeroGradient;
    }
    Inlet
    {
        type            zeroGradient;
    }
    rectangle
    {
        type            zeroGradient;
    }
}


// ************************************************************************* //
