/*--------------------------------*- C++ -*----------------------------------*\
| =========                 |                                                 |
| \\      /  F ield         | OpenFOAM: The Open Source CFD Toolbox           |
|  \\    /   O peration     | Version:  2306                                  |
|   \\  /    A nd           | Website:  www.openfoam.com                      |
|    \\/     M anipulation  |                                                 |
\*---------------------------------------------------------------------------*/
FoamFile
{
    version     2.0;
    format      ascii;
    arch        "LSB;label=32;scalar=64";
    class       volVectorField;
    location    "43.3";
    object      U;
}
// * * * * * * * * * * * * * * * * * * * * * * * * * * * * * * * * * * * * * //

dimensions      [0 1 -1 0 0 0 0];

internalField   nonuniform List<vector> 
2186
(
(1.33127 -0.064639 1.78787e-19)
(1.75985 -0.985144 -1.88727e-19)
(1.57275 -0.961011 -5.18125e-21)
(0.788245 -0.627902 -1.22485e-19)
(0.114775 0.0488521 -1.30875e-19)
(0.186122 0.573727 0)
(0.787622 -0.726331 0)
(-0.201805 -0.26817 1.73159e-19)
(2.02071 0.177028 2.7427e-19)
(0.592755 -0.366984 -3.03037e-21)
(0.63772 0.573619 0)
(1.21542 -0.254264 -2.25336e-19)
(-0.21556 -0.26242 -6.70005e-20)
(1.21318 0.0223962 -3.4772e-19)
(1.96351 -0.666268 -1.86153e-19)
(1.00872 -0.00443072 1.6933e-19)
(0.979575 0.0104517 0)
(-0.21836 0.867386 0)
(0.85229 1.22211 0)
(-0.166578 0.0687436 -2.95508e-20)
(0.478253 0.0175313 -1.11883e-19)
(-0.215612 0.166004 4.13219e-20)
(1.19937 0.0253812 2.88613e-19)
(-0.224745 -0.147083 5.88982e-21)
(1.03667 0.00461389 -2.26951e-19)
(0.840042 -0.599258 0)
(0.767852 -0.0728637 1.35837e-19)
(0.667533 -0.645927 -1.3254e-19)
(1.1665 0.683284 0)
(0.970555 0.0239469 -3.09981e-19)
(-0.0822225 0.0258885 0)
(1.02954 -0.0144828 1.07418e-20)
(-0.278802 -0.0558131 0)
(1.33763 0.116514 -3.02081e-20)
(-0.107927 -0.186789 1.96382e-21)
(1.48076 0.750331 1.47607e-19)
(1.22013 0.0040652 -2.00766e-20)
(0.497693 0.0676178 -3.3627e-19)
(1.79336 0.284505 -3.5463e-20)
(0.413591 0.413486 -3.94811e-20)
(-0.228723 -0.267025 0)
(-0.1655 0.0791185 0)
(2.09527 -0.879085 1.48416e-19)
(-0.415613 -0.00363111 0)
(1.07912 0.263654 1.68158e-19)
(0.631497 -0.347154 2.57594e-19)
(1.00968 -0.852996 0)
(1.2611 -0.824235 6.18007e-20)
(2.47633 -0.418516 0)
(-0.114261 0.50654 1.03523e-19)
(-0.0862615 0.0260681 4.36433e-20)
(0.588424 0.543094 9.23454e-20)
(2.25716 -0.689541 1.88122e-19)
(0.572137 0.216792 -2.7513e-19)
(-0.388191 -0.234862 1.65855e-20)
(0.819221 -0.69802 0)
(1.8883 -1.02744 2.4978e-20)
(0.635282 -0.592748 0)
(2.23156 0.221933 1.84368e-20)
(1.16164 -0.178187 -2.90067e-19)
(1.54186 -0.235388 3.33339e-20)
(1.31315 0.286248 -2.17127e-19)
(1.30596 0.515695 0)
(0.663786 0.507486 4.32744e-20)
(1.32894 0.374644 -1.43275e-19)
(1.32531 -0.768811 -7.47203e-20)
(1.12855 0.634862 6.40579e-20)
(0.680842 0.0248964 -5.38427e-19)
(0.814604 0.0213604 0)
(2.37065 0.252724 -7.819e-20)
(-0.191871 -0.266409 -2.07625e-19)
(1.99935 -0.392902 -5.39485e-20)
(0.734276 -0.0843369 -2.33541e-19)
(0.923175 -0.556859 0)
(0.813655 0.14247 -8.97549e-20)
(0.598029 -0.55819 -2.5587e-19)
(2.43718 -0.438859 0)
(1.00699 0.00680593 3.43339e-19)
(-0.091843 -0.234988 0)
(1.91927 0.37349 0)
(0.614496 0.652071 4.02635e-20)
(0.538667 0.164945 4.48397e-20)
(1.02528 0.00444581 3.76499e-20)
(1.27427 0.398403 3.48413e-20)
(0.978005 0.02162 3.93173e-19)
(1.04496 0.0255032 -9.38439e-21)
(0.654299 0.127259 -3.28463e-19)
(0.603652 0.59207 -2.68849e-21)
(0.185135 0.0223716 0)
(-0.0742531 -0.0831406 1.66716e-19)
(0.913837 -0.664911 -1.28769e-19)
(-0.0912616 -0.0765523 -3.96628e-21)
(1.13527 -0.0864026 2.16166e-19)
(0.842115 -0.22238 0)
(0.977864 0.0226662 3.78877e-20)
(1.31926 0.62257 0)
(1.74988 -0.981716 0)
(1.26351 0.2163 0)
(-0.00870852 0.344941 0)
(0.845404 -0.714504 2.35782e-19)
(0.820595 0.574261 -2.18003e-19)
(0.769726 0.763218 1.15308e-19)
(1.53272 0.186527 0)
(1.16509 -0.108009 -1.97608e-19)
(1.12667 0.0225968 1.69569e-19)
(-0.293387 0.182015 5.22999e-20)
(0.598304 0.460891 0)
(1.98958 0.0658343 -1.1084e-19)
(1.01399 -0.516047 6.61855e-20)
(-0.65261 0.232194 1.65558e-19)
(1.68586 0.303103 4.9802e-20)
(-0.0623681 0.296374 -1.75937e-19)
(0.88889 -0.80571 0)
(0.531336 0.295483 1.69092e-19)
(2.03452 0.0686077 -8.22687e-19)
(-0.246246 -0.154517 -5.59213e-19)
(1.97319 0.784613 1.80435e-19)
(2.22094 -0.583749 0)
(-0.100243 -0.121375 -4.98122e-19)
(0.723793 -0.122647 7.28058e-20)
(1.50036 0.850577 0)
(-0.191491 0.722971 -1.1908e-19)
(0.843725 0.722489 -3.06808e-19)
(-0.339849 1.00138 2.58454e-19)
(1.02652 -0.0270604 0)
(1.86627 0.396684 -2.27346e-19)
(0.0778454 0.141279 0)
(0.742655 -0.539235 -9.10813e-20)
(-0.243891 0.912151 -1.32865e-19)
(0.8562 -0.780759 0)
(0.476518 -0.344634 3.77453e-19)
(0.591168 -0.506998 2.44184e-19)
(0.464242 -0.420186 0)
(1.05562 -0.832236 -7.71275e-20)
(0.663388 0.529827 0)
(-0.181978 0.627649 -8.12273e-20)
(0.869803 -0.749206 1.08344e-19)
(2.15609 0.105223 3.03265e-19)
(2.19361 0.139102 0)
(-0.153825 -0.191163 0)
(0.643762 0.596526 -3.92864e-19)
(1.89738 -0.585636 4.97618e-20)
(-0.180899 -0.200704 0)
(1.05031 -0.857778 -8.95881e-21)
(1.16766 -0.102033 0)
(1.10011 -0.131466 3.41118e-19)
(2.03096 0.00208962 -1.35228e-19)
(0.0636689 0.186915 0)
(1.28524 -0.575676 -3.50758e-20)
(-0.41634 0.106061 -2.06932e-20)
(0.126523 -0.098033 0)
(1.166 -0.863309 1.5032e-20)
(1.00765 0.00287198 -5.73556e-19)
(0.699014 -0.528721 -9.07667e-21)
(0.867017 -0.560138 0)
(1.27446 -0.76723 -5.41126e-20)
(0.631916 0.186558 2.57917e-19)
(1.18829 0.100897 0)
(1.4452 0.102185 -4.03249e-19)
(1.2785 -0.906376 -7.23853e-20)
(-0.149068 -0.188557 -1.79167e-19)
(-0.223429 0.0588421 -2.76787e-19)
(1.06336 -0.00282654 2.23768e-19)
(0.967531 -0.500529 -8.32228e-20)
(0.538029 1.14573 2.48959e-21)
(0.787583 1.31555 5.97069e-20)
(1.05335 -0.141201 2.06354e-19)
(0.061721 -0.00612857 -4.5765e-19)
(1.08732 -0.0944393 0)
(1.56448 -0.418377 6.43641e-20)
(1.39882 0.626793 1.97338e-19)
(0.860176 -0.65879 -1.72014e-19)
(0.995601 0.00727227 1.17453e-20)
(0.771627 -0.575145 2.50234e-19)
(1.25546 0.771354 1.71308e-19)
(1.8306 0.0901224 -8.07645e-21)
(0.00505343 0.244271 0)
(1.07632 0.0504083 -2.34958e-19)
(-0.689712 0.808336 -2.67408e-19)
(1.03549 0.463947 8.85757e-20)
(0.524679 -0.102348 2.76083e-19)
(1.16702 0.0261164 -4.04885e-20)
(-0.217388 -0.101778 -7.5463e-20)
(1.24858 0.556895 -1.01173e-19)
(1.08987 0.848524 0)
(-0.0531704 0.338754 -7.71039e-20)
(-0.118649 -0.130299 0)
(0.612115 0.523078 -2.91236e-19)
(2.01628 0.256391 -6.8722e-22)
(-0.243354 -0.245607 2.12449e-19)
(-0.340433 0.50495 -5.28815e-19)
(0.721755 0.0237218 2.36753e-19)
(2.04766 0.175087 -3.17359e-20)
(1.02339 -0.374416 -2.51202e-20)
(-0.112777 -0.126866 0)
(-0.257727 0.0955151 3.4155e-19)
(1.2662 0.930872 -6.65009e-20)
(0.831357 0.0349077 -1.31587e-19)
(0.515347 0.482915 2.04387e-19)
(0.381167 0.191522 0)
(-0.155642 -0.238544 -3.43101e-19)
(0.107755 -0.871036 3.00171e-19)
(1.40508 -1.01996 -2.02562e-22)
(0.997107 -0.0503588 -1.76045e-19)
(-0.110727 -0.185007 4.89382e-21)
(0.188756 -0.175294 1.06307e-19)
(-0.21739 -0.262695 -3.24788e-19)
(2.25644 -0.67253 0)
(1.12079 0.0416305 -3.19781e-19)
(2.30839 0.124026 1.09301e-19)
(1.34633 -0.638637 5.02132e-20)
(0.739978 0.131035 -1.16065e-20)
(0.561035 0.27218 0)
(0.901376 0.713799 -1.84132e-20)
(0.641097 0.588727 2.03069e-19)
(0.950194 -0.604579 1.17319e-19)
(0.647169 0.45901 0)
(1.02547 -0.00269946 7.60024e-21)
(0.938921 -0.70866 1.65802e-19)
(0.8085 0.385415 -4.72933e-19)
(1.23966 -0.11222 0)
(-0.136814 -0.134307 -3.91138e-19)
(-0.234729 0.0144103 -5.34878e-20)
(1.53112 0.700454 0)
(1.4558 -0.984657 1.73424e-22)
(-0.183664 0.818236 0)
(0.156877 -0.0098542 8.18498e-20)
(0.695978 0.613239 -1.04997e-19)
(0.87162 -0.250116 0)
(-0.131071 -0.264214 0)
(1.9804 -0.389351 0)
(0.51659 0.013132 6.47787e-19)
(1.30304 -0.931678 4.80032e-20)
(1.24405 -0.633421 3.89428e-20)
(1.07649 -0.175717 -1.27317e-19)
(0.937005 -0.738218 -1.28596e-19)
(0.210826 -0.215188 0)
(-0.517661 1.10928 0)
(1.05603 -0.541061 1.31826e-19)
(-0.169863 -0.206704 0)
(-0.0632403 0.557893 0)
(-0.222946 -0.12874 4.79497e-19)
(0.753275 0.632323 9.10775e-20)
(0.969657 0.756948 0)
(0.658936 0.512649 -8.83552e-20)
(0.839713 -0.079991 -2.0901e-19)
(0.707725 0.521875 -2.37504e-19)
(0.550312 0.509645 -1.76128e-19)
(-0.180993 -0.262649 -3.64772e-22)
(0.778396 -0.695964 0)
(0.886089 0.142864 -3.21486e-19)
(-0.206298 -0.279947 9.24358e-20)
(0.560669 0.519619 4.04731e-19)
(0.914071 0.759133 0)
(0.444489 0.488975 4.20797e-19)
(-0.186639 -0.228619 5.6197e-19)
(-0.120831 -0.0847858 -2.99623e-19)
(0.624233 0.528521 -1.53441e-20)
(0.969169 -0.0100182 5.61209e-20)
(-0.234695 -0.25127 0)
(1.74888 0.289823 -1.66285e-19)
(1.87961 -1.0142 -1.20386e-19)
(0.710274 -0.657854 -5.91274e-20)
(-0.0551725 1.0184 8.46884e-21)
(1.15447 0.436077 2.09422e-19)
(0.856153 0.378956 0)
(1.07696 -0.183894 1.62481e-19)
(-0.103812 -0.221102 4.43133e-21)
(-0.118767 -0.10575 1.76596e-19)
(0.928751 0.0194877 -4.81189e-20)
(1.08173 0.127464 0)
(1.59794 0.102707 -2.31025e-19)
(1.90816 0.131241 0)
(0.52575 0.191771 -4.48669e-19)
(0.2198 -0.191205 0)
(-0.193009 -0.258964 4.08651e-19)
(0.719753 0.096714 0)
(0.668943 -0.562445 -1.55437e-19)
(1.14828 0.0171251 1.91762e-19)
(-0.0137322 0.40407 2.8711e-20)
(1.99631 -0.168602 5.28019e-21)
(2.1696 0.042478 -1.84637e-19)
(1.08555 0.209019 -2.30472e-19)
(-0.205516 -0.281888 -1.72722e-19)
(1.15047 -0.903291 0)
(0.817126 0.0160807 -1.39746e-19)
(0.96866 -0.411173 -2.44359e-19)
(1.81991 -0.548867 -1.72262e-20)
(1.59922 -0.0107257 2.53948e-19)
(1.06698 -0.0140479 3.78812e-19)
(-0.0648187 -0.126818 -2.65913e-19)
(1.03964 -0.469042 -9.93466e-20)
(0.221278 -0.213378 2.20799e-19)
(1.00747 -0.0109203 0)
(1.0049 -0.00940554 0)
(1.56866 -1.10127 1.00054e-19)
(-0.14173 0.511707 -5.53509e-20)
(0.28297 -0.107109 -2.38307e-19)
(1.8909 -0.122647 1.23528e-20)
(1.74262 -0.268456 0)
(2.08666 0.0655092 -7.62727e-20)
(1.03063 -0.890669 -2.91991e-20)
(1.95348 -0.505513 -1.42008e-19)
(1.05882 0.79942 0)
(0.518732 -0.501019 0)
(0.564472 0.474456 -1.81566e-19)
(1.06985 0.260941 -4.33101e-19)
(2.11513 0.00996614 5.38777e-22)
(0.853081 0.127277 1.36892e-19)
(-0.0735352 -0.159612 -7.33198e-19)
(0.87886 0.240275 3.15412e-20)
(-0.220276 -0.120453 0)
(-0.154723 -0.199065 0)
(-0.261737 -0.182617 0)
(1.42617 -0.747798 -1.48138e-20)
(0.0956572 -0.0922638 -1.43235e-19)
(0.14947 -0.222356 0)
(1.23039 0.931877 -5.82717e-20)
(1.0827 0.13602 -4.40157e-19)
(1.43141 -0.433427 6.7214e-20)
(1.02695 0.875675 1.19895e-19)
(-0.0751344 0.223018 8.82389e-20)
(0.633079 0.317863 0)
(-0.278399 -0.124917 -4.15417e-19)
(0.0664645 0.107229 1.74714e-19)
(0.77834 -0.00817375 1.72858e-19)
(1.46797 0.912353 -7.02833e-20)
(1.58448 -0.25274 -1.39911e-19)
(-0.152069 -0.108382 -4.93446e-21)
(0.809928 -0.736452 -2.62263e-20)
(1.09737 0.00445207 0)
(1.60588 -0.0513521 0)
(1.04184 0.0499367 0)
(-0.0798006 -0.604653 -1.75191e-19)
(-0.259623 -0.157428 1.54485e-19)
(1.00039 0.804977 0)
(1.00359 -0.0173318 4.72662e-19)
(0.728307 0.56491 -2.40046e-19)
(0.202001 -0.220991 -1.38181e-19)
(0.862606 -0.0140441 -3.86892e-20)
(0.77012 -0.70358 -1.66168e-19)
(1.33518 0.683382 -4.94152e-20)
(0.611156 -0.504605 -2.56514e-19)
(1.12055 0.000748804 -4.40501e-19)
(0.824943 0.0321938 3.98237e-20)
(1.54677 -0.143551 2.22313e-20)
(0.528657 -0.211888 -2.45329e-20)
(-0.123093 -0.13898 -7.6955e-22)
(1.04145 0.438151 -2.91508e-19)
(1.23577 0.585003 2.56439e-20)
(-0.109273 -0.179083 0)
(-0.0641903 -0.104468 2.68108e-19)
(-0.164691 -0.157085 1.63879e-19)
(-0.142334 -0.225904 -2.3139e-19)
(0.436497 0.25164 0)
(1.66805 -1.1032 0)
(0.0130948 -0.0358769 -6.16413e-20)
(-0.181617 -0.283573 -9.26478e-20)
(1.04288 -0.0324165 1.74492e-19)
(0.0653478 0.0769232 -3.60658e-20)
(1.92417 -0.213254 -4.48122e-19)
(-0.294577 0.494023 0)
(0.897795 -0.793469 -2.08795e-19)
(0.451358 0.172746 9.83088e-20)
(-0.428145 0.423078 1.94235e-19)
(0.703399 0.112037 3.20409e-19)
(0.611458 0.0762101 1.02998e-19)
(0.549483 -0.521092 1.70995e-19)
(-0.193648 -0.224453 -2.11276e-19)
(1.46134 -0.565037 0)
(0.353056 0.281925 -1.92777e-19)
(1.02735 -0.0178215 -2.76363e-19)
(-0.364315 0.640037 2.08552e-19)
(1.36846 0.466674 -1.68817e-19)
(-0.17383 -0.22698 -8.47455e-20)
(0.773418 -0.701733 2.38773e-20)
(0.794399 0.152221 -2.05369e-19)
(0.945381 0.394767 2.44255e-20)
(1.17728 -0.155533 2.87479e-20)
(0.636216 -0.284226 -2.70092e-19)
(2.09234 -0.180363 -2.70717e-19)
(0.888348 -0.282571 0)
(1.68613 -0.452593 4.84353e-20)
(0.927882 0.11015 -2.51672e-20)
(1.55012 0.519445 1.76497e-19)
(0.836048 0.355812 -8.85823e-20)
(0.524752 0.180568 -6.90877e-20)
(0.377817 0.340729 -2.53025e-19)
(-0.0316671 0.831329 1.03085e-19)
(2.23287 0.442655 0)
(0.935501 0.00646374 0)
(0.947133 -0.834944 3.46851e-20)
(-0.170772 -0.243036 -6.16054e-19)
(-0.202388 1.11117 -1.90682e-19)
(-0.139348 -0.163682 -3.74083e-19)
(-0.19381 0.733597 -9.6011e-20)
(-0.247351 -0.0380257 0)
(-0.155006 -0.185391 6.87318e-20)
(-0.255054 0.254794 -4.12962e-20)
(0.18348 -0.164194 -2.4296e-19)
(0.825754 -0.148332 0)
(1.47541 -0.657243 4.04508e-20)
(-0.170648 -0.185465 0)
(0.997399 0.0229675 3.43869e-19)
(-0.0862797 -0.0522957 2.34905e-20)
(0.587028 -0.477439 3.43681e-19)
(-0.620908 0.734175 4.4454e-19)
(-0.268531 0.915056 0)
(-0.0997444 0.441533 3.34246e-20)
(1.00719 0.0210493 -1.03208e-20)
(0.116881 -0.0824572 0)
(1.00384 -0.0107869 -5.42839e-20)
(0.918221 -0.775868 -2.11193e-19)
(1.91566 -1.20766 0)
(0.966536 -0.302872 1.75928e-19)
(-0.0449995 0.655395 9.94697e-20)
(-0.0885934 -0.0939937 0)
(-0.149622 -0.233911 -9.53033e-21)
(0.777785 -0.68144 -3.44679e-19)
(0.963899 -0.0221229 -2.35288e-19)
(-0.163271 -0.238674 7.46017e-19)
(-0.177967 -0.247736 2.58318e-19)
(-0.234731 -0.0952743 0)
(0.927506 0.443726 0)
(-0.189909 0.180703 2.76867e-19)
(1.63685 0.453218 -8.33513e-20)
(1.02644 0.85384 2.38997e-20)
(1.05596 0.194094 -1.26063e-19)
(1.14977 0.00165921 -1.86507e-19)
(1.0738 -0.0692533 -6.00981e-20)
(-0.16138 -0.244496 -6.68288e-19)
(1.99141 0.0941307 1.28568e-19)
(0.651744 0.0382664 2.1999e-19)
(1.2683 0.145614 4.04776e-20)
(1.06493 -0.157147 0)
(-0.350198 0.744958 1.67608e-19)
(1.14731 0.0243558 -4.66086e-19)
(1.69187 0.605111 5.96488e-20)
(0.786793 -0.498671 -1.38001e-19)
(-0.110201 -0.123126 3.72416e-19)
(0.857488 -0.751046 2.82139e-19)
(1.19976 0.187707 8.45792e-20)
(1.00633 -0.00925584 2.4055e-19)
(-0.0157439 -0.173622 -2.81875e-19)
(1.0188 0.00945104 0)
(1.17393 -0.129351 1.02474e-19)
(-0.10966 -0.113112 0)
(1.01602 0.0111759 -1.39598e-19)
(0.334127 0.271522 -7.20372e-19)
(1.69042 0.31983 7.35659e-20)
(-0.197889 -0.134275 1.94397e-19)
(1.53692 0.0154117 4.29089e-20)
(1.01236 -0.0198793 5.01985e-20)
(1.29646 -0.1044 0)
(1.52966 -0.611171 -3.4604e-20)
(1.01847 0.025142 -1.51038e-19)
(1.38668 0.761098 -1.17369e-19)
(1.25917 -0.044589 0)
(1.82603 0.768009 -5.12385e-20)
(-0.000159015 -0.0348483 0)
(1.34129 0.0788035 0)
(-0.25667 -0.226792 0)
(1.20785 0.424951 0)
(1.769 0.253306 5.24932e-21)
(0.701488 0.577728 4.21236e-19)
(0.325563 -0.328123 -2.02334e-19)
(-0.184631 -0.2754 -6.02272e-19)
(-0.118628 -0.135928 0)
(1.63736 -0.801589 6.57243e-20)
(1.24511 0.511338 0)
(1.41528 0.28781 0)
(-0.272955 -0.0660094 1.81476e-19)
(0.76489 0.674709 1.45515e-19)
(1.64923 0.0451634 0)
(-0.227441 -0.269872 1.28633e-19)
(0.887675 0.188284 1.88815e-19)
(1.49511 -0.734863 -6.02954e-20)
(1.18976 0.888914 6.26353e-20)
(1.01158 -0.905813 -4.51659e-21)
(0.148232 -0.103317 -7.71368e-20)
(0.749891 0.67657 1.51529e-19)
(1.12638 0.884983 0)
(2.21272 -0.610569 5.99253e-20)
(-0.151414 0.789921 0)
(1.19145 -0.453319 -8.72704e-21)
(0.958845 0.076972 8.22212e-20)
(1.00553 -0.00866789 0)
(-0.524051 0.560965 1.06333e-19)
(0.916287 -0.205059 4.20411e-20)
(0.672165 -0.455871 0)
(0.710318 -0.42989 1.86293e-19)
(1.19589 0.532979 -3.98657e-20)
(0.435863 0.40968 2.85723e-19)
(0.199305 -0.160338 2.96085e-20)
(-0.237052 -0.103929 3.53624e-20)
(0.773106 0.0520764 0)
(1.4184 -0.947239 2.20912e-20)
(1.03046 -0.0459488 3.89025e-19)
(1.45109 0.330586 7.02239e-20)
(-0.233126 -0.242674 1.09612e-19)
(-0.698355 1.02831 0)
(1.26427 -0.240636 -8.57518e-20)
(-0.0921079 -0.0971187 -3.16403e-19)
(-0.288822 0.810281 -2.25949e-20)
(-0.122104 0.0429623 -5.85414e-22)
(-0.190149 0.0846019 1.45532e-19)
(0.405906 0.704186 3.09809e-20)
(1.88824 0.186559 2.22838e-19)
(1.15338 0.441864 -3.37698e-19)
(0.857097 -0.0456082 0)
(1.77037 -0.111856 4.03694e-20)
(1.49632 0.0896978 8.59668e-20)
(0.974098 -0.816575 9.80141e-20)
(1.26796 -1.05477 2.20148e-20)
(0.440491 0.40794 1.94049e-19)
(0.895621 0.70799 0)
(1.69674 0.566819 -2.14294e-20)
(-0.105959 -0.120016 -6.43527e-19)
(0.841711 0.732389 0)
(1.81178 0.0662781 0)
(0.32772 -0.326866 -4.64708e-21)
(0.283947 0.241776 0)
(-0.784506 1.04056 -3.51751e-19)
(0.219617 -0.137386 -8.36023e-20)
(1.94687 -0.340731 0)
(1.24158 0.0526036 3.05319e-19)
(-0.176157 1.00497 1.57067e-19)
(0.583407 -0.555189 -3.78725e-19)
(1.44666 0.0783037 -2.41542e-20)
(0.665236 -0.604104 0)
(0.993396 0.119883 0)
(1.58483 -0.201833 0)
(1.09448 0.209106 -2.48827e-19)
(1.33088 0.103557 3.5512e-19)
(-0.300695 0.713655 0)
(0.886704 -0.0523843 0)
(1.86315 -0.203144 5.93819e-21)
(0.0348207 -0.193161 5.46667e-20)
(2.49163 -0.164541 -1.49982e-19)
(1.28851 -0.572928 3.31848e-19)
(2.00715 -0.000718809 -1.00939e-19)
(-0.313531 1.04827 -1.05982e-19)
(1.9909 0.155165 -2.65722e-20)
(1.02055 -0.029856 3.86259e-19)
(1.46387 0.583294 0)
(0.0846612 0.0922818 2.22177e-20)
(1.07614 -0.882891 1.04827e-19)
(0.863143 -0.0486454 4.52236e-20)
(0.679593 -0.477993 0)
(2.01645 -0.449484 1.84009e-20)
(1.24174 -0.203259 1.08604e-19)
(1.57514 -0.624101 0)
(0.663273 -0.616419 3.12668e-19)
(1.92755 -0.013134 5.47724e-20)
(2.45792 -0.0887811 3.2123e-19)
(0.0836841 -0.204313 -1.29544e-19)
(1.28588 0.59558 1.94068e-19)
(1.11297 0.38491 4.08258e-21)
(0.876118 0.339738 2.32011e-19)
(1.41792 0.52139 -2.24772e-20)
(-0.146794 -0.256255 -2.26669e-21)
(1.46161 0.477902 0)
(-0.115046 -0.0993101 6.07661e-19)
(1.21343 -1.04412 0)
(1.12849 -0.687586 1.5135e-20)
(1.18247 0.806852 -2.33054e-19)
(1.34648 1.3913 5.64814e-20)
(-0.426737 0.230627 -4.57022e-19)
(0.951871 0.456028 1.8926e-19)
(-0.10023 -0.85787 1.93338e-19)
(0.692078 -0.0426008 0)
(1.56409 -0.186988 0)
(0.921807 -0.069611 1.37072e-20)
(0.783804 -0.00651376 0)
(1.38741 -0.203094 -1.11752e-19)
(-0.547848 1.07015 4.20952e-19)
(1.87643 0.48999 -7.00418e-20)
(1.03827 -0.0356288 0)
(0.59523 -0.401982 9.01837e-20)
(1.01022 0.0252835 1.8468e-19)
(0.18781 -0.336273 1.90915e-20)
(-0.217884 0.860314 0)
(1.15731 -0.490379 3.55652e-19)
(1.08003 -0.336774 -5.74685e-23)
(1.15085 -0.525716 -1.55382e-19)
(2.29249 0.217562 1.49044e-20)
(1.24287 0.758779 0)
(0.862844 0.0199613 0)
(-0.250421 -0.219922 -2.62622e-19)
(0.0165422 -0.0513186 6.93336e-20)
(0.922406 0.338554 -2.17551e-19)
(0.158857 -0.110358 -2.61719e-19)
(0.614775 0.362331 2.44315e-19)
(1.57834 0.925224 0)
(0.591117 -0.549157 0)
(0.322307 -0.155004 -1.39416e-20)
(1.29143 -0.523782 -6.59424e-20)
(1.09708 -0.0751067 2.65378e-20)
(0.744221 -0.200619 1.07777e-19)
(-0.0297693 -0.151133 -1.32204e-19)
(1.26277 0.2851 1.66632e-19)
(0.618205 0.574676 0)
(1.22557 0.668378 0)
(1.57963 0.247857 0)
(-0.324424 -0.0696857 -2.32875e-19)
(1.17618 0.531372 9.05033e-20)
(1.49245 0.18583 2.35907e-20)
(0.922455 -0.0111097 0)
(1.14612 0.0475717 0)
(2.04752 -0.113964 -9.63362e-20)
(-0.198447 -0.588378 -1.76839e-20)
(1.00551 -7.84926e-05 -1.85976e-19)
(1.4572 0.462245 0)
(-0.12534 0.746735 0)
(1.20649 0.301235 3.25737e-19)
(0.988422 0.498704 -1.43605e-19)
(1.06283 0.0229621 0)
(1.39824 0.580575 0)
(1.90218 0.663934 -1.19993e-19)
(-0.0932778 -0.0155212 -2.75252e-21)
(0.997303 0.0107167 0)
(0.673385 0.430611 -3.43215e-20)
(1.01613 -0.890497 0)
(1.00289 0.0141302 4.28113e-20)
(0.663887 -1.00311 -4.18625e-20)
(0.94058 -0.352692 2.55304e-19)
(0.304836 -0.858887 2.2955e-19)
(1.94927 0.100763 3.46121e-19)
(1.40347 -0.181212 -7.89728e-20)
(0.791686 -0.0157105 0)
(1.02401 0.00743193 0)
(-0.461096 0.610987 0)
(0.622665 0.594821 -2.10411e-19)
(0.0103748 -0.153383 9.04055e-20)
(1.1398 0.331099 -5.18681e-19)
(-0.107666 0.474431 0)
(0.791141 0.606417 1.79266e-19)
(1.0458 -0.361174 0)
(1.00513 -0.00413026 1.09081e-19)
(-0.00583738 1.26782 1.51753e-20)
(1.00328 0.378246 2.80778e-19)
(1.3017 0.433726 0)
(2.12307 0.207786 -2.07696e-20)
(0.834952 -0.148353 -3.31794e-19)
(-0.854449 1.27728 -4.5079e-19)
(-0.145393 0.686768 0)
(0.859172 0.211515 1.76183e-19)
(1.96111 0.374379 0)
(0.740609 0.483036 3.78206e-19)
(-0.687708 1.14122 1.82987e-19)
(0.0801477 -0.199987 0)
(0.549901 0.520905 -7.51756e-20)
(1.08601 -0.677454 -1.07438e-19)
(0.519075 -0.312042 -1.11136e-19)
(1.02042 -0.0200756 0)
(-0.126324 0.90827 -1.05705e-19)
(0.687177 -0.614829 6.79458e-20)
(0.881784 0.25924 0)
(1.81663 -0.803374 7.31804e-20)
(0.93843 0.797258 2.86512e-20)
(0.415401 -1.01271 4.04717e-20)
(0.706617 0.031734 -4.92948e-19)
(0.256108 -0.155766 -5.16357e-19)
(-0.160012 -0.212483 1.61955e-20)
(0.785255 0.322932 2.54094e-19)
(0.135774 -0.0656093 -3.67056e-21)
(1.49321 -0.662715 3.20999e-21)
(1.02606 0.00362113 -3.19204e-19)
(-0.356307 0.100226 0)
(1.02384 0.0264468 -3.94428e-19)
(1.33766 0.341643 1.86919e-20)
(0.849403 0.653745 3.08547e-19)
(1.14355 -0.0717806 1.40384e-19)
(1.00973 -0.0368247 1.47616e-19)
(1.3105 1.23385 -5.14938e-20)
(-0.22984 -0.227359 -9.84365e-22)
(1.9129 -0.89573 1.99456e-20)
(1.1602 -0.128458 -5.31805e-20)
(0.817139 0.0422798 6.01184e-20)
(0.937786 -0.318396 7.75643e-20)
(1.7531 -0.137916 0)
(0.921648 0.698318 0)
(0.237508 0.84371 -1.81089e-20)
(1.99166 0.167102 1.2275e-20)
(-0.783282 0.950861 1.60577e-19)
(1.0819 -0.574102 -3.8948e-19)
(0.663922 -0.579514 3.32609e-19)
(1.11248 0.198532 -2.52515e-20)
(0.339471 0.00788781 3.00249e-20)
(0.485295 -0.430042 0)
(0.745097 0.071212 -6.48524e-21)
(1.20988 -0.289622 2.53486e-20)
(0.997915 0.726736 0)
(0.788511 -0.551178 0)
(0.795791 0.705933 0)
(-0.182057 -0.234278 -1.00448e-19)
(-0.153678 0.185298 0)
(0.0656441 -0.00936997 -1.82874e-19)
(1.19636 0.170619 6.93493e-21)
(-0.146653 0.359202 2.71179e-19)
(1.50872 -0.454009 5.43726e-21)
(1.76157 0.459206 2.07783e-20)
(2.07326 -0.143128 -4.49739e-20)
(-0.162548 0.0143289 -9.83242e-20)
(-0.131213 -0.194308 7.10497e-21)
(1.6314 -0.112052 0)
(0.672821 -0.0365323 0)
(1.0009 -0.00238902 2.646e-22)
(-0.373471 0.0340028 0)
(1.2851 0.0736434 -1.24414e-19)
(0.673032 -0.032707 0)
(1.06705 -0.00329921 1.13101e-19)
(0.989754 0.0132172 -4.1993e-20)
(1.37425 0.419559 1.27679e-19)
(1.05545 -0.0212097 -8.9952e-22)
(0.973673 -0.215161 -4.74948e-20)
(1.0297 -0.0392747 3.38406e-19)
(0.72156 -0.658692 1.50975e-19)
(0.395782 -0.338258 -3.22209e-19)
(1.92627 -0.0914206 6.12965e-21)
(0.016065 -0.0766782 0)
(1.08086 0.759711 0)
(1.03511 -0.0147941 0)
(1.06349 -0.818552 -6.86592e-20)
(1.13874 -0.964768 -2.37141e-20)
(2.44454 0.438529 -2.43762e-21)
(-0.98318 0.85807 -3.17713e-19)
(0.168264 -0.233905 -5.44279e-20)
(0.630934 -0.435959 -5.5847e-19)
(1.89169 -0.383618 6.51731e-20)
(0.561972 -0.182964 3.63028e-19)
(2.14671 -0.0827898 1.73457e-19)
(2.08065 0.0669056 3.6582e-20)
(-0.224027 -0.259109 -2.00594e-19)
(1.07553 0.523549 2.26015e-19)
(-0.114931 -0.310626 0)
(0.0614012 0.00137057 5.89036e-19)
(-0.163248 -0.189152 -1.73958e-22)
(1.02448 -0.0468362 3.17255e-19)
(1.0271 -0.00368637 -7.92905e-21)
(1.10207 -0.0114504 -8.73165e-20)
(1.41384 0.838101 -6.84101e-20)
(1.59069 0.304548 9.41864e-20)
(0.443063 -0.417064 -2.72375e-19)
(1.79229 0.786263 1.4754e-20)
(1.04035 -0.00406594 -2.23432e-19)
(2.46972 0.122559 -6.31449e-21)
(1.7766 1.01002 0)
(1.07041 0.562418 -4.26141e-19)
(1.00275 -0.00701278 8.88967e-20)
(0.634639 0.56387 2.70402e-19)
(0.160896 -0.263537 2.43762e-21)
(1.05765 -0.0154573 -2.95879e-20)
(1.11868 0.0138183 8.30913e-22)
(2.42926 0.015575 9.17563e-21)
(2.02388 0.0304787 0)
(1.0407 -0.0417866 0)
(1.04785 -0.0361312 5.51233e-19)
(1.00251 -0.00471591 0)
(-0.137917 -0.160028 0)
(1.14133 -0.678717 0)
(1.00063 -0.00296672 -5.16939e-19)
(1.22436 -0.716536 4.78109e-20)
(1.02658 -0.00532244 1.07254e-20)
(1.28913 0.919457 -4.93573e-20)
(1.46468 0.966308 1.67276e-19)
(0.202633 -0.255235 8.07751e-20)
(0.984381 0.485966 -3.99807e-20)
(1.33814 -0.185726 0)
(-0.255318 0.254451 0)
(1.62099 0.614851 1.73326e-19)
(1.22077 -0.953547 0)
(0.99932 -0.00635099 -1.60996e-19)
(1.0108 -0.00163842 3.12543e-19)
(1.4271 0.137646 -7.93125e-20)
(0.0488656 -0.108168 4.70249e-19)
(0.975383 0.00122138 1.71762e-19)
(1.46087 0.402439 -7.08762e-20)
(0.794711 0.123615 5.00873e-20)
(1.53182 0.973042 -3.35813e-22)
(0.93337 0.0165168 -1.67437e-19)
(1.00369 0.00272205 2.0009e-19)
(1.00043 -0.00175122 1.18675e-20)
(0.788437 -0.01388 0)
(0.724172 -0.0272635 0)
(0.718536 -0.027813 3.51506e-22)
(0.693744 -0.0305441 0)
(-0.13387 -0.0841982 0)
(0.45117 0.0275245 0)
(0.916701 -0.000626915 -1.29497e-19)
(0.987548 0.190551 6.51361e-20)
(0.707601 1.01255 0)
(0.885085 0.971402 -3.4254e-20)
(1.04789 0.568738 0)
(0.429713 0.302176 0)
(1.05964 0.382423 0)
(1.76133 0.135846 1.95744e-20)
(1.99689 -0.0957673 -8.8428e-20)
(0.779848 0.0242219 0)
(0.788955 0.0201977 0)
(0.969892 0.0195627 -2.06927e-19)
(0.815013 0.00757697 3.89003e-19)
(1.00836 -0.00137223 0)
(1.00007 -0.00103518 3.7065e-19)
(1.0004 -0.00110948 -5.09649e-22)
(0.788464 0.0226848 3.28018e-19)
(0.994727 -0.00562262 -1.96836e-19)
(0.760233 0.214147 0)
(0.697964 0.0616019 -5.01372e-20)
(1.00075 -0.00255324 -1.88167e-19)
(0.999698 -0.000588783 -3.21495e-19)
(1.28812 0.244985 0)
(0.999038 0.000936326 0)
(0.999609 -0.000348013 0)
(0.219223 -0.177878 -1.99347e-20)
(0.614686 0.5575 -1.25266e-19)
(2.08681 0.299585 0)
(0.107614 -0.0159339 1.65246e-19)
(-0.346386 0.738088 -1.07117e-19)
(1.01805 -0.0176408 -2.50926e-19)
(-0.223378 -0.267803 -1.68865e-19)
(1.02064 1.13122e-05 -2.00175e-19)
(1.20132 -0.221203 -6.18282e-20)
(0.842215 -0.512784 2.53564e-19)
(-0.130549 -0.15413 -1.53214e-19)
(1.03281 0.00932534 0)
(1.04792 -0.0149126 -5.76416e-20)
(0.862831 0.0178318 0)
(-0.0762808 -0.0627158 1.23598e-19)
(1.09447 -0.7643 0)
(-0.300676 -0.109552 -3.95301e-19)
(1.92689 0.182523 4.58922e-20)
(1.59775 0.665311 -1.32654e-19)
(-0.0715528 -0.0111806 0)
(1.05071 -0.0391814 1.70623e-19)
(0.35875 0.319595 -1.18482e-20)
(0.927703 -0.0316503 2.6624e-19)
(1.01088 -0.0113243 -1.71629e-19)
(1.60998 0.836597 -2.88155e-20)
(0.482635 0.450114 0)
(0.405599 0.348448 2.02356e-19)
(0.703562 0.0366359 4.27534e-21)
(1.12266 0.114805 2.06708e-19)
(1.15116 -0.751134 0)
(1.02182 -0.000155609 0)
(0.999444 -0.0202405 -3.9545e-19)
(1.01986 0.013 -3.7975e-19)
(-0.172199 -0.233592 0)
(1.17463 0.788134 -1.74894e-19)
(0.16024 0.222201 -2.59541e-21)
(1.01501 0.00081473 1.47697e-19)
(1.01255 0.0110751 -1.83625e-19)
(-0.30017 -0.0261049 -3.72501e-20)
(0.617422 0.415275 3.27621e-19)
(1.01667 -0.0159249 6.32288e-19)
(0.267041 0.100936 0)
(1.79346 0.636349 3.39867e-20)
(1.0149 -0.0140625 -1.96125e-19)
(1.3319 0.0763106 -4.03266e-20)
(1.05473 0.00637874 -4.62062e-22)
(1.00726 -0.0125162 3.93942e-20)
(1.96063 0.22824 -2.89804e-19)
(1.0182 0.00415575 1.88528e-19)
(1.08649 0.107633 4.55667e-21)
(1.01892 0.000659305 0)
(0.918404 0.126807 4.9453e-20)
(-0.810454 1.03114 4.48232e-21)
(1.0011 0.0213651 1.86683e-19)
(1.04109 0.0205213 -7.44243e-22)
(0.30135 0.180909 2.16451e-20)
(1.22461 0.303615 4.84149e-19)
(0.998909 0.0138083 1.27973e-19)
(1.01555 -0.0164879 2.99946e-22)
(1.71071 0.253724 -4.86672e-20)
(1.67656 0.899576 -5.55683e-20)
(0.83791 -0.749925 3.99617e-20)
(0.493479 -0.38379 -2.74012e-19)
(1.00609 -0.0124984 0)
(1.02321 0.000531741 4.68527e-20)
(1.01093 -0.0119604 9.98029e-20)
(1.05646 0.728335 -2.48562e-21)
(1.0161 0.00313083 -1.96472e-19)
(1.03404 -0.0280772 2.2144e-19)
(1.00725 -0.0112223 -1.86748e-19)
(1.01392 0.00287053 -4.5179e-22)
(1.012 -0.000648231 -2.4408e-22)
(1.02692 0.0111384 1.87609e-19)
(0.893557 0.0561205 4.93924e-19)
(0.396833 -0.752093 0)
(0.460559 0.903787 9.33233e-20)
(1.01225 -0.00590167 0)
(1.01903 -0.0200691 -5.50091e-20)
(1.4876 0.432499 -1.33763e-19)
(0.966725 0.114474 0)
(1.89735 -0.802223 -6.86463e-20)
(0.385322 -0.607174 2.45295e-20)
(0.755629 -0.0208931 0)
(1.77553 0.468246 0)
(-0.0276784 -0.680206 3.63107e-21)
(1.01815 1.16348 5.70812e-20)
(1.01787 -0.00727012 -1.98864e-19)
(1.17413 -0.59196 -4.28807e-20)
(0.652783 0.919862 1.03232e-19)
(0.828385 -0.639539 0)
(0.500031 -0.0985172 0)
(1.10939 -0.470869 0)
(-0.283872 0.298225 8.55314e-21)
(1.12211 0.622523 -4.01945e-19)
(-0.0714273 -1.08852 0)
(-0.0336566 0.799145 -1.21044e-19)
(1.63488 0.934773 4.23478e-20)
(1.00863 -0.00599983 -3.87489e-19)
(1.03195 1.09161 -8.45102e-20)
(1.02218 0.0042277 2.56138e-19)
(0.689883 -0.0455605 0)
(-0.172952 -0.22497 -4.80211e-20)
(0.580918 0.388622 -3.4533e-19)
(0.719883 -0.614241 -7.65352e-20)
(-0.114288 0.588706 0)
(0.814109 0.078546 5.89296e-20)
(0.48096 0.457913 5.38057e-20)
(1.14004 0.848191 -4.88141e-20)
(-0.10219 -0.110635 2.35469e-19)
(1.01991 0.00600042 0)
(1.04389 0.0319542 -2.28209e-19)
(1.01203 -0.00506412 1.45979e-19)
(2.35977 0.153428 0)
(1.01374 0.00441853 2.43982e-19)
(0.243256 0.0741764 -2.84145e-19)
(1.01866 0.00795654 -1.51469e-19)
(1.861 0.633355 0)
(1.74406 -0.691556 6.21585e-23)
(1.00963 0.000303168 -1.01456e-19)
(0.996402 -0.0428333 2.67742e-19)
(1.07071 0.0857529 -7.93514e-22)
(0.977366 -0.556874 2.02068e-19)
(-0.0961866 -0.162443 6.21391e-19)
(1.89967 0.254459 2.41509e-20)
(0.605475 -0.834167 -2.19793e-19)
(0.801225 0.0145018 -3.6412e-19)
(0.789682 0.0284658 0)
(0.62696 -0.116915 -1.61339e-19)
(1.01854 -0.0187231 -2.96182e-20)
(0.971569 0.0125391 0)
(1.04558 0.000791943 -1.90221e-19)
(0.505391 -1.54963 9.81686e-20)
(-0.72387 1.10045 1.98108e-19)
(2.29918 -0.45106 0)
(-0.0112569 0.700355 -7.75686e-19)
(1.56256 -0.334502 0)
(1.03754 -0.0196077 5.5406e-20)
(1.50156 0.527193 1.96489e-21)
(1.01523 -0.00425776 1.57125e-19)
(-0.347495 1.02378 3.75333e-19)
(1.018 -0.000900728 0)
(0.994177 0.00348728 -3.82855e-19)
(1.00997 0.00427079 2.0011e-19)
(0.99959 0.683625 0)
(1.05065 -0.0404072 -2.04219e-20)
(0.955751 -0.00169058 -1.70955e-19)
(-0.185366 -0.275297 6.26487e-19)
(1.00461 -0.0048024 -1.95295e-19)
(1.00044 0.0167238 -4.58897e-19)