/*--------------------------------*- C++ -*----------------------------------*\
| =========                 |                                                 |
| \\      /  F ield         | OpenFOAM: The Open Source CFD Toolbox           |
|  \\    /   O peration     | Version:  2306                                  |
|   \\  /    A nd           | Website:  www.openfoam.com                      |
|    \\/     M anipulation  |                                                 |
\*---------------------------------------------------------------------------*/
FoamFile
{
    version     2.0;
    format      ascii;
    arch        "LSB;label=32;scalar=64";
    class       volScalarField;
    location    "35.2";
    object      p;
}
// * * * * * * * * * * * * * * * * * * * * * * * * * * * * * * * * * * * * * //

dimensions      [0 2 -2 0 0 0 0];

internalField   nonuniform List<scalar> 
2186
(
0.947526
-0.179717
0.127397
1.23742
-0.757832
-0.184308
0.846334
-0.858869
-0.757071
1.4777
1.17812
-0.77335
-0.873992
1.17106
-0.405803
1.17144
1.19795
-0.801831
0.208878
-0.834008
1.56752
-0.827397
1.17946
-0.850758
1.17128
1.21317
1.39179
1.06879
0.694772
1.17125
-0.810588
1.17134
-0.767103
-1.09813
-0.783732
0.193526
-0.890286
1.55573
-0.546881
-0.0800947
-0.872648
-0.790458
-0.519165
-0.961209
1.02525
1.4615
0.516959
0.689337
-0.46629
-0.771261
-0.8162
1.01533
-0.51524
1.48463
-0.867496
1.118
-0.570954
1.14483
-0.556544
0.983204
-0.495524
0.742902
0.654886
-0.0747884
0.677815
0.631559
0.774046
1.45575
1.35025
-0.774109
-0.853928
-0.455568
1.42741
1.1701
1.33248
1.3211
-0.464958
1.19232
-0.789893
-0.656769
-0.617081
-0.0888509
1.16658
0.72732
1.16082
1.16766
1.4585
-0.0596394
-0.361501
-0.800391
1.12073
-0.795172
1.09517
1.33417
1.17986
0.513605
0.00278799
0.691208
-0.763975
1.15881
-0.531387
-0.543858
0.749975
1.11961
1.20012
-0.789697
1.36596
-0.536455
1.10582
-2.21173
-0.662319
-0.771552
0.712774
1.48133
-0.743999
-0.913086
-0.167046
-0.392812
-0.801111
1.43084
0.0509313
-0.776972
0.973157
-0.837257
1.17649
-0.0412301
-0.762526
1.31307
-0.81846
0.827301
1.54801
1.40329
0.408189
0.819468
-0.62089
-0.76988
1.08967
-0.780021
-0.361857
-0.814471
0.913779
-0.0405053
-0.850042
0.871447
1.08733
1.12767
-0.480648
-0.76352
0.78511
-0.909238
-0.779138
0.751237
1.19536
1.35087
1.21471
0.699455
1.45347
0.545701
0.45148
0.59353
-0.813199
-0.942006
1.13913
1.15989
0.0851567
0.277902
-0.701934
-0.768478
-0.704404
-0.652763
0.45222
1.16475
1.19864
1.27918
0.521135
-0.14198
-0.763703
1.13887
-1.10686
0.980261
-0.766295
1.18499
-0.823682
0.645864
0.629496
-0.771415
-0.969097
1.27977
-0.337854
-0.891503
-0.841012
1.42345
-0.570338
1.15155
-0.809212
-2.37872
0.161312
1.3401
1.20956
-0.826379
-0.838285
-1.70857
0.249337
1.20284
-0.793226
-0.770739
-0.799254
-0.305643
1.10167
-0.461289
0.695295
-0.273234
1.46748
0.943651
1.046
1.1225
1.33567
1.17444
1.06919
1.24642
0.557206
-0.937411
-0.799098
0.180794
0.357634
-0.796893
-0.76548
1.17591
1.3069
-0.813235
-0.725763
-1.13962
0.54142
0.828263
0.960029
1.07027
1.2898
-0.976747
1.06036
-0.826668
-0.76632
-0.915115
1.13366
0.839787
1.3007
1.34853
1.25696
1.23328
-0.83663
0.997602
1.26935
-0.852162
1.1193
0.889835
-1.19587
-0.787487
-0.764054
1.30238
1.19481
-0.883808
-1.01607
-0.606509
1.12644
-0.796893
0.863478
1.21357
1.04043
-0.773217
-0.800979
1.1526
0.740932
-0.507092
-0.296976
1.51086
-0.772171
-0.842535
1.02222
1.35452
1.16352
-0.761538
-0.481217
-0.667218
1.04812
-0.864704
0.718187
1.14774
1.19602
-0.032789
-0.353664
1.12011
-0.790596
1.10569
1.36469
1.19081
1.18799
-0.398625
-0.771789
-0.862338
-0.483348
-0.469319
-0.540831
0.54885
-0.402089
0.712556
1.34039
1.36245
1.0506
-0.541754
1.30318
-0.84022
-0.39514
-0.889601
-0.809026
-0.899485
0.525196
-0.782822
-0.790747
0.24755
1.06672
-0.357306
0.475641
-0.779256
-0.429826
-0.903944
-0.771914
1.38733
0.058415
0.422812
-0.803881
0.962488
0.668308
-0.222272
0.70755
-1.62057
-0.894978
0.768366
1.19771
1.21735
-1.79832
1.32026
1.06212
0.469696
1.41379
1.16607
1.1149
0.54716
-0.526761
-0.820535
0.994955
-0.91345
-0.786464
-0.877056
-0.937782
-0.803479
1.53614
-0.714962
-0.810251
-0.844897
1.16566
-0.767424
-0.523699
-0.779259
0.934174
-0.525645
-1.01603
1.42016
1.48466
1.29818
-0.855139
0.390558
1.55254
1.1713
-0.83714
0.548547
-0.831977
0.342839
1.33927
1.12197
1.05445
1.47382
-0.352734
-0.493893
-0.210052
-0.814529
-0.962079
-0.813082
-0.0781263
1.47681
-0.78729
-0.919508
1.15611
0.757363
-0.792437
-0.907327
-0.823769
-0.775878
-0.938201
-0.804524
-0.824741
-0.76805
1.36432
-0.780183
-0.937231
1.18648
-0.911299
1.43142
-1.0663
-1.85518
-0.739138
1.17019
-0.757135
1.19332
1.02244
-0.386537
1.21994
-0.775477
-0.80395
-0.847471
1.18611
1.11968
-0.789906
-0.829658
-0.903735
1.12051
-0.99323
-1.39848
0.611572
1.09214
1.05869
0.892744
-0.800959
-0.49788
0.963487
-0.798902
0.988714
-2.41268
1.19229
0.0335113
1.30521
-0.801004
1.02714
0.819632
1.20029
-0.83366
1.16089
-0.700295
-0.80168
1.17338
-1.31986
0.242326
-0.92292
-0.015185
1.17385
0.274186
0.467218
1.16841
0.329256
0.0198935
-0.177696
-0.810924
0.419689
-0.885457
0.821548
-0.573613
1.21576
1.30658
-0.833803
-0.80855
-0.569943
-0.813533
0.530321
-0.902239
0.958506
0.122006
-0.880711
1.25438
-0.675631
0.466835
0.467889
-0.504154
0.918416
0.438016
-0.462279
-2.19923
-0.954753
-0.853068
1.18617
-2.60196
1.28451
1.39984
1.38744
0.761993
1.3213
-0.766245
-0.733461
1.07621
0.390146
1.15696
-0.834795
-0.89171
-1.24632
0.97625
-0.802075
-2.07899
-0.842371
-0.879324
-0.498119
-0.865303
0.853286
0.833263
-0.355066
-0.676439
0.925665
0.244435
1.28759
-2.12396
-0.114135
-0.803625
0.8789
0.224975
1.34486
1.56896
-1.29822
-0.764365
-0.700207
0.402609
-0.846161
1.2119
-0.722325
1.16863
0.88888
-0.840346
1.00713
0.968309
-1.58066
1.05727
-0.474911
-0.799019
-0.45729
-0.761855
-0.465893
-0.889285
-0.414186
1.17426
0.300939
-0.769544
0.76552
1.31943
1.38639
-0.187266
0.938832
-0.920607
0.952528
-0.173204
-0.476974
-0.792432
0.599243
0.938049
1.20936
-1.49754
-0.808783
-0.959624
-0.80267
0.0528448
0.908021
-1.41382
-0.258457
-0.935903
1.07812
-1.93334
1.11257
-0.479965
-0.568379
1.12449
0.846618
-1.0585
-0.10794
1.12588
1.46409
1.19409
-1.47155
-0.786329
0.979922
-0.472324
0.966844
-0.438037
0.544912
1.12271
-0.90097
-0.804911
1.16487
-0.83683
1.40321
-0.261882
1.05245
-0.487347
0.804356
-0.691381
1.40946
-0.804742
-0.460718
1.09833
0.626466
0.602048
-0.908122
-0.825098
-0.779505
0.909408
-0.575391
-0.458047
-1.63646
1.187
0.493067
-0.778694
0.869985
1.02631
1.14657
-1.77477
-0.727197
-0.791254
1.18583
1.33197
0.665783
1.18221
-1.23239
1.23361
-0.711905
-0.639052
-0.434623
1.10323
1.14537
-1.07166
0.979912
-0.800643
0.936922
-0.770471
1.14189
1.13131
1.18722
-2.21278
1.06003
-0.535658
-0.431394
1.34196
-1.51414
-2.16257
1.27296
-0.911055
1.25644
-1.30127
-0.796331
1.18898
0.95888
1.53028
1.17203
-0.82247
1.25841
1.23859
-0.56412
0.750489
-0.980399
-0.719684
1.66486
-0.81975
1.28976
-0.774469
0.481287
1.17271
-0.939944
1.15294
-1.45138
1.05971
1.13029
1.1871
-0.480115
-0.897435
-0.446259
0.766958
0.855729
1.24565
-0.200212
0.956668
-2.04176
-0.225068
-1.0602
1.01373
1.32079
-0.694327
-0.780956
-0.775637
1.40473
-0.965187
0.856396
-1.08474
-0.602213
-0.842786
-0.840306
-1.39613
0.935759
-1.74733
0.264538
-0.248512
-0.383257
-0.859687
-0.879863
-0.252396
1.13283
1.19044
-0.919667
-0.259162
1.14901
1.11561
1.19096
-0.54147
1.14587
1.23476
1.17173
1.23524
-1.30417
0.141802
-0.802194
0.733334
1.17739
0.885497
0.326819
0.0938767
-2.54339
-0.505357
1.43252
-0.182806
-0.432723
-0.502799
0.0263531
-0.861794
0.913363
-0.798299
-0.918871
-0.798992
1.16867
1.17457
1.1794
-0.594663
0.447649
1.40941
0.00596262
1.17152
0.191782
-0.58812
0.886428
1.18925
1.24254
-0.808167
1.13817
1.13908
-0.482676
0.069626
1.18019
1.19321
1.19076
-0.805088
-0.843738
1.19115
0.788989
1.1744
0.302397
-0.0491982
-0.560268
-1.84283
-0.433106
-0.792407
-1.22545
-1.07625
1.19636
1.20087
0.88398
-0.808578
1.16851
0.0426176
-0.0251775
-0.360563
1.17237
1.19621
1.19196
1.2037
1.18025
1.17288
1.1626
-0.467166
-0.106213
0.0485268
0.0170523
-0.0984887
0.124533
-0.144504
-0.0564216
0.0364587
0.103572
-0.0891628
1.16744
1.18628
1.18117
1.20323
1.20091
1.19207
1.19478
1.17643
1.17762
-0.00490623
0.010913
1.19223
1.19179
-0.147326
1.19421
1.19219
-0.512944
-0.444887
0.151701
-0.760732
-2.26003
1.1742
-0.865694
1.17357
0.818484
1.25502
-0.818117
1.17357
1.10326
1.12546
-0.805148
-1.14903
-0.899975
0.0839324
0.0390703
-0.817264
1.18646
-0.672954
1.26283
1.17721
-0.10004
1.33952
1.50007
-0.445475
1.02104
0.845301
1.16978
1.1882
1.18242
-0.816824
0.593752
-0.486337
1.17643
1.18762
-0.903965
-0.698886
1.17764
-0.274088
-0.264538
1.17788
-0.888677
1.15357
1.18967
-0.754125
1.18488
-0.282352
1.17569
1.24227
-2.09046
1.19082
1.19823
-0.654033
0.816007
1.17735
1.18
0.254811
-0.711787
0.896376
1.52227
1.18588
1.17897
1.182
-0.53918
1.17863
1.16792
1.18288
1.17824
1.17975
1.17794
1.2767
-0.485318
-1.66252
1.18012
1.17237
0.398283
-0.887542
-0.507435
-0.826269
1.02711
-1.1118
-1.13207
0.0138741
1.17554
0.911278
-0.599866
0.162944
-0.674914
-0.638995
-0.796024
-0.512458
-1.22461
-0.789739
-0.269909
1.18327
-0.547333
1.17079
1.07991
-0.804635
1.41666
-0.213522
-0.784473
0.941476
1.29644
0.567132
-0.800794
1.17047
-0.290765
1.18113
-0.482
1.1816
-0.87761
1.17272
-0.208898
-0.410766
1.18323
1.19927
1.10408
0.176671
-0.800112
-0.609021
-0.308793
1.19619
1.06204
-0.489365
1.17187
1.2163
1.1627
-0.7211
-1.50668
-0.506766
-1.39212
0.511857
1.17812
-0.381937
1.17791
-1.02133
1.1734
1.212
1.18509
-0.0446309
-0.00893004
1.21113
-0.844782
1.18711
1.19065
0.189541
-0.864604
1.0933
1.30469
1.17049
1.16436
-0.172867
-0.680577
1.15035
0.591706
1.18541
1.02588
-0.785641
-0.848762
1.00235
1.42432
1.17275
0.524327
-0.634922
-0.343202
-0.77389
-0.897806
1.16373
-0.444327
1.15587
-0.89202
-0.811275
-0.766732
0.582285
-0.797845
0.200976
-0.9591
1.17102
-0.797893
1.06274
-0.826779
-0.000499423
-0.607413
-0.44405
-0.817906
1.14098
-0.71957
-0.691505
-0.95665
-0.565386
1.16715
-0.76742
0.129161
-0.846406
1.2476
-0.161585
-0.824885
1.24252
1.16455
1.15652
0.671585
-0.764159
1.17631
1.20134
-1.63178
-0.780511
1.17053
0.976891
1.42591
1.19053
-0.404535
-0.960835
-0.782781
-0.953377
-0.798571
-0.801493
-0.826678
-0.800121
0.981592
0.152691
1.18368
1.38281
1.16798
-0.801658
-0.829333
1.17234
-0.514209
-0.969136
1.15753
-0.118375
-0.779428
-1.22429
0.253218
1.1123
1.08199
-1.33005
1.02166
0.817273
-0.968906
1.16347
-1.01945
0.965464
-0.829555
1.16751
-0.68937
0.608599
1.17362
1.25923
-0.71666
-1.18225
0.986294
1.54856
1.19381
1.17988
-0.918945
1.4195
-0.747479
-1.24505
-0.659355
0.651351
-0.639161
1.28461
1.33838
-0.834215
-1.4054
1.16868
-0.441497
1.03743
1.20301
1.1306
-0.617425
1.17375
-0.0664569
1.2025
-0.206477
-0.371521
-0.0458327
1.17718
-0.337154
-0.401096
-0.0608031
1.18331
-0.59634
1.36233
0.441367
1.50373
1.14737
-0.497144
1.1614
-0.796859
1.13992
1.14321
-1.20241
-0.536125
1.29391
1.15888
1.39909
1.12231
0.267002
1.12333
1.16842
1.02253
1.1804
-0.77723
-0.766005
-1.01432
1.27947
-1.42594
-0.923711
-0.803531
-1.60991
0.0666143
-0.334988
1.02347
-0.0736796
1.13668
1.19051
-0.779425
-0.876244
-0.475229
-1.00216
-0.651498
-0.792236
1.17485
-0.597434
1.19042
1.41261
1.2322
-0.0792364
1.19694
1.09943
-1.27981
1.14216
1.15237
-0.793875
1.15311
1.1026
-0.3113
-0.450749
1.63287
-0.47566
-0.908969
-0.878412
0.415426
1.15538
-0.855067
-0.485421
-0.814745
1.30789
-0.799656
1.01122
1.1855
1.16566
-1.09877
1.15392
-0.691523
1.18632
1.20126
-0.318446
1.19151
0.643784
1.17032
0.897125
-0.862293
-0.237787
-0.330605
-0.68687
1.41515
-0.18357
1.1998
1.57438
-0.752662
-0.0866029
1.24141
-0.0616685
1.23821
0.0170227
0.0656655
1.23654
1.24117
0.60544
-0.970834
0.917231
-0.745966
-0.780637
-0.631253
1.19606
1.17846
1.59396
-0.800521
-0.712605
0.92419
-0.906001
1.24595
1.15444
1.17256
1.16313
1.1387
-1.6179
-0.800807
-0.955113
0.969817
1.0864
-1.00249
-0.78888
-0.822697
1.19085
1.21356
-1.21362
-1.13345
1.21042
-0.382224
0.364708
0.930852
1.08627
-0.138442
-0.897098
-0.0886666
-0.90642
-0.838033
-1.59206
-0.376609
1.54441
1.55073
-0.764505
-0.927776
1.19041
1.16772
-0.780969
0.119076
-0.188326
0.804943
1.26979
-0.994781
1.18136
-0.31366
-0.886816
-0.518794
-0.865021
-0.91714
1.16505
-0.915048
-1.09641
1.54361
-0.900159
1.18234
1.40435
-0.785197
1.22642
1.428
-0.763139
1.42508
-0.890311
-0.880812
1.18781
-0.0554563
1.19732
1.1847
-0.880226
1.23989
0.330635
-1.94026
1.21617
1.21464
-0.739178
-0.988412
1.11297
1.17469
-0.850642
-0.962147
1.46689
-0.870509
1.07564
0.0872276
1.12566
-0.779279
-2.22787
-0.829375
-0.761508
1.2673
1.21412
1.4643
1.38667
1.14681
1.23556
1.23633
-0.823373
1.30991
1.32448
-0.773089
-0.861564
-0.802945
1.50944
-0.324942
-0.862624
-0.944771
1.10477
-0.769099
-0.775207
1.1917
1.20402
-0.836511
-0.784332
-0.856215
-0.360589
-0.847757
-0.766123
-0.817702
1.05635
1.07898
-0.7933
-0.36772
-0.7055
1.00586
-0.868683
-0.761237
-0.812862
1.13083
-1.07555
-0.78068
1.5031
1.08285
0.587745
1.37622
-1.04456
1.16514
1.18615
1.30262
1.38882
0.33591
0.841657
1.17889
0.44837
-0.80842
1.60549
1.15028
1.09886
1.24483
-0.77697
-1.21898
1.04506
0.963134
1.14636
-1.5158
-1.69558
1.16666
-0.809643
1.01701
0.287539
1.60346
-0.805404
0.897938
0.925245
-0.799656
-0.803002
-0.69495
1.24495
-0.797714
-0.797923
0.888717
0.776812
-0.942402
1.24232
1.02831
-0.795385
-0.802473
1.12283
-1.58132
-0.80166
-0.835575
-0.816669
-0.709067
1.14906
1.19213
-2.15638
0.806713
1.18318
1.52368
0.466089
0.439532
0.158806
1.07238
-0.277735
-0.80246
-0.382057
-0.462852
-0.805247
1.16525
-0.808319
0.325735
-0.800373
0.706717
0.758172
-0.809854
0.82702
-1.84541
0.685107
-0.813703
0.629532
-0.805403
0.577215
-0.800618
0.542961
-0.817803
1.00811
-1.12384
-0.824246
-0.836355
-0.797854
1.19199
0.273428
-0.865164
-0.806109
0.187469
0.281488
-0.816405
-0.799396
-0.906034
0.0606733
-0.819116
0.0175692
-0.851184
-0.198872
-0.983516
-0.110959
1.05302
-0.108103
-1.33357
1.15163
0.0993787
-0.581587
0.643447
1.15269
-0.713518
-1.93577
-0.802562
-1.03204
1.08158
1.60246
-0.851235
0.205592
0.206916
-0.90356
-0.202982
-0.187235
1.14153
-0.784192
1.13886
-0.524347
1.6717
0.6497
1.59205
-0.787712
1.37121
-0.45217
1.19856
-0.764547
-0.800865
1.25851
1.17684
-0.702124
-0.799536
-0.825624
1.13929
-0.713986
1.15872
-0.513825
-0.822195
-0.831755
1.48532
1.20929
1.29507
1.18717
1.19342
0.00540283
-0.370891
1.3857
-1.48839
-0.927475
1.6026
-0.788805
1.07743
1.14149
1.55059
1.60254
-0.784312
-0.984316
1.21677
0.416759
-0.285623
-0.794956
-0.833527
-2.2916
-0.784658
0.748717
-0.945157
1.38216
-1.13231
1.21628
1.30766
1.20744
-0.552074
-0.778905
-0.903334
1.26702
-0.892342
1.35219
-0.65417
-0.866132
1.41927
1.48184
-0.796343
0.230011
1.13024
-0.939548
-0.814969
0.855874
1.45636
1.40478
-0.768571
1.04422
1.0084
-0.796096
1.41616
0.432818
-0.790658
-0.481194
-0.33595
-0.49013
1.2897
-0.889126
0.408664
-0.444518
-1.01755
-0.895434
-0.789664
1.16191
-0.716844
1.19228
0.0345647
0.268787
0.885002
0.44988
-0.79063
-0.531153
-1.01487
-0.00937882
-0.697383
-0.522005
1.10088
-1.22878
-1.26809
1.17927
-0.915895
-0.770939
1.19028
-0.738676
1.13869
-0.634393
-0.804075
-0.159748
0.981239
-0.664165
-1.08097
1.07683
-0.825756
1.25475
-0.408391
-0.885588
-0.923622
-0.80009
1.65851
-1.32431
1.30825
-0.631678
1.14421
1.36272
0.913193
1.20939
1.33667
0.0131236
-0.49857
1.15481
1.27727
1.53624
-0.907499
1.22094
0.828372
-0.896863
0.975973
1.38777
-0.496962
1.53009
0.280584
-0.767512
1.02056
-0.885135
-0.827332
1.13054
-0.377099
1.23892
1.23774
1.12801
-0.761171
1.06983
1.44561
-0.782669
-0.208042
-1.10709
-1.17029
-0.892255
-0.800402
1.52527
0.935662
-0.761753
1.09458
-0.875281
-0.881618
1.44718
1.40672
-0.682408
-0.99833
-0.800553
-0.817619
1.16149
-0.764379
0.26109
-0.765314
-0.313601
1.24464
-0.856078
1.57748
1.22073
1.06801
1.19586
1.48804
-0.889474
-0.867311
1.2007
1.32657
-0.861494
1.18863
-1.65454
-0.826575
-0.843929
1.25646
1.28843
-0.833303
-0.764946
0.739913
0.10626
-0.657422
1.15411
1.12812
-0.996598
1.17013
1.21474
-0.882017
-0.771121
-0.760636
-0.820749
-0.842155
1.48795
-0.953471
1.0797
-0.767269
1.48362
1.04168
1.02914
1.11076
-2.10761
-1.10426
-0.815212
0.67592
-0.782531
1.10296
0.474825
-0.444595
1.02659
1.187
1.21549
1.18075
-0.0981121
1.21728
-0.00480922
0.605381
0.959336
-0.486066
-0.775077
-0.917628
-0.640021
1.18862
1.15097
1.18848
-1.10129
-0.640503
-0.810468
-0.769663
1.18441
1.46812
1.19815
-0.778836
-0.848989
-0.907957
-0.471421
-0.799784
-0.801434
-0.102533
1.16739
-0.783053
-0.794021
-0.746329
0.0806808
0.874344
-2.44175
-0.807386
-0.774907
1.10373
1.6074
-0.642407
1.2825
1.66699
0.810898
1.38214
-0.77371
0.141056
1.56812
-0.804284
0.499222
-0.786112
-0.844074
-0.82375
-0.798225
1.16495
0.916268
1.36961
1.32951
0.016331
0.962921
0.165708
-0.664187
-0.801992
1.28991
0.876228
1.19349
1.20991
0.0617854
-0.0212599
1.20875
-0.998638
-0.802099
-0.79587
-0.835132
0.780508
-0.800222
1.14285
0.852821
-0.804321
1.40837
-0.776939
-0.237229
1.16211
-0.87627
-0.902811
-1.30804
0.743989
-0.791847
-0.763585
1.0754
1.20162
-0.818316
0.222641
-1.43384
-0.80058
-1.03756
-0.768837
-0.0225322
0.784994
-0.897126
-0.803344
1.44387
0.388073
0.494448
-0.807475
-0.849419
1.17859
1.22615
0.67015
0.719934
-0.811489
-0.916189
-0.614525
0.589755
0.62711
-0.815643
1.00107
0.264858
-0.819623
1.6309
-0.827877
-1.16693
-0.839429
-0.763026
1.02568
-0.84662
-0.763234
-0.80965
0.183664
-0.882479
0.112709
-0.77147
-0.138629
1.35127
-0.937504
-0.00264144
-0.834893
-0.0762987
1.52473
1.56789
1.40859
1.18389
1.384
-0.697282
1.1686
-0.775339
1.22396
-0.803514
-0.77418
1.43858
-0.814482
0.668872
-0.731384
1.5742
0.0734014
1.51223
0.742162
0.925338
-0.789231
-0.782651
-0.80153
-0.773908
1.48771
1.36877
1.16521
0.820333
1.17392
1.05016
0.966734
-0.813626
-0.810447
0.379719
-1.06116
0.940233
1.18597
0.14499
-0.788658
-0.816682
-0.941796
-0.801267
-0.490602
1.51614
1.20464
1.18047
0.0276882
-0.134167
1.20509
-0.999676
-0.800937
-1.87183
-0.897304
0.92768
-0.795746
-0.809348
-0.143623
1.17481
-1.10472
-0.83845
1.17305
0.793232
0.907481
1.16962
-0.800613
1.01994
1.3671
1.02218
-0.799548
1.17008
0.536685
0.589066
-0.86822
-0.800743
1.62587
0.434198
-0.621238
0.20683
1.05915
1.13098
-0.917215
-0.976612
-0.45424
-0.734378
-0.735783
-0.761791
-0.44957
1.16411
-0.769028
1.15675
1.45415
1.27119
1.15391
1.25028
1.3147
1.17409
-0.975566
-0.499431
-0.336804
-0.876177
-0.702465
-0.812524
1.31807
1.2128
-0.873391
1.148
-0.822004
-1.12364
-0.822217
-0.346022
0.72629
-0.861326
1.16042
1.0571
-0.784345
-0.233379
1.51305
-1.0557
-0.692733
-0.786826
-0.763078
-0.797251
1.22194
0.915351
1.276
-0.920284
-0.894574
-0.770623
-0.276788
-0.878476
-1.20634
-0.835808
-1.2657
1.06239
-0.597126
1.62329
-1.07563
-0.419568
-0.831475
-0.813992
1.11477
-0.852069
-0.911218
-0.739553
-0.176118
1.36535
1.39869
-1.73756
-1.21533
0.968034
-0.818298
-0.718883
1.28571
-0.616451
-0.578176
-0.760576
0.891161
-0.271812
-0.883768
1.16459
0.156104
-0.732743
1.17418
-0.827244
-0.945717
-0.779168
-0.901862
0.0914467
-0.882365
1.49402
-0.806347
0.341053
-0.803823
0.934696
-0.762455
-0.86577
0.784517
0.950182
1.23343
1.14391
1.3485
-0.837719
1.03209
0.73929
-0.814283
1.09157
-0.297872
-0.805001
-1.19857
1.35855
1.34501
-0.699956
-0.844925
-0.915947
1.1709
-0.804055
0.225521
-0.875465
-0.815684
1.45627
1.17107
-0.786304
-0.763284
-0.785937
-0.792483
1.06095
-0.770214
1.13493
0.347811
0.846689
0.980389
-0.807815
-0.82932
1.09333
-0.815498
-0.718061
1.45555
-0.814897
-0.795277
0.964195
-0.795392
-0.762597
-0.0290363
-0.908708
1.52964
-0.477153
0.318107
-0.784684
1.47739
-0.778934
-0.766986
0.779455
-0.861882
-0.803461
1.51162
0.810701
1.1879
-0.76235
1.40433
0.250835
-0.646823
-0.764355
-0.763175
-0.777
1.43862
0.708844
-0.837686
-0.780988
-0.893358
1.29217
-0.784374
1.45455
-0.803099
0.859046
-0.797396
0.495823
0.670288
0.634418
0.549933
0.362881
-0.77736
1.16661
-0.765016
-0.633452
-0.820381
0.459225
1.49404
-0.150985
-0.765141
-0.774212
-0.796426
0.384878
-1.06416
-0.798565
1.02687
0.367728
-0.789704
1.55729
-0.887729
-1.00358
1.53431
-0.793976
0.265756
-0.80418
-0.816923
-0.801757
1.53292
-0.820695
1.45373
-0.802279
-0.807545
1.34214
-0.0657578
-0.776007
0.698408
-0.910062
0.125319
-0.259688
-0.799989
0.994146
-0.812242
-0.797939
-0.815221
-0.820003
-0.807821
1.03069
-0.0558118
-0.304962
-0.788181
1.48068
-0.70833
-0.76293
-0.787707
-0.000307362
-0.953066
-0.812217
-0.791215
0.0686586
1.41995
-0.773416
-0.797153
-0.782184
-0.574963
-0.140145
-0.812839
1.56585
1.49952
0.540865
-0.833716
-0.805393
0.452279
-0.803226
1.57801
0.326597
1.25224
0.837904
1.45971
0.203639
-0.962829
-0.857132
0.0428753
-0.763511
0.0439009
0.0568969
-0.804467
1.47584
-0.134927
0.338481
-0.265839
-0.789168
-0.824973
)
;

boundaryField
{
    frontback
    {
        type            empty;
    }
    Top
    {
        type            zeroGradient;
    }
    outlet
    {
        type            fixedValue;
        value           uniform 0;
    }
    bottom
    {
        type            zeroGradient;
    }
    Inlet
    {
        type            zeroGradient;
    }
    rectangle
    {
        type            zeroGradient;
    }
}


// ************************************************************************* //
