/*--------------------------------*- C++ -*----------------------------------*\
| =========                 |                                                 |
| \\      /  F ield         | OpenFOAM: The Open Source CFD Toolbox           |
|  \\    /   O peration     | Version:  2306                                  |
|   \\  /    A nd           | Website:  www.openfoam.com                      |
|    \\/     M anipulation  |                                                 |
\*---------------------------------------------------------------------------*/
FoamFile
{
    version     2.0;
    format      ascii;
    arch        "LSB;label=32;scalar=64";
    class       surfaceScalarField;
    location    "33.6";
    object      phi;
}
// * * * * * * * * * * * * * * * * * * * * * * * * * * * * * * * * * * * * * //

dimensions      [0 3 -1 0 0 0 0];

oriented        oriented;

internalField   nonuniform List<scalar> 
3181
(
-1.0587
0.413958
0.644739
-0.399191
0.375608
0.0235829
0.53631
-0.368313
-0.167998
0.126566
-0.208368
0.0818027
-0.00660408
0.00684164
-0.000237555
0.84857
0.925224
-1.77379
0.153301
-0.146764
-0.00653653
0.0396981
0.0050902
-0.0447883
0.589776
-0.787116
0.19734
-0.0745759
0.142139
-0.0675629
-0.0103056
-0.0495184
0.059824
0.127755
0.0498215
-0.177577
-0.0103138
-0.0323988
0.0427126
-1.10378
0.149407
0.954372
-0.33617
0.716605
-0.380435
-1.12082
0.635115
0.48571
0.0851898
-0.930974
0.845784
-0.146277
0.0970216
0.0492551
-0.715501
-0.240012
0.0199169
0.0149524
-0.0348693
0.0292166
-0.0812146
0.0519981
-0.0473092
0.049014
-0.00170473
1.07086
-1.04353
-0.0273348
0.029459
0.0352742
-0.0647332
-0.957876
0.324211
0.633665
-0.110417
0.236983
0.310566
-0.23942
-0.0711452
0.0306711
0.0644361
-0.0951071
-0.402178
0.330331
0.0718466
-0.0329161
-0.0280466
0.0254572
0.0025895
-0.034105
-0.923771
-0.00558982
-0.0396118
0.0452016
0.105657
1.42914
-1.5348
-0.0504342
0.0530526
-0.00261838
0.177569
0.268159
-0.445728
1.54407
-1.43842
0.0689786
-0.039762
1.47499
-0.795803
-0.679192
-0.633006
1.48158
-0.0739556
0.0636418
-0.0395799
-0.00772932
-0.420396
0.084226
-0.109244
0.0696636
-0.624826
0.13012
0.494706
-0.15423
0.079654
-0.173715
0.178157
-0.00444245
-0.278339
-0.0784593
0.356798
0.386184
0.985852
-1.37204
0.0235104
0.058029
-0.0815394
-0.0081297
-0.0973994
0.103296
-0.0058963
0.527996
0.188609
-0.0965734
0.134601
-0.0380276
0.0942912
-0.099881
-0.176485
0.203732
-0.0272472
0.168261
0.0580709
-0.226332
0.112699
-0.118808
0.00610923
1.1558
0.319191
-0.865737
-0.19296
-0.105024
-1.70772
1.81275
0.54276
0.224769
-0.767529
-0.438757
-0.199132
0.63789
-1.57028
0.937277
-0.263742
0.806501
-0.332231
-0.104515
0.436746
-0.203859
-0.198319
-0.1948
0.164142
0.0306583
0.123835
0.288619
-0.412455
-0.211173
0.800948
-0.0208944
0.0605925
-2.17421
2.06918
0.195671
0.114894
-0.185433
-0.112492
0.297925
-0.270599
0.350245
-0.0796463
-0.0843232
0.0924786
-0.00815535
-1.78802
-0.919577
0.00916786
0.91041
-0.0518378
0.00140357
-1.06296
0.760131
0.302831
0.247797
-0.150746
-0.0970509
-1.40008
-0.170206
1.10209
-0.952687
-0.702499
1.15523
-0.20086
1.06799
0.16147
-0.176233
0.014763
1.27488
-0.34966
1.66842
-1.66842
-0.00749677
-0.00164726
0.00914403
-0.219446
-0.053538
0.272984
0.0153789
-0.0224127
0.00703375
-0.452792
0.843325
-0.390532
-0.0110318
-0.246347
0.257379
-1.08777
0.0442399
0.33745
0.0565382
-0.393988
0.137119
-0.846328
1.0711
0.0127308
0.0244571
-0.0371879
-0.0175367
-0.158948
-0.193276
-0.0469308
0.240207
-0.0767084
-0.116568
0.11489
-0.961217
0.335189
-0.787982
0.925739
-0.840549
0.0465649
0.035726
-0.0822909
0.0788931
0.0507565
-0.12965
-1.39593
-0.115098
1.51102
-0.253747
0.419607
-0.16586
-0.910368
0.731329
0.179038
-0.456922
-0.60604
0.0443115
-0.0208011
-0.157534
0.151753
0.00578062
-0.076718
-0.0107348
0.0874528
-0.567368
-0.219748
-0.074654
0.0261388
0.0485152
-1.5133
0.047319
1.46598
1.52554
-0.53969
-0.0183074
0.0108106
0.0462775
0.149394
-0.19578
0.373349
0.0279068
0.0685677
-0.0964745
0.134751
0.0667607
-0.201512
0.168167
-0.0298044
-0.138363
-0.595972
-0.524852
-1.02499
-0.488306
-0.0090459
0.0217767
-0.110797
0.189587
-0.0787896
0.0218908
0.0256001
0.127701
-0.0576751
0.0742724
-0.0165973
-0.0991193
-0.0230314
0.122151
0.0771275
-0.0771275
-0.190022
0.215622
0.171088
0.0859358
0.108231
0.0955015
-1.29454
1.08337
-1.48652
0.0880423
1.39848
0.035184
-0.0316911
-0.00349296
-0.0260201
-0.0500285
0.0760485
0.549721
-0.0221615
-0.52756
-0.0292825
0.0294357
-0.000153198
-0.205743
0.0157211
0.159943
0.683381
-0.372852
0.532795
-0.14657
-1.24936
-0.0118765
0.00527245
0.497015
-0.312451
-0.184564
0.00825903
-0.00587876
-0.00238028
0.0491461
-0.327485
0.0238818
-0.943459
0.0501949
-0.160992
-0.29585
-0.41069
0.0648966
1.34811
-0.907193
-0.44092
1.04691
0.301207
0.0681915
0.288607
0.0325336
0.00265038
-0.120425
0.146131
-0.0257056
-0.257665
-0.580193
0.837858
-0.366239
0.559384
-0.0638261
-0.176186
0.157214
0.0363427
-0.0433158
0.0069731
-2.2083
0.188962
2.01934
-0.154403
-2.0539
-0.302727
0.640177
-0.907092
-0.0187818
0.00365321
-0.261361
0.257708
1.39216
-1.51492
0.122753
-0.0196894
0.00781285
0.564267
-0.821932
0.0579669
-0.239356
0.181389
-0.291233
-0.113768
0.405001
0.193557
-1.01102
-0.0767442
0.0180928
-0.0529621
-0.544859
0.345727
-0.241495
0.0185024
0.222992
-0.0241336
0.00444426
0.0285422
-0.0285422
-0.115888
0.126871
-0.0109825
-0.258762
-1.22776
0.0527342
0.0183298
-0.0710639
-0.0950424
0.0524805
0.0425619
-0.217474
0.022674
1.33611
-0.388401
-0.947709
-0.199823
0.458653
-0.25883
0.0156451
-0.0153736
-0.000271584
-0.0377547
-0.872613
-0.182761
-0.00441324
0.187174
-0.179984
0.303819
-0.0987061
0.0970395
0.00166652
0.0748812
0.0153952
-0.0902765
-0.110011
0.108793
0.00121864
-1.30999
0.995495
0.314492
-0.224906
-0.0523046
0.27721
-0.700502
0.662003
0.0384999
-0.00697602
0.0422502
-0.00468848
0.00519911
-0.000510633
-0.0181571
-0.0465761
1.113
0.41254
0.176297
-0.880702
0.704405
0.0506262
1.89146
-1.94209
0.3925
0.661655
1.00677
0.0578831
0.199465
-0.064714
-0.0694277
-0.0279717
0.244387
0.152236
-0.0733434
0.737249
-0.413038
0.0619948
0.210989
0.0451248
-0.159684
0.114559
-0.795059
-0.139522
0.934581
-0.0235663
0.0235663
0.00695314
-0.264976
0.533135
0.0129557
-0.237861
0.0347914
0.0622302
-0.00087915
-0.00816675
0.131775
-0.14208
-0.346345
0.335314
0.0245443
0.072189
-0.0967333
0.394531
-0.344709
0.986904
-0.898997
-0.0879071
-0.21202
0.280212
0.189929
-0.50238
-0.208505
0.622462
0.170226
-0.0346936
0.0346936
-0.193149
0.237606
-0.0444573
0.39391
0.0256969
-0.0312444
0.0340555
-0.0028111
-0.0570824
-0.0587178
-0.0159361
-0.0485249
0.180299
-0.176051
0.236266
-0.0602149
0.124384
0.0278529
-0.396148
0.156727
0.185352
-0.0609685
-0.0446875
-0.0540186
-0.0441327
0.0541398
-0.0100071
0.151972
-0.107746
-0.0442256
-0.0091757
0.387377
-0.378201
-0.079159
0.0582646
0.101539
-0.105773
0.00423382
0.0234138
0.473423
0.513481
-0.074362
-0.000157603
0.0745196
-0.0585271
0.0208102
0.037717
-0.0880352
0.0982693
-0.720537
0.622268
-0.0212215
-1.5298
-0.43755
1.96735
0.0231221
1.5683
-1.59143
0.0854517
-0.246972
0.217167
0.269967
0.248879
-0.518846
-0.205159
0.250284
0.146669
-0.89906
0.752391
0.00343075
-0.0619579
-0.00263782
0.0207306
-0.995558
0.446047
0.549512
0.907193
-0.792303
-1.70192
1.58682
-1.39216
1.48021
0.0413394
-0.079367
0.000614948
-0.00530343
0.0164597
0.814879
-0.66821
0.126526
-0.0763315
0.417711
0.737521
-0.0319154
-1.6306
1.68123
-0.695155
-0.599383
-0.239524
-0.385302
-0.0155172
-0.170221
0.219367
-0.577847
-0.384195
0.184371
0.789781
-0.24006
-0.895647
-0.806276
0.740564
0.103784
-0.100353
0.292793
0.0394458
-0.0394458
0.671445
0.147891
-0.819336
-0.22447
0.895915
0.84913
-0.963275
0.114145
0.0856118
0.000323989
0.00725723
0.00569111
-0.0129483
-1.70772
-0.863527
0.323836
0.988329
0.34778
-0.0355727
-0.138142
-0.246519
0.774515
-0.193138
-0.0483562
-0.00320901
-0.0811142
-0.0508782
0.101635
0.371876
-0.241755
-0.841726
-0.279775
-0.105279
0.000174865
0.105105
-1.16317
1.82482
-0.129382
0.120887
0.00849492
0.0416625
-0.00912883
-0.0874941
0.0553046
0.0321895
0.0093584
0.427388
0.00993017
-0.00167114
-0.00253539
-0.00475993
0.00729532
-0.0166117
-0.166149
-0.715631
0.364851
0.35078
0.870659
-1.58288
0.712223
0.13538
-0.15625
0.0208695
0.001517
0.0427945
-0.0385926
-1.62983
-0.0747228
-0.0127714
-0.0230148
0.00221371
0.142698
-0.338478
-0.982822
1.14949
-0.166672
0.0223321
0.0955166
0.0564551
-0.795059
-0.479294
-0.830693
0.0887229
-0.0334183
0.0431278
-0.638163
-0.0623398
0.059897
0.125455
0.95774
0.0519092
-0.464364
0.126173
0.342262
-0.285723
-0.122452
0.0233328
0.224377
0.834138
-1.05851
0.103125
-0.72142
0.618295
-0.963339
0.823817
-1.79048
0.00625047
1.78423
-0.0153653
0.01581
-0.000444633
0.163516
-0.454749
0.208848
-0.122979
-0.0858681
0.0508242
-0.030014
-0.02269
-0.0825894
0.00497589
0.0169411
-0.0350982
0.0213309
0.0720867
-0.0934176
0.872252
0.00424276
-0.00479608
0.000553321
0.0730758
-0.0148112
0.859492
0.00277391
0.00503894
-0.39628
-0.467247
0.0349311
0.0506808
0.00795383
0.0875628
-1.78423
1.62983
0.151826
-0.116883
-0.0349427
-0.246847
0.0706137
0.119129
-0.104366
-0.00154313
0.0940217
-0.0241923
-0.51546
-0.467362
-0.0384637
0.0597946
0.739305
-0.253595
-0.0952409
0.000198457
0.335163
-0.000370711
-0.0308737
-0.0079794
0.0851069
0.14853
0.201716
0.155405
-0.324374
0.168969
0.113346
0.570035
-0.0454585
-0.108771
0.945404
-0.259695
-0.685709
-1.79048
-0.267434
1.13809
1.54407
-0.104372
0.282348
-0.177976
0.371295
-0.0754269
-0.295868
-0.0822492
-1.31783
-0.0693046
0.0698508
-0.000546212
0.0275356
-0.159682
0.132146
0.467894
-0.977456
0.509563
0.041518
0.656202
-0.69772
-0.0454011
-0.112133
-0.0202915
-0.0540705
0.207001
-0.400149
-0.0137899
-0.00157546
0.0341475
0.0207601
-0.0549076
0.0172186
-0.137644
0.00695788
0.0347046
-0.0784884
0.114214
0.00468843
0.000510681
0.192317
-0.438665
-0.0187595
1.58706
0.0141898
0.00937651
-0.993334
-0.0176901
0.123441
-0.0749637
-0.0474885
-0.0854721
0.143439
0.592623
-0.745178
0.152555
0.0541459
-0.0192149
-0.936384
-0.0163032
-0.0187715
-0.648577
0.746846
-0.0184265
0.188652
-0.477376
-0.485899
0.182408
-0.451436
0.269029
-0.0533634
0.121931
0.00829458
-0.00870932
0.000414742
-0.0382977
-0.0717136
-0.0217863
-0.137162
0.750865
-0.64774
-0.0822494
0.0537691
-0.112163
0.305507
-0.150102
0.126121
1.24441
-0.308488
-0.935921
-0.118021
0.136523
-0.503623
-0.212008
-0.563871
0.625247
-0.606374
-0.0188733
-0.0739636
-0.00828581
-1.6306
0.534997
-0.534997
-1.78387
1.78387
0.814879
0.121405
-0.355646
0.234241
-0.899623
-0.0937105
0.621486
-0.358905
-0.26258
0.169755
-0.248544
-0.0129401
-0.00536731
-0.882133
-0.0790842
-0.933021
0.212484
0.0425724
-0.0423975
0.697486
-0.113684
-0.583803
1.08388
0.460192
-0.00145933
0.00975391
-0.963718
0.0138485
-0.912845
-0.0893301
-0.589652
0.678982
-0.0537419
-0.839473
-0.675444
0.216666
-0.812638
-0.934581
1.37999
-0.445406
-0.141084
0.285156
-0.144072
-0.0216086
0.719095
-0.103466
-1.01802
1.01802
-1.86645
1.31648
0.54997
-0.0015115
0.00575427
0.0675014
-0.432532
0.819656
-0.059525
-0.0821832
-0.0362367
0.0630687
0.0076181
0.00802705
2.07266
-2.06641
-0.333541
0.408423
-0.630177
0.997217
-0.36704
-0.012434
-0.0622888
0.121191
-0.0544307
0.361964
0.0051926
-0.0375914
0.352342
0.0350344
0.0423177
-0.243166
0.200848
0.143053
0.035104
0.0951713
0.177698
1.96421
0.104969
0.565798
0.498295
-1.06409
-1.47865
1.66761
0.244973
-0.175309
0.0777236
-0.767447
0.689723
0.687203
0.137635
-0.48398
-0.0745652
0.137659
-0.0630939
0.138055
-0.21262
-0.44129
-0.103569
-0.0695318
0.0725009
-0.00296902
0.00182587
0.00286257
-0.0655212
-0.0343598
0.66821
-0.618295
-0.0499151
-0.297965
0.310921
0.875656
0.632231
-0.260936
-0.0175003
0.03583
-0.247222
0.00786563
0.177761
-0.59082
0.413059
-0.00818929
-0.00052003
0.189272
-0.0437951
-0.145477
0.00895727
-0.0144988
0.00554153
-0.0250494
0.0177341
0.00731534
-1.19932
0.849657
-0.160801
-1.369
-0.192412
-0.792303
1.48021
1.58682
-0.19779
-0.177424
0.12512
-0.0615184
0.0670295
-0.00551113
-0.136897
1.08531
-0.948412
0.539647
0.0818382
0.000766413
-0.0089557
0.118585
0.124503
0.0362367
-0.0432362
0.00477247
-0.325825
0.0786034
0.000275434
-0.00115458
-0.23665
0.63118
1.04691
-0.0399711
-0.0633396
0.00148613
0.0618535
1.94467
-0.357844
-0.0627802
-0.056028
-0.953509
0.161206
0.407677
-0.21412
-0.473705
-0.125327
0.599032
0.810067
-0.358617
-0.45145
0.0162382
0.576384
-1.68123
-0.0264933
0.00633914
-0.00335718
-0.00298196
0.0769444
1.81452
-0.175239
0.182497
0.0992429
2.07048
-0.590275
-0.682514
0.0590632
0.623451
0.375201
-0.00123812
-0.344238
0.543262
0.8225
0.108415
0.0784991
-0.0220441
-0.856507
-0.114386
0.970893
1.06527
-0.00367658
0.0011412
-0.0482613
-0.35533
0.100312
-0.305472
0.882612
0.361797
-0.065349
-0.00861451
0.272603
-0.376975
-0.0241388
0.0171627
0.113719
-0.151587
0.0378675
-0.305807
0.32052
-0.0147128
0.429523
-0.738012
-0.924307
0.479
0.445307
0.106744
-0.151138
0.0443932
0.265107
0.0404003
-0.664704
0.18541
-0.654204
0.654204
1.81275
1.08388
-0.72142
0.334408
0.488092
-0.227357
0.182899
0.906937
-0.367289
0.00667809
-0.868344
0.861666
0.138058
0.0040812
0.0261151
-0.807587
0.142883
0.062327
-0.169059
-0.124641
0.2937
0.0222642
-0.522844
0.353786
-1.05456
-0.28207
-0.647526
-0.0388744
-0.00528617
0.000490089
-0.224061
0.0469122
0.0581924
0.0350466
-0.141089
0.106042
-1.43758
-0.428878
-0.00587628
0.0703123
-0.272318
0.601781
-0.329463
-0.577801
0.393237
-0.110701
0.18289
0.238595
0.00895176
-0.0115896
-0.703258
0.314857
0.0333742
0.0681645
-0.132412
0.0202484
0.19968
0.00916812
-0.418513
1.98075
0.43988
-0.309292
0.867467
-0.789743
0.774624
-0.439461
-0.601859
0.169327
0.151339
-0.7911
0.761172
0.0299282
1.23674
-0.354131
-0.203727
-0.129815
-0.0109043
-0.0115084
0.952854
-0.838211
-0.114643
-0.177229
0.103885
0.0282254
0.123528
0.87611
0.248982
-0.783838
0.534856
-0.330081
-0.0541135
0.672153
-0.944471
0.142247
1.36878
1.12394
-0.0400585
0.171908
0.554709
-0.726618
0.0645058
0.0488651
0.00458307
0.00436869
-0.505591
-0.0962677
0.0230342
-0.0471678
-0.182296
0.133772
-0.542728
0.283899
-0.991917
-0.492543
-0.28578
-0.532169
1.44468
-0.046201
-0.281937
-0.330381
0.00455597
0.0212154
0.293351
0.0589911
1.33544
-0.867545
-0.184629
0.123661
-0.11915
-0.277595
0.396745
0.00655615
-0.000217008
0.0475211
-0.0605891
-0.245218
-0.125238
0.697579
-0.416508
-0.281071
0.0574855
0.13844
-0.0995892
-0.0388506
0.240414
0.052937
0.0799301
-1.67136
-0.0938529
0.136981
0.630277
-0.381295
-0.0144907
0.0522077
-0.019392
0.0223315
-0.00293955
0.000788957
-0.03248
-0.237442
0.0777576
-0.00366505
-0.567519
0.426435
0.015065
0.0584017
0.0483426
-0.693876
1.66097
-1.29917
0.0158098
-0.188342
0.172532
-0.137079
-0.542903
0.679983
0.0810442
-0.719207
-0.35158
-0.572726
-0.0365271
0.000151863
0.0363753
-0.252136
-0.625247
-0.169812
-0.147673
-0.856507
-0.225821
0.161107
-0.30327
-1.105
-0.247992
0.232727
0.0152648
0.269268
0.118371
0.414646
0.246054
-0.6607
0.0510005
0.0527833
1.07022
0.281655
-1.35188
-0.224173
0.277205
1.39041
-0.236446
0.176231
-0.697696
0.974901
-0.0223311
-0.0245997
-0.0182013
0.0346611
-0.0264129
0.96405
-1.27334
0.720927
0.0891397
-1.02533
0.509866
0.247049
0.659887
0.934034
0.0113696
-0.0160921
-1.12394
-0.647526
-0.713126
0.722294
-0.0740101
-0.895647
0.656202
0.613786
-0.931921
0.555063
-0.00785923
-0.783241
-0.313802
0.636787
-0.776847
0.140061
0.0830804
0.0553594
0.0448948
0.179862
1.61272
-1.79258
-0.0050914
-0.000194772
-0.258044
0.209688
0.717831
0.227727
-0.212006
-0.185404
1.70475
-1.65743
0.0492102
0.185031
0.292328
0.268738
-0.561067
-1.3971
1.28272
-0.250052
0.851833
0.0923087
1.15075
-0.970893
-0.00207574
0.212589
-0.0459091
0.0874835
0.0359572
0.00548447
-0.0395265
0.034042
-1.02192
-0.0365986
0.320741
-0.80525
-1.18738
1.41048
-0.223099
0.368729
0.628487
-0.051434
0.0550653
-0.00363123
-0.139889
1.84464
-0.717784
1.73723
0.26006
-1.44744
0.307428
-0.0948386
-0.585122
-0.406795
-1.21761
1.50994
-0.06076
-0.876203
-1.77027
-0.171815
1.15075
0.0494023
-0.854652
0.830719
-0.645239
-0.185481
-0.981833
0.396711
0.014576
0.117168
-0.000477818
-0.116691
-0.971553
0.564758
-0.220761
0.911442
-0.927745
0.188007
-0.204618
-0.0934214
0.236119
-0.0607247
0.288331
-0.0316101
-1.45709
0.521169
1.23266
-1.12425
-0.553195
-0.518007
1.0712
0.446805
0.0165526
-0.0108615
-0.734318
0.69772
1.09066
-1.23055
-1.00677
0.664395
0.34237
1.48144
-0.0709628
0.778707
-0.811623
-0.4934
-0.450059
-0.471393
-0.50016
0.803472
-0.803472
0.684916
-0.684916
-0.734318
-0.494189
0.494189
-0.664395
-0.783794
-0.792051
0.459034
-1.01545
1.01545
1.09066
-1.23055
0.778707
0.767384
-0.767384
0.811623
0.758959
-0.758959
0.5066
0.528607
0.481993
0.0752069
-0.49984
-0.549941
1.07855
-1.41335
-1.92633
0.70872
-0.431209
0.181157
0.0797919
0.0029822
-0.000208287
-0.886688
0.0969899
0.789699
-0.086084
0.0705668
-0.996885
0.583848
0.937997
-0.603589
-0.126095
0.012317
-0.0123292
-0.800906
-0.079796
-0.549512
0.00325996
0.0174707
0.534968
-0.114022
0.0806033
0.174229
-0.00650006
-0.00672966
0.0132297
-0.810765
0.0669244
0.74384
-0.0480628
-0.012662
-0.534961
0.408184
0.126777
0.91724
-0.741056
-0.176183
0.0812219
0.292127
-0.0135994
-0.0559324
-0.0545273
-0.0147774
0.856112
-2.01928
-0.832322
0.0997581
-0.739257
0.796551
-0.0572944
0.12309
-0.899825
0.776734
-0.80257
0.905798
-0.103228
-0.0590971
0.0598861
0.0201736
-0.281535
0.297961
1.21198
-0.0970866
-0.789602
0.917213
-0.0929401
-0.824273
0.0845174
-0.0969514
-0.479272
0.820153
-1.47583
0.456079
-0.374241
0.104345
-0.893947
1.43842
0.345449
-0.789667
0.00642575
1.01783
-0.894737
1.22561
0.0120858
0.668983
-0.681069
-0.877902
-0.118983
-0.40504
0.0268392
-0.308107
0.460662
-0.785074
0.785074
-0.598202
-0.0876087
-0.864149
0.123093
-0.929695
0.840365
0.0722651
-0.195245
-0.0592014
0.063261
0.0110115
0.19003
0.827797
0.81819
0.770854
0.140666
-0.91152
0.294807
-0.113649
-0.781126
-0.109105
0.890231
0.175974
-0.893758
-0.674119
0.888358
-0.784013
-0.109555
0.459758
-0.030562
-0.429196
0.0293174
0.934249
-0.963566
0.227878
-0.280433
0.0525548
-0.890682
-0.830871
0.091614
0.513486
0.261138
-1.98648
0.993367
-0.567788
0.567788
-0.897889
-0.559201
-0.601762
0.744645
-0.159132
0.638132
0.779254
-0.208679
0.269845
0.579813
-0.600329
-0.235448
0.835777
-0.158944
-1.42394
-0.0243425
0.306892
-1.07529
0.244596
0.0787828
0.299476
-0.218255
0.779963
-0.883191
-0.0350674
-0.078582
-0.15433
0.738178
0.574408
-0.574408
-0.0659461
0.0568173
0.107098
-0.072051
0.740035
0.194213
0.102716
0.00256894
0.00702427
-0.00959321
-0.664804
0.694974
-0.0301694
0.666368
0.00261528
0.110719
-0.894733
-1.02522
1.33039
-0.305169
0.134396
0.876244
-0.180798
0.847166
-0.754067
0.598814
-0.661154
-0.65063
0.147007
-0.597714
0.0277517
0.140464
0.146856
-0.74457
0.0066203
0.170764
0.0737132
0.722838
0.696087
-0.0972727
0.0779526
0.781539
0.690034
-0.0983466
-0.591687
-0.449531
0.537865
0.489661
-0.967894
0.741945
0.225949
-0.685877
-0.126761
1.57654
-0.222834
-0.177315
-0.0411723
0.486216
0.513784
-0.769791
-0.1134
-0.697783
-0.784516
-0.163193
-0.916268
0.400493
0.599507
-0.0896172
0.074806
-0.862731
-0.0732907
-0.587863
-0.158484
-0.252619
0.411103
-0.0221763
-0.00201603
0.109673
0.0706265
-0.128655
-0.108787
0.75726
-0.640307
0.71826
-0.425801
0.572657
-0.264233
-0.0863459
0.350579
-0.747258
-0.195779
0.943038
-0.247593
0.235856
-0.0248666
-0.0132276
0.0176719
0.0112344
0.697139
-0.129351
0.129027
0.109568
-0.736692
0.0718881
0.391605
-0.573806
-0.31648
0.228573
-0.330644
-0.290308
1.02783
-0.00812779
0.152272
-0.0530287
-0.0127232
0.0021013
-0.0577807
0.0814573
0.310148
-0.0304398
-0.130275
0.160715
0.848874
-0.0314236
-0.00263277
0.0340564
0.125483
-0.0137663
-2.35355e-05
0.222932
-0.109212
-0.0936586
-0.0654736
0.613083
-0.643523
0.00867535
0.296975
-0.216621
-0.938781
1.18773
-0.248947
-0.777681
0.838328
-0.0606474
0.857679
0.226398
-0.24873
-0.0650573
0.821492
-0.452053
-0.0829085
0.280571
0.462116
0.195154
-0.657269
0.417061
0.0451789
0.649795
-0.574255
0.556974
0.0172818
1.2558
-1.23459
0.00663193
-0.00686883
0.000236902
0.694544
-0.00913759
-0.0832054
0.0199549
1.21797
0.446561
0.411117
0.0114472
-0.100538
-0.0505991
0.0116959
0.0506724
-0.0623683
0.0208269
-0.0153424
0.875261
-0.593606
0.109193
0.226718
-0.0264671
-0.0957563
0.219143
0.0989978
0.00361294
0.0663952
0.768258
-0.273009
0.0883423
0.184667
0.522322
-0.164868
-0.357454
0.642549
0.122376
-0.0133754
0.0142153
-0.000839986
-0.500429
-0.426798
0.191351
0.00011646
0.740448
0.711025
-0.0175397
0.532939
-0.488044
0.818523
0.120781
0.00533989
-0.869963
0.0486932
-0.273699
0.216459
-0.175019
0.6893
0.0789577
0.0130109
0.355233
-0.128835
-0.169388
0.162142
0.0321865
-0.113401
0.422625
-0.0568413
0.761054
-0.0744654
0.1684
0.24887
0.273452
-0.1561
-0.041047
-0.0561801
-0.11049
0.0165774
2.24604e-05
-0.0165999
-1.44586
0.21127
-0.0138543
0.854403
-0.230051
-0.615218
0.633248
-0.0180295
0.426228
0.761188
0.238089
0.11249
0.0778292
-0.171251
0.628698
0.13249
0.975458
0.849362
-0.26013
0.71621
0.736078
-0.42593
-0.608289
0.349848
0.25844
-0.405433
-0.0711868
0.0423503
0.0613519
-0.0459485
1.1096
0.735655
0.082868
0.615102
0.222756
-0.867528
-0.0807438
-0.671596
0.678022
-0.022552
-0.595216
0.436732
0.875716
0.673877
0.104991
-0.00888125
-0.168939
-0.315041
1.15753
0.503442
-0.00415334
-0.0145715
-0.258349
-0.167582
0.93432
0.531659
-0.076029
-0.145859
-0.745119
0.932875
-0.187757
-0.412533
-0.195756
0.00425165
-0.176508
-0.170822
0.733838
-0.00636495
0.00160502
0.628186
0.279156
-0.0505832
0.600586
-0.132966
0.244034
0.727671
0.250343
-0.978015
0.277557
-0.922796
0.151524
-1.4507
-0.183246
0.774273
-0.591027
-0.663948
-0.0445117
0.0312841
-0.0545702
-1.55808
0.0268063
-0.0461983
0.602992
0.00734615
-0.147924
0.140577
-0.0185826
-0.577847
0.0878948
0.0643769
-1.12251
-0.0103818
0.0038817
0.406964
-0.0532894
-0.587018
0.0127621
0.566662
0.309054
1.03783
0.929526
-0.251349
-0.383741
0.63509
-0.0916302
-0.617991
0.617991
-0.208838
-0.910231
1.11907
0.0296656
-0.147687
0.687737
-0.121076
-0.224016
-0.387897
0.210582
-0.153919
0.904341
0.314194
0.170778
-0.105881
-1.36237
0.484673
0.072301
0.0520782
0.0169003
-1.464
-0.321977
-0.324973
0.693335
0.306665
-0.321977
0.693335
-0.549505
-0.0996478
-0.549505
-0.69628
0.69628
0.30372
-0.0146148
0.156738
-0.075339
0.210613
0.0431185
-0.463857
0.641755
-0.0411684
0.663882
-0.504491
-0.159391
-0.0611728
0.0615972
-0.000424438
-0.0167348
0.0193037
0.495306
0.0192977
-0.0295041
-0.435602
-0.346352
0.122291
0.0466638
0.835497
-0.280787
-0.281651
0.286207
-0.00482191
-0.0893011
-0.0108856
0.676787
0.0636609
0.421851
0.00796147
-0.00066615
-0.005328
0.0861365
0.568586
-0.475864
-0.0927219
1.93258
0.544482
-0.292709
0.882216
0.0109884
-0.0610169
0.104001
-0.25901
0.100852
1.10003
-0.372354
0.0074215
-0.0462959
0.657401
-0.0762495
0.0232462
-0.0232462
0.0190516
-0.0190516
0.00298489
-0.00298489
0.0141898
0.365422
0.457107
-0.0354719
-0.732505
0.492445
0.193161
0.0297711
-0.0818129
-0.485376
0.782166
0.110812
-0.796689
-0.939283
0.453384
0.0822691
0.0189119
-0.00117787
-0.0100474
0.0100474
0.222965
-0.0101992
0.0101992
0.701036
0.0875721
0.00685589
0.00110558
0.0068594
-0.070199
-0.0233067
0.0233067
0.00199303
-0.00199303
-0.0214448
0.0214448
-0.00828355
0.00828355
0.090764
-0.293415
-0.0845665
0.221796
-0.00828599
0.00828599
-0.37283
0.517808
-0.144978
0.51108
-0.225924
-0.361972
0.0803206
0.561764
-0.124244
0.0710128
0.562235
0.566558
-0.00608428
0.00608428
0.173121
0.0237727
-0.0237727
-0.00825351
0.00825351
0.747799
-0.669105
0.0342811
-0.105173
0.0613779
0.00452864
-0.00452864
-0.00215304
0.00215304
0.0177571
-0.0177571
0.0241912
-0.0241912
-0.0226306
0.0226306
0.0340071
-0.0340071
0.478855
-0.030768
0.030768
-0.0045051
0.0045051
0.0232683
-0.0232683
0.00210679
-0.00210679
0.00623748
-0.00623748
0.00616071
-0.0243189
0.0243189
0.526743
0.0190504
-0.038241
0.038241
-0.00159616
0.00159616
-0.00458163
0.00458163
0.0324346
-0.0324346
0.0265251
-0.0265251
0.00450617
-0.00450617
0.00248235
-0.00248235
-0.100541
-0.214776
0.00210683
-0.00210683
-0.00406047
0.00406047
-0.0369778
0.0369778
-0.0288044
0.0288044
-0.00208213
0.00208213
-0.402167
0.649216
0.266722
-0.0310815
0.0310815
-0.024252
0.00229523
-0.00229523
-0.00365429
0.00365429
0.0384598
-0.0384598
-0.149706
0.155046
-0.00246679
0.00246679
-0.0240541
0.0240541
-0.505779
0.0458192
-0.0568311
-0.0323506
0.0323506
-0.450876
0.035295
0.0197703
-0.3779
-0.647426
-0.0356374
0.0356374
-0.194441
0.137599
-0.0420235
-0.00338271
0.00338271
0.00844359
0.0435545
0.262238
-0.325416
-0.288111
0.613527
0.202766
0.00232428
-0.00232428
-0.13254
0.303754
-0.171214
0.782135
-0.40506
-0.377076
-0.451597
-0.662251
0.0863689
0.199838
-0.0986902
-0.350841
-0.573017
-0.00606008
0.191315
-0.276011
0.0142791
-0.0142791
-0.00245406
0.00245406
0.0299181
-0.0299181
0.0269708
-0.0269708
0.000384374
-0.000384374
-0.00193403
0.00193403
-0.0584769
-0.092269
0.181868
-0.307963
-0.00109048
0.00109048
-0.0462685
0.0462685
-0.0391548
0.0391548
0.144156
-0.031093
-0.113062
-0.0065212
0.323583
-0.553634
0.00171009
-0.00171009
0.00851391
-0.00851391
-0.0883948
0.135145
-0.0487759
-0.00234877
0.00234877
0.0760247
0.0177278
1.01093
-0.483034
-0.0740204
0.557055
-0.635255
0.0559628
-0.36407
-0.039732
0.039732
-0.683619
0.283316
0.0482361
-0.0482361
-0.636339
0.373759
0.270084
0.123473
-0.000579716
0.000579716
-0.814878
-0.00106981
0.00106981
0.308899
0.410196
0.00776054
-0.0521536
0.0521536
-0.00250948
0.00250948
-0.0411519
0.0411519
-0.0553001
0.0553001
-0.00162313
0.00162313
-0.0610807
0.0610807
-0.0020961
0.0020961
-0.0444006
0.0444006
-0.00183144
-0.046466
0.046466
0.00416645
-0.00416645
0.0468763
-0.0468763
-0.00262091
0.00262091
0.0490149
-0.0490149
-0.0852005
-0.00382435
0.00382435
-0.00492062
0.00492062
-0.0566597
0.0851069
-0.0104621
0.0104621
0.00474026
-0.00474026
-0.0578614
0.0578614
0.292563
-0.0177775
0.0177775
-0.0586399
0.0586399
-0.00731474
0.00731474
-0.0656224
0.0656224
-0.0134262
0.0134262
-0.0786502
0.0786502
-0.021033
0.021033
-0.0965074
0.0965074
-0.685314
0.207704
-0.52342
0.505391
-0.839473
-0.0385304
-0.576162
0.401143
-0.0294435
0.0869291
0.0035202
-0.0035202
0.147255
-0.730476
0.040638
-0.0237377
-0.997681
1.45787
0.443593
0.258461
-0.0291056
-0.00497882
-0.402597
-0.571429
0.00429653
0.389972
-1.11952
-0.0168772
0.0168772
-0.768185
0.0219071
-0.0219071
0.00246
-0.00246
0.314042
-0.358067
-0.00251919
0.00251919
0.0196657
0.0150279
0.596755
0.185982
-0.0193675
-0.0120997
-0.0039924
-0.0904841
0.484967
-0.394483
0.0175585
-0.041901
0.0140736
0.882558
0.0106756
0.0597759
-0.405984
0.432823
-0.480004
-1.02273
-0.226622
-0.0683606
0.0174824
-0.124477
-0.155956
0.0355153
-0.00259813
0.000542884
0.774686
-0.561811
-0.0334747
0.0656612
-0.0343665
0.0563008
0.100437
0.429128
0.232875
-0.168781
0.216744
0.0241126
-0.00871732
-1.14005
-1.29432e-05
-0.00278819
-0.145135
-0.0196755
-1.38327
-0.0707802
0.260707
-0.348865
0.383899
0.236965
-0.769134
0.0445055
-0.0552
-0.0417514
-0.342677
0.469455
-0.0299068
-0.0483181
0.0782249
-0.0262373
0.0262373
0.165661
-0.426597
-0.00507757
0.0575581
-0.0754349
0.0528829
-0.0673422
-0.00722456
0.0745667
-0.039603
-0.150472
0.0436171
-0.0621699
-0.292675
-0.365497
0.658173
0.0134586
0.0563922
0.153328
-0.0243008
-0.0363223
0.0624851
-0.151741
0.30308
0.00532183
0.0287346
-0.0314863
0.184814
0.00377022
0.253938
-0.00239017
0.00239017
-0.482272
1.41659
0.0848692
-0.165613
-0.0141066
-0.0396353
0.257945
0.589221
-0.0278417
-0.000700485
-0.531654
0.00823375
0.146011
0.0839585
-0.666322
0.299033
-0.057392
0.389561
-0.682236
0.219464
0.522481
-0.0881302
0.0881302
-0.000477819
-0.564837
0.134675
0.430162
-0.20617
0.1516
0.122504
-0.179277
-0.558735
-0.103514
0.00371037
-0.00309542
0.93018
0.23423
-0.129239
-0.0685705
-0.987714
-0.45973
-0.0601305
-0.270889
0.814151
0.589513
-0.26593
-0.28003
0.577006
-0.0534221
0.33577
-0.269735
0.0737444
-0.470638
0.32566
0.126278
-0.126278
0.0851069
-0.0471515
-0.0379553
0.00414241
0.0063636
0.0223315
-0.274885
-0.225543
0.235335
-0.18764
-0.0476946
0.552614
-1.0478
0.306762
-0.774009
0.699026
-0.126742
-0.181221
-0.0461353
-0.0791027
-0.478152
0.0425493
-0.280131
0.00191568
-0.0196755
0.371742
-0.00526736
-0.00159674
-2.43178e-06
0.0155951
-0.00812313
-0.00747194
-0.107999
-0.0178648
-0.16356
0.181425
-0.134232
-0.336406
0.0196657
0.345046
-0.000689659
-0.365502
0.0797219
0.00232789
0.037881
-0.0733528
-0.011558
0.011558
-0.000807916
-0.000160016
-0.00965542
3.2479e-05
-0.0624247
0.00088445
-0.00118578
0.174843
-0.031404
-0.00218273
0.00218273
0.0684164
0.520679
0.000113814
-0.295773
0.513444
1.11409
-0.476909
0.343792
-0.437455
-0.109484
0.104407
0.238813
-0.237232
-0.0193278
0.0140373
-0.00280296
-0.00132511
-0.182925
-0.387508
0.879954
0.284243
-0.34272
0.144466
-0.00157258
0.121676
0.0127202
-0.000142194
0.00122485
0.0128125
-0.251998
0.0012632
-0.000137036
0.707821
-0.645335
-0.243212
0.141698
0.934903
0.000406175
1.5564e-05
-0.0420235
-0.00582543
0.817504
-0.431192
0.503493
-1.10949
0.906172
-1.01592
0.590995
-0.189852
0.688172
0.000217489
0.00325555
0.0156564
-0.112554
0.140437
-0.185962
0.00958791
-0.00230032
0.0619763
-0.0465745
-0.0154017
0.000142516
0.0403358
-0.0255205
-0.0148153
-0.0921151
0.00735102
-0.000326753
0.00198372
0.466356
-0.422958
-0.00393228
-0.000372035
0.795825
-0.661151
0.395581
-0.00571936
0.000928651
0.156292
-0.0470995
-0.0377547
-0.125216
-0.0198168
-0.00351734
0.113262
0.00255579
-0.00133917
0.422214
-2.23492e-05
-0.00328132
0.00328132
-0.00510659
-0.00699314
-0.000706107
-0.322998
-0.0036067
0.0703292
-0.107192
0.465946
0.172212
-0.0656233
-0.000619608
0.00109627
0.475248
-0.000964094
-0.00119115
0.0054428
-0.00199709
-0.000308042
0.0791081
0.0236081
-0.710311
0.487363
-0.874871
-0.0208111
-0.000160704
-0.609452
0.0101219
0.0686609
0.609065
-0.0155681
0.0572553
-0.00391746
-0.00135976
-0.551129
-0.0032487
-0.000472967
-0.0249632
0.958053
-0.540993
-0.00247577
-0.000524821
-0.00570781
-0.00120344
0.0698645
-0.0229281
0.0229281
0.00312795
-0.00328797
-0.00257448
-0.00776102
-0.00529705
0.00370031
-0.159042
0.0878554
-0.00611143
-0.0130278
0.0449999
-0.0154776
0.0595391
-0.0420567
-0.624383
0.567089