/*--------------------------------*- C++ -*----------------------------------*\
| =========                 |                                                 |
| \\      /  F ield         | OpenFOAM: The Open Source CFD Toolbox           |
|  \\    /   O peration     | Version:  2306                                  |
|   \\  /    A nd           | Website:  www.openfoam.com                      |
|    \\/     M anipulation  |                                                 |
\*---------------------------------------------------------------------------*/
FoamFile
{
    version     2.0;
    format      ascii;
    arch        "LSB;label=32;scalar=64";
    class       volScalarField;
    location    "9.4";
    object      p;
}
// * * * * * * * * * * * * * * * * * * * * * * * * * * * * * * * * * * * * * //

dimensions      [0 2 -2 0 0 0 0];

internalField   nonuniform List<scalar> 
2186
(
0.715072
-0.40851
-0.110256
0.982821
-1.11424
0.00690311
0.595017
-1.06192
-1.05575
1.22567
0.910483
-1.00619
-1.08294
0.912378
-0.629373
0.912535
0.940967
-1.75308
0.00165651
-1.07457
1.30027
-1.02773
0.921344
-1.08827
0.909736
0.957958
1.13161
0.815767
0.434263
0.911788
-1.06023
0.911422
-0.995085
-0.78989
-0.995734
-0.0668218
-0.621768
1.28602
-1.04337
0.00400967
-1.10642
-1.02684
-0.740962
-1.14156
0.769169
1.20787
0.272786
0.437474
-0.826967
-1.34367
-1.06668
0.75111
-0.734233
1.21234
-0.983578
0.864192
-0.789196
0.891268
-1.17811
0.74918
-0.400165
0.482938
0.393947
0.00269093
0.41527
0.379628
0.513756
1.19273
1.08789
-1.12055
-1.06844
-0.479995
1.16748
0.912796
1.06971
1.0686
-0.676592
0.936295
-1.001
-0.996454
-2.2022
0.00449215
0.908379
0.468141
0.902235
0.907606
1.19192
0.00641215
-0.0443955
-1.00341
0.864841
-1.06835
0.834419
1.07623
0.918808
0.254626
-0.231858
0.43626
-1.27016
0.904571
-2.30553
-2.39262
0.510557
0.857451
0.942967
-1.1011
1.09169
-0.819413
0.846598
-0.611061
-0.934794
-1.23907
0.463419
1.20475
-0.997369
-0.98514
-0.0035087
-0.701773
-1.00757
1.17177
-0.206278
-1.61598
0.709705
-2.01897
0.917978
-0.00368523
-1.19594
1.05876
-1.8172
0.576481
1.2986
1.15282
0.1641
0.568375
-2.18785
-1.38764
0.835803
-1.0794
-0.764838
-1.02301
0.651188
-0.275657
-1.04074
0.619167
0.829188
0.862635
-0.749893
-1.14503
0.527192
-1.11887
-1.11586
0.499221
0.938431
1.09762
0.958537
0.447606
1.18387
0.282571
0.178233
0.344214
-1.02601
-1.70199
0.884116
0.901713
0.00290257
0.00404719
-0.9407
-0.958101
-0.0956664
-0.150904
0.193759
0.909505
0.941322
1.02497
0.261566
-0.524055
-1.09548
0.885192
-2.12015
0.719783
-0.949501
0.922232
-1.05926
0.387414
0.369258
-1.14407
-0.801355
1.00839
-0.73896
-1.08814
-1.2952
1.16079
-1.63218
0.892507
-1.02102
-0.42091
-0.0961155
1.07927
0.940832
-1.0435
-1.25204
0.038216
0.00938392
0.942348
-1.00747
-1.0958
-1.01452
-0.491446
0.849217
-0.925827
0.43863
-0.0323466
1.19326
0.680822
0.78119
0.865674
1.06336
0.912317
0.814241
0.981568
0.303593
-0.897609
-1.03478
-0.0790353
0.115054
-1.77131
-1.16833
0.908437
1.04702
-0.966964
-0.946258
-0.90852
0.294802
0.571621
0.711591
0.815926
1.03682
-2.06663
0.801364
-1.02928
-1.3505
-0.973191
0.867322
0.578261
1.02954
1.08757
0.987817
0.963407
-1.05281
0.744508
1.00803
-1.09377
0.853053
0.627808
-1.16695
-0.996255
-0.921465
1.03034
0.936508
-1.1233
-1.2056
-0.104662
0.873042
-2.2044
0.606286
0.94948
0.78064
-1.00763
-1.05704
0.887318
0.491396
-0.697976
-0.734532
1.23892
-1.1017
-1.05067
0.757255
1.10172
0.902222
-1.23464
-0.816747
-0.926816
0.793014
-1.12479
0.468394
0.88564
0.93695
-0.270349
-0.555
0.867835
-1.08882
0.845096
1.11242
0.933513
0.931482
-0.0068426
-1.32546
-1.07287
-0.48788
-0.845568
-1.44907
0.303938
-0.625024
0.451836
1.08837
1.08747
0.792069
-0.785425
1.04153
-1.35401
-0.0169278
-1.43871
-1.02498
-1.13246
0.275277
-1.12022
-1.07722
-0.01028
0.810292
-0.233975
0.216568
-1.22043
-0.107168
-1.09823
-1.20003
1.12573
-0.198144
-0.0147996
-1.05073
0.709835
0.406001
-0.651284
0.455431
0.250261
-1.19662
0.507323
0.939899
0.949051
-0.0203141
1.05811
0.808744
0.211341
1.16315
0.907373
0.850662
0.297569
-0.254568
-1.02776
0.735334
-1.15712
-0.960473
-1.47914
-0.853203
-1.01191
1.25653
-0.0661371
-1.05813
-1.10504
0.90602
-1.04525
-1.20796
-1.31193
0.681731
-0.196813
-1.92888
1.15557
1.21699
1.0454
-1.04788
-0.0241765
1.27043
0.913939
-1.38329
0.289573
-1.03717
0.100477
1.07543
0.861004
0.797333
1.21887
-0.579586
-0.262222
-0.275818
-0.540517
-1.78203
-1.00857
0.000933346
1.1962
-1.90509
-1.40205
0.898617
0.507113
-1.00458
-2.22224
-1.03166
-1.59973
-1.67475
-1.01955
-1.08457
-1.08642
1.10456
-0.100287
-0.926019
0.924748
-1.63508
1.18132
-1.96614
-1.2301
-1.34003
0.910867
-0.954633
0.933979
0.768498
-0.103158
0.959826
-1.68824
-1.01576
-1.26985
0.931921
0.857773
-1.03117
-1.03952
-1.48282
0.858766
-1.9536
-1.77275
0.351502
0.83597
0.796607
0.620038
-1.06093
-0.854934
0.716451
-0.843643
0.737281
-1.16135
0.933637
-0.220328
1.04998
-1.00814
0.773581
0.575631
0.940386
-1.28908
0.904209
-0.411683
-1.01465
0.913289
-0.369747
-0.0446499
-0.914959
-0.342068
0.914965
0.029041
0.21474
0.91186
0.0701084
-0.238459
0.00850007
-1.05955
0.176959
-1.17782
0.563539
-0.942108
0.947077
1.05402
-1.07255
-1.02282
-0.241401
-1.03442
0.253273
-1.12635
0.695053
-0.126912
-1.07183
0.992986
-0.165173
0.207896
0.224118
-0.212803
0.655654
0.179169
-0.403349
-0.718817
-0.0530374
-0.931708
0.928272
-0.77236
1.02297
1.14719
1.13356
0.503509
1.04755
-1.09252
-0.951071
0.815157
0.145701
0.899789
-0.994951
-1.06465
-2.2044
0.717512
-1.01773
-1.84835
-1.06449
-1.11431
0.0118472
-1.07375
0.595085
0.582984
-0.803529
-0.836576
0.672905
0.00530843
1.0158
-1.22032
-0.36377
-1.01872
0.616911
-0.0234972
1.09285
1.28589
-2.0882
-1.12938
-0.905333
0.1016
-2.33658
0.958756
-0.831147
0.915066
0.631811
-1.0118
0.752652
0.716786
-1.23074
0.792819
-0.648788
-1.0578
-0.925791
-0.973489
-0.72149
-1.9691
-0.89082
0.914606
0.0445768
-1.17927
0.515147
1.05814
1.13385
-0.420406
0.676149
-0.0284294
0.699915
-0.195039
-1.13802
-1.07193
0.339746
0.680156
0.94652
-1.53099
-1.07523
-1.65344
-1.01961
-0.181485
0.653548
-2.00114
0.0050714
-1.57415
0.815922
-0.158107
0.862941
-0.313693
-0.337244
0.85944
0.574023
-2.04056
-0.35333
0.872302
1.2132
0.937936
-0.101118
-1.85581
0.719843
-0.278839
0.706483
-0.830438
0.285589
0.869367
-1.08423
-1.05767
0.903696
-1.35837
1.1306
0.00435836
0.799311
0.0437445
0.545056
-0.812789
1.15077
-1.05749
-1.92364
0.832456
0.36623
0.343977
-1.44729
-1.06364
-0.850091
0.662336
-0.080587
-0.897903
-0.312485
0.929224
0.230235
-1.67299
0.613312
0.764764
0.891107
-1.63751
-0.964643
-1.06921
0.925716
1.06096
0.41776
0.920967
0.0874993
0.974234
0.0584759
-0.922978
-0.296212
0.838246
0.882309
-2.15722
0.716058
-1.06443
0.679914
-1.23042
0.875844
0.873222
0.930085
-1.30287
0.799912
-1.99745
-0.93775
1.08047
-2.04868
-0.858029
1.01047
-1.34916
0.988264
-1.94555
-1.06968
0.920827
0.702724
1.27957
0.912093
-2.19883
1.00508
0.977192
-0.20007
0.489576
0.0596858
-0.873642
1.4038
-1.03254
1.0237
-1.12725
0.228926
0.913828
-1.6231
0.896492
-1.22429
0.795653
0.866478
0.926917
0.00758071
-1.02886
-0.669567
0.499344
0.568027
0.985647
-0.257271
0.693944
-1.82637
-0.564325
-1.9344
0.754703
1.06785
-1.32886
-1.109
-0.000368728
1.14192
-0.0141397
0.594934
0.0153725
-2.30714
-1.04878
-1.04175
-0.230105
0.684905
-0.807797
-0.0664713
-0.489443
-0.621486
-1.08664
-1.44457
-0.259724
0.878735
0.931993
-1.49459
-0.487034
0.890555
0.853467
0.93437
-2.01441
0.889841
0.974712
0.910883
0.981782
-0.289104
-0.0825332
-1.05956
0.472623
0.916696
0.632021
0.0854869
-0.014554
-1.32445
0.0285429
1.18144
-0.171414
0.0390503
-0.74057
-0.1042
-1.06071
0.653406
-0.960123
-1.6959
-1.01595
0.912223
0.914556
0.919135
0.00592212
0.16474
1.15929
-0.00544638
0.913102
-0.0450902
0.0042477
0.626154
0.93242
0.972655
0.0119124
0.884758
0.883581
-1.03918
-0.0626518
0.921775
0.93426
0.932151
-1.02142
-1.05528
0.932282
0.535218
0.914871
0.044502
-0.30604
0.0333492
-1.23557
-0.268678
-1.12511
-1.5443
0.0117712
0.939268
0.941729
0.636542
-1.0233
0.912055
-0.01169
-0.015132
0.0035239
0.914217
0.937845
0.931949
0.945839
0.92251
0.915709
0.90457
-0.133045
-0.0249369
0.00328424
0.000542475
0.0019188
0.00189663
0.000489724
0.00886776
-0.001851
-0.0200584
-0.143583
0.908373
0.926239
0.920054
0.945726
0.944325
0.933328
0.937015
0.91666
0.919398
-0.000224823
-0.0037882
0.933851
0.932806
0.00212308
0.933289
0.932964
0.0012584
0.0284112
-0.0285486
-1.0259
-0.325424
0.915275
-1.18442
0.91209
0.552182
0.999038
-1.02911
0.915358
0.853258
0.863921
-1.05569
0.0561207
-1.27839
-0.0378991
-0.218792
-1.05361
0.925337
0.0238014
1.00199
0.918441
-0.355664
1.06495
1.21922
-0.0224394
0.767792
0.591432
0.912351
0.932266
0.922811
-1.02662
0.333703
0.0107027
0.915643
0.928734
-1.23424
0.0222113
0.917318
0.00708096
-0.527171
0.917504
-0.799414
0.89621
0.929761
-1.04337
0.92338
0.035037
0.913508
0.982686
-1.38009
0.931332
0.940982
0.0140792
0.560139
0.917127
0.919303
-0.0296205
-0.958711
0.644312
1.27352
0.926096
0.919431
0.92125
0.0223895
0.919603
0.907886
0.922417
0.918748
0.918913
0.918612
1.01594
-0.185252
-2.31075
0.920318
0.914446
0.131237
-0.745419
-0.258775
-0.125775
0.78236
-1.55726
0.0737802
0.00530886
0.915792
0.65275
0.0112205
0.0308685
-0.00787113
-0.268398
-1.20283
0.025344
0.238646
-1.98966
-0.521951
0.923662
0.014742
0.914892
0.831248
-1.01687
1.14218
-0.107957
-1.5364
0.678255
1.0239
0.307241
-1.00988
0.914556
0.0323713
0.921662
-1.15792
0.922432
-1.54608
0.912621
0.0190951
-0.324826
0.924153
0.939521
0.849008
0.0442625
-1.0038
-1.00965
0.064346
0.937335
0.815496
0.0450223
0.913536
0.957044
0.907528
0.106224
-1.98167
-0.723336
-1.44585
0.253795
0.91688
0.00276446
0.919391
-2.1608
0.91387
0.95426
0.925213
0.000313079
0.00110597
0.949221
-1.16506
0.928923
0.931127
-0.0534758
-1.05853
0.827732
1.03922
0.91181
0.908804
0.0921594
0.204676
0.890253
0.34459
0.926309
0.770775
-1.09252
-1.04637
0.755263
1.16644
0.914974
0.275453
-0.0196111
0.0595982
-0.757587
0.278732
0.897203
-0.755295
0.901406
-1.78456
-1.02431
-1.11063
0.312776
-1.14085
0.0350121
0.305395
0.912075
-1.01426
0.798252
-1.03317
-0.234215
0.115524
0.00973641
0.271521
0.883244
0.0703686
-0.825449
0.183366
-1.32752
0.909474
0.411029
0.0082242
-1.97232
0.984649
-0.0258854
-1.03045
0.981552
0.902147
0.892815
0.409858
-0.955739
0.918928
0.942495
-0.610666
-1.08486
0.911861
0.72332
1.15384
0.928409
-0.414381
0.230274
-1.14153
-1.66095
-1.2712
-1.01789
0.0245305
-1.2255
0.727387
-0.0840545
0.92255
1.11755
0.911221
-1.00996
-1.24607
0.913203
0.0420568
0.152246
0.898477
-0.352913
-0.942163
-1.93729
0.046933
0.860083
0.833877
-0.364857
0.779358
0.557497
-0.107048
0.901734
-2.07415
0.715269
-1.00785
0.908032
-0.381285
0.352312
0.913576
0.988496
-1.77825
-1.96159
0.737558
1.28453
0.935785
0.913056
0.300162
1.16989
-0.887481
0.128422
-0.88351
0.403143
-1.47585
1.023
1.08318
-1.03637
-0.710912
0.909707
-0.981171
0.777208
0.942918
0.875131
-1.76193
0.916
0.0028617
0.944301
0.00224986
0.170476
-0.302871
0.91933
-0.0148237
-0.659011
0.10283
0.919754
0.321253
1.09133
0.197075
1.22534
0.880409
-1.17829
0.898281
-1.06796
0.885128
0.883994
0.0909203
0.194677
1.02503
0.901114
1.12378
0.868976
0.0211276
0.868979
0.904479
0.767125
0.921375
-1.00507
-1.2974
0.0169371
1.01799
-0.978956
0.231186
-1.06112
-0.998793
0.0913975
0.0030143
0.759325
0.120876
0.876803
0.927901
-1.09465
-1.31426
-1.12052
-1.39147
-1.35698
-1.0661
0.917869
-0.938243
0.931028
1.15832
0.970956
-0.358355
0.940838
0.850157
-1.16698
0.881479
0.897816
-1.09469
0.894977
0.837862
0.00175368
-1.04676
1.37505
-0.721366
-1.59713
-1.21917
0.17218
0.896322
-1.65741
-0.221382
-1.05127
1.04757
0.279191
0.74799
0.928169
0.901831
-1.15832
0.888895
-1.37462
0.926455
0.94206
-0.576073
0.932535
0.38359
0.909088
0.637242
-2.18418
0.00204663
0.00231833
0.0365401
1.14587
0.0007979
0.941388
1.30036
-0.31569
-0.00378812
0.984814
-0.00100504
0.980799
-0.00347909
0.0044352
0.977386
0.981619
0.358998
-1.88507
0.655268
-0.952708
-1.24026
-0.868402
0.938586
0.917296
1.34674
-1.01291
0.152644
0.671858
-1.30979
0.98642
0.894245
0.911025
0.904298
0.873534
-2.17815
-1.02038
-1.70722
0.712781
0.836091
-1.35756
-1.07145
-1.03599
0.934336
0.95268
-0.736735
-2.01083
0.952219
-0.127901
0.0865567
0.667877
0.820719
-0.189523
-1.34258
-0.377982
-1.05055
-0.952106
-2.13069
-0.324615
1.2998
1.26589
-0.959693
-0.960193
0.933172
0.910401
-1.30218
-0.126149
-0.41678
0.544037
1.00923
-1.60869
0.921493
-0.215718
-1.30078
-1.24394
-1.54056
-1.15615
0.903593
-1.01308
-1.71522
1.26796
-1.03969
0.923092
1.13426
-1.0737
0.97344
1.1794
-1.08261
1.14573
-1.05829
-1.33658
0.927833
0.0828868
0.943345
0.927962
-1.06389
0.978365
0.0826345
-1.93012
0.956664
0.961366
-0.951634
-1.8526
0.8574
0.917029
-1.05154
-1.84679
1.1855
-1.06273
0.823022
0.00824967
0.863066
-0.988472
-1.78675
-1.03723
-1.05713
0.995657
0.952842
1.21712
1.10953
0.87979
0.975835
0.966756
-1.03328
1.03653
1.07221
-1.099
-1.06182
-1.17717
1.22637
-0.516019
-1.26847
0.053465
0.839086
-1.10552
-0.88475
0.923493
0.950789
-1.04196
-1.08401
-1.20614
0.0130483
-1.92077
-1.09473
-1.02858
0.791589
0.825953
-1.07074
-0.605492
-0.919299
0.741969
-1.06187
-1.01967
-1.02656
0.876908
-2.26294
-1.08971
1.2573
0.819797
0.329421
1.12465
0.117023
0.911836
0.929135
1.04114
1.13774
-0.078019
0.580296
0.912762
0.204704
-1.02292
1.33796
0.884003
0.83878
0.982918
-1.09642
-2.40968
0.784224
0.706218
0.887429
-2.36756
-1.83578
0.906381
-1.02097
0.757066
0.0203677
1.31833
-1.02003
0.635778
0.673925
-1.06314
-1.01665
-1.91312
0.988244
-1.06516
-1.01866
0.636266
0.515989
-1.62382
0.98294
0.7689
-1.06703
-0.755435
0.865987
-2.42149
-1.01317
-1.17068
-1.06457
-0.946516
0.892062
0.931423
-1.44551
0.556627
0.924372
1.25446
0.215714
0.180612
-0.0954205
0.815207
-0.505028
-1.06171
-0.465001
-0.748151
-1.06032
0.909506
-1.06155
0.0675279
-1.01014
0.446424
0.507992
-1.05612
0.573498
-1.88263
0.43622
-1.05174
0.369735
-1.06324
0.331591
-1.00473
0.283684
-1.04597
0.75367
-2.32728
-1.04677
-1.0542
-1.01111
0.931994
0.0329063
-1.08961
-1.01313
-0.0696656
-0.000699441
-1.05632
-1.01679
-1.13877
-0.172808
-1.03042
-0.238135
-1.06291
-0.451796
-1.22114
-0.342048
0.800795
-0.0110309
-2.37927
0.896032
-0.210192
-0.0458368
0.385169
0.889145
-2.35189
-1.78995
-1.00667
-1.91083
0.823932
1.32544
-0.483372
-0.0154747
-0.0367831
-1.02427
-0.520167
-0.41904
0.885356
-0.977079
0.877349
-1.52473
1.38905
0.396482
1.34759
-1.07919
1.11968
-0.701145
0.940605
-1.01126
-1.00218
1.00621
0.916206
-2.34568
-1.01338
-1.06089
0.880246
-1.22134
0.90554
-1.35905
-1.10023
-1.03784
1.22008
0.950034
1.04142
0.92813
0.936129
0.0348344
-0.619353
1.10935
-2.45501
-0.956054
1.31989
-1.09156
0.829354
0.881468
1.28907
1.34982
-1.13012
-1.91405
0.956109
0.16559
-0.510892
-0.996247
-0.351794
-1.63543
-1.07902
0.483247
-1.73524
1.13079
-0.975503
0.949687
1.04403
0.947574
-1.84142
-0.976341
-1.26176
1.00549
-1.06047
1.0772
-0.876384
-1.27966
1.1422
1.23337
-1.01184
-0.0274125
0.866678
-1.59758
-1.39474
0.591975
1.17687
1.147
-1.43915
0.791496
0.746387
-1.01005
1.15978
0.173531
-1.07372
-0.277866
0.00336857
-0.00488991
1.02212
-0.914623
0.15011
0.0159204
0.0417984
-0.791245
-0.995271
0.906234
-2.43204
0.932723
-0.222859
0.0270422
0.623388
0.188363
-0.999301
-0.778929
-1.22628
-0.105213
0.0140317
-1.54662
0.836553
-2.47835
-2.09384
0.919878
-1.41544
-1.10809
0.934213
-1.00461
0.873764
0.00735745
-1.02315
-0.393791
0.719643
-0.826978
-2.01653
0.818555
-1.06901
0.992148
-0.631869
-1.19537
-0.991316
-1.00824
1.41097
-1.72508
1.05052
0.0175024
0.875976
1.10059
0.650686
0.948704
1.06264
-0.289609
-1.3076
0.888816
1.02055
1.28354
-1.02845
0.96188
0.567679
-1.05335
0.717603
1.13811
-0.74365
1.24615
0.0234751
-0.923243
0.764415
-1.06245
-1.05156
0.866689
-0.62926
0.977118
0.985634
0.871963
-0.993242
0.81053
1.16507
-1.44051
-0.466198
-1.67453
-1.40442
-1.16485
-1.01536
1.28007
0.681395
-1.07357
0.841357
-1.06572
-1.00007
1.19936
1.12844
-2.47542
-1.87098
-1.00593
-1.05035
0.897282
-1.09097
0.0116071
-1.0196
-0.588396
0.983426
-1.05988
1.29234
0.962165
0.810545
0.93728
1.20556
-1.36062
-1.06723
0.940429
1.07042
-0.773778
0.927836
-1.61282
-1.03702
-1.0421
0.986044
1.01586
-1.04147
-1.13084
0.479765
-0.14002
-1.70362
0.897319
0.861781
-1.81199
0.902514
0.945818
-1.56792
-1.10204
-1.04053
-1.03346
-1.04315
1.23842
0.0194408
0.814435
-1.10757
1.23712
0.794892
0.764836
0.851366
-2.04594
-0.566117
-1.02976
0.415462
-1.08944
0.849558
0.231805
-0.771996
0.768632
0.933749
0.957832
0.923077
0.00163693
0.956249
0.0023698
0.346033
0.708046
-0.73716
-1.10073
-1.16048
-0.866549
0.932719
0.897301
0.930187
-2.19211
-0.858495
-1.02567
-0.977271
0.925264
1.19044
0.938716
-1.09555
-0.906147
-1.51419
-0.714809
-1.0099
-1.00695
-0.360177
0.911002
-0.836378
-1.07022
0.0112279
-0.156499
0.612588
-0.736892
-1.02212
-1.22219
0.844408
1.34556
0.0118914
1.02046
1.39598
0.549812
1.11503
-1.11961
0.00790006
1.32367
-1.01846
0.243051
-1.08352
-1.04916
-1.05257
-1.06485
0.903916
0.664115
1.09361
1.05524
0.000741648
0.710086
-0.0952318
0.00874709
-1.01483
1.02781
0.61437
0.93819
0.951473
0.00844427
0.000782734
0.951793
-0.92811
-1.01449
-1.06759
-1.06066
0.516759
-1.06321
0.878558
0.601349
-1.01888
1.15927
-1.09213
-0.491247
0.9042
-0.861852
-1.04863
-2.36929
0.483451
-1.07399
-1.58845
0.809985
0.943512
-0.0234705
-0.0301176
-2.58075
-1.01098
0.116783
-2.0536
-0.264074
0.53488
-1.33643
-1.06137
1.16569
0.129476
0.235304
-1.05911
-1.0552
0.919658
0.973223
0.410099
0.470494
-1.05428
-1.00683
-0.801859
0.330231
0.379954
-1.04877
0.753827
0.00709137
-1.04189
1.34751
-1.04531
-1.97068
-1.04454
-1.0033
0.773352
-1.06629
-1.073
-1.01943
-0.0541134
-1.11134
-0.14383
-0.953924
-0.00292074
1.08204
-1.1732
-0.235337
-1.04732
-0.331048
1.24254
1.31978
1.13125
0.926402
1.10748
-0.889861
0.910332
-1.0921
0.969769
-1.00809
-0.954367
1.18981
-1.16422
0.408876
-2.23611
1.31986
-0.202259
1.25759
0.481535
0.673512
-1.07776
-1.07976
-1.00255
-1.45185
1.22709
1.09988
0.907403
0.557203
0.914806
0.797466
0.702872
-1.05634
-1.04645
0.0937301
0.015688
0.676598
0.927085
-0.0926064
-1.07834
-1.04748
-1.78681
-1.00343
-1.07288
1.2698
0.945398
0.92281
0.0095453
0.00361811
0.946738
-0.430756
-1.01328
-2.24099
-1.04629
0.664929
-1.06495
-1.05748
-0.375201
0.917663
-2.32212
-1.04249
0.914234
0.542804
0.638562
0.911688
-1.00764
0.756985
1.10938
0.768596
-1.0033
0.911928
0.291948
0.329497
-1.1296
-1.0614
1.35272
0.17821
-1.46245
-0.0493733
0.796097
0.87134
-0.99305
-1.81214
0.00475786
-1.12339
-0.95254
-1.08213
0.0103914
0.907088
-1.41
0.900052
1.19829
1.01826
0.894876
0.984397
1.04708
0.916467
-1.76492
-0.718932
-0.588188
-1.08921
-0.926258
-1.05477
1.05321
0.947235
-1.05763
0.887232
-0.850462
0.157692
-1.04918
-0.166443
0.462302
-1.43092
0.902017
0.792327
-1.82802
-0.461089
1.24947
-2.13237
0.0775209
-1.15838
-1.09011
-1.02967
0.96158
0.654278
1.0184
-1.44699
-0.395904
-0.989695
-0.533965
-1.0598
-1.27614
-1.68039
-2.57593
0.798946
-0.78124
1.37667
-1.31211
-0.637379
-1.04739
-1.05593
0.855342
-1.07273
-1.37212
-0.936199
-0.415992
1.08968
1.1432
-2.34678
-0.595672
0.706096
-1.02955
-0.899802
1.0261
-1.68834
-1.5819
-1.45253
0.63012
-0.499518
-1.05899
0.907962
-0.14417
-1.22672
0.918309
-0.902074
-1.80147
-1.48435
-1.14032
-0.169124
-1.06033
1.21465
-1.01994
0.0857344
-1.00992
0.672987
-0.924457
-1.02562
0.523402
0.689521
0.970878
0.881985
1.08206
-1.07511
0.774098
0.47633
-1.5322
0.833408
-0.550379
-0.991812
-2.48354
1.10235
1.08819
-1.05813
-0.983741
-1.42491
0.903195
-0.975506
-0.0765588
-1.43359
-1.06148
1.18001
0.906671
-1.07859
-1.00447
-1.08849
-1.07012
0.815109
-1.13374
0.870674
0.0889232
0.585145
0.718165
-1.03452
-1.04426
0.83006
-1.06004
0.0105525
1.19423
-1.02586
-1.06544
0.70071
-1.54998
-1.04538
-0.269884
-1.03851
1.27024
-0.68584
0.0706037
-1.08179
1.23038
-1.08442
-0.99271
0.518516
-1.31879
-1.00757
1.25535
0.549516
0.934683
-1.06494
1.12653
-0.134149
-0.881539
-1.08377
-1.0967
-1.08989
1.15937
0.448377
-1.03769
-1.08681
-1.05177
1.02807
-0.873718
1.20627
-1.00863
0.608413
-1.06481
0.236624
0.410133
0.374512
0.290493
0.116338
-0.929843
0.903266
-1.08855
-0.882587
-1.21387
0.202799
1.24666
-0.384967
-1.05432
-1.12438
-1.0669
0.126263
-1.30305
-1.0638
0.773474
0.113774
-1.07041
1.31146
-1.0562
-1.91223
1.27672
-1.06737
0.00765187
-0.887552
-1.0518
-1.06261
1.286
-1.05015
1.19676
-1.06138
-1.03188
1.07512
-0.327926
-0.975583
0.437971
-1.02824
-0.131387
-0.486459
-1.06271
0.732993
-1.13897
-1.06133
-1.0542
-1.05316
-1.01812
0.772461
-0.310942
-0.545493
-1.07446
1.22339
-0.931918
-1.0296
-1.03188
-0.235862
-1.19617
-1.03424
-1.07286
-0.202502
1.14172
-1.10085
-1.00854
-1.6032
-0.797933
-0.394655
-1.02444
1.30914
1.24014
0.281444
-1.12833
-1.01494
0.193371
-1.01747
1.31812
0.0682377
0.999429
0.576455
1.21061
-0.0543042
-1.2041
-1.17362
-0.213026
-1.0937
-0.213016
-0.181312
-1.05909
1.2172
-0.389258
0.0801445
-0.505442
-1.01708
-1.19663
)
;

boundaryField
{
    frontback
    {
        type            empty;
    }
    Top
    {
        type            zeroGradient;
    }
    outlet
    {
        type            fixedValue;
        value           uniform 0;
    }
    bottom
    {
        type            zeroGradient;
    }
    Inlet
    {
        type            zeroGradient;
    }
    rectangle
    {
        type            zeroGradient;
    }
}


// ************************************************************************* //
