/*--------------------------------*- C++ -*----------------------------------*\
| =========                 |                                                 |
| \\      /  F ield         | OpenFOAM: The Open Source CFD Toolbox           |
|  \\    /   O peration     | Version:  2306                                  |
|   \\  /    A nd           | Website:  www.openfoam.com                      |
|    \\/     M anipulation  |                                                 |
\*---------------------------------------------------------------------------*/
FoamFile
{
    version     2.0;
    format      ascii;
    arch        "LSB;label=32;scalar=64";
    class       surfaceScalarField;
    location    "17.3";
    object      phi;
}
// * * * * * * * * * * * * * * * * * * * * * * * * * * * * * * * * * * * * * //

dimensions      [0 3 -1 0 0 0 0];

oriented        oriented;

internalField   nonuniform List<scalar> 
3181
(
-1.06026
0.420534
0.639731
-0.392621
0.369758
0.0228625
0.528398
-0.36267
-0.165728
0.124515
-0.205288
0.0807734
-0.0673444
0.0793281
-0.0119837
0.828439
0.639752
-1.46819
0.151003
-0.144534
-0.00646893
0.0706761
0.00182245
-0.0724985
0.588418
-0.765847
0.177429
-0.0753092
0.139983
-0.0646735
-0.0102422
-0.0502977
0.0605399
0.125543
0.0486167
-0.17416
-0.003747
-0.0603374
0.0640844
-1.09569
0.151107
0.944583
-0.330661
0.704292
-0.373631
-1.12115
0.637415
0.483733
0.0847895
-0.93363
0.848841
-0.34759
0.285189
0.0624012
-0.790383
-0.482858
0.00461265
0.0450062
-0.0496188
0.0335197
-0.0839571
0.0504375
-0.0714413
0.0615243
0.00991693
1.06261
-1.03719
-0.0254173
0.0216196
0.035346
-0.0569656
-0.957398
0.325269
0.63213
-0.109261
0.233775
0.309341
-0.241718
-0.0676226
0.0303908
0.0634806
-0.0938714
-0.40536
0.334464
0.0708953
-0.0330782
-0.0142365
0.0143102
-7.3725e-05
-0.0373972
-0.920001
0.0622826
-0.0544622
-0.00782039
0.145212
1.48446
-1.62967
-0.0487583
0.0511301
-0.00237178
0.175796
0.273399
-0.449196
1.62226
-1.47705
0.0705627
-0.037043
1.53057
-0.794321
-0.736253
-0.240444
1.06888
-0.118129
0.114382
-0.0715312
8.99461e-05
-0.412749
0.082088
-0.138062
0.0665312
-0.629052
0.127629
0.501423
-0.15158
0.0762708
-0.170591
0.174941
-0.00434965
-0.275187
-0.0766823
0.351869
0.13091
1.38699
-1.5179
0.0731962
0.161075
-0.234271
-0.0096238
-0.0984115
0.104404
-0.00599222
0.519678
0.184614
-0.0960305
0.137869
-0.0418386
0.0930562
-0.0307735
-0.174308
0.201336
-0.0270282
0.165191
0.0567636
-0.221954
0.111347
-0.117355
0.00600864
1.26005
0.270528
-0.866735
-0.19353
0.0719753
-1.71776
1.64578
0.546294
0.230349
-0.776643
-0.43922
-0.20343
0.64265
-0.76772
0.527276
-0.270679
0.816973
-0.328535
-0.102268
0.430803
-0.203895
-0.201465
-0.192712
0.165288
0.0274246
0.127104
0.286415
-0.413519
-0.173557
0.761975
-0.0140553
0.0847314
-2.03486
2.10683
0.191892
0.117448
-0.182068
-0.111679
0.293748
-0.269396
0.35124
-0.0818442
-0.0832441
0.0913751
-0.00813094
-1.90395
-0.918571
0.00935439
0.909217
-0.0557321
0.00697376
-1.04937
0.792006
0.257367
0.525166
-0.289114
-0.236052
-0.827524
0.0598038
1.10692
-0.955815
-0.709899
1.14436
-0.199774
1.06952
0.164189
-0.174903
0.0107133
1.42493
-0.78518
0.658276
-0.658276
-0.00810705
-0.000319185
0.00842624
-0.216534
-0.0528989
0.269433
0.0941076
-0.0663933
-0.0277143
-0.452229
0.838508
-0.386279
-0.014688
-0.241455
0.256143
-1.08136
0.0441677
0.34317
0.0539285
-0.397099
0.135777
-0.849297
1.07965
0.0803079
0.072277
-0.152585
-0.0172408
-0.157067
-0.380984
0.0605372
0.320447
-0.203091
-0.177893
0.119484
-0.96878
0.331717
-0.783946
0.921936
-0.837147
-0.00824848
0.182214
-0.173966
0.0813347
0.0513617
-0.132696
-1.39851
-0.0973222
1.49583
-0.249273
0.413922
-0.164649
-1.26992
0.596459
0.67346
-0.467197
-0.582176
0.155082
-0.0818861
-0.154926
0.149293
0.00563268
-0.0771431
-0.0123682
0.0895113
-0.543021
-0.222825
-0.115674
0.0462821
0.0693922
-1.1117
-0.215643
1.32734
1.8019
-0.414917
-0.0125708
0.0044637
0.0420983
0.149794
-0.198397
0.374193
0.032861
0.229625
-0.262486
0.136757
0.0672407
-0.203998
0.316586
0.0274698
-0.344056
-0.595208
-0.52594
-1.14718
0.0354839
-0.0488052
0.129113
-0.108341
0.186968
-0.0786272
-0.0310041
0.0254054
0.125598
-0.0576981
0.0725211
-0.014823
-0.097739
-0.0224696
0.120209
0.0755129
-0.0755129
-0.187278
0.212684
0.322075
0.193936
0.107116
0.0942201
-1.26975
1.09619
-1.57198
0.119968
1.45201
0.0303953
-0.0257233
-0.00467197
-0.0261422
-0.050518
0.0766602
0.543638
-0.0232729
-0.520365
-0.0378968
0.0391651
-0.00126828
-0.203227
0.0159484
0.158772
0.679736
-0.372594
0.531365
-0.16273
-1.23578
-0.094604
0.0272596
0.490834
-0.309149
-0.181685
0.11644
-0.0989261
-0.0175139
0.0479898
-0.323176
0.0236532
-0.942225
0.0498865
-0.158228
-0.291329
-0.405217
0.0681589
1.37966
-0.927812
-0.451845
1.08445
0.295205
0.0667598
0.285109
0.0306607
-0.000265398
-0.118241
0.157245
-0.0390047
-0.254813
-0.584708
0.839521
-0.360953
0.634549
0.833318
-1.31618
0.147163
0.030793
-0.0532754
0.0224824
-1.63512
0.450304
1.18481
-0.296629
-1.33849
-0.301092
0.644262
-0.909977
-0.0183197
0.00555229
-0.264438
0.258886
1.46113
-1.57411
0.112978
-0.103829
0.00922451
0.570214
-0.825026
0.173678
-0.413703
0.240025
-0.292343
-0.116052
0.408395
0.177956
-1.00595
-0.075416
-0.00694611
-0.0426727
-0.549441
0.346012
-0.243409
0.0180334
0.225375
-0.033164
-0.0706645
0.0413819
-0.0413819
-0.117733
0.12905
-0.0113172
-0.304772
-1.26721
0.0913183
0.0264851
-0.117803
-0.150675
0.02082
0.129855
-0.218792
0.02608
1.56107
-0.472437
-1.08864
-0.194487
0.451462
-0.256975
0.00878463
-0.00831577
-0.00046886
-0.754429
-0.51549
-0.18248
-0.00485334
0.187333
-0.177155
0.304259
-0.1001
0.0984393
0.00166104
0.0745952
0.00949995
-0.0840952
-0.123947
0.158324
-0.034377
-0.674074
1.12726
-0.45319
-0.221249
-0.051591
0.27284
-0.697679
0.662061
0.0356177
-0.00358788
0.0389339
0.0282603
-0.0283168
5.64313e-05
-0.00265713
-0.0543085
0.934495
0.867409
0.174559
-0.886053
0.711495
0.010187
2.05762
-2.06781
0.388566
0.454878
0.203399
0.060726
0.201642
-0.0648849
-0.0702461
-0.0281654
0.240849
0.155038
-0.0737029
0.735392
-0.410123
0.0609529
0.20848
0.0467331
-0.16186
0.115127
-0.788659
-0.138147
0.926805
-0.0446786
0.0446786
-0.0627107
-0.262086
0.535486
0.0132218
-0.234471
0.153274
0.131915
0.0345592
-0.0833644
0.133967
-0.144209
-0.345081
0.330393
0.0378115
0.0612128
-0.0990243
0.386247
-0.33763
0.785084
-0.437111
-0.347974
-0.209173
0.275933
0.186843
-0.495991
-0.199826
0.62036
0.168069
-0.0343221
0.0343221
-0.258692
0.478059
-0.219367
0.388439
0.0254829
-0.0295666
0.0349611
-0.00539447
-0.161994
-0.0723304
-0.0433439
-0.0487811
0.182748
-0.178364
0.238513
-0.0601489
0.12722
0.0278177
-0.39392
0.152202
0.188438
-0.0612176
-0.0452248
-0.0548755
-0.0709237
0.0657245
0.0051992
0.149874
-0.106217
-0.043657
-0.0119636
0.392037
-0.380073
-0.119568
0.105513
0.102863
-0.107117
0.00425326
0.023278
0.476015
0.309069
-0.0876251
-0.0131145
0.10074
-0.0809907
-0.00868901
0.0896797
-0.0899148
0.0986039
-0.720273
0.621669
-0.0268104
-1.51847
-0.458896
1.97736
0.645657
1.0936
-1.73926
0.0843185
-0.296619
0.324089
0.274529
0.247767
-0.522295
-0.205889
0.252622
0.139197
-0.891021
0.751823
0.0217369
-0.102728
-0.0150018
0.00805565
-0.991702
0.447393
0.544308
0.927812
-0.808328
-1.70433
1.60701
-1.46113
1.5811
0.0404581
-0.0822966
0.00910822
0.0191521
0.0138077
0.800227
-0.661029
0.124809
-0.0749223
0.411469
0.732888
-0.125325
-1.78162
1.79181
-0.67375
-0.595999
-0.239397
-0.389655
-0.00518648
-0.168109
0.216099
-0.580232
-0.377714
0.183227
0.779519
-0.235881
-0.903322
-0.801011
0.744772
0.149676
-0.12794
0.286813
0.0390188
-0.0390188
0.671722
0.147431
-0.819153
-0.224544
0.896266
0.410775
-1.17422
0.763441
0.234615
-0.0406789
0.00720655
0.00581366
-0.0130202
-1.71776
-1.12937
0.714452
1.06718
0.493897
-0.0348555
-0.135736
-0.241424
0.761102
-0.195487
-0.047922
-0.0031611
-0.080083
-0.0522252
0.103587
0.374416
-0.246786
-0.83648
-0.28136
-0.112084
-0.0521379
0.164222
-0.587523
1.0424
-0.143232
0.145958
-0.00272547
0.0320235
-0.00136288
-0.127076
0.0736869
0.0533886
0.00846022
0.422343
0.0857276
0.0307124
0.0143976
0.00562661
-0.0200242
-0.015575
-0.166905
-0.720147
0.369032
0.351116
0.619409
-1.62078
1.00138
0.136406
-0.157123
0.0207174
-0.00932048
0.164403
0.185709
-0.843986
-0.117707
-0.0093689
-0.118899
0.0370129
0.141241
-0.339637
-1.63372
0.664368
0.969348
0.0313968
0.0943118
0.0555618
-0.788659
-0.106784
-0.56729
0.130368
-0.0566808
0.0430259
-0.638965
-0.0587145
0.0603846
0.128053
0.372835
0.0481374
-0.461657
0.124611
0.342858
-0.28893
-0.120102
0.0223633
0.222341
0.839534
-1.06188
0.104499
-0.71483
0.610332
-0.956078
0.817931
-1.38793
0.247311
1.14061
-0.0117501
0.0125765
-0.00082636
0.166006
-0.458349
0.203473
-0.119057
-0.0844155
0.0458941
-0.0545831
0.0141848
-0.126269
-0.00329676
0.0238058
-0.0264629
0.0209834
0.0753893
-0.0963727
1.05643
-0.000753796
0.00104036
-0.000286566
0.0997553
0.00575762
0.859756
0.0501193
-0.0408948
-0.387387
-0.741983
0.208897
0.0257178
0.00810795
0.0862039
-1.14061
0.843986
0.177787
-0.191661
0.013874
-0.248495
0.0735918
0.11934
-0.108626
-0.00153561
0.0929107
-0.0360744
-1.4952
-0.138514
-0.0409624
0.0619459
0.739282
-0.255549
-0.248755
0.0980797
0.341557
0.00932626
-0.0388929
-0.00775984
0.0832727
0.147216
0.204024
0.15549
-0.326826
0.171336
0.114912
0.564824
-0.0421971
-0.109383
0.937205
-0.258724
-0.678481
-1.38793
-0.449261
1.06867
1.62226
-0.102984
0.344158
-0.241174
0.352676
-0.0727253
-0.27995
-0.145615
-0.681909
-0.0712092
0.0719185
-0.000709318
-0.0316637
-0.1863
0.217964
0.490461
-0.95423
0.463769
0.0408189
0.656651
-0.69747
-0.044575
-0.110351
-0.00988716
-0.0777379
0.278703
-0.537395
-0.0126402
0.000890085
0.140875
0.0224379
-0.163313
0.0260165
-0.144257
0.00240113
0.0296224
0.048761
0.133453
-0.0246723
-0.00364445
0.194404
-0.435859
-0.47102
1.56462
0.0297249
0.0149537
-0.988545
-0.0174007
0.17143
-0.0739442
-0.0461581
-0.0752355
0.248914
0.847168
-1.07325
0.226086
0.171907
0.0369897
-0.941034
-0.0147811
-0.0154639
-0.649148
0.747752
-0.0183942
0.186463
-0.0362622
-1.13795
0.182886
-0.445444
0.262558
-0.012034
0.241659
0.0027597
-0.00294064
0.00018094
-0.0196887
-0.104259
-0.021602
-0.135465
0.747831
-0.643332
-0.112615
0.0750507
-0.117216
0.307667
-0.152177
0.138782
1.21203
-0.313956
-0.898075
-0.119074
0.137108
-0.503337
-0.21681
-0.559304
0.621495
-0.600401
-0.0210938
-0.0819146
-0.0307001
-1.78162
0.543812
-0.543812
-1.84123
1.84123
0.800227
-0.0298808
-0.170934
0.200815
-0.895832
-0.0927131
0.622616
-0.365206
-0.25741
0.166004
-0.244631
-0.0106115
-0.00195928
-0.886799
-0.0819808
-0.933211
0.212937
0.0317672
-0.0839051
0.696638
-0.10838
-0.588258
1.17354
0.448726
-0.00112145
0.00388115
-0.966451
0.476795
-0.913906
-0.0694132
-0.602369
0.671782
-0.0756272
-0.871748
-0.702364
0.217162
-0.81237
-0.926805
1.3777
-0.450893
-0.138471
0.281581
-0.14311
-0.0250308
0.721668
-0.106337
-1.02418
1.02418
-0.811965
0.419174
0.392791
0.000530027
-0.00128382
0.103557
-0.43537
0.814656
-0.0226501
-0.0838249
-0.0358577
0.104954
0.00540077
0.00338385
1.80951
-1.5622
-0.323644
0.39824
-0.627801
1.0042
-0.376399
-0.04743
-0.0702766
0.122337
-0.055096
0.353518
0.00550306
-0.0658404
0.353673
0.0383638
0.0418319
-0.244496
0.202664
0.140569
0.0343718
0.0961945
0.178238
1.6541
0.452735
0.173103
0.652971
-0.826073
-1.04737
1.49767
0.196144
-0.129613
0.0759342
-0.766968
0.691034
0.143222
0.133358
-0.478438
-0.0748313
0.135864
-0.0610329
0.134375
-0.209206
-0.443281
-0.106161
-0.0707211
0.0737702
-0.00304903
-0.00103013
-0.0236422
-0.0246389
-0.00613462
0.661029
-0.610332
-0.0506978
-0.293569
0.306791
0.880353
0.59681
-0.244134
-0.0337829
0.060268
-0.302216
-0.111487
0.177344
-0.586433
0.40909
-0.0028011
-0.000139542
0.0478903
0.0762886
-0.124179
0.00431826
-0.0103114
0.00599315
-0.023078
0.0153167
0.00776138
-1.31795
0.53277
-0.140598
-1.37787
-0.195514
-0.808328
1.5811
1.60701
-0.195119
-0.174271
0.12268
-0.0624529
0.0680647
-0.00561176
-0.171609
0.963662
-0.792053
0.549556
0.0730604
0.00106964
-0.00387075
0.119472
-0.482817
0.0358577
-0.0456336
0.00467115
-0.63876
0.336543
-0.0477004
0.0822596
-0.232577
0.618824
1.08445
-0.0179167
-0.0626143
0.00151151
0.0611028
1.98182
-0.374813
-0.061986
-0.0553693
-0.969112
0.160784
0.390435
-0.212479
-0.4743
-0.129635
0.603934
0.814345
-0.362193
-0.452152
0.0448933
0.802275
-1.79181
0.0740528
-0.00742694
-0.0239217
0.0313486
0.227724
1.8299
-0.171126
0.178332
0.134003
2.24325
-0.662152
-0.678891
0.0544898
0.624401
0.382176
0.0102141
-0.345783
0.538095
0.817074
0.517251
0.077274
-0.0217121
-0.706295
0.203852
0.502443
1.2949
0.0516359
-0.0372383
-0.0510868
-0.356289
0.102095
-0.307984
0.809534
0.402498
-0.103668
0.0217532
0.300804
-0.403788
-0.0219805
0.0183926
0.111647
-0.148638
0.0369916
-0.301487
0.316409
-0.0149218
0.448242
-0.762199
-1.42846
0.112687
1.31577
0.102513
-0.198926
0.0964135
0.267681
0.0399858
-0.479052
0.372268
-0.657085
0.657085
1.64578
1.17354
-0.71483
0.333967
0.483108
-0.556725
0.337359
0.907999
-0.358443
0.00752916
-0.875158
0.867629
0.134977
0.00500565
0.0261038
-0.676823
0.197771
0.12161
-0.166999
-0.122906
0.289905
0.257855
-0.514751
0.347753
-1.09909
-0.283378
-0.649556
-0.0644148
0.000888362
0.000152001
-0.224731
0.0969514
0.0672709
0.0343664
-0.143684
0.109318
-0.407811
-0.404154
-0.0058104
0.069291
-0.901105
0.535505
0.3656
-0.569077
0.387392
-0.101571
0.162784
0.236503
-0.00274943
-0.0122523
-0.915307
0.44287
0.0339302
0.0689332
-0.15128
0.0340638
0.19546
0.00801284
-0.4253
1.37052
0.461633
-0.023852
0.866742
-0.790807
0.782131
-0.440573
-0.609717
0.174347
0.151629
-0.791565
0.765829
0.0257359
1.13859
-0.329061
-0.194049
-0.129595
-0.0909174
0.0245241
0.95579
-0.842013
-0.113777
-0.180375
0.106672
0.0279302
0.121363
0.880374
0.509875
-0.76834
0.258464
-0.326388
-0.0513259
-0.124015
-0.77709
0.123707
1.37213
1.15556
0.0179825
0.170522
0.552828
-0.72335
0.0483642
0.0493077
-0.0043612
0.00161177
-0.50941
-0.100307
0.128889
-0.162053
-0.185097
0.136316
-0.534487
0.277513
-0.991512
-0.342543
-0.287013
-0.593232
1.54182
-0.0898058
-0.283657
-0.336832
-0.301927
0.137589
0.296182
0.0574907
1.32981
-0.839345
-0.187639
0.126421
-0.478252
-0.263821
0.742073
-0.00965403
0.00222709
0.0481416
-0.0594467
-0.24204
-0.122372
0.697166
-0.41812
-0.279046
0.137789
0.136768
-0.0983582
-0.0384098
0.241207
0.0549752
-0.349756
-1.3895
-0.0948059
0.137832
0.895201
-0.385326
0.000690776
0.088989
-0.0208264
0.0207444
8.19426e-05
0.0101279
-0.0358512
-0.239522
0.0776613
-0.0619131
-0.560493
0.422022
0.0182751
0.0872904
0.0152224
-0.693088
1.6551
-1.2526
0.0154843
-0.190967
0.175483
-0.137829
-0.540148
0.677978
0.078663
-0.717628
-1.17743
-0.25103
-0.0658658
-0.00127328
0.0671391
-0.247558
-0.621495
-0.167164
-0.143502
-0.706295
-0.228718
0.163833
-0.294652
-1.15423
-0.521891
0.382021
0.139871
0.265533
0.116678
0.503398
0.158469
-0.661866
0.0980633
0.0516131
0.819704
0.356459
-1.17616
-0.222415
0.461358
1.03631
-0.239165
0.179016
-0.692947
1.15431
0.103859
-0.0433218
-0.0267459
0.0405536
-0.011201
1.12241
-1.14626
0.726015
0.0883296
-1.37637
-0.118835
0.231818
0.676181
0.919273
0.0179321
-0.0187598
-1.15556
-0.649556
-0.713259
0.722613
-0.0639895
-0.903322
0.656651
0.610002
-0.934726
0.763317
-0.00592795
-0.785637
-0.312086
0.634903
-0.771765
0.136863
0.0820765
0.0546915
-0.541071
-0.235554
1.20637
-0.970815
0.00047902
0.000409342
-0.260585
0.212663
0.713565
0.225143
-0.209194
-0.182031
0.656903
-0.872546
0.189786
0.0110281
0.436496
0.807054
-1.24355
-0.885798
1.08965
0.918467
-0.382962
0.0827932
0.26689
-0.502443
-0.00841415
0.212881
-0.0531302
0.0933646
0.0780656
0.00209111
-0.0279744
0.0258832
-1.02505
-0.0368222
0.317272
-0.807891
-0.666427
1.61435
-0.947919
0.36893
0.63527
-0.0507556
0.0543348
-0.00357918
-0.0547654
0.711669
-0.717275
0.723552
0.58635
-1.25278
0.310056
-0.0971746
-0.584388
-0.407124
-0.875595
1.31209
-0.0591979
-0.881086
-1.90141
-0.166393
0.26689
0.0500608
-0.857952
0.833191
-0.647155
-0.186036
-0.981581
0.397193
0.0078019
0.114362
-0.000388525
-0.113973
-0.971463
0.564339
-0.218375
0.909598
-0.924379
0.189777
-0.205352
-0.0946335
0.235874
1.17265
0.346542
-0.148248
-1.43881
0.540737
1.31869
-0.801439
-0.552793
-0.518315
1.07111
0.447207
0.0179423
-0.0121286
-0.734292
0.69747
0.0631299
-0.117895
-0.203399
0.0566361
0.146763
0.95234
0.662006
0.780006
-0.813084
-0.492663
-0.449562
-0.47136
-0.500104
0.802881
-0.802881
0.684232
-0.684232
-0.734292
-0.11644
0.11644
-0.0566361
-0.51116
-0.477864
-0.511471
-0.107881
0.107881
0.0631299
-0.117895
0.780006
0.768917
-0.768917
0.813084
0.760214
-0.760214
0.507337
0.52864
0.481685
-0.0447508
-0.499896
-0.550438
1.07908
-0.523634
-1.46285
0.587259
0.454606
0.463861
-0.148994
-0.00659541
0.0567147
-0.885481
0.0953468
0.790134
-0.121584
0.116398
-0.995906
0.585783
0.933233
-0.599267
-0.125325
0.00790451
-0.010403
-0.808431
-0.0776222
-0.544308
-0.00263511
0.0106908
0.625743
-0.150384
0.0937029
0.170279
0.00331631
-0.0106389
0.00732257
-0.813297
0.0673868
0.74591
0.647501
0.525153
-0.532433
0.41031
0.122123
0.916614
-0.741742
-0.174872
0.078198
0.295995
-0.0136721
-0.057049
-0.0567234
-0.0144858
0.64315
-1.23067
-0.836492
0.0980338
-0.740695
0.795942
-0.0552474
0.121887
-0.898567
0.776679
-0.801917
0.902794
-0.100877
-0.0653044
0.0754323
0.0191207
-0.283559
0.519293
0.792798
-0.0938635
-0.791618
0.915695
-0.0923633
-0.823331
0.0859612
-0.133391
1.10211
0.822751
-0.948899
0.452014
-0.378954
0.100773
-0.892391
1.47705
0.364174
-0.790106
0.00446954
1.01707
-0.895183
1.2199
1.11317
-0.791894
-0.321273
-0.87872
-0.117186
-0.411254
0.0311809
-0.609161
0.835247
-0.786317
0.786317
-0.602296
-0.0860768
-0.863173
0.121432
-0.930475
0.861062
0.0747859
-0.193843
-0.0583306
0.0612464
0.0112747
0.18842
0.828651
0.816717
0.770959
0.141587
-0.912546
-0.633214
1.09708
-0.782337
-0.106786
0.889123
0.172468
-0.889744
-0.674754
0.887828
-0.787054
-0.107662
0.458514
-0.026872
-0.431642
-0.0111671
1.33452
-1.32335
0.175471
-0.336993
0.161522
-0.889999
-0.830466
0.0897711
0.524768
0.257363
-1.91195
1.11124
-0.575818
0.575818
-0.87091
-0.567902
-0.103619
0.30139
-0.997293
1.10998
0.781042
-0.206086
1.11861
-0.585841
0.947094
-1.15636
0.209266
-0.105866
-1.51492
0.220668
0.479954
-0.452725
-0.114565
0.20593
0.297726
-0.219528
0.780408
-0.881285
0.678592
0.418484
-0.151884
0.737667
0.579463
-0.579463
-0.0685614
0.0671985
0.109009
-0.0746424
1.18466
0.149862
0.278648
-0.000118395
0.00374787
-0.00362948
-0.669624
0.693661
-0.024037
0.334322
-1.12622
0.109591
-0.896646
-1.09032
1.43978
-0.34946
0.190316
0.876389
-1.2141
1.54842
-0.755059
0.601056
-0.659771
-0.653332
0.149995
-0.179122
0.0282695
0.0784032
-0.557411
0.378289
0.00364524
-0.704236
0.0707772
0.725165
0.694407
-0.0933511
0.0760124
0.783744
0.121245
0.449962
-0.571207
-0.815085
0.528525
0.520909
-0.960337
0.737993
0.222344
-0.684532
-0.127838
1.00552
-0.417673
-0.119721
-0.0403314
0.486004
0.513996
-0.769602
-0.111683
-0.557724
-0.293747
-0.48189
-0.240637
0.40264
0.59736
-0.119154
0.124911
-0.861965
-0.0710733
-0.588697
-0.154357
-0.25037
0.404728
-0.0320611
-0.0040133
0.111383
0.0713655
-0.128638
-0.110884
0.759203
-0.641327
0.71734
0.00751561
-0.564927
-0.128761
-0.0110972
0.139858
-0.746665
-0.193606
0.940271
-0.244029
0.232772
-0.0242916
-0.0839623
0.0132978
0.0124192
0.706818
-0.131001
0.125766
0.110737
-0.736906
0.0672819
1.00762
-0.325947
-0.262933
-0.0850409
-0.151335
-0.289735
1.02262
-0.00636207
0.357008
-0.223005
-0.00858117
-0.0487305
-0.0961723
0.0703293
0.93729
0.201996
-0.25804
0.0560437
0.848974
-0.0235115
0.000517354
0.0229941
0.126867
-0.0119998
-0.000640361
0.218759
-0.107112
0.197564
-1.19486
0.48074
-0.278744
0.00709532
0.288864
-0.269137
-0.959586
1.28976
-0.330176
-0.77979
0.839448
-0.0596577
0.366174
0.259119
-0.15526
-0.0667766
1.25499
-0.454938
-0.0774948
0.275957
0.458169
0.190009
-0.648178
0.406345
0.0410244
0.652636
-0.574504
0.560809
0.0136956
1.29373
-1.15614
-0.0263185
0.0337286
-0.00741006
0.69709
-0.00865588
-0.0829583
0.019894
1.38723
0.715512
-0.349337
0.0764071
-0.079942
-0.118984
0.125968
0.0511638
-0.177132
0.0109627
-0.00887155
1.12544
-0.768979
0.165334
0.224116
-0.0259582
-0.0932264
0.220808
0.0979549
0.00628896
0.0744191
0.767867
0.36736
-0.000663437
-0.366696
0.724477
0.195822
-0.920299
0.645842
0.120859
-0.0661479
0.0118681
0.0542798
-0.681494
-0.0537813
-1.10258
-0.00081329
0.745585
0.71514
0.147472
0.0886108
-0.629681
0.81831
0.127861
0.0109208
-0.877452
0.108814
-0.27193
-0.174322
-0.171928
0.692231
0.0756363
0.0131892
0.551356
-0.292236
-0.185348
0.163006
0.0287872
-0.112744
0.42196
-0.0570441
0.262322
-0.0732252
0.163475
0.142597
0.58188
-0.153016
0.163969
-0.0513471
-0.110256
0.0173943
-0.00062221
-0.0167721
-1.47158
0.315441
-0.011741
0.879667
-0.227938
-0.616896
0.634388
-0.0174919
0.471081
0.759513
0.295657
-0.155799
0.0770936
-0.171727
0.630121
0.129391
0.535146
0.507255
-0.265784
0.717798
0.134422
0.802868
-0.604191
0.348381
0.255809
0.016913
-0.0710574
0.0414618
0.0630211
-0.0465768
1.17024
0.735754
0.0825563
0.617709
0.221811
-0.873991
-0.0809664
-0.672558
0.677028
-0.0236876
-0.587259
0.432902
0.872616
0.671146
0.140602
0.00356417
-0.164182
-0.314256
1.12504
0.53006
0.251866
0.0190963
0.774506
0.0283617
0.685027
0.642316
-0.0771303
0.618708
-0.744893
0.932324
-0.187431
-0.411655
-0.192536
-0.0438325
-0.192255
-0.210655
0.773925
0.00867405
-0.00304744
0.627606
0.135642
-0.220683
0.600072
-0.132935
0.239469
0.752255
0.234542
-0.986797
0.276898
-0.924052
0.172877
-1.42548
-0.179529
0.771058
-0.591529
-0.667352
-0.11698
0.0330174
-0.0546514
-1.09451
0.0234861
-0.0443125
0.850095
0.142878
-0.34844
0.205562
-0.0180267
-0.580232
0.105877
0.251131
-1.42922
-0.000269978
0.00358629
-0.0974718
-0.0532344
-0.589293
0.014789
0.567295
0.305322
1.09262
0.884743
-0.249947
-0.384778
0.634726
-0.0567142
-0.616845
0.616845
-0.241595
-0.910723
1.15232
0.0296809
-0.148755
0.684462
-0.117168
-0.221325
-0.373998
0.254277
0.632117
0.8043
-0.118111
0.173269
-0.10511
-0.452562
0.486448
0.0743612
0.0559147
0.014648
-1.49694
-0.126458
-0.223511
0.69438
0.30562
-0.126458
0.69438
-0.08547
-0.174565
-0.08547
-0.696076
0.696076
0.303924
-0.014373
0.205927
-0.075332
0.19001
0.123724
-0.459833
0.638384
-0.0383121
0.661602
-0.504934
-0.156668
-0.0589951
0.0586075
0.000387609
-0.0103586
0.0102402
-0.0981353
0.0189434
-0.0644225
-0.438126
-0.349638
0.124906
0.0447817
0.830763
-0.277934
-0.603598
0.301671
0.00164805
-0.129035
-0.00798707
0.679447
0.0661387
0.252355
-0.0183928
-0.00163139
0.00974635
0.0858857
0.564827
-0.475347
-0.08948
2.01452
0.545033
-0.402959
0.893698
0.0110675
-0.0615855
0.105296
0.182871
0.127767
1.12366
-0.371402
0.0123884
-0.0768032
0.623713
-0.57728
0.0227281
-0.0227281
0.019771
-0.019771
-0.0146037
0.0146037
0.0297249
0.36582
0.458621
-0.0360851
-0.723573
0.487693
0.189687
0.0290722
-0.0815697
-0.482989
0.764573
0.112042
-0.796573
-1.14022
0.00226948
0.10974
0.0185945
-0.00327785
-0.0207033
0.0207033
0.196671
-0.0194301
0.0194301
0.700813
0.0903105
-0.0126924
-0.00570047
0.00675536
-0.0693697
-0.02306
0.02306
-0.0103275
0.0103275
-0.0218362
0.0218362
-0.0146777
0.0146777
0.107015
-0.294662
-0.083588
0.221513
-0.0135476
0.0135476
-0.372291
0.512843
-0.140552
0.504935
-0.223354
-0.384948
-0.21865
0.558729
-0.115161
0.0712191
0.563169
0.567202
-0.0069601
0.0069601
0.0970942
0.0242842
-0.0242842
-0.0122417
0.0122417
0.750666
-1.17861
0.0356661
-0.265113
0.341402
0.0036457
-0.0036457
0.0125963
-0.0125963
0.0179843
-0.0179843
0.0238884
-0.0238884
-0.0230071
0.0230071
0.0343993
-0.0343993
0.481234
-0.0311734
0.0311734
-0.00300534
0.00300534
0.023596
-0.023596
-0.0053573
0.0053573
0.00822838
-0.00822838
-0.0658159
-0.0249935
0.0249935
0.272814
0.00275599
-0.0386525
0.0386525
0.00530087
-0.00530087
0.0134124
-0.0134124
0.0328345
-0.0328345
0.0262087
-0.0262087
0.00426791
-0.00426791
-0.00199749
0.00199749
-0.516266
-0.276904
-0.00894531
0.00894531
-0.00217898
0.00217898
-0.0373397
0.0373397
-0.0283979
0.0283979
0.000133127
-0.000133127
-0.412397
0.644214
0.26042
-0.0313474
0.0313474
-0.0404752
-0.0133497
0.0133497
-0.00150232
0.00150232
0.0379508
-0.0379508
-0.182913
0.193834
0.00303387
-0.00303387
-0.0236817
0.0236817
-0.502168
0.0452863
-0.312743
-0.0319421
0.0319421
-0.447839
0.0347968
0.019538
-0.0422565
-1.33411
-0.0358587
0.0358587
-0.197389
0.140345
-0.0411411
-0.00103346
0.00103346
0.00443398
0.0460035
0.262132
-0.323492
-0.284047
0.60754
0.198587
-0.00416113
0.00416113
-0.19822
0.404117
-0.205897
0.776014
-0.40472
-0.371295
-0.456596
-0.662337
-0.0603118
0.361983
-0.450299
-0.364785
-0.572472
0.00687086
0.189581
-1.24109
0.0150999
-0.0150999
-0.00054656
0.00054656
0.0301372
-0.0301372
0.0265094
-0.0265094
0.000562018
-0.000562018
-0.000407018
0.000407018
0.0152662
-0.30438
0.177725
-0.303051
-0.000431872
0.000431871
-0.0454528
0.0454528
-0.0393505
0.0393505
0.193179
0.0341592
-0.227338
-0.00175545
0.31731
-0.545248
0.000186169
-0.000186169
-0.00730596
0.00730596
-0.0901629
0.0997831
-0.160095
-0.000587957
0.000587957
0.0905341
0.0144001
0.997313
-0.485118
-0.0780322
0.56315
-0.632015
0.0753266
-0.684488
-0.0389839
0.0389839
-0.681924
0.279233
0.0482108
-0.0482108
-0.639539
0.382129
0.266332
0.1222
0.000692751
-0.000692751
-0.823771
0.000540749
-0.000540749
0.311762
0.409907
0.0504931
-0.0520297
0.0520297
-0.000839633
0.000839633
-0.0413092
0.0413092
-0.054231
0.054231
0.000827314
-0.000827314
-0.0598637
0.0598637
0.000784074
-0.000784074
-0.0445135
0.0445135
-0.00215608
-0.0454907
0.0454907
0.00262823
-0.00262823
0.0469305
-0.0469305
5.10293e-05
-5.10293e-05
0.0482215
-0.0482215
-0.134549
-0.00192975
0.00192975
-0.00396505
0.00396505
-0.054084
0.0832727
-0.0099582
0.0099582
0.00550655
-0.00550655
-0.0575955
0.0575955
0.291329
-0.0177196
0.0177196
-0.0573145
0.0573145
-0.00777353
0.00777353
-0.0651551
0.0651551
-0.0134087
0.0134087
-0.0778623
0.0778623
-0.0209828
0.0209828
-0.0943062
0.0943062
-0.686498
0.250496
-0.525378
0.507886
-0.871748
0.139849
-0.567625
0.395697
-0.0151454
0.152934
0.00388153
-0.00388153
0.306785
-0.728212
0.0421524
-0.0275044
-1.06829
1.51702
1.21273
0.254565
-0.0534775
-0.030575
-0.396904
-0.575281
-0.05285
0.392175
-1.25503
-0.0185811
0.0185811
-0.766069
0.021132
-0.021132
-0.00119115
0.00119115
0.305402
-0.380555
-0.00230905
0.00230905
0.0194533
0.0148688
0.596398
0.210955
-0.00984121
-0.00993985
-0.00881994
-0.0944082
0.491074
-0.396666
0.193396
0.0272721
0.00967584
0.940302
-0.0131337
0.0566615
-0.408391
0.439572
-0.486423
-1.01455
-0.221227
-0.0699333
0.0177081
-0.22442
-0.112573
0.0612358
-0.00348121
-0.0145103
0.781279
-0.555977
-0.0358593
0.0646465
-0.035509
0.0571283
0.148799
0.426809
0.235252
-0.165237
0.212549
0.0116881
-0.00218813
-1.28175
0.0210362
-0.0942156
-0.254224
-0.0194808
-1.45679
-0.0709681
0.261515
-0.350707
0.389071
0.314728
-0.90796
0.0461565
-0.0345502
-0.098841
-0.34452
0.466643
-0.0813171
-0.0323034
0.11362
-0.0266451
0.0266451
0.179557
-0.423691
-0.102093
0.122913
-0.0775956
0.053908
-0.0662521
-0.00671837
0.0729705
-0.0318261
-0.149861
0.113237
-0.0790524
-0.290462
-0.35974
0.650202
0.0141915
0.057727
0.152774
-0.0270083
-0.139556
0.0641681
-0.154064
0.305693
-0.00384009
0.0268342
-0.0287685
0.181543
0.00268779
0.256198
0.000652222
-0.000652222
-0.259107
0.944134
0.0868627
-0.167829
-0.0498158
-0.0258113
0.862401
0.686018
-0.015654
-0.0257278
-0.533573
0.00819508
0.193038
0.0888654
-0.673458
0.315015
-0.0558784
0.384258
-0.67472
0.221229
0.516764
-0.0867957
0.0867957
-0.000388526
-1.34236
0.583411
0.758944
-0.209038
0.154387
0.115947
-0.179697
-0.582502
-0.128412
-0.0325989
0.0417071
0.930159
0.24701
-0.106408
-0.0686931
-0.53998
-0.712796
-0.070867
-0.267327
0.805421
0.581065
-0.263755
-0.266708
0.555572
-0.0416724
0.38583
-0.267735
0.0918208
-0.467531
0.326979
0.123378
-0.123378
0.115867
-0.120026
0.00415848
0.00902157
-0.000371304
0.0207444
-0.244005
-0.437489
0.231252
-0.186891
-0.0443616
0.546969
-1.07377
0.222994
-0.964977
0.697497
-0.123124
-0.179926
-0.0427377
-0.079634
-0.484692
0.0465663
-0.283034
0.00475239
-0.0194808
0.372512
-0.00522251
-0.00119125
0.00113005
0.0123467
-0.011548
-0.000798698
-0.105968
-0.0163458
-0.163307
0.179653
-0.130202
-0.337329
0.0194533
0.34634
0.00125395
-0.369194
0.0821807
0.002448
0.16739
-0.203475
-0.0118104
0.0118104
-0.000953616
0.0022688
-0.00955288
0.00130592
-0.0821192
0.000828449
-0.00117085
0.234145
0.0147685
-0.000949579
0.000949579
0.101567
0.517942
0.00138216
-0.290671
0.447377
1.12174
-0.474721
0.339804
-0.439857
-0.239721
0.137628
0.234882
-0.233381
-0.02296
0.0160207
-0.00360151
-0.00403631
-0.180232
-0.381221
0.868914
0.464211
-0.448945
0.21257
-0.00156481
0.184046
0.00627012
0.000753443
0.000909317
0.0151114
0.254993
0.00131289
-0.000206715
0.714446
-0.650278
-0.244288
0.122752
0.946223
0.00067666
0.00103638
-0.0411411
-0.00573347
0.81792
-0.432891
0.507252
-0.517258
0.902981
-0.415201
0.582686
-0.186989
0.692264
0.00119617
0.00326318
0.0153313
-0.118289
0.139352
-0.239892
0.00940497
0.000487123
0.0634041
-0.0485352
-0.0148689
0.00112726
0.0515392
0.0106764
-0.0622155
-0.087321
0.00363793
0.000109945
0.00167865
0.466275
-0.424696
-0.00610645
0.000319298
1.19895
-0.615538
0.390342
-0.00572158
0.000486896
0.204828
-0.0394938
-0.0398785
-0.12086
-0.0184992
-0.00349177
0.115698
0.0496607
-0.00159605
0.41745
0.000806339
-0.00335859
0.00335859
0.00422544
-0.0141653
0.000130147
-0.321095
-0.00363798
0.0709386
-0.106806
0.0224106
-0.0100177
-0.0658341
0.000245701
0.0020353
0.46997
0.000130734
-0.00416374
-0.0396687
-0.00195869
0.000519092
0.0970798
0.181568
-0.711115
0.484665
-0.865886
-0.0127899
-0.000251677
-0.665305
0.0831179
0.122812
0.601587
-0.0152472
0.0176026
-0.00381889
-0.00128036
-0.552532
-0.00320434
-4.32392e-05
-0.0444559
0.933123
-0.526778
-0.00241694
-0.000733045
-0.00556575
-0.00198077
0.0658645
-0.0225875
0.0225875
-0.0304612
0.03273
-0.00226698
-0.00755964
0.032615
-0.0338063
-0.161225
0.0901677
-0.00563521
-0.0127072
0.0437845
-0.0160253
0.060687
-0.0429789
-0.624825
0.569578
0.0203483
-0.00162501
0.329234
-0.165759
-0.0723967
-0.689158
-0.0782467
-0.121831
-0.0921134
0.0901547
0.684277
0.000538932
0.0109381
-0.00990174