/*--------------------------------*- C++ -*----------------------------------*\
| =========                 |                                                 |
| \\      /  F ield         | OpenFOAM: The Open Source CFD Toolbox           |
|  \\    /   O peration     | Version:  2306                                  |
|   \\  /    A nd           | Website:  www.openfoam.com                      |
|    \\/     M anipulation  |                                                 |
\*---------------------------------------------------------------------------*/
FoamFile
{
    version     2.0;
    format      ascii;
    arch        "LSB;label=32;scalar=64";
    class       surfaceScalarField;
    location    "39.5";
    object      phi;
}
// * * * * * * * * * * * * * * * * * * * * * * * * * * * * * * * * * * * * * //

dimensions      [0 3 -1 0 0 0 0];

oriented        oriented;

internalField   nonuniform List<scalar> 
3181
(
-0.984886
0.376154
0.608732
-0.36519
0.342041
0.0231493
0.487554
-0.336183
-0.151371
0.105034
-0.177771
0.0727369
-0.0694409
0.098443
-0.0290022
0.925661
0.603491
-1.52915
0.135588
-0.129879
-0.00570914
-0.0189902
-0.000231359
0.0192216
0.486266
-0.699095
0.212829
-0.0774111
0.120129
-0.0427178
-0.0109839
-0.0571669
0.0681508
0.122377
0.0410753
-0.163452
-0.0054727
0.0211597
-0.015687
-1.09568
0.156962
0.938714
-0.302232
0.65298
-0.350748
-1.12613
0.646371
0.479755
0.0830756
-0.929058
0.845983
-0.139577
0.201414
-0.0618373
-1.11851
-0.0447011
-0.00156793
0.0745348
-0.0729669
0.0664878
-0.104013
0.0375249
-0.0586143
0.0569657
0.00164863
1.05956
-1.03969
-0.0198735
0.0304697
0.0252712
-0.0557409
-0.956736
0.335007
0.621729
-0.10275
0.207784
0.296564
-0.266796
-0.029768
0.0265877
0.0561871
-0.0827748
-0.443684
0.366417
0.077267
-0.0361169
-0.0223898
0.0259449
-0.0035551
-0.0463206
-0.910415
0.076173
-0.0606656
-0.0155075
0.35414
1.25363
-1.60777
-0.0579123
0.0392641
0.0186483
0.195002
0.295912
-0.490914
1.81259
-1.45845
0.0821324
-0.0156447
1.68451
-0.935673
-0.748836
-0.859556
1.78522
0.0160615
-0.0215342
-0.0464649
-0.0121494
-0.382125
0.0798926
-0.158122
0.111657
-0.665582
0.124328
0.541254
-0.129332
0.0519209
-0.155101
0.158761
-0.00366002
-0.249697
-0.073387
0.323084
-0.237018
1.2958
-1.05878
0.0615025
0.155349
-0.216852
-0.0239577
-0.110707
0.11754
-0.00683319
0.47521
0.17777
-0.0927601
0.164068
-0.0713076
0.0835872
-0.00741411
-0.155251
0.17849
-0.0232384
0.150226
0.0544216
-0.204647
0.0977328
-0.103154
0.00542073
1.27607
0.408443
-0.817057
-0.167829
0.132756
-0.934382
0.801626
0.585477
0.24939
-0.834867
-0.47447
-0.2244
0.69887
-2.11467
1.25512
-0.292823
0.8783
-0.297866
-0.10024
0.398107
-0.221422
-0.222262
-0.174912
0.176426
-0.0015135
0.172164
0.268877
-0.441041
-0.200717
0.686983
-0.00533855
-0.0136517
-1.53312
1.66587
0.156759
0.139805
-0.156191
-0.109075
0.265266
-0.264879
0.378005
-0.113126
-0.0701978
0.0787698
-0.00857201
-1.77013
-0.9207
0.012343
0.908357
-0.0132473
-0.044665
-1.19719
0.852422
0.344764
0.525979
-0.377881
-0.148097
-2.03891
-0.0757655
1.0992
-0.942235
-0.767293
1.14043
-0.201718
1.05288
0.190763
-0.16681
-0.0239533
1.39396
-0.790468
1.97291
-1.97291
-0.00733418
-0.00176194
0.00909611
-0.189627
-0.052554
0.242181
0.100735
-0.0775471
-0.0231882
-0.45667
0.806073
-0.349403
-0.0469527
-0.200231
0.247184
-1.08062
0.0409377
0.373003
0.0602603
-0.433263
0.122363
-0.905915
1.15531
0.0776227
0.104772
-0.182395
-0.0181572
-0.137094
-0.485981
0.373204
0.112777
-0.374433
-0.111548
0.125484
-1.0314
0.305113
-0.761784
0.924496
-0.841421
0.00265593
0.114657
-0.117313
0.0989615
0.0570225
-0.155984
-1.25926
-0.0970948
1.35636
-0.217745
0.379929
-0.162185
-0.461396
-0.460509
0.921905
-0.513933
-0.683252
0.13588
-0.0743771
-0.14021
0.135024
0.00518604
-0.0810952
-0.0243967
0.105492
-0.525622
-0.173473
0.0690235
-0.0179066
-0.051117
-0.886424
-0.295401
1.18183
1.26611
0.0296846
-0.0173543
0.0100201
0.00627327
0.150486
-0.215982
0.410984
-0.020428
0.204012
-0.183584
0.15239
0.0748768
-0.227267
0.0214682
0.164962
-0.18643
-0.592676
-0.533449
-1.21829
0.331864
-0.0597701
0.137393
-0.0879182
0.165111
-0.0771928
-0.118109
0.0224019
0.113186
-0.0547868
0.0564526
-0.00166582
-0.0833909
-0.0166816
0.100072
0.0681224
-0.0681224
-0.170392
0.192794
0.151545
0.134921
0.0939572
0.0845327
-1.14235
0.941633
-1.52093
0.0306189
1.49031
-0.00159677
-0.00164381
0.00324058
-0.0293472
-0.0570226
0.0863699
0.496355
-0.0156186
-0.480736
0.0154073
-0.0159712
0.000563937
-0.182955
0.0125621
0.171314
0.634759
-0.342103
0.513417
-0.128293
-1.13097
-0.155023
0.0855824
0.45245
-0.277381
-0.175069
0.120509
-0.109102
-0.011407
0.0455434
-0.295241
0.0220829
-0.942783
0.0464865
-0.134405
-0.258941
-0.371253
0.0980029
1.4608
-0.992399
-0.468401
1.12598
0.334821
0.0628978
0.260186
-0.00506616
0.00346939
0.0215899
0.0814563
-0.103046
-0.243315
-0.608683
0.851998
-0.32682
0.275445
0.620765
-0.665466
0.152846
0.0261153
-0.0301164
0.00400109
-0.888249
-0.454639
1.34289
0.356599
-1.24485
-0.328469
0.701472
-0.906975
-0.0126603
0.00569055
-0.289565
0.283875
1.4982
-1.6428
0.144597
-0.0970731
-0.0579502
0.590964
-0.834279
0.208606
-0.370544
0.161938
-0.31174
-0.134889
0.446629
0.178962
-1.00935
-0.0712727
-0.0186731
-0.0542938
-0.601396
0.376996
-0.268232
0.0201683
0.248064
0.0824959
-0.179569
-0.0723381
0.0723381
-0.133624
0.147238
-0.0136146
-0.203218
-1.31771
-0.0306277
-0.00123854
0.0318663
0.0290914
-0.108073
0.0789811
-0.239109
0.0641974
1.65204
-0.221109
-1.43094
-0.162994
0.415481
-0.252488
-0.000229125
-0.000658447
0.000887573
-1.01492
0.553529
-0.202918
-0.00497135
0.207889
-0.151309
0.323472
-0.113574
0.111731
0.0018426
0.0833363
0.0198385
-0.103175
-0.0400221
0.0163926
0.0236295
0.643082
0.260543
-0.903624
-0.203979
-0.0467424
0.250721
-0.671795
0.66245
0.009345
-0.006836
0.0321072
0.0306864
-0.0317664
0.00107999
-0.0162057
-0.0395352
0.500414
0.765697
0.166996
-0.904361
0.737365
-0.209602
1.93034
-1.72074
0.35221
0.0718733
1.90104
0.0829725
0.223269
-0.0708788
-0.0792718
-0.0314355
0.212712
0.176692
-0.0777305
0.732159
-0.397153
0.0568972
0.185284
0.0655273
-0.186177
0.120649
-0.715578
-0.125711
0.841288
0.0454204
-0.0454204
-0.0580097
-0.28997
0.585882
0.0106526
-0.214631
0.185206
0.0162079
0.0446711
-0.104441
0.151429
-0.162413
-0.347478
0.300525
0.0283786
0.0219313
-0.0503099
0.357962
-0.316887
-0.0177923
0.739854
-0.722062
-0.190356
0.253254
0.176173
-0.453554
-0.196733
0.572887
0.150854
-0.029563
0.029563
-0.0415694
0.156594
-0.115025
0.350186
0.0297438
0.00466802
-0.00748112
0.00281309
-0.11208
0.0938539
-0.0248304
-0.0529178
0.204347
-0.197599
0.263325
-0.0657258
0.147839
0.0288526
-0.372961
0.106165
0.212451
-0.0646114
-0.0508201
-0.0627538
0.0125016
-0.00157209
-0.0109295
0.134163
-0.0955499
-0.0386133
-0.0457717
0.427677
-0.381906
0.00645426
-0.0117928
0.116189
-0.120986
0.00479615
0.0256697
0.623917
-0.641709
-0.043837
0.0315324
0.0123046
-0.0335031
0.0826703
-0.0491672
-0.104771
0.0954191
-0.719857
0.624438
-0.0145663
-1.29258
-0.416993
1.70958
0.140179
0.637946
-0.778125
0.0744944
0.0201406
0.144821
0.304339
0.265563
-0.569902
-0.215531
0.281059
0.124357
-0.844684
0.720327
-0.0602745
0.0267714
-0.0373735
0.0187004
-0.973053
0.439407
0.533646
0.992399
-0.866915
-1.52567
1.42857
-1.4982
1.52882
0.0339703
-0.105278
0.00496704
0.0257194
-0.00115013
0.747212
-0.622855
0.10724
-0.0607532
0.407351
0.733081
-0.0968122
-1.4713
1.2617
-0.626562
-0.515789
-0.245454
-0.420128
-0.0150799
-0.152008
0.197551
-0.565702
-0.340028
0.177035
0.721297
-0.224942
-0.805364
-0.720302
0.75796
-0.0260014
-0.0342731
0.253297
0.0329178
-0.0329178
0.667878
0.152024
-0.819903
-0.228236
0.896114
-0.054104
-0.332054
0.386158
0.165926
-0.0310049
0.00448651
0.00877885
-0.0132654
-0.934382
-1.22761
1.2573
0.751862
0.900183
-0.0321497
-0.122951
-0.229732
0.704942
-0.215606
-0.0526264
-0.00234669
-0.0678511
-0.0625947
0.119617
0.396641
-0.272312
-0.754855
-0.310651
-0.0518553
0.0534489
-0.00159358
-1.54375
1.61562
-0.0649442
0.0299054
0.0350388
0.011867
-0.0169331
0.0394273
-0.0429621
0.00353478
0.0106606
0.387446
0.0762734
0.0442356
0.0137168
0.021286
-0.0350028
-0.0182265
-0.184692
-0.759542
0.397217
0.362325
1.01395
-2.17026
1.15632
0.150913
-0.174316
0.0234021
0.00528136
0.130598
-0.633423
-1.33949
0.00478666
0.0346407
-0.120394
0.0460166
0.157507
-0.373489
-1.91761
0.37865
1.53896
0.0427257
0.0843695
0.0497936
-0.715578
0.582113
0.0609685
-0.00527859
-0.0376835
0.0477192
-0.642675
-0.02912
0.0659951
0.146456
-0.754382
0.00641739
-0.447459
0.11112
0.376102
-0.315841
-0.0980256
0.0146347
0.217324
0.84749
-1.06481
0.107941
-0.69255
0.584608
-0.880983
0.755272
-0.770923
-0.211967
0.98289
0.00434558
-0.00513482
0.000789243
0.190436
-0.502177
0.236071
-0.137994
-0.0980769
0.0539651
0.0287052
-0.0576062
0.00575094
-0.0269177
0.0156451
-0.0318508
0.0189263
0.100506
-0.119432
0.086075
0.00842843
-0.00844951
2.10862e-05
0.0058417
-0.0176345
0.863695
0.0585976
-0.116548
-0.00935573
-1.21826
0.157979
0.00794654
0.00651802
0.0778515
-0.98289
1.33949
0.101073
-0.231401
0.130329
-0.274544
0.107734
0.120923
-0.144876
-0.00100806
0.0797778
0.0151759
-2.00965
0.0920355
-0.0598156
0.0787419
0.74338
-0.263625
-0.125017
0.154108
0.370401
-0.00604152
0.0107095
-0.00719358
0.0753159
0.13743
0.240575
0.159313
-0.358723
0.19941
0.09673
0.538029
-0.01873
-0.110602
0.854903
-0.22458
-0.630323
-0.770923
-0.53932
1.55327
1.81259
-0.0711172
0.111536
-0.0404192
0.417702
-0.0784231
-0.339279
-0.559206
-1.4797
-0.0863506
0.0880762
-0.00172557
-0.174683
0.0469208
0.127762
0.387621
-0.816717
0.429096
0.0375034
0.671056
-0.70856
-0.0407865
-0.099423
-0.0450765
0.00123949
0.106621
-0.148191
0.00599695
-0.00165138
0.173061
-0.0491241
-0.123937
0.071475
-0.0498851
0.0081319
0.00373508
0.0290125
0.0856447
-0.0290835
-0.00268295
0.211001
-0.411232
0.171405
0.46654
-0.022944
-0.0224764
-0.989519
-0.0198318
0.0238501
-0.0637011
-0.0343245
-0.0177267
0.226333
-0.0597097
-0.650495
0.710205
0.091665
0.0663145
-0.936031
-0.0062037
-0.00173779
-0.650228
0.745647
-0.0155706
0.166425
0.407905
-0.739959
0.191333
-0.41553
0.224197
0.0850573
0.118955
0.00329828
-0.00405998
0.000761696
-0.0356563
-0.00436575
-0.0180265
-0.119068
0.727771
-0.61983
-0.0183051
-0.00761361
0.00653075
0.336095
-0.176782
-0.00197355
0.886857
-0.284233
-0.602624
-0.132008
0.152177
-0.516444
-0.243098
-0.539571
0.562471
-0.550479
-0.0119918
-0.0394178
0.0211127
-1.4713
0.579636
-0.579636
-1.69884
1.69884
0.747212
0.0466133
0.40978
-0.456393
-0.899844
-0.0896751
0.68015
-0.393352
-0.286797
0.138134
-0.215326
-0.0125074
-0.00484686
-0.938263
-0.093136
-0.93339
0.213532
0.0404327
0.0130162
0.696351
-0.0912433
-0.605107
1.56221
0.250384
-0.00440852
0.0077068
-0.955905
1.111
-0.37115
-0.102258
-0.642033
0.744291
0.0669362
-0.910195
-0.732604
0.224443
-0.81712
-0.841288
1.2505
-0.409214
-0.132399
0.261459
-0.12906
-0.0438869
0.740238
-0.114812
-0.919745
0.919745
-1.03078
0.0683545
0.962423
0.00255094
0.00587748
-0.0198449
-0.462955
0.941334
-0.0889121
-0.0964181
-0.0305711
-0.00508777
-0.00213888
0.00190976
1.07344
-1.28541
-0.375842
0.459179
-0.686904
1.08979
-0.402883
-0.0571142
0.0619009
0.136673
-0.061796
0.330758
-0.00104632
0.022206
0.363514
0.0641631
0.0467669
-0.26942
0.222653
0.127654
0.0311074
0.107326
0.19768
1.26266
0.403213
-0.625247
0.694285
-0.0690379
-0.68653
0.231891
0.307451
-0.195794
0.0716268
-0.764625
0.692999
-0.578634
0.0991522
-0.44663
-0.0744586
0.11977
-0.0453114
0.107503
-0.181962
-0.482429
-0.118967
-0.0813528
0.084988
-0.00363522
-0.00576151
-0.023322
0.0434428
-0.0508569
0.622855
-0.584608
-0.0382469
-0.270847
0.2815
0.884993
0.709727
-0.292025
0.017406
-0.0186446
-0.257635
-0.112909
0.15039
-0.541153
0.390763
-0.00451771
0.000457735
0.357865
-0.347219
-0.0106462
0.00964497
-0.0165806
0.00693563
-0.0303246
0.0220083
0.00831633
-0.473155
-0.317313
-0.0775567
-1.21503
-0.216866
-0.866915
1.52882
1.42857
-0.176437
-0.159083
0.112341
-0.0713734
0.0779034
-0.00653
-0.639955
0.774974
-0.13502
0.587615
0.0925348
-0.00337477
-0.00114294
0.132995
-0.839639
0.0305711
-0.064065
0.00424939
-0.486086
0.228451
-0.0491116
0.0937827
-0.223633
0.581595
1.12598
0.126762
-0.0541561
0.000688986
0.0534672
1.77639
-0.347823
-0.0548262
-0.0483273
-1.03305
0.166137
0.388386
-0.209424
-0.494774
-0.151763
0.646537
0.858263
-0.38936
-0.468903
-0.5533
0.493591
-1.2617
0.327313
-0.00889498
-0.0490939
0.0579889
0.487523
1.44282
-0.159085
0.163571
-0.0298354
2.03642
-0.507597
-0.664869
0.035416
0.629453
0.411501
0.016999
-0.366544
0.491565
0.759122
-0.21999
0.0688853
-0.0190917
-1.24307
0.36022
0.882853
1.23938
0.0722821
-0.0585652
-0.0562666
-0.379465
0.126181
-0.341712
0.331938
0.554918
-0.0038495
-0.0355683
0.149876
-0.220994
-0.022209
0.015373
0.101951
-0.13576
0.0338094
-0.276543
0.287055
-0.0105126
0.0908545
-0.375087
0.166108
-0.104386
-0.061722
-0.00522401
-0.0996045
0.104829
0.297453
0.0386417
0.557008
0.0251051
-0.680687
0.680687
0.801626
1.56221
-0.69255
0.300664
0.458458
-0.264947
0.149922
0.990492
-0.402877
0.0130432
-0.891822
0.878779
0.109013
0.0111164
0.0246528
-0.0968328
0.653841
0.0105233
-0.163399
-0.106064
0.269463
0.0307032
-0.47589
0.312491
-1.13889
-0.310151
-0.667644
0.035401
-0.0076741
-0.000775411
-0.232542
-0.028558
0.0269644
0.0302701
-0.165061
0.134791
-0.346988
-0.68379
-0.00503929
0.0612264
0.0272286
-0.770376
0.743147
-0.5269
0.351831
-0.127588
0.14952
0.217274
-0.00646024
-0.0309133
-1.13832
0.917211
0.038436
0.0777533
-0.0419484
0.0484792
0.227017
0.00905389
-0.453416
0.709465
0.565121
0.597452
0.864242
-0.792615
0.845818
-0.475417
-0.65641
0.193455
0.162564
-0.800399
0.784769
0.0156307
0.829669
-0.497731
-0.227914
-0.147928
-0.0873205
0.00977336
0.947425
-0.838438
-0.108987
-0.205696
0.127965
0.024955
0.110069
0.876152
0.329203
0.289911
-0.619115
-0.307189
-0.0328398
-1.19692
1.22415
0.129654
1.2267
1.78239
-0.220182
0.158904
0.547085
-0.705989
-0.0694634
0.0557445
-0.0189494
0.0124892
-0.539379
-0.117031
0.183471
-0.100975
-0.206897
0.153979
-0.496085
0.243597
-0.992861
-0.230175
-0.302767
-0.986775
1.49194
-0.00163184
-0.305067
-0.365187
-0.120899
0.705936
0.327474
0.03604
1.12276
-0.73514
-0.211678
0.147066
-0.170283
-0.214386
0.38467
-0.0242822
0.0153872
0.0545644
-0.0600306
-0.216512
-0.0975046
0.697876
-0.432134
-0.265742
0.191742
0.118495
-0.0860075
-0.0324871
0.249769
0.0777052
-0.00795261
-0.770172
-0.10537
0.153089
-0.430573
0.759777
-0.0279132
-0.021254
-0.0310133
0.00650867
0.0245046
-0.0107763
0.00913249
-0.26329
0.0771131
-0.0630854
-0.517197
0.384799
0.0330076
0.0781376
-0.0833616
-0.699926
1.44606
-0.891141
0.0159195
-0.211965
0.196046
-0.149953
-0.519124
0.669078
0.055345
-0.69802
-0.131454
0.297563
0.0298815
0.00205525
-0.0319368
-0.231899
-0.562471
-0.153107
-0.115856
-1.24307
-0.252843
0.181964
0.127691
-1.17312
-0.348174
0.233897
0.114277
0.244121
0.0986677
0.496674
0.360352
-0.857027
-0.0585817
0.0325803
1.00656
-0.880483
-0.126079
-0.210347
-0.544742
0.776634
-0.263377
0.197651
-0.156103
-0.388639
0.461271
-0.0880669
0.00987883
-0.011029
-0.0214574
1.31791
-0.720459
0.772127
0.0861362
-1.7261
-0.283552
0.278809
0.711684
0.851251
0.00365211
-0.0206797
-1.78239
-0.667644
-0.711439
0.723782
0.0361892
-0.805364
0.671056
0.577817
-0.928113
1.02999
0.00294743
-0.803347
-0.316377
0.639806
-0.755792
0.115986
0.0721637
0.0463309
-1.12553
-0.481141
1.91488
-1.43374
-0.00123416
-0.00643994
-0.286281
0.233654
0.695151
0.203265
-0.190703
-0.166276
0.973806
-1.26921
0.135137
-0.59153
0.886256
-0.602022
-0.284234
-1.35707
1.71729
0.321569
-1.09195
0.0963957
0.401711
-0.882853
0.00353464
0.229763
0.00365514
0.0505584
-0.0267083
0.0121449
-0.025352
0.0132071
-1.0318
-0.0330095
0.300025
-0.807361
0.143019
0.359138
-0.502157
0.399348
0.690439
-0.0423164
0.0450422
-0.00272583
0.162354
0.811452
-0.720376
1.07524
0.854896
-0.711877
0.340389
-0.110626
-0.582861
-0.41
0.350884
0.535371
-0.04951
-0.888875
-1.82013
0.0993932
0.401711
0.0522462
-0.859607
0.831321
-0.64723
-0.184091
-0.98195
0.399088
0.00599302
0.104663
0.000845572
-0.105509
-0.971439
0.561439
-0.19508
0.913514
-0.919717
0.207874
-0.2261
-0.103622
0.261129
0.141126
0.69465
-0.109367
-1.15157
0.54895
-0.287711
0.0677216
-0.552313
-0.51873
1.07104
0.447687
0.0192065
-0.0104277
-0.741569
0.70856
0.370096
-0.207742
-1.90104
1.91418
-0.0131388
-0.183525
0.542664
0.76742
-0.803537
-0.493826
-0.448957
-0.472119
-0.499321
0.80453
-0.80453
0.689323
-0.689323
-0.741569
-1.83841
1.83841
-1.91418
-1.26293
0.102679
0.0189401
-0.723025
0.723025
0.370096
-0.207742
0.76742
0.762599
-0.762599
0.803537
0.757778
-0.757778
0.506174
0.527881
0.48127
-0.352929
-0.500679
-0.551043
1.07892
0.0532958
-0.822832
1.17372
0.879718
-0.558149
-0.19397
-0.0234665
0.0820641
-0.883527
0.0846512
0.798876
-0.00797992
-0.00709998
-0.991757
0.594605
0.861559
-0.560895
-0.120808
-0.00189424
0.00309839
-0.829269
-0.0750916
-0.533646
-0.0143568
0.0330572
-0.443814
-0.0127009
-0.0249826
0.19253
-0.0044755
-0.00838436
0.0128599
-0.814006
0.0688838
0.745122
-0.588519
0.729645
-0.521538
0.434584
0.0869546
0.915129
-0.748089
-0.167039
0.089127
0.321857
-0.0148462
-0.0665066
-0.0735399
-0.0128107
-0.183729
-1.36002
-0.884134
0.0919751
-0.750845
0.79413
-0.0432842
0.118603
-0.900508
0.781905
-0.804871
0.900365
-0.0954938
-0.00735471
-0.00342159
0.0213561
-0.310921
0.791861
-0.25649
-0.0871595
-0.796368
0.913858
-0.0876321
-0.826226
-0.0565543
-0.000559868
0.2912
0.827969
-0.737291
0.504644
-0.41211
0.0946968
-0.891065
1.45845
0.240383
-0.796902
-0.00644517
1.01627
-0.897671
1.07129
0.721291
-1.33095
0.609661
-0.886338
-0.105419
-0.439887
0.0579815
0.0909703
0.619234
-0.782431
0.782431
-0.641412
-0.0797528
-0.863168
0.115079
-1.02526
0.923002
0.0811127
-0.219107
-0.0520271
0.0439784
0.0124742
0.183401
0.832874
0.820612
0.775986
0.13336
-0.909346
-0.963703
0.405553
-0.785678
-0.0975617
0.88324
0.156482
-0.876858
-0.679767
0.884482
-0.789785
-0.099105
0.461959
0.00518304
-0.467142
-0.472519
1.71227
-1.23975
0.279186
-0.154204
-0.124982
-0.884783
-0.827879
0.0770331
0.561644
0.284174
-1.29336
0.845392
-0.608076
0.608076
-0.705769
-0.445805
0.428486
0.225355
-0.2601
0.155714
0.78692
-0.184091
0.394808
-0.712121
1.4971
-1.19971
-0.297381
-0.462738
-1.70753
0.120678
-0.242411
0.392919
-0.331951
0.21282
0.330249
-0.241122
0.78342
-0.878914
0.951679
-0.546126
-0.138097
0.732702
0.605596
-0.605596
-0.0202649
0.0033318
0.124233
-0.0939631
1.34981
0.362456
0.185269
0.000156095
0.00689891
-0.00705501
-0.681608
0.690971
-0.00936233
-0.346555
-0.984397
0.101363
-0.891148
-1.08592
1.25501
-0.169093
0.0220004
0.871571
-1.57345
1.22689
-0.757787
0.617661
-0.646781
-0.689972
0.173528
0.512699
0.0256652
0.192497
-0.687221
1.19992
-0.0024801
-0.482284
0.0566562
0.737473
0.683697
-0.0660355
0.0663236
0.797371
-1.06048
0.479288
0.581187
-0.53547
0.481309
0.0706162
-0.889838
0.679386
0.210452
-0.684735
-0.132385
0.92325
-0.0946804
-0.0535102
-0.0290024
0.485702
0.514298
-0.77246
-0.106454
-0.52229
-1.3321
-0.976546
-0.297927
0.400801
0.599199
-0.0192449
0.00161043
-0.860092
-0.0467711
-0.60001
-0.149436
-0.227318
0.376754
0.0131825
0.00199342
0.12489
0.0794569
-0.128389
-0.134901
0.766152
-0.654098
0.720422
0.687066
-1.37429
0.373409
0.337402
-0.710812
-0.742868
-0.179203
0.922071
-0.222506
0.211228
-0.0259439
-0.101013
-0.078556
-0.00609239
0.750217
-0.142141
0.0999952
0.117279
-0.734024
0.0524158
1.27388
0.717636
0.173073
-0.895135
0.618274
-0.276369
1.00945
0.000469275
0.144094
-0.17393
0.00281094
-0.0548731
0.00615957
0.275404
0.998474
-0.0830978
-0.0672929
0.150391
0.843185
-0.0318553
0.00564474
0.0262106
0.14081
0.00551434
0.000482615
0.201301
-0.0993503
0.270658
-0.530758
-0.0450343
-0.0380635
0.0034123
0.260797
0.270109
-1.17286
1.37792
-0.205063
-0.776508
0.821404
-0.0448965
-0.376985
-0.0276351
0.488906
-0.0919431
1.62522
-0.474338
-0.0472
0.266581
0.428409
0.172531
-0.600941
0.372171
0.021598
0.669373
-0.571261
0.584367
-0.0131061
1.33938
-0.633443
-0.0418819
0.0487753
-0.00689346
0.705088
-0.0100115
-0.0820889
0.0173149
0.903628
0.310334
-0.68732
0.0815547
0.0474475
-0.147052
0.186672
-0.107857
-0.0788148
0.0147631
-0.00261825
-0.509345
-0.371137
-0.0316174
0.201216
-0.0234195
-0.0685677
0.245164
0.0892814
0.00345612
0.0294087
0.761744
0.950587
-0.0813042
-0.869282
-0.0782787
-0.012503
0.0907817
0.642202
0.114381
-0.0425609
-0.0650875
0.107648
-0.309067
0.409626
-1.60934
-0.01838
0.77634
0.734885
0.61892
-0.768234
-0.357297
0.798684
0.0803172
-0.0822907
-0.922318
0.129088
-0.271888
-0.595161
-0.164988
0.702831
0.0589131
0.0151496
0.864883
-0.892518
-0.119723
0.170581
0.00287335
-0.106886
0.420815
-0.0604412
-0.59329
-0.058998
0.121606
0.153903
-0.232182
-0.139117
0.855528
-0.012875
-0.107823
-0.00832743
0.000310768
0.00801666
-1.33801
0.704572
0.00344935
0.984346
-0.222594
-0.627905
0.668697
-0.040792
0.13747
0.755247
-0.457061
-0.253751
0.0864993
-0.190122
0.64555
0.109698
1.49284
0.122781
-0.285725
0.79037
-0.123149
1.12162
-0.574829
0.353071
0.221758
-0.495125
-0.0709046
0.0386229
0.0761089
-0.0528347
1.27443
0.734151
0.0645329
0.646285
0.205713
-0.885463
-0.0837121
-0.687192
0.680747
-0.0317509
-0.54378
0.394344
0.850137
0.667148
0.0113263
0.0866592
-0.121138
-0.325492
0.643365
0.802694
0.137888
0.0270756
1.21841
-0.0967876
0.652556
0.52927
-0.0864574
0.964661
-0.719632
0.913859
-0.194227
-0.414936
-0.159893
-0.0532889
-0.129734
-0.101574
0.905117
0.0259096
-0.00462356
0.625486
-0.359954
-0.535181
0.620377
-0.130041
0.209358
0.791152
0.278099
-1.06925
0.27607
-0.923299
0.323559
-1.2147
-0.156621
0.741111
-0.58449
-0.684295
-0.0272367
-0.0737763
-0.0579863
-1.2965
-0.00250567
-0.0285076
0.897344
0.182152
-0.202192
0.0200395
-0.0278248
-0.565702
-0.057135
0.201229
-1.70249
-0.00889024
0.00441474
-0.549432
-0.056797
-0.611753
0.0404921
0.567676
0.282461
1.04383
0.665749
-0.218604
-0.391708
0.610312
0.320347
-0.620439
0.620439
-0.213801
-0.989783
1.20358
0.0332346
-0.165243
0.662278
-0.0946021
-0.214409
0.0750019
-0.128512
0.258393
-0.0427818
-0.793579
0.197901
-0.0998978
-0.699917
0.481754
0.102613
0.0854616
-0.00332914
-1.92771
-1.42711
-0.334322
0.692809
0.307191
-1.42711
0.692809
-0.753415
-0.634106
-0.753415
-0.696506
0.696506
0.303494
-0.0128827
0.0536089
-0.0814132
0.256594
0.0995933
-0.513639
0.634109
-0.0137326
0.633541
-0.505657
-0.127883
-0.0400439
0.0336734
0.00637044
-0.0159993
0.0161554
-0.630736
0.0168581
-0.0692553
-0.434704
-0.382558
0.150015
0.0332298
0.814056
-0.266971
-0.477001
0.356102
-0.0216169
-0.133247
0.00187523
0.69853
0.0778095
-0.321362
-0.0355872
0.000584367
-0.0149683
0.0821306
0.54147
-0.48201
-0.0594598
2.05632
0.568074
-0.461378
0.960992
0.0127004
-0.0697231
0.117893
0.196201
0.0234966
1.19733
-0.406183
0.000933874
0.0344672
0.370041
-1.05654
0.0163947
-0.0163947
0.0251356
-0.0251356
-0.00846826
0.00846826
-0.022944
0.367486
0.466959
0.0856968
-0.669195
0.444253
0.173978
0.0273233
-0.0886293
-0.480017
0.578973
0.114485
-0.79922
-0.606503
-0.133456
-0.00432817
0.0236413
-0.00163301
0.0145206
-0.0145206
0.133168
0.0124654
-0.0124654
0.700488
0.115812
-0.02868
-0.00690721
0.00583976
-0.0599959
-0.0191332
0.0191332
-0.00783245
0.00783245
-0.0253581
0.0253581
0.00926304
-0.00926304
0.0307107
-0.304852
-0.0728527
0.216347
0.00839832
-0.00839832
-0.381577
0.488132
-0.106555
0.465162
-0.203703
-0.58145
0.104449
0.554968
-0.00291801
0.0932607
0.575436
0.564344
0.00520656
-0.00520656
0.167544
0.028612
-0.028612
0.00776392
-0.00776392
0.791791
-1.24158
0.0375263
-0.556482
0.209263
-0.00329093
0.00329093
0.00827152
-0.00827152
0.0204978
-0.0204978
0.0193085
-0.0193085
-0.026559
0.026559
0.0392196
-0.0392196
0.507768
-0.0356474
0.0356474
0.00280832
-0.00280832
0.0270278
-0.0270278
-0.0063783
0.0063783
-0.0057705
0.0057705
-0.135094
-0.0303376
0.0303376
-0.159194
0.0263449
-0.0440158
0.0440158
0.00529831
-0.00529831
0.0121756
-0.0121756
0.03749
-0.03749
0.0226976
-0.0226976
-0.0036017
0.0036017
-0.004747
0.004747
0.420921
0.242546
-0.00798127
0.00798127
0.00201907
-0.00201907
-0.0424973
0.0424973
-0.0249778
0.0249778
0.00331937
-0.00331937
-0.43812
0.716928
0.243464
-0.0356641
0.0356641
0.0167171
-0.00753566
0.00753566
0.00110238
-0.00110238
0.0332582
-0.0332582
-0.125928
0.0436377
0.0055319
-0.0055319
-0.018447
0.018447
-0.461428
0.0393193
-0.0379277
-0.0278374
0.0278374
-0.426204
0.0285318
0.0165104
-0.0111252
-1.71497
-0.0409502
0.0409502
-0.220673
0.160232
-0.037015
0.000214803
-0.000214803
-0.0262508
0.0637757
0.268209
-0.320208
-0.249124
0.569333
0.16264
-0.00605516
0.00605516
-0.0438954
0.127644
-0.0837485
0.731698
-0.361498
-0.3702
-0.496496
-0.655099
0.0333532
0.322749
-0.0377844
-0.497686
-0.576833
-0.0236865
0.190545
-1.51731
0.0208862
-0.0208862
-0.000552014
0.000552014
0.034386
-0.034386
0.0234599
-0.0234599
-0.00240324
0.00240324
-0.00100975
0.00100975
-0.16664
-0.211242
0.149785
-0.270593
0.0028078
-0.0028078
-0.040318
0.040318
-0.0449132
0.0449132
0.0701552
0.110455
-0.18061
0.0277501
0.284459
-0.507053
-0.00310462
0.00310462
-0.025595
0.025595
-0.114536
0.211437
-0.178084
-0.00177144
0.00177144
0.0252399
0.0137954
0.878879
-0.492005
-0.103146
0.595152
-0.609894
0.421346
-0.330375
-0.0346089
0.0346089
-0.668578
0.258386
0.05522
-0.05522
-0.695675
0.408878
0.242456
0.110142
-0.00215577
0.00215577
-0.897053
-0.00138037
0.00138037
0.332976
0.407262
0.0698012
-0.0597203
0.0597203
-0.00242323
0.00242323
-0.0471766
0.0471766
-0.0483717
0.0483717
-0.00140145
0.00140145
-0.0535577
0.0535577
-0.00160244
0.00160244
-0.0508461
0.0508461
-0.0155909
-0.040675
0.040675
0.00447528
-0.00447528
0.0536722
-0.0536722
-0.00223653
0.00223653
0.0425516
-0.0425516
-0.195392
-0.00408775
0.00408775
-0.00587542
0.00587542
-0.0348642
0.0753159
-0.012811
0.012811
0.00485544
-0.00485544
-0.0662731
0.0662731
0.318959
-0.0211274
0.0211274
-0.0518965
0.0518965
-0.00717175
0.00717175
-0.0750322
0.0750322
-0.0124198
0.0124198
-0.0897505
0.0897505
-0.0244962
0.0244962
-0.0857059
0.0857059
-0.710606
0.20984
-0.553676
0.512884
-0.910195
-0.650555
-0.525767
0.360779
0.201365
-0.00962341
0.0037045
-0.0037045
0.21617
-0.681706
0.0539834
-0.0573126
-1.36808
1.61847
1.61409
0.237844
0.0308154
0.0242188
-0.366367
-0.606541
-0.121117
0.394735
-1.33154
-0.0309678
0.0309678
-0.708452
0.0128791
-0.0128791
-0.00412622
0.00412622
0.35225
-0.336148
-0.00271334
0.00271334
0.0168579
0.0127052
0.600549
-0.216579
-0.0103546
-0.0132737
-0.00740596
-0.117188
0.524919
-0.407731
0.186594
-0.0659161
-0.00354875
1.20883
0.0213904
0.0315497
-0.413376
0.471358
-0.516522
-0.918567
-0.212401
-0.0825708
0.0199761
-0.027504
-0.1267
-0.0403829
-0.0100816
-0.00576577
0.812695
-0.521012
-0.0529595
0.0558328
-0.0425495
0.0385441
0.0150648
0.407798
0.254652
-0.158981
0.197127
0.0263688
-0.00653029
-1.08357
0.0200953
-0.111922
-0.0902695
-0.0164074
-1.28421
-0.0736073
0.276615
-0.357878
0.422041
0.122712
-1.10949
0.0410099
0.0849402
-0.0855001
-0.363025
0.449979
-0.0546012
0.0916717
-0.0370704
-0.030663
0.030663
0.180125
-0.47215
-0.15064
0.0425678
-0.094243
0.0624921
-0.0550947
-0.00258031
0.0576751
-0.0355341
-0.165615
0.117603
0.0752936
-0.278787
-0.327175
0.605962
0.019416
0.0686602
0.146917
-0.0469223
-0.161204
0.0811844
-0.172818
0.335382
-0.00199213
0.0282027
-0.00944864
0.156366
0.00344716
0.280427
0.00378578
-0.00378578
-0.111535
0.764091
0.104957
-0.188669
-0.0279517
0.0948879
0.898633
0.328259
0.0911053
-0.0187673
-0.538688
-0.014987
-0.0898171
0.11348
-0.727837
0.32496
-0.0546831
0.351273
-0.63006
0.198387
0.480999
-0.100368
0.100368
0.000845572
-0.656222
-0.0213579
0.67758
-0.23199
0.174004
0.014448
-0.10014
-0.274947
-0.0330661
-0.0431845
0.0481516
0.928925
0.149391
-0.138065
-0.0717577
-0.0803004
-0.631576
-0.022447
-0.254791
0.746356
0.541584
-0.257125
-0.27397
0.534767
-0.0302432
0.14178
-0.263455
0.0163027
-0.449324
0.342769
0.113029
-0.113029
-0.030339
-0.0837194
0.114058
-0.00842337
0.00364804
0.00650867
-0.313162
0.00409521
0.204971
-0.184669
-0.0203019
0.515712
-1.13879
-0.180606
-1.03765
0.677196
-0.0984618
-0.172131
-0.0169958
-0.0805088
-0.509504
0.0748002
-0.310892
-0.00320234
-0.0164074
0.411362
-0.00520201
0.00370736
-0.00086472
0.0183683
-0.0115573
-0.00681102
-0.092706
-0.0200069
-0.182642
0.202648
-0.100986
-0.348338
0.0168579
0.352054
0.000932592
-0.402622
0.0998554
0.00325398
0.182274
-0.0965768
-0.0141671
0.0141671
-0.00205229
0.000439067
-0.0082804
-0.000634403
0.06372
0.000175288
-0.00120097
0.14997
0.0763625
-0.00235324
0.00235324
0.00133433
0.489967
-0.000148813
-0.274851
0.601358
1.2278
-0.46401
0.305877
-0.441722
-0.130495
-0.0201457
0.199334
-0.206285
0.0655104
-0.00841086
0.00231848
-0.00599815
-0.173935
-0.35796
0.802212
0.409433
-0.576073
0.104248
-0.00172962
0.00187514
0.0201253
-0.000735859
-0.00071362
-0.00769724
0.153797
0.00151843
-0.000861538
0.751738
-0.670553
-0.252607
0.313712
0.688237
-0.000916698
0.000784896
-0.037015
-0.00513983
0.817792
-0.432767
0.53538
-1.66642
0.90639
-0.932034
0.540168
-0.179389
0.732673
0.000323143
0.00336885
0.0202724
-0.119899
0.13631
-0.0741386
0.00752052
0.00491137
0.074827
-0.0632982
-0.0115288
0.000523263
-0.0761206
0.122435
-0.0463147
-0.102277
0.0069689
-6.99903e-05
0.00212204
0.514387
-0.447754
0.0134194
0.000214748
0.204595
-0.225953
0.360207
-0.00656424
-0.000766816
0.016005
-0.0476224
-0.0547584
-0.0834356
-0.00646316
-0.00396297
0.145266
0.0505982
-0.00351556
0.381187
0.000620788
0.00288808
-0.00288808
-0.00130261
-0.0119711
0.000404558
-0.321678
-0.00410399
0.0798056
-0.108024
-0.0303897
0.411299
-0.064969
0.000296821
0.00178767
0.432027
0.000247468
-0.000625515
-0.0526633
-0.00226338
0.000466414
0.0291267
0.156143
-0.709767
0.439827
-0.797787
0.0847366
-0.000651793
0.244578
0.157721
0.055099
0.547421
-0.0137628
-0.103865
-0.00450024
-0.00154785
-0.55888
-0.00366955
-0.000200987
0.022392
0.874148
-0.501977
-0.00282607
-0.000634094
-0.00655282
-0.00185121
0.0790886
-0.0199385
0.0199385
-0.0319299
0.0323689
-0.00231631
-0.00875909
0.0541108
-0.0504034
-0.18246
0.111556
-0.00524803
-0.0147184
0.0320076
-0.0200787
0.0706106
-0.0506345
-0.624623
0.581339
0.0260425
-0.00115095
0.311538
-0.189931
-0.0588227
-0.640818
-0.0595453
-0.0992388