/*--------------------------------*- C++ -*----------------------------------*\
| =========                 |                                                 |
| \\      /  F ield         | OpenFOAM: The Open Source CFD Toolbox           |
|  \\    /   O peration     | Version:  2306                                  |
|   \\  /    A nd           | Website:  www.openfoam.com                      |
|    \\/     M anipulation  |                                                 |
\*---------------------------------------------------------------------------*/
FoamFile
{
    version     2.0;
    format      ascii;
    arch        "LSB;label=32;scalar=64";
    class       volScalarField;
    location    "45";
    object      p;
}
// * * * * * * * * * * * * * * * * * * * * * * * * * * * * * * * * * * * * * //

dimensions      [0 2 -2 0 0 0 0];

internalField   nonuniform List<scalar> 
2186
(
0.850877
-0.671168
-0.26431
1.11376
-0.60574
0.00585212
0.630051
-1.66775
-1.31025
1.41714
1.39306
-1.52161
-1.7234
1.2015
-0.932588
1.23528
1.24074
-0.597241
-0.150079
-0.266263
1.63077
-0.278629
1.21466
-1.66265
1.20661
1.08575
1.42351
0.901693
0.992483
1.2031
-0.238262
1.20669
-0.233237
-0.0911885
-1.52182
0.581268
-0.0390909
1.6357
0.133117
0.0898944
-1.71591
-0.243838
-1.11984
-0.412892
1.2216
1.40725
0.210137
0.441303
-0.327707
-0.422563
-0.238301
1.2611
-1.07554
1.60421
-0.321164
0.964209
-1.20643
0.995084
0.175626
0.902666
0.0609129
1.01149
0.954387
0.152234
0.96319
0.375587
1.05577
1.51391
1.41442
-1.28569
-1.65693
-0.0994633
1.45082
1.04317
1.43787
1.21035
-0.212523
1.2372
-1.5436
-0.137948
0.0952673
0.19577
1.20057
1.00487
1.18678
1.2003
1.55352
-0.170365
-0.102172
-1.565
0.973311
-0.313888
1.05768
1.30563
1.21627
0.84198
-0.425426
0.969431
-0.505751
1.01498
-0.0699925
-0.0290821
1.00995
1.09243
1.24217
-0.281371
1.54111
-0.71431
0.973951
-0.68943
-0.161841
-0.424507
0.46162
1.62329
-1.37616
-1.95752
-0.0889634
-0.614934
-1.56747
1.44015
0.462204
-0.334279
1.2253
-0.720627
1.23814
-0.0540616
-0.499505
1.2089
-0.710161
0.604767
1.48941
1.30829
0.0748893
0.595389
0.0971075
-0.362496
0.929519
-1.0371
0.180137
-1.57628
1.1773
-0.461904
-1.64985
0.661368
1.035
1.0873
-0.761542
-0.620634
0.575682
-0.344632
-0.416932
0.516983
1.23989
1.25229
1.09418
0.455704
1.56914
0.859042
0.79687
0.319368
-1.5734
-2.02859
1.2315
1.0373
-0.113554
-0.343135
-1.5105
-1.52083
-0.215819
-0.124347
0.79197
1.02561
1.24219
1.1645
0.850421
0.358272
-0.713997
1.23333
-2.31815
1.21375
-1.48373
1.22345
-0.265012
0.948449
0.942705
-0.752463
-2.43034
1.47516
0.198821
-1.79593
-1.19959
1.48832
0.114195
1.04731
-1.57022
-0.860844
0.556213
1.41621
1.41852
-0.256605
-1.68209
-1.07515
-0.118615
1.22549
-1.53994
-0.487242
-1.60836
-0.660674
1.21217
-0.0240187
0.462005
-0.160929
1.604
1.20068
1.28537
0.981404
1.51514
1.21331
0.907752
1.423
0.351271
-2.09097
-0.274322
0.571843
0.0195537
-0.502693
-0.533103
1.39011
1.26947
-1.6126
-1.43048
-0.787949
0.251113
0.623908
0.867155
0.90647
1.17108
-1.05668
0.914127
-1.5967
-0.453994
-1.92576
1.355
1.11494
1.48828
1.37014
1.45151
1.43769
-1.61561
0.815787
1.38544
-1.65393
1.34505
1.15647
-0.736903
-1.54154
-1.54618
1.49221
1.25047
-1.75846
-0.595494
-0.50102
0.972655
-0.51748
1.11462
1.39579
0.979697
-1.56186
-0.237426
1.16732
0.994956
-0.46836
0.274497
1.61999
-0.474298
-1.62877
0.96337
1.25298
1.18781
-0.561924
0.0934174
-1.0122
1.22941
-1.69189
0.470865
1.1669
1.09918
-0.437623
-0.427715
1.22474
-1.58977
0.984928
1.26253
1.2442
1.2407
-1.03356
-0.314413
-1.65012
-0.0096808
-0.687916
0.0998707
0.253909
-0.909307
1.01071
1.23396
1.54095
1.24422
-0.89172
1.40512
-1.72706
-0.071598
-1.83148
-1.56966
-1.79223
0.240999
-0.399609
-0.320383
0.625883
1.23298
0.576085
0.814906
-0.387878
-0.152483
-1.78338
-0.447609
1.4397
0.468997
0.372587
-0.314494
0.771081
0.944856
0.311004
0.534616
-0.795806
-1.78396
1.0571
1.2279
1.42161
-1.11521
1.37387
0.895179
0.806821
1.32362
1.23462
1.10396
0.338787
0.421622
-1.58747
1.22047
-0.321742
-1.54838
-1.83348
-2.02225
-1.57873
1.66692
-0.756685
-0.230507
-1.64245
1.23273
-0.778892
-0.511411
-0.285197
0.736646
0.372723
-2.2628
1.51632
1.57028
1.18184
-1.66451
0.326372
1.68653
1.2333
-1.13785
0.869051
-1.60521
-0.00682523
1.45736
1.31795
0.991814
1.43617
-0.757958
0.352961
0.597842
0.075831
-1.90622
-0.267084
0.153662
1.63334
-0.330244
-1.20011
1.23007
0.517646
-1.54724
-0.847828
-1.59344
-0.445128
-2.00815
-1.56187
-0.282336
-0.517897
1.35491
-0.259436
-2.09325
1.22579
-1.93296
1.3451
-2.21937
-1.19726
-0.163677
1.2073
-1.43334
1.24835
0.848414
-1.1027
1.15727
-0.231654
-1.56508
-1.70009
1.0489
1.11064
-1.56577
-1.59961
-1.87365
1.3228
-2.18454
-0.848085
0.928637
1.24579
1.01101
0.776308
-1.57857
0.139087
1.14092
-0.397761
0.90749
-0.462185
1.23301
0.453594
1.20605
-1.56406
0.852821
1.05801
1.25616
-1.69751
1.2393
0.144093
-1.56299
1.21073
-0.812829
0.627296
-1.91623
0.454675
1.23521
0.0432205
0.174825
1.24742
0.692528
-0.206544
0.0638919
-0.229377
0.199611
-1.75769
1.0776
0.0208503
1.42255
1.19099
-1.61333
-1.56958
0.145208
-0.242274
0.854583
-1.74266
1.21429
-0.105117
-1.74546
1.38752
-0.0443794
0.807803
0.149401
0.475118
1.18104
0.783699
-0.137911
0.00455813
-0.0976261
-0.311459
1.23666
-0.349247
1.25259
1.31608
1.30883
1.04026
1.50984
-0.537451
-0.271641
1.04597
0.063628
1.22992
-0.304607
-1.80848
-2.44985
0.862685
-1.56278
-1.22298
-0.262424
-0.289685
-0.225019
-0.570398
1.11
1.05598
0.241721
-0.419868
0.727671
-0.130934
1.48337
-0.210665
0.331337
-1.56489
1.14824
0.401497
1.23811
1.69694
-2.19188
-0.516619
-1.32227
0.778695
-0.551085
1.07749
-0.356997
1.02485
1.0969
-1.55201
1.19088
1.15124
-1.22772
1.0141
0.086342
-0.281802
-0.10503
-1.49366
0.105718
-0.977247
0.194721
1.20827
0.669987
-0.476191
0.528432
1.35393
1.29601
-0.627055
0.817553
-0.210802
0.758841
0.728785
-0.0324196
-0.330272
0.912341
1.17009
1.38496
-0.475406
-1.59053
-1.80285
-1.56738
-0.377268
0.71243
-1.17984
-0.60455
-1.90365
1.294
-0.263158
1.21385
0.105346
0.133719
1.12154
0.704908
-1.37428
0.337787
1.21777
1.39192
1.2353
-0.25187
-0.433477
0.819497
0.189346
0.807723
0.141883
0.869573
1.21659
-1.82234
-0.225718
1.34693
-1.72492
1.55864
-0.00609403
0.880451
-0.188953
0.606528
-1.45999
1.40388
-0.245261
0.154907
1.32814
0.936237
0.908024
-1.86083
-0.239565
-0.352485
1.09771
-0.253887
0.146691
0.0600243
1.23605
0.82244
-0.398474
1.108
1.25323
1.23154
-0.528815
-0.178409
-0.336339
1.22723
1.50734
0.402913
1.22199
-0.295818
1.15339
-0.146353
-0.794519
0.314452
1.08409
1.15073
-2.40145
1.23232
-0.23812
1.15812
-0.675715
1.36023
1.03321
1.23844
-0.339516
1.26756
0.234577
0.158524
1.34741
-2.12213
0.0108493
1.41243
-1.1325
1.44709
-1.58937
-0.270208
1.4016
0.777786
1.47713
1.21172
-0.347056
1.13535
1.39296
-0.492071
1.0433
-0.019811
-1.46616
1.65717
-1.58552
1.45571
-0.430037
0.196183
1.21173
-1.97762
1.23526
-0.281655
1.29348
1.11718
1.21628
-0.780055
-1.86046
-1.02576
0.607058
0.728659
1.18116
0.689382
1.20988
-0.833963
0.293478
-1.93801
0.8587
1.21162
0.0984386
-1.557
0.119848
1.48661
-0.0964151
1.12728
-0.0491251
-0.232027
-1.63146
-0.290111
0.177487
1.13275
-0.984649
0.547081
0.219675
-0.750958
-0.27608
-1.81052
0.53218
1.22124
1.2366
-1.88005
-0.391189
1.22727
1.09934
1.23262
-0.0128169
1.22836
1.18998
1.19321
1.1069
-0.99023
0.706434
-0.221477
1.02644
1.20011
0.681746
-0.0264511
0.275785
-0.946089
0.118813
1.3522
0.726827
-0.385811
-0.90508
0.782173
-1.68749
1.16141
-1.59421
-1.94633
-1.5542
1.23532
1.21172
1.24319
-0.500893
0.798269
1.31266
0.258794
1.19902
0.531544
-0.474871
1.14356
1.24014
1.44485
0.107708
1.22961
1.22404
0.0733244
0.76607
1.24287
1.25142
1.2426
-1.56634
-1.59417
1.24068
0.567833
1.21399
0.67096
0.381005
-0.0932867
-0.209264
0.504092
-0.316871
-0.728213
-0.480276
1.25042
1.25574
1.09903
-1.5667
1.23603
0.409232
0.139509
-0.284297
1.20387
1.24135
1.24155
1.26145
1.24223
1.23845
1.2336
0.0836523
0.0477758
0.194621
0.154686
-0.130965
-0.178403
-0.146599
0.276623
0.402836
0.52777
0.815642
1.19612
1.22345
1.21687
1.2446
1.24541
1.24036
1.24765
1.21002
1.24103
0.456999
0.175067
1.24401
1.23909
-0.109246
1.24062
1.24292
0.172156
-0.493785
0.560928
-0.756304
-0.482898
1.22773
-1.69977
1.2172
0.684288
1.14724
-1.58427
1.21345
1.20964
1.13165
-0.228014
-0.372597
-1.79882
0.663055
0.45553
-0.245111
1.2464
-0.216331
1.3107
1.23395
0.335533
1.52446
1.64954
-0.0849395
1.19293
0.635301
1.22839
1.24561
1.22585
-1.57664
0.911289
0.0787454
1.23054
1.23189
-1.74676
-0.497123
1.23415
0.0992732
0.204435
1.23022
-0.173379
1.23047
1.24568
-0.866748
1.2279
-0.469094
1.22121
1.3554
-1.47115
1.22952
1.23896
-0.155932
1.06466
1.21679
1.23493
0.66561
-0.163122
0.691273
1.45504
1.24192
1.22064
1.23322
-0.7411
1.22416
1.19456
1.23791
1.22802
1.23271
1.21995
1.36308
0.281042
-1.65154
1.22448
1.22755
0.745715
-0.0829438
0.00961869
0.18843
1.16956
-1.00564
-0.220526
-0.573522
1.22447
0.729448
-0.474415
-0.0984108
0.109943
0.468432
-0.195029
-0.59575
-0.797564
-0.209918
0.195309
1.2285
-0.774723
1.21698
1.19746
-1.55904
1.57454
0.399398
-0.179443
0.842625
1.49018
0.890835
-1.56255
1.23664
-0.405618
1.22921
0.199273
1.22743
-1.84157
1.22363
-0.386121
0.054804
1.23212
1.24229
1.24847
-0.235842
-1.5662
0.0417088
-0.271985
1.23587
1.189
-0.306831
1.22981
1.26578
1.23159
-0.263454
-1.80411
-1.04324
-0.91362
0.287465
1.23766
-0.188567
1.22148
-0.896699
1.22934
1.26791
1.23154
0.0446151
0.139169
1.254
-1.65668
1.23284
1.23857
-0.16692
-1.69398
1.32306
1.46007
1.22026
1.2315
-0.283139
-0.558875
1.16827
0.312386
1.23354
0.855761
-0.887187
-1.64372
1.15459
1.40544
1.23413
0.233508
0.0271251
-0.251001
-0.828652
-0.487935
1.18665
-0.0586268
1.23002
-1.1698
-1.57396
-0.539921
0.889468
-1.5958
0.0310327
-0.960802
1.22284
-1.55519
1.29746
-1.59938
-0.442223
-0.332384
-0.58528
-0.967664
1.22343
-0.227536
-1.38752
-0.819038
0.193022
1.19406
-1.09398
-0.489575
-0.316773
1.40786
0.223533
-1.59154
1.29591
1.19218
1.17462
0.469647
-1.39971
1.24123
1.2797
0.0938761
-0.392838
1.22048
0.792225
1.56951
1.24939
-0.47091
-1.28125
-0.385755
-1.92396
-0.875464
-1.56151
0.149144
-1.68973
0.799913
-0.249091
1.21926
1.49581
1.23165
-1.56349
-1.6654
1.22551
-1.33775
-0.88858
1.17872
-0.298164
-0.937934
-1.19569
-0.0961252
1.22588
1.20507
0.184504
0.955036
1.08829
-1.0887
1.18434
-2.20684
1.14351
-0.335536
1.09025
-0.942713
0.355995
1.22485
1.45913
-0.288999
-1.94922
1.15187
1.59662
1.24795
1.38989
-1.34885
1.32494
-1.52022
-0.627195
-1.3262
0.386399
-0.469684
1.3442
1.25258
-1.61268
0.192251
1.2311
0.161397
0.901848
1.25862
1.24603
-0.172173
1.22902
0.0488074
1.24606
-0.0838826
-0.514339
0.383537
1.23009
0.102423
0.0938103
-0.135627
1.15498
-0.6679
1.52619
0.124356
1.64071
1.36766
0.194451
1.17618
-0.310872
1.23905
1.22439
-0.477527
-0.529554
1.47433
1.23202
1.56604
1.21856
-0.0697541
1.23375
1.18264
1.20107
1.2388
-1.57179
-0.582353
-1.437
1.26384
-0.0239455
-1.07241
-0.26798
0.00359718
-0.126979
-0.298389
1.26529
-0.218086
1.13635
1.17496
-0.408166
-1.34915
0.185703
-0.94781
0.153986
-0.305704
1.24615
-0.772879
1.24639
1.34843
1.27723
0.402177
1.2543
1.20768
-0.332391
1.12916
1.23259
-0.945827
1.22948
1.32724
0.151456
0.164652
1.62897
-0.867991
-1.45652
-1.73795
0.0870616
1.17666
-1.07907
0.335974
-0.240887
1.39394
-1.28613
1.25321
1.265
1.17226
-0.453316
1.13198
-0.619449
1.2469
1.25972
0.167996
1.24628
0.955265
1.17803
0.727169
-0.604087
-0.343311
-0.283286
0.140119
1.54327
0.118503
1.28739
1.67241
0.320372
0.113096
1.28388
0.167241
1.28026
0.169163
0.391635
1.29366
1.29794
0.32738
-2.06232
1.17646
-0.207476
-0.372719
-0.102445
1.2582
1.17535
1.53584
-1.56276
-1.30277
0.724129
-1.79256
1.34402
1.33207
1.15879
1.23181
1.14578
-2.09614
-1.55705
-2.05429
1.17979
1.21256
-0.596267
-0.340152
-1.58749
1.23487
1.22125
-0.0277746
-1.65655
1.26969
-1.21687
0.717357
1.19121
1.31833
0.650929
-1.80457
0.409803
-1.86826
-0.304813
-1.34911
-1.12382
1.46443
1.69301
-0.842878
-2.02531
1.23762
1.21215
-0.723253
-0.234372
-0.692847
1.08426
1.34402
-1.53807
1.24112
-0.950613
-1.77549
0.194899
-1.23116
-0.320956
1.16368
-1.94546
-1.39124
1.65866
-1.85628
1.24028
1.54466
-0.358285
1.09498
1.33301
-0.598278
1.59547
-1.8019
-1.7747
1.35159
-0.274329
1.0603
1.23798
-1.7536
1.23708
0.0043048
-1.84207
1.28383
1.08081
-1.44768
-2.17908
1.24036
1.23368
-1.65257
-0.468492
1.62922
-1.71362
1.21058
-0.0811283
1.10041
-1.53252
-1.37803
-1.60606
-0.657309
1.4674
1.20975
1.37462
1.56377
1.36806
1.30104
1.4404
-1.59497
1.50152
1.21326
-0.463099
-1.68472
-0.969347
1.66253
-0.998177
-1.71948
-0.051018
1.33378
-0.503106
-1.004
1.40476
1.06765
-1.61992
-0.360516
-1.6859
-0.677501
-0.627142
-0.545418
-1.58527
1.2942
0.91372
-0.273935
0.121005
-1.38493
1.25369
-1.70931
-0.735811
-1.57802
0.977741
-2.32924
-0.393048
1.41844
1.05171
0.377179
1.27701
-0.30102
1.01994
1.25727
1.30407
1.28941
0.492986
1.11841
1.38599
0.123964
-1.57174
1.65667
1.11983
1.01306
1.22976
-0.427659
-2.13902
0.961134
1.1817
1.15397
-2.36473
-1.62422
1.19849
-1.56606
0.918604
0.107999
1.72621
-1.56773
1.16419
0.72464
-0.225787
-1.56495
0.163983
1.14361
-0.236438
-1.55521
0.680584
1.06541
-1.78092
1.31819
0.89927
-0.251803
-1.32275
1.25465
-2.24484
-1.5635
-1.64555
-0.251331
-0.691746
1.27903
1.19826
-1.32534
0.578477
1.22494
1.61322
0.170879
0.787031
0.55683
0.921726
-0.795625
-0.223261
-0.91545
0.0357311
-0.22257
1.25201
-0.282472
0.69264
-1.56257
1.0079
0.516109
-0.228116
0.611645
-0.874947
0.424303
-0.23305
0.944256
-0.228601
0.290317
-1.56471
0.872862
-0.238623
0.82844
-2.45244
-0.245915
-0.256834
-1.55046
1.24521
-0.0971365
-0.280262
-1.57007
0.577842
0.650448
-0.278434
-1.55548
-0.314629
-0.366809
-1.58434
0.436687
-1.6267
0.256315
-0.38206
-0.59506
1.20926
0.156532
-2.51819
1.26058
0.547833
-0.0689246
0.402103
1.16453
-0.165729
-1.63336
-1.56741
-2.01674
1.00922
1.69769
0.0911425
0.252784
-0.151238
-1.89526
0.317369
-0.644722
1.26632
-0.967709
1.13413
0.140761
1.76041
0.462179
1.5183
-0.329167
1.26945
0.0516519
1.09047
-0.715604
-1.56713
1.13347
1.19267
-0.370612
-1.55794
-0.248552
1.30511
-0.0733221
1.23321
0.218401
-1.6088
-1.60832
1.55378
1.33331
1.18074
1.30807
1.23628
0.0981276
-0.616812
1.56052
-1.97074
-2.04823
1.72056
-0.359345
1.20813
1.06676
1.57904
1.57297
-0.33451
-2.04664
1.24231
0.121307
-0.818724
-0.227491
0.344592
-1.24424
-0.370725
0.593444
-1.54837
1.28114
-0.196219
1.41338
1.4412
1.34954
0.286093
-1.52783
-1.70267
1.3017
-1.65798
1.53545
-0.137998
-1.33491
1.58517
1.40205
-1.57789
0.610067
1.13095
-1.81912
-0.954682
0.6884
1.6169
1.37325
-0.470446
1.19309
1.24267
-1.55198
1.37598
0.777948
-0.299668
-0.570496
-0.256506
0.180512
1.46548
-1.68675
0.759238
-0.478277
0.0664341
-2.00348
-1.55919
1.25986
-0.331467
1.32915
0.46149
-0.0864172
0.740008
0.204423
-1.55137
-0.0213921
-1.83814
0.674931
-0.848442
0.207428
1.32333
-2.51932
-1.54146
1.33652
-1.83497
-0.468956
1.23858
-1.61083
1.35225
-0.478018
-1.56046
-0.571067
0.845135
-1.28854
-1.9245
0.967921
-1.60089
1.26374
-1.001
-1.54287
-1.99364
-1.56216
1.58732
-1.22014
1.24741
-0.712627
1.15404
1.44911
0.754281
1.1806
1.52073
0.485477
-0.309341
1.15357
1.18901
1.49881
-1.89601
1.31847
1.10123
-1.83248
0.80514
1.28601
0.00657464
1.67894
0.654335
-0.906939
0.85322
-1.77481
-0.250431
1.11554
0.103435
1.2585
1.10704
1.27067
-0.780205
1.26766
1.61233
-0.660906
0.26544
-0.8617
-0.55376
-1.61986
-1.55991
1.44307
0.744284
-0.624292
0.933742
-1.73127
-1.59544
1.35476
1.5805
-0.162632
-2.12998
-1.564
-1.5834
1.12529
-0.569535
-0.0581076
-0.289017
0.201095
1.27429
-1.66705
1.7117
1.30772
0.96659
1.30453
1.6464
-1.47151
-1.70099
1.15643
1.248
-1.66213
1.20384
-1.37549
-1.60107
-1.63531
1.45785
1.48428
-1.61398
-0.579013
0.528762
-0.230303
0.192038
1.24909
1.35313
-1.81036
1.38726
1.42337
-1.82699
-0.482249
-0.690931
-1.59075
-1.63007
1.41578
-0.72549
1.31335
-0.521234
1.39628
1.19045
1.27234
1.29591
-1.79943
0.109239
-1.58184
0.978559
-0.375836
0.94399
0.159203
0.122606
1.22875
1.04652
1.27217
1.27658
0.24497
1.25963
0.188799
0.362344
1.16033
0.0151054
-0.444994
-0.321287
-0.11628
1.23673
1.00179
1.23506
-2.09511
-1.30787
-1.57492
-0.212969
1.24542
1.61977
1.25746
-0.409551
-1.40956
-1.56698
0.0270004
-1.56192
-1.56528
0.333774
1.26092
-1.12068
-0.260838
-0.746339
-0.322102
1.14524
-0.831458
-1.57075
-1.68525
1.2852
1.62999
-0.88179
1.29615
1.7116
1.0935
1.50945
-0.492865
0.0330138
1.49142
-1.56663
0.228523
-0.343701
-1.63715
-0.25068
-0.228808
1.10893
0.712611
1.55
1.51733
-0.0924701
0.77372
0.565141
-0.691563
-1.56375
1.31727
1.14633
1.25029
1.26719
0.439491
0.173148
1.25053
-0.254489
-1.56938
-0.241399
-0.256195
0.593045
-0.221025
1.15475
0.637068
-1.56489
1.3102
-0.430612
0.222683
1.18782
-1.64246
-1.75333
-1.99088
1.03855
-0.284862
-0.0469181
1.30919
1.25845
-0.0364279
-0.0702571
-2.32175
-1.56253
-0.92837
-0.0958781
-0.381147
0.548902
-1.57994
-0.220503
1.60444
0.744445
0.83262
-0.223792
-1.64968
1.22441
1.09354
0.977914
0.468144
-0.229354
-1.96254
-1.19298
0.911532
0.353289
-0.235155
1.16386
0.642193
-0.241192
1.73735
-0.249686
-1.63025
-1.62637
-0.197155
0.848047
-0.265439
-0.621602
-1.57293
-0.208121
-0.294524
0.515873
-0.901766
0.040373
1.51073
-0.34201
-0.452688
-1.60567
0.358774
1.66923
1.50783
1.57903
1.23551
1.56031
-0.143908
1.23024
-0.448922
1.09438
-1.56845
-1.505
1.34742
-0.967025
0.469707
-0.0471685
1.55375
0.504663
1.48402
1.0366
1.14318
-0.312944
-0.379
-1.56777
-0.0488399
1.51984
1.51684
1.23662
0.659397
1.21734
0.878653
1.22124
-0.245828
-1.57373
0.758445
-0.558743
1.20042
1.24485
-0.249906
-0.349997
-0.243666
-1.947
-1.56744
-0.250414
1.43707
1.26156
1.23826
0.244935
0.215243
1.24719
0.375218
-1.56257
-1.61112
-1.84016
1.18971
-0.267687
-0.230289
-0.603748
1.28133
-2.315
-1.6226
1.22064
0.560704
0.796658
1.23106
-1.5634
1.25827
1.3293
0.843353
-1.56294
1.20109
0.238517
0.910191
-1.43393
-0.235376
1.69822
0.19167
0.192994
-0.0789359
1.28512
1.29018
-1.97674
-2.09891
-0.35763
-0.00960626
-1.46488
-0.628565
-0.304239
1.23006
-0.545293
1.27072
1.42195
1.14917
1.2993
1.43161
1.48054
1.23217
-1.90135
-1.11131
0.141416
-1.65675
-1.30129
-0.234214
1.45849
1.40584
-1.72707
1.09913
-1.28717
-0.730881
-0.244653
0.482177
0.535881
-1.75985
1.23184
1.29379
-0.0106161
-0.760712
1.56488
-2.16794
-1.13665
-1.65768
-0.655617
-0.220222
1.23936
1.16927
1.20001
-1.82376
0.248901
-1.4973
0.19004
-1.74718
-0.529075
-0.914283
-2.42232
1.29102
-1.17538
1.55694
-0.462091
-0.905319
-1.59592
-0.235581
1.05763
-1.61722
-1.74239
-1.5082
-0.460128
1.54531
1.3425
-1.99076
0.24002
1.21232
-1.58534
-1.33873
1.23099
0.202494
-0.172094
0.11492
1.15149
-0.702905
-1.7728
1.23094
0.596895
-0.0764634
1.25959
-1.29
-1.41489
-0.589261
-0.300383
-0.21193
-1.7694
1.64086
-1.56811
0.0695446
-1.56647
1.18871
-0.187457
-1.4594
1.07115
0.824196
1.26864
1.13477
1.48635
-0.253958
0.953762
0.553513
-0.882357
1.25646
0.17002
-0.196818
-2.38401
1.29626
1.29022
-0.044647
-1.34426
-1.70811
1.38716
-1.08193
0.625397
-1.75331
-0.243293
1.60626
1.3712
-0.345483
-0.770132
-0.369161
-0.288605
1.20048
-0.467677
1.34522
0.707698
1.12211
1.22499
-0.243976
-1.21295
1.31036
-0.235779
-0.604316
1.49454
-1.57955
-0.288049
1.21972
-0.723139
-0.688708
-0.356251
-1.87119
1.54513
-0.979878
0.0624343
-0.360998
1.39181
-0.413155
-0.820959
1.06711
-1.6122
-1.57015
1.49857
1.09274
1.04864
-0.648663
1.57712
0.544899
-1.17821
-0.58915
-0.588599
-0.430021
1.60424
1.0092
-1.61769
-0.395646
-1.82264
1.44354
-1.08442
1.36629
-1.56793
1.09359
-0.24632
0.83288
0.977335
0.947513
0.877594
0.0385627
-0.968381
1.36173
-0.567543
-0.105967
-1.58231
0.192466
1.41299
-0.474999
-0.715343
-0.448959
-0.257726
0.740925
-0.462165
-0.239166
0.850011
0.0872463
-0.317327
1.48556
-1.79554
-1.5566
1.53499
-0.276499
0.6426
-1.13556
-0.23813
-0.231449
1.45963
-0.243851
1.43424
-0.22627
-1.06306
1.48882
-0.360281
-0.890335
1.00066
-1.90774
0.525329
-0.653896
-0.248328
0.874043
-1.61282
-0.259834
-0.236366
-0.242174
-1.56951
0.924247
0.374323
-0.588095
-0.330062
1.47289
-1.4108
-0.720847
-0.239225
-0.421655
-0.351148
-0.244641
-0.302979
-0.226315
1.58906
-0.445663
-1.5557
-0.517919
-1.07566
0.30197
-1.57644
1.56273
1.51829
0.869799
-1.20565
-1.56745
0.796458
-1.56341
1.59499
0.692749
1.12554
1.11522
1.37524
0.591235
-0.365788
-1.33428
0.455977
-0.572323
0.458042
-0.340217
-0.234722
1.48328
-0.39535
0.701663
-0.498005
-1.5375
-1.11881
)
;

boundaryField
{
    frontback
    {
        type            empty;
    }
    Top
    {
        type            zeroGradient;
    }
    outlet
    {
        type            fixedValue;
        value           uniform 0;
    }
    bottom
    {
        type            zeroGradient;
    }
    Inlet
    {
        type            zeroGradient;
    }
    rectangle
    {
        type            zeroGradient;
    }
}


// ************************************************************************* //
