/*--------------------------------*- C++ -*----------------------------------*\
| =========                 |                                                 |
| \\      /  F ield         | OpenFOAM: The Open Source CFD Toolbox           |
|  \\    /   O peration     | Version:  2306                                  |
|   \\  /    A nd           | Website:  www.openfoam.com                      |
|    \\/     M anipulation  |                                                 |
\*---------------------------------------------------------------------------*/
FoamFile
{
    version     2.0;
    format      ascii;
    arch        "LSB;label=32;scalar=64";
    class       surfaceScalarField;
    location    "45";
    object      phi;
}
// * * * * * * * * * * * * * * * * * * * * * * * * * * * * * * * * * * * * * //

dimensions      [0 3 -1 0 0 0 0];

oriented        oriented;

internalField   nonuniform List<scalar> 
3181
(
-1.09965
0.430198
0.669451
-0.439158
0.40807
0.031088
0.580214
-0.400754
-0.179459
0.141759
-0.230748
0.0889891
0.0428023
-0.0735916
0.0307893
0.0943567
0.250704
-0.345061
0.168377
-0.161274
-0.00710375
0.0684762
0.00766347
-0.0761396
0.55164
-0.970218
0.418578
-0.0733211
0.159218
-0.0858969
-0.00997622
-0.0440431
0.0540193
0.200374
0.0265963
-0.22697
-0.0170177
-0.0564431
0.0734608
-1.11059
0.14525
0.965344
-0.356279
0.785266
-0.428987
-1.11637
0.627366
0.489003
0.086926
-0.931957
0.845031
-0.188148
0.100042
0.0881063
0.714665
-1.18633
0.0385029
-0.0190861
-0.0194168
0.00383613
-0.0657714
0.0619353
-0.0415715
0.0443263
-0.00275481
1.0796
-1.04758
-0.0320259
0.0522329
0.0373561
-0.089589
-0.959652
0.318582
0.64107
-0.116996
0.258755
0.32144
-0.221274
-0.100166
0.033731
0.0714353
-0.105166
-0.375039
0.306114
0.0689244
-0.0309919
-0.0337231
0.0236241
0.010099
-0.0270185
-0.932633
-0.0229937
-0.0591593
0.0821529
-0.151816
0.905114
-0.753298
-0.0397265
0.040535
-0.000808535
0.167401
0.249032
-0.416433
0.670768
-0.822584
0.0597562
-0.0559201
1.3425
-0.743572
-0.598927
-0.125395
0.219751
-0.153832
0.136814
-0.0386092
-0.00296226
-0.466884
0.110606
-0.0947174
0.0561082
-0.59857
0.135246
0.463324
-0.172678
0.099357
-0.19206
0.197075
-0.00501444
-0.299437
-0.0861587
0.385596
0.309848
1.12896
-1.43881
0.0167606
-0.0135515
-0.00320909
0.00477975
-0.088133
0.0933325
-0.0051995
0.54885
0.236416
-0.0992934
0.114221
-0.0149278
0.113803
-0.136797
-0.192892
0.222971
-0.0300785
0.182796
0.0704986
-0.253295
0.124496
-0.131229
0.00673272
1.04918
0.293321
-0.893726
-0.205923
-0.00680436
-1.63973
1.64653
0.517094
0.205529
-0.722622
-0.416835
-0.180879
0.597713
-0.458408
0.333013
-0.242194
0.759288
-0.357027
-0.114086
0.471112
-0.192978
-0.18206
-0.209356
0.15597
0.0533869
0.0896631
0.303108
-0.392771
-0.489903
1.04154
-0.0280121
0.0964882
-2.07579
2.06899
0.223415
0.098025
-0.206034
-0.116459
0.322494
-0.275631
0.331926
-0.056295
-0.0947878
0.102982
-0.00819411
-1.76595
-0.918821
0.0066608
0.91216
-0.0567107
0.0169843
-1.00788
0.690235
0.317644
0.206427
-0.0812974
-0.12513
-0.54544
0.087032
1.10452
-0.959275
-0.659028
1.16583
-0.200482
1.07751
0.141269
-0.182784
0.041515
0.405988
-0.155284
0.162895
-0.162895
-0.00777145
-0.0028
0.0105714
-0.24101
-0.0555353
0.296546
-0.0331389
-0.00915195
0.0422909
-0.45109
0.867487
-0.416397
0.0129685
-0.278512
0.265544
-1.0939
0.046324
0.312791
0.0554547
-0.368246
0.141056
-0.80582
1.01135
-0.0344921
-0.0318427
0.0663347
-0.0177451
-0.175147
-0.191679
-0.249732
0.441411
0.0252926
-0.216972
0.104618
-0.910437
0.353994
-0.805084
0.927595
-0.840669
0.126038
-0.064976
-0.0610615
0.0651091
0.0465868
-0.111696
-1.32497
-0.262651
1.58763
-0.279104
0.449724
-0.17062
-0.219579
1.06911
-0.849535
-0.427522
-0.580356
-0.0185026
0.0352632
-0.173222
0.166646
0.00657682
-0.0737128
-0.00149783
0.0752106
-0.778217
-0.192001
-0.183586
0.0451097
0.138477
-1.66593
0.458287
1.20764
1.8259
-0.696935
-0.0246082
0.0168368
0.0740596
0.149355
-0.182086
0.349487
0.0772652
0.00688082
-0.084146
0.12268
0.061406
-0.184086
0.24254
-0.0161937
-0.226347
-0.597877
-0.518491
-0.642241
-1.02369
0.0410892
-0.0755812
-0.127239
0.207933
-0.0806935
0.0543921
0.0276704
0.140707
-0.0600178
0.0875139
-0.0274961
-0.11112
-0.0273126
0.138433
0.0871417
-0.0871417
-0.206842
0.234513
0.23172
0.0637136
0.11857
0.104401
-1.3389
0.849
-1.39751
0.0871923
1.31032
0.0430966
-0.03875
-0.00434656
-0.0238487
-0.0451247
0.0689734
0.5705
-0.00345849
-0.567042
-0.0417179
0.0415096
0.000208329
-0.223672
0.0168294
0.154618
0.712868
-0.391379
0.545998
-0.0075697
-1.3174
0.0965072
-0.0537049
0.53196
-0.334688
-0.197273
-0.0816366
0.0743512
0.00728538
0.0541846
-0.353622
0.0252273
-0.944048
0.0534278
-0.180667
-0.32303
-0.443185
0.0419759
1.26644
-0.850232
-0.416212
0.989822
0.276622
0.0756596
0.309936
0.0396729
0.00342365
-0.189368
0.0591413
0.130227
-0.266067
-0.562063
0.82813
-0.395563
1.12065
-0.399352
-0.786981
0.252607
-0.00629043
-0.0123419
0.0186323
-1.85716
0.770968
1.08619
-0.590355
-1.26681
-0.287327
0.600118
-0.90673
-0.0228159
0.0015547
-0.242588
0.241034
1.27903
-1.40548
0.126451
0.0435071
0.0530001
0.547234
-0.813301
0.0142291
-0.0120578
-0.0021714
-0.278241
-0.0988535
0.377095
0.246316
-1.01322
-0.0806782
0.0435095
-0.0629263
-0.507085
0.326206
-0.223945
0.0177404
0.206204
-0.073861
0.117368
0.0768808
-0.0768808
-0.103733
0.112746
-0.00901362
-0.240306
-1.1572
0.120568
0.0371946
-0.157763
-0.151617
0.132987
0.0186302
-0.202941
-0.00641507
1.18805
-0.428371
-0.759677
-0.224288
0.489768
-0.26548
0.0189532
-0.0187773
-0.000175915
0.823018
-1.0426
-0.170029
-0.00382652
0.173855
-0.200235
0.289898
-0.0881279
0.0865444
0.0015835
0.0703573
0.0135526
-0.0839099
-0.113818
0.163995
-0.050177
-0.538516
0.114736
0.42378
-0.246356
-0.055979
0.302335
-0.719123
0.662255
0.0568675
-0.0138926
0.0512487
-0.0499347
0.0529433
-0.00300863
-0.0340025
-0.0555865
1.09619
0.729707
0.182759
-0.866526
0.683767
0.046649
1.81728
-1.86393
0.417875
-0.0853318
0.248226
0.0405084
0.183574
-0.0608945
-0.0624667
-0.0256663
0.266958
0.135676
-0.0705673
0.740721
-0.422139
0.0668125
0.229733
0.0309109
-0.141787
0.110876
-0.830791
-0.132225
0.963016
-0.0347601
0.0347601
0.0668783
-0.250534
0.499566
0.0111398
-0.257496
0.0208558
0.0791863
-0.0390775
0.0801666
0.118248
-0.128224
-0.346863
0.359831
0.00981493
0.11825
-0.128065
0.434012
-0.407415
0.436611
-1.02313
0.586517
-0.229447
0.305106
0.204619
-0.539307
-0.218007
0.648205
0.185382
-0.0388231
0.0388231
-0.0946298
0.343439
-0.24881
0.424966
0.0247582
-0.0404512
0.0446632
-0.00421201
-0.0350517
-0.183807
0.000220508
-0.0457782
0.164026
-0.161458
0.218364
-0.0569056
0.108315
0.0273612
-0.413424
0.19215
0.167078
-0.0587633
-0.040473
-0.0476549
-0.0739715
0.0762835
-0.00231198
0.166729
-0.117933
-0.0487954
0.0167974
0.359802
-0.376599
-0.147014
0.119002
0.0911651
-0.0950284
0.00386326
0.0221159
-0.266036
0.702646
-0.0790362
-0.00650565
0.0855418
-0.0828454
0.0255389
0.0573065
-0.0763715
0.100531
-0.721341
0.62081
-0.0332634
-1.43554
-0.0727055
1.50824
0.842241
1.22547
-2.06771
0.0944176
-0.297198
0.281005
0.245743
0.239192
-0.484934
-0.198625
0.229536
0.16259
-0.932937
0.770347
0.0178073
-0.100653
0.0202891
0.0232204
-1.00927
0.451934
0.557338
0.850232
-0.745614
-1.5848
1.32214
-1.27903
1.36622
0.0466143
-0.0615421
-0.00456137
-0.0453734
0.0225167
0.85573
-0.69314
0.140944
-0.0875161
0.424024
0.741802
0.0126299
-1.58149
1.62814
-0.799591
-0.539312
-0.236846
-0.361724
-0.0102007
-0.184569
0.238753
-0.585248
-0.415432
0.191144
0.851183
-0.280682
-0.853415
-0.73138
0.729993
0.115665
-0.0978573
0.319148
0.0443999
-0.0443999
0.674263
0.144637
-0.8189
-0.221589
0.895852
0.702867
-1.68634
0.983475
0.0126943
0.0510193
0.00496813
0.0107912
-0.0157593
-1.63973
-1.12524
0.428305
0.992233
0.195814
-0.0396412
-0.152419
-0.302218
0.851068
-0.178009
-0.0459352
-0.00373145
-0.0910564
-0.0426179
0.0892047
0.356025
-0.220779
-0.807161
-0.258833
-0.0548284
-0.10173
0.156559
-0.794438
0.709107
-0.117023
0.157191
-0.0401677
0.0485042
-0.00883126
-0.214679
0.151902
0.0627766
0.0135448
0.457567
-0.0489961
-0.0326406
-0.0220812
-0.0284823
0.0505636
-0.0160871
-0.153941
-0.687117
0.343426
0.343692
0.574016
-0.699384
0.125368
0.124942
-0.144272
0.0193304
0.018915
-0.0374176
0.16965
-0.332545
-0.153599
-0.0610798
0.0612692
-0.026006
0.133873
-0.315959
-0.74862
1.35008
-0.601457
0.0337394
0.104464
0.0622649
-0.830791
-0.487364
-0.0511522
0.19194
-0.0400381
0.0403544
-0.635529
-0.0835939
0.055951
0.111127
0.937755
0.0832167
-0.475988
0.138132
0.321084
-0.265629
-0.140509
0.0293893
0.228353
0.825184
-1.05354
0.101006
-0.737988
0.636982
-1.0047
0.87247
-1.37519
0.452288
0.9229
-0.0189301
0.0193476
-0.000417534
0.144582
-0.422823
0.193193
-0.11458
-0.078613
0.0658744
-0.0403355
0.116829
-0.171657
0.0421207
0.01212
-0.0461225
0.0232517
0.0528254
-0.0760771
1.54511
-0.00198337
0.000912573
0.0010708
0.115082
0.00392075
0.855719
-0.0435223
0.0965224
-0.690967
-0.434273
-0.0884283
0.101123
0.00844934
0.0960143
-0.9229
0.332545
0.0374644
0.091979
-0.129443
-0.227188
0.0444041
0.117462
-0.0759471
-0.00184543
0.104827
-0.0340544
0.234153
-0.982773
-0.0230848
0.0463365
0.73637
-0.247367
-0.0918416
-0.0597755
0.310386
0.00369507
-0.0441463
-0.00939244
0.0965341
0.156832
0.175093
0.153525
-0.301144
0.147618
0.123379
0.58949
-0.0646868
-0.107991
0.948855
-0.216496
-0.732359
-1.37519
0.0942634
0.479753
0.670768
-0.642469
0.792234
-0.149765
0.347616
-0.0744641
-0.273152
-0.0850634
-0.460376
-0.0571037
0.0567145
0.000389172
0.0590626
-0.207315
0.148252
0.150076
-1.11032
0.960242
0.0436773
0.646806
-0.690483
-0.0499439
-0.123278
-0.00528594
-0.0737503
0.37701
-0.47164
-0.0171827
-0.00174735
0.00422764
0.040677
-0.0449046
-0.0588066
-0.130561
0.00859463
0.0399095
-0.150995
0.0860189
0.0467865
0.00615684
0.179882
-0.458394
-0.725306
1.95077
0.00951214
0.025248
-0.997004
-0.0162174
0.17597
-0.0836335
-0.0568756
-0.0399128
0.0541419
1.03166
-0.190992
-0.840665
0.0158079
-0.104236
-0.936894
-0.0223814
-0.00252697
-0.646953
0.747484
-0.0201988
0.205581
-0.471525
-1.21482
0.177658
-0.476886
0.299228
-0.104907
0.111787
0.0103228
-0.0110357
0.000712939
0.0144663
-0.128284
-0.0243579
-0.150789
0.764204
-0.663198
-0.105939
0.0799785
-0.17583
0.285235
-0.131709
0.167691
0.977709
0.343659
-1.32137
-0.108531
0.126272
-0.496512
-0.190606
-0.578943
0.658169
-0.637723
-0.0204462
-0.074532
-0.0314067
-1.58149
0.505197
-0.505197
-1.24844
1.24844
0.85573
0.440612
-1.14186
0.701252
-0.900456
-0.0965487
0.584033
-0.334663
-0.24937
0.192152
-0.272845
-0.0170535
-0.00755468
-0.843413
-0.0670242
-0.932954
0.211613
0.000960886
-0.102691
0.698613
-0.127236
-0.571377
0.399511
0.271257
-0.0026447
0.0129675
-0.968919
-0.878122
-0.145006
-0.0853377
-0.551903
0.637241
-0.141686
-0.787601
-0.617879
0.21149
-0.809367
-0.963016
1.40455
-0.441534
-0.157546
0.308903
-0.151357
-0.00758775
0.706201
-0.0953487
-0.999759
0.999759
-2.12702
1.65718
0.469841
-0.00609541
0.00411203
0.158677
-0.413286
0.758494
-0.0682594
-0.0722733
-0.0406685
0.11277
0.00896582
0.00998742
1.99211
-1.53982
-0.309758
0.380115
-0.595136
0.93606
-0.340924
0.0209559
-0.174555
0.110634
-0.0492275
0.404791
0.0100702
-0.0665133
0.345599
0.0142034
0.0397643
-0.226125
0.186361
0.157539
0.0395355
0.0867848
0.164706
1.69124
0.377748
0.590894
0.274129
-0.865023
-1.1152
1.88616
0.222612
-0.166504
0.0824179
-0.769729
0.687311
1.03151
0.163291
-0.510154
-0.0752188
0.151278
-0.0760587
0.159658
-0.234877
-0.414528
-0.0925572
-0.0610222
0.0634409
-0.00241869
0.00969287
0.0370936
-0.0997745
-0.0370227
0.69314
-0.636982
-0.0561578
-0.323481
0.334621
0.868862
0.594026
-0.24641
-0.0280082
0.0652028
0.13574
-0.147798
0.190678
-0.619565
0.428887
-0.0104753
-0.000560441
-0.318497
0.923483
-0.604986
0.00912963
-0.0138595
0.00472989
-0.0224502
0.0159468
0.00650343
-0.342088
0.186803
-0.278578
-1.15696
-0.175336
-0.745614
1.36622
1.32214
-0.215222
-0.195757
0.139778
-0.0544273
0.0591283
-0.00470103
0.386121
0.61862
-1.00474
0.505757
0.0782757
0.00051087
-0.0109861
0.108901
0.707836
0.0406685
-0.0283834
0.00529861
-0.171339
0.307079
0.0523292
-0.0914067
-0.306313
0.740325
0.989822
0.0798117
-0.0705114
0.00192237
0.068589
1.52701
-0.20487
-0.0691164
-0.0621124
-0.903221
0.157607
0.554883
-0.308566
-0.459171
-0.10658
0.565751
0.778579
-0.337781
-0.440798
0.819641
0.212016
-1.62814
-0.0115854
0.0274226
0.0186341
-0.0460567
0.0397499
1.77753
-0.206803
0.211771
0.117093
1.95839
-0.592165
-0.692566
0.0726639
0.619902
0.349585
-0.014312
-0.330207
0.548965
0.860128
0.835578
0.0868458
-0.0245808
-0.781078
-0.253585
1.03466
1.03198
-0.0609249
0.0388437
-0.0420396
-0.340352
0.0820526
-0.280678
1.16145
-0.183743
-0.110125
0.0355926
0.077288
-0.719757
-0.0282346
0.014342
0.125391
-0.169103
0.0437119
-0.329795
0.346171
-0.0163765
1.19906
-0.855399
-1.54558
0.710398
0.835179
0.152243
-0.165597
0.0133549
0.243274
0.0419603
-0.498457
0.0110925
-0.637798
0.637798
1.64653
0.399511
-0.737988
0.348903
0.511225
-0.408235
0.159425
0.856037
-0.35028
0.00274668
-0.854141
0.851395
0.159692
-0.000474284
0.0271396
-0.554502
0.0560457
0.0799184
-0.177891
-0.135912
0.313803
0.271343
-0.55866
0.380768
-0.983878
-0.264075
-0.635051
-0.094986
-0.00107616
0.00198873
-0.219091
0.174702
-0.0181431
0.0384807
-0.124665
0.0861842
-1.59791
-0.529106
-0.00658112
0.0780164
-0.846683
1.29286
-0.446178
-0.61721
0.419937
-0.230232
0.348482
0.253942
0.0271984
-0.00690932
-0.571278
0.142907
0.0297402
0.0614249
-0.170648
-0.00518138
0.183756
0.00943677
-0.398024
1.25584
0.376894
-0.280373
0.869948
-0.78753
0.72875
-0.418364
-0.564797
0.151512
0.144421
-0.78427
0.745934
0.0383362
0.844637
0.316815
-0.190896
-0.118861
0.0445108
-0.0536628
0.956698
-0.837637
-0.119061
-0.157892
0.087325
0.0303346
0.136311
0.87602
0.381281
-1.33088
0.949598
-0.347006
-0.0684264
0.538285
-1.38497
0.352241
1.23538
0.686815
-0.287304
0.18065
0.559912
-0.740562
0.0898076
0.044105
0.0284168
-0.00121835
-0.483712
-0.0810855
-0.0560276
-0.0178335
-0.165814
0.120035
-0.576551
0.311071
-0.991318
-0.755743
-0.275205
-0.339558
1.36082
-0.0504988
-0.266244
0.299801
-0.47114
-0.246403
0.269952
0.0756467
1.22487
-1.0748
-0.16642
0.107657
-0.522102
0.150899
0.371203
0.0391385
-0.0117159
0.0425013
-0.0635508
-0.266244
-0.145915
0.697399
-0.407919
-0.28948
0.0736897
0.153352
-0.109934
-0.0434181
0.234525
0.0354266
-0.422761
-1.64495
-0.0859415
0.126296
1.11683
-0.735548
-0.131114
0.18842
-0.0101138
0.0325408
-0.022427
0.0041659
-0.0429159
-0.22043
0.078643
0.0483452
-0.60923
0.451684
0.00483295
0.0341865
0.118056
-0.6893
1.03009
-1.21383
0.0159853
-0.172599
0.156614
-0.129103
-0.558385
0.687488
0.0965113
-0.73204
-0.860708
-0.68487
-0.0578829
0.00223824
0.0556447
-0.284088
-0.658169
-0.172622
-0.169347
-0.781078
-0.207889
0.146994
-1.07424
-1.03075
-0.270047
0.179177
0.0908702
0.289054
0.13275
0.333249
0.25058
-0.58383
0.155527
-0.0398624
0.803782
0.442346
-1.24613
-0.233603
0.750794
1.13537
-0.218674
0.161768
-0.66744
1.41823
0.0277859
-0.277518
-0.0264319
0.0489486
-0.0301378
0.301988
-0.582361
0.685806
0.0927722
-0.472837
0.70699
0.236544
0.619494
1.00339
-0.0545316
-0.0133206
-0.686815
-0.635051
-0.714552
0.721213
-0.136462
-0.853415
0.646806
0.635101
-0.934186
0.584318
-0.0138162
-0.770454
-0.313595
0.635217
-0.789523
0.154306
0.091552
0.0618
0.792749
0.319152
0.965513
-1.28467
-0.00836245
0.00728629
-0.23952
0.193585
0.731728
0.246017
-0.229188
-0.205149
1.79928
-1.341
-0.177895
0.879146
-0.14773
1.00462
-0.856894
-0.831261
0.577676
0.688619
0.604242
0.196226
1.35382
-1.03466
-0.00267883
0.201758
-0.0621906
-0.0381828
0.214153
0.00727259
-0.0446914
0.0374188
-1.01479
-0.0387447
0.332802
-0.803303
-1.39697
1.86524
-0.46827
0.352009
0.58405
-0.0582655
0.062456
-0.00419047
-0.0275791
1.82686
-0.716859
1.67335
0.331693
-1.72866
0.285535
-0.0837772
-0.587161
-0.404156
-0.674596
0.526866
-0.0673672
-0.867958
-1.62367
-0.240256
1.35382
0.0475416
-0.850845
0.829947
-0.643485
-0.186462
-0.981924
0.394763
0.0175604
0.136304
0.00067694
-0.136981
-0.971512
0.567355
-0.238567
0.91076
-0.933141
0.174734
-0.190821
-0.086418
0.220291
0.558446
-0.160104
0.040061
-1.3544
0.0330317
1.93729
-1.10171
-0.55376
-0.51733
1.07109
0.44624
0.0197389
-0.0089477
-0.729228
0.690483
1.65859
-1.68617
-0.248226
0.424832
-0.176605
1.96452
-0.0992823
0.78573
-0.816722
-0.493125
-0.450923
-0.470766
-0.500746
0.802725
-0.802725
0.681686
-0.681686
-0.729228
-0.511864
0.511864
-0.424832
0.594355
-1.17665
0.455789
-1.56792
1.56792
1.65859
-1.68617
0.78573
0.770398
-0.770398
0.816722
0.759476
-0.759476
0.506875
0.529234
0.48267
0.0906668
-0.499254
-0.549077
1.07831
-1.98422
-1.15443
0.479832
-0.310046
0.998665
0.332354
0.0341241
-0.0776464
-0.888119
0.104173
0.783946
-0.161895
0.151694
-1.00028
0.578141
0.976662
-0.627759
-0.130879
0.0150011
-0.0218732
-0.784028
-0.0824988
-0.557338
0.0189689
0.00425148
1.26985
-0.206648
0.16661
0.164903
-0.00628698
-0.00755635
0.0138433
-0.807995
0.0654233
0.742572
0.865057
-0.306611
-0.544149
0.390804
0.153345
0.918622
-0.736056
-0.182567
0.0771505
0.272336
-0.0128331
-0.0481891
-0.0408631
-0.0162406
0.350647
-1.14508
-0.796951
0.107605
-0.732226
0.797676
-0.0654498
0.126525
-0.899499
0.772974
-0.800964
0.909778
-0.108814
-0.0750156
0.0791815
0.019921
-0.262509
-0.121833
0.648699
-0.103397
-0.784722
0.920025
-0.0970194
-0.823005
0.194425
-0.173469
0.555012
0.815226
-0.466894
0.428241
-0.349966
0.110952
-0.895674
0.822584
0.425852
-0.783983
0.0135291
1.01865
-0.892121
1.20124
0.861706
0.634041
-1.49575
-0.873391
-0.12689
-0.381884
0.00528488
-0.774709
-0.0659562
-0.786615
0.786615
-0.571111
-0.0928998
-0.864881
0.128825
-0.860673
0.775335
0.0659415
-0.180521
-0.0652593
0.0772362
0.0102777
0.194875
0.823771
0.816879
0.766849
0.146307
-0.913156
0.266983
0.731681
-0.778784
-0.11648
0.895264
0.187646
-0.904506
-0.670006
0.891123
-0.780171
-0.116263
0.459069
-0.0548413
-0.404227
0.0396666
0.191234
-0.2309
-0.441633
-0.509566
0.9512
-0.895047
-0.8324
0.100174
0.480072
0.248679
-1.96259
0.341654
-0.54306
0.54306
-1.15217
-0.202232
-0.175037
0.231082
-0.304951
1.01535
0.774643
-0.225503
0.360014
-0.17321
-0.644043
-0.753823
1.39787
-0.124413
-0.574971
-0.135187
1.12869
-0.098427
0.0472748
0.0433458
0.280389
-0.203239
0.777672
-0.886486
0.350117
0.381565
-0.163371
0.741513
0.555299
-0.555299
-0.0768295
0.0679982
0.0955413
-0.0570606
-0.0210043
0.212238
0.00755131
0.00281269
0.00977908
-0.0125918
-0.654707
0.697348
-0.0426404
1.46138
-0.827342
0.117375
-0.897546
-0.930766
1.24678
-0.316014
0.136519
0.878816
0.227277
1.23411
-0.751239
0.587207
-0.670801
-0.625017
0.128506
-1.47138
0.0289567
0.159567
-0.834065
-0.63732
0.0122389
-0.891504
0.083349
0.714327
0.704879
-0.117672
0.0843948
0.771324
0.66687
0.990539
-1.65741
-0.222301
0.544754
0.553605
-1.0117
0.768432
0.243266
-0.686654
-0.122713
1.98887
-0.587639
0.115999
-0.048454
0.486713
0.513287
-0.767777
-0.118709
-0.814107
0.172015
-0.00465302
-1.33184
0.399855
0.600145
-0.141453
0.145374
-0.864797
-0.0899274
-0.580873
-0.18547
-0.264021
0.44949
-0.032076
-0.00197846
0.0993065
0.0647198
-0.129565
-0.0908653
0.751926
-0.631658
0.716053
-1.44242
0.608356
0.77555
-1.34921
0.573662
-0.750373
-0.204895
0.955268
-0.269088
0.255205
-0.0254724
0.0432112
0.074157
0.0150777
0.663613
-0.120553
0.149451
0.104491
-0.737595
0.0828873
0.166618
-1.52882
0.248781
0.337735
0.132655
-0.297199
1.039
-0.0126589
0.203497
-0.0864048
-0.0153537
0.0620221
-0.0968964
0.287062
-0.120444
0.294522
0.807515
-1.10204
0.852101
-0.0366102
-0.000611542
0.0372218
0.115292
-0.0171795
-3.25906e-06
0.248267
-0.122876
0.426968
-0.731919
-0.468527
0.763049
0.0117549
0.324651
-0.541697
-0.836566
1.06698
-0.230419
-0.780307
0.849673
-0.0693661
-0.421252
0.511592
-0.483806
-0.0461522
0.266058
-0.437607
-0.106542
0.288629
0.486188
0.200655
-0.686843
0.431759
0.0595595
0.637788
-0.576336
0.53898
0.0373557
0.584782
-0.831185
0.0525916
-0.061062
0.0084704
0.688729
-0.00964123
-0.0841565
0.0219521
1.47394
-0.467412
0.0461597
-0.0300811
-0.174184
0.00858618
-0.0617404
0.124504
-0.0627633
0.0253439
-0.0180713
1.12503
-0.682687
0.137384
0.245564
-0.0293253
-0.112138
0.201236
0.104712
0.00072215
0.0613039
0.772078
-0.421499
0.939543
-0.518044
1.31054
0.243623
-1.55416
0.644778
0.146343
0.0252649
0.0584424
-0.0837073
-0.436741
-1.21506
0.461237
0.0124444
0.717548
0.696006
0.00242062
0.327618
0.465131
0.832424
-0.0694643
0.237155
-0.838822
-0.0137555
-0.277323
0.576399
-0.191355
0.681772
0.0903061
0.0114735
0.450625
0.0609667
0.0370315
0.158416
0.052841
-0.118612
0.424136
-0.0546861
-0.0436317
-0.0855782
0.217368
0.061032
1.24951
-0.171
-0.240342
-0.0851835
-0.113187
0.0213915
6.47279e-05
-0.0214562
-0.788553
-0.0426318
-0.0232679
0.768653
-0.239511
-0.606854
0.609968
-0.0031147
0.645285
0.764659
-0.454449
1.02811
0.072551
-0.158969
0.61882
0.145839
0.636982
0.0721248
-0.242708
0.67095
-0.441255
0.320811
-0.63156
0.349307
0.282253
0.3086
-0.0717081
0.0476103
0.0513275
-0.0410091
0.998679
0.738075
0.0943495
0.594409
0.233721
-0.856203
-0.0790955
-0.661682
0.675211
-0.0161546
-0.640813
0.455343
0.892381
0.67838
0.148558
-0.0433977
-0.201798
-0.308356
0.948657
0.0814287
-0.858414
-0.052966
-0.421406
0.742217
1.16445
0.0431944
-0.0687938
0.606705
-0.762229
0.946332
-0.184103
-0.412162
-0.219398
0.059877
-0.0687748
-0.162113
0.62657
-0.0386812
0.0101989
0.6302
0.640987
-0.303252
0.588452
-0.13552
0.267272
0.674073
0.241958
-0.916031
0.278689
-0.922174
-0.21614
-0.997688
-0.199495
0.795157
-0.595662
-0.650964
-0.0435272
0.0867383
-0.0525638
-0.551957
0.0481452
-0.058259
1.06929
-0.0485507
-0.155178
0.203729
-0.00321815
-0.585248
0.140392
0.063105
-0.355314
-0.0107584
0.00447139
-0.812254
-0.0512748
-0.571475
-0.00486044
0.56707
0.325311
0.543586
0.964656
-0.271505
-0.37876
0.650265
-0.543594
-0.616263
0.616263
-0.18769
-0.861452
1.04914
0.0273909
-0.135922
0.704034
-0.136964
-0.236441
-0.392279
0.508278
-0.161297
1.29097
0.268139
0.152162
-0.110186
-1.50725
0.48671
0.0522694
0.0294627
0.0302935
-0.862275
-0.537848
-0.479044
0.693453
0.306547
-0.537848
0.693453
-0.831687
0.125764
-0.831687
-0.69621
0.69621
0.30379
-0.016108
0.144688
-0.07168
0.18559
0.0136018
-0.433604
0.647178
-0.0587253
0.683667
-0.504539
-0.179128
-0.0766438
0.0818781
-0.0052343
-0.0220877
0.0249003
0.127289
0.0215865
-0.0122235
-0.436726
-0.321912
0.102821
0.0543712
0.8473
-0.287388
0.0177252
-0.488865
-0.00478184
-0.0125052
-0.0203878
0.662946
0.0546027
0.159053
0.0516808
-0.00111722
0.00496297
0.0891548
0.58677
-0.472504
-0.114266
0.986542
0.529506
-0.989569
0.832081
0.00983124
-0.0549559
0.0944601
-0.351508
0.161429
1.03375
-0.359676
0.0114397
-0.106426
0.757425
-0.413169
0.0274299
-0.0274299
0.0139227
-0.0139227
0.0360006
-0.0360006
0.00951214
0.363758
0.452033
-0.0795738
-0.782141
0.501459
0.212891
0.0353761
-0.0777518
-0.489411
1.03753
0.108272
-0.794926
-1.38583
0.171011
0.158211
0.0161387
-0.000191984
-0.00439776
0.00439776
0.835298
-0.006636
0.006636
0.701058
0.0680056
0.0404291
0.0112516
0.00773617
-0.0782476
-0.0262743
0.0262743
0.0211835
-0.0211835
-0.0182359
0.0182359
-0.00600861
0.00600861
0.118043
-0.286486
-0.0934744
0.225845
-0.00737706
0.00737706
-0.367372
0.537728
-0.170357
0.54898
-0.240077
0.676408
-0.658683
0.566861
-0.141949
0.05585
0.554118
0.567859
-0.00650718
0.00650718
-0.324753
0.0197852
-0.0197852
-0.00827732
0.00827732
0.718796
-0.796409
0.038008
0.922992
0.000491249
0.00499574
-0.00499574
-0.0247869
0.0247869
0.0156554
-0.0156554
0.0274725
-0.0274725
-0.0194753
0.0194753
0.0302046
-0.0302046
0.46032
-0.0271289
0.0271289
-0.00499248
0.00499248
0.0203564
-0.0203564
0.0172819
-0.0172819
0.00629885
-0.00629885
0.0809765
-0.0193961
0.0193961
0.656123
-0.0102413
-0.0340679
0.0340679
-0.0142732
0.0142732
-0.0472473
0.0472473
0.0287123
-0.0287123
0.0297209
-0.0297209
0.00493102
-0.00493102
0.016323
-0.016323
-0.381802
-0.717032
0.0204301
-0.0204301
-0.00457495
0.00457495
-0.033026
0.033026
-0.0321815
0.0321815
-0.011915
0.011915
-0.376592
0.613135
0.322377
-0.0278265
0.0278265
-0.0347548
0.0282026
-0.0282026
-0.00422234
0.00422234
0.0429302
-0.0429302
0.131956
0.1052
-0.0175046
0.0175046
-0.02764
0.02764
-0.52551
0.0509164
-0.707812
-0.0361975
0.0361975
-0.468042
0.0401399
0.0223161
-0.486739
0.0139021
-0.0319911
0.0319911
-0.176863
0.122177
-0.0476062
-0.00404642
0.00404642
0.0327942
0.0291411
0.258886
-0.331707
-0.313997
0.645704
0.229372
0.0178322
-0.0178322
-0.600618
0.537499
0.0631183
0.812761
-0.429194
-0.383567
-0.421438
-0.66788
-0.340201
-0.148665
-0.610452
0.388151
-0.571704
0.00235199
0.193196
-0.521536
0.00862409
-0.00862409
-0.00304769
0.00304769
0.0268069
-0.0268069
0.0302406
-0.0302406
0.00475022
-0.00475022
-0.00248725
0.00248725
-0.0664553
-0.014842
0.204419
-0.335298
-0.00747656
0.00747656
-0.0518271
0.0518271
-0.0352482
0.0352482
0.176664
-0.107907
-0.0687567
-0.029091
0.349331
-0.588843
0.00998218
-0.00998218
0.0672751
-0.0672751
-0.070899
-0.652179
0.311978
-0.00320019
0.00320019
0.0951969
0.0206618
1.03051
-0.477884
-0.054146
0.53203
-0.651632
-0.745097
-0.0296116
-0.0447233
0.0447233
-0.693012
0.30621
0.0437093
-0.0437093
-0.598263
0.348893
0.291716
0.123982
0.0020767
-0.0020767
-0.768046
8.79705e-05
-8.79705e-05
0.294096
0.412105
-0.0192266
-0.0473126
0.0473126
-0.0035759
0.0035759
-0.0371074
0.0371074
-0.0621518
0.0621518
-0.000982831
0.000982831
-0.0687286
0.0687286
-0.00201105
0.00201105
-0.0401223
0.0401223
0.0106065
-0.0526206
0.0526206
0.0058003
-0.0058003
0.0424187
-0.0424187
-0.0028993
0.0028993
0.0548214
-0.0548214
0.221763
-0.00393135
0.00393135
-0.00461821
0.00461821
-0.0614926
0.0965341
-0.0093481
0.0093481
0.00450485
-0.00450485
-0.0525563
0.0525563
0.280178
-0.0158515
0.0158515
-0.0672088
0.0672088
-0.00783373
0.00783373
-0.0597795
0.0597795
-0.0150824
0.0150824
-0.0718538
0.0718538
-0.0188466
0.0188466
-0.110921
0.110921
-0.668446
-0.296462
-0.504039
0.500925
-0.787601
0.110759
-0.61672
0.425365
-0.0936006
0.16729
0.00349289
-0.00349289
0.139265
-0.760901
0.0313462
-0.00105271
-0.531886
0.803143
-0.220681
0.28496
-0.0464432
0.00299553
-0.432445
-0.548783
0.0994218
0.387947
-0.999933
-0.00566131
0.00566131
-0.80404
0.0273065
-0.0273065
0.0150941
-0.0150941
0.294358
-0.126444
-0.0030003
0.0030003
0.0219847
0.0168383
0.594765
0.230761
-0.0226992
-0.0117061
-0.00161443
-0.0715085
0.458576
-0.387067
-0.0699719
-0.0652152
0.0242472
0.750971
-0.0149276
0.0800225
-0.402181
0.407466
-0.456327
-0.99612
-0.321284
-0.0583975
0.0157797
-0.858119
0.348552
0.0703577
0.00296278
0.0144298
0.750609
-0.59132
-0.0198668
0.0727078
-0.0284986
-0.214422
0.359111
0.443214
0.219042
-0.18913
0.243979
0.024285
-0.0107324
-0.352893
-0.0206329
0.00871268
-0.163891
-0.0220839
-0.969438
-0.0692059
0.25074
-0.343791
0.357994
0.248962
-0.58852
0.0452063
-0.155917
-0.0175513
-0.329992
0.483337
-0.00255261
-0.171782
0.174335
-0.0227751
0.0227751
0.154911
-0.401321
0.0736415
0.0593454
-0.0624243
0.0462697
-0.0767619
-0.0102542
0.0870161
-0.0369542
-0.141225
0.00248018
-0.122539
-0.306221
-0.389237
0.695458
0.00918743
0.0475271
0.158285
-0.00883446
0.00562523
0.0503501
-0.137422
0.281842
-0.00105387
0.0382757
-0.0469534
0.205239
0.0044598
0.236574
-0.0138976
0.0138976
-0.319616
1.48406
0.0710529
-0.150148
0.0227269
-0.164413
-0.0206453
1.25475
-0.130717
0.0538358
-0.527817
0.0237778
0.310572
0.0636757
-0.629071
0.278791
-0.0661332
0.407447
-0.713668
0.211099
0.557332
-0.080776
0.080776
0.00067694
-1.10804
0.6289
0.479143
-0.188948
0.136384
-0.074699
0.32062
-1.17602
-0.148685
0.0493468
-0.0539082
0.931114
0.460239
-0.311681
-0.0667707
-0.954955
-0.773707
-0.0713983
-0.32164
0.870605
0.625678
-0.276347
-0.394591
0.719242
0.451514
0.34072
-0.277772
0.097842
-0.485269
0.314913
0.146297
-0.146297
0.15847
-0.0190614
-0.139409
0.00511437
0.00784681
0.0325408
0.163427
-0.600167
0.257134
-0.190484
-0.0666497
0.578679
-0.977556
0.406826
-0.841099
0.713258
-0.146591
-0.188707
-0.067348
-0.0785666
-0.457619
0.0208938
-0.259812
0.000627387
-0.0220839
0.346331
-0.00547338
-0.0112467
-0.00136845
0.0145464
-0.00663499
-0.00791139
-0.117596
-0.0170521
-0.151433
0.168485
-0.156322
-0.328948
0.0219847
0.341424
-0.00779806
-0.340618
0.0654134
0.0015493
0.00349078
-0.0830646
-0.00987277
0.00987277
-0.000210077
-0.00360347
-0.0107487
-0.000900254
-0.149055
0.00119811
-0.00123937
0.133362
-0.0792205
-0.00317916
0.00317916
0.102805
0.541139
-0.000753384
-0.326798
0.503233
1.05214
-0.486314
0.367932
-0.435434
-0.0958215
0.169463
0.265084
-0.259778
-0.0634415
0.0182301
-0.00315238
0.00657497
-0.196783
-0.42758
0.929039
0.192369
-0.258824
0.147977
-0.00149228
0.364188
-0.227669
-0.00341564
0.0015762
0.0166539
0.4434
0.00104185
0.000167521
0.680405
-0.630055
-0.237797
-0.658192
0.454657
0.000352613
-0.00118157
-0.0476062
-0.00647663
0.817077
-0.431023
0.483292
-0.307029
0.906692
-1.20608
0.630359
-0.204994
0.658523
0.000550286
0.00299506
0.0131437
-0.106963
0.143583
-0.149103
0.00931568
-0.00585285
0.0532369
-0.0350869
-0.01815
-0.000327565
0.110577
-0.144741
0.034164
-0.0872736
0.0101758
-0.000396736
0.00262114
0.437239
-0.407245
-0.0200278
-0.00193283
1.15314
-0.524239
0.426015
-0.00518426
0.000998727
0.389159
-0.251775
-0.0254648
-0.15313
-0.0280883
-0.00325713
0.09105
-0.0420598
-0.000123394
0.441229
-0.00122896
-0.00335481
0.00335481
-0.00720834
-0.00449779
-0.00272633
-0.326235
-0.00329979
0.0637891
-0.106515
0.736237
-0.0259842
-0.066023
-0.00250562
0.00068686
0.498675
-0.00267352
-0.00205778
0.0619348
-0.00185917
-0.00198264
0.0782154
-0.0706641
-0.710561
0.48745
-0.91503
-0.303626
-0.000375701
-1.11076
-0.0421604
0.0855062
0.607399
-0.0174285
0.150402
-0.00360329
-0.00129058
-0.547172
-0.00301493
-0.00102822
-0.0413288
1.08297
-0.651207
-0.00229637
-0.00088825
-0.00524369
-0.00103206
0.0648944
-0.0256004
0.0256004
0.0464352
-0.0500387
-0.00332887
-0.00722326
-0.0773871
0.0661404
-0.143213
0.0715053
-0.00724865
-0.0120743
0.054382
-0.0121278
0.0514889
-0.0357092
-0.624117
0.558667
-0.0448231
-0.00101196
0.503682
-0.286314
-0.0843801
-0.730504
-0.0958466
-0.143253
-0.0834912
0.0816321
0.638135
-0.00119643
-0.0399196
0.038738
0.00824357
0.0385899
-0.151412
0.112822
-0.0752078
-0.614017
0.918672