/*--------------------------------*- C++ -*----------------------------------*\
| =========                 |                                                 |
| \\      /  F ield         | OpenFOAM: The Open Source CFD Toolbox           |
|  \\    /   O peration     | Version:  2306                                  |
|   \\  /    A nd           | Website:  www.openfoam.com                      |
|    \\/     M anipulation  |                                                 |
\*---------------------------------------------------------------------------*/
FoamFile
{
    version     2.0;
    format      ascii;
    arch        "LSB;label=32;scalar=64";
    class       volVectorField;
    location    "45";
    object      U;
}
// * * * * * * * * * * * * * * * * * * * * * * * * * * * * * * * * * * * * * //

dimensions      [0 1 -1 0 0 0 0];

internalField   nonuniform List<vector> 
2186
(
(1.38436 -0.0718701 2.06731e-19)
(1.83701 -1.04544 -1.77422e-19)
(1.64537 -1.0175 -3.62812e-21)
(0.844856 -0.68908 -1.32047e-19)
(0.288608 -0.476965 -1.2145e-19)
(0.223698 -0.0224456 0)
(0.832538 -0.767952 0)
(-0.343215 -0.423066 2.01567e-19)
(2.17844 0.154918 2.62695e-19)
(0.641011 -0.451907 -2.92943e-21)
(0.587909 0.523395 0)
(1.21812 -0.288552 -2.24341e-19)
(-0.418568 -0.524146 -8.39111e-20)
(1.22291 0.0161676 -3.81694e-19)
(2.05176 -0.723899 -1.74385e-19)
(1.00467 -0.0120141 1.84387e-19)
(0.978679 0.0104796 0)
(-0.447541 0.0807896 0)
(0.485262 1.00234 0)
(-0.228678 0.0597804 -2.02438e-20)
(0.475186 -0.0869454 -1.19401e-19)
(-0.112872 0.166362 2.9156e-20)
(1.20438 0.0198225 3.16148e-19)
(-0.302512 -0.157012 6.30857e-21)
(1.04258 -0.00587957 -2.4888e-19)
(0.897467 -0.659704 0)
(0.7765 -0.133124 1.46073e-19)
(0.707901 -0.684944 -1.45708e-19)
(1.10172 0.629985 0)
(0.973866 0.0205455 -3.39547e-19)
(-0.138363 0.041659 0)
(1.03251 -0.0238815 1.17722e-20)
(-0.345081 -0.0942328 0)
(1.14828 0.381391 1.17126e-20)
(-0.0982704 -0.195656 2.82375e-21)
(1.40661 0.694031 1.7532e-19)
(1.03045 0.11625 -2.87087e-21)
(0.475651 -0.0334004 -3.59944e-19)
(1.64675 0.136511 4.90929e-20)
(0.314003 -0.152066 -1.63351e-20)
(-0.506426 -0.692491 0)
(-0.0499039 0.0911159 0)
(2.18739 -0.951737 1.4634e-19)
(-0.325597 -0.00159014 0)
(1.03541 0.227144 1.81175e-19)
(0.672948 -0.426385 2.72141e-19)
(1.06527 -0.901625 0)
(1.33249 -0.875663 7.64018e-20)
(2.18461 0.0469685 0)
(-0.0955416 -0.0335221 7.59248e-20)
(-0.142708 0.0188364 2.98956e-20)
(0.548565 0.504524 1.01052e-19)
(2.37155 -0.761735 1.81588e-19)
(0.5378 0.129244 -2.95957e-19)
(-0.30915 -0.270271 1.38923e-20)
(0.873385 -0.75009 0)
(1.96392 -1.09813 2.59933e-20)
(0.674211 -0.630707 0)
(1.96575 0.1506 -1.77142e-20)
(1.20686 -0.200749 -3.349e-19)
(1.87077 -0.131923 -4.36669e-21)
(1.24713 0.259239 -2.35787e-19)
(1.23501 0.470421 0)
(0.442984 0.112604 1.7897e-20)
(1.25575 0.345803 -1.57766e-19)
(1.39367 -0.821663 -9.83628e-20)
(1.06459 0.584148 7.02781e-20)
(0.674278 -0.0479205 -5.76743e-19)
(0.810313 -0.0359939 0)
(2.6209 0.228647 -7.73315e-20)
(-0.351563 -0.490517 -2.29886e-19)
(2.08492 -0.0115018 -1.9602e-20)
(0.740871 -0.157316 -2.49684e-19)
(0.978291 -0.612416 0)
(0.791903 0.0837649 -9.64681e-20)
(0.643669 -0.60728 -2.72174e-19)
(2.59016 -0.0829914 0)
(1.00733 0.00551703 3.74599e-19)
(-0.0578454 -0.26378 0)
(1.86896 0.248605 0)
(0.216351 0.242997 -1.3183e-21)
(0.50693 -0.0544173 2.57605e-20)
(1.02807 -0.00151176 4.12914e-20)
(1.21093 0.357792 3.81519e-20)
(0.983579 0.0172582 4.31637e-19)
(1.05106 0.0168646 -1.02845e-20)
(0.634043 0.0500268 -3.52313e-19)
(0.400034 -0.166938 -4.56666e-21)
(-0.167946 -0.119295 0)
(-0.0772656 -0.0841841 1.65382e-19)
(0.972244 -0.721083 -1.42091e-19)
(-0.138132 -0.201008 -2.02138e-21)
(1.1653 -0.107201 2.42208e-19)
(0.872223 -0.279814 0)
(0.980095 0.0210941 4.14501e-20)
(1.24737 0.575116 0)
(1.83893 -1.04242 0)
(1.20233 0.197382 0)
(0.106437 -0.244925 0)
(0.905707 -0.773594 2.56677e-19)
(0.223531 0.624557 -9.15294e-21)
(0.233259 0.49108 1.38786e-20)
(1.45885 0.172575 0)
(1.19028 -0.127365 -2.21407e-19)
(1.1255 0.0211765 1.85004e-19)
(-0.386817 -0.00256198 4.23264e-20)
(0.541652 0.38991 0)
(2.20174 0.0592672 -1.1588e-19)
(1.06402 -0.567986 7.30401e-20)
(0.279585 1.62929 1.06805e-19)
(1.60796 0.257345 3.91111e-20)
(-0.0386863 -0.117362 -1.27406e-19)
(0.938345 -0.851085 0)
(0.482478 0.207877 1.82593e-19)
(2.13464 0.00452115 -7.89752e-19)
(-0.450518 -1.08078 -9.81006e-19)
(1.20995 -0.685379 2.26701e-20)
(1.89422 0.0943137 0)
(-0.108331 -0.121682 -4.94271e-19)
(0.73868 -0.191377 7.7631e-20)
(1.42641 0.793878 0)
(-0.263682 0.10811 -7.24528e-20)
(0.785086 0.667239 -3.34886e-19)
(-0.679442 0.135367 2.40615e-19)
(1.02477 -0.0318027 0)
(1.26707 -0.946252 -2.85453e-20)
(0.184936 -0.316938 0)
(0.798279 -0.605006 -9.75145e-20)
(-0.572777 0.0836541 -1.19266e-19)
(0.905956 -0.825354 0)
(0.531561 -0.449928 3.93089e-19)
(0.646382 -0.574067 2.57388e-19)
(0.487749 -0.441767 0)
(1.11735 -0.885314 -9.16123e-20)
(0.269298 0.2667 0)
(-0.198789 0.0857948 -5.94851e-20)
(0.926864 -0.803763 1.19478e-19)
(2.26633 0.0751523 3.07822e-19)
(2.0191 0.106724 0)
(-0.171148 -0.2318 0)
(0.600801 0.556062 -4.30766e-19)
(2.00392 -0.638104 4.20225e-20)
(-0.200517 -0.230688 0)
(1.11436 -0.912934 -1.04233e-20)
(1.20319 -0.119356 0)
(1.12938 -0.155053 3.82e-19)
(2.14778 -0.0126143 -1.33312e-19)
(0.212887 -0.433213 0)
(1.3516 -0.619289 -4.19257e-20)
(-0.449186 0.0272056 -1.73371e-20)
(0.183704 -0.32018 0)
(1.22723 -0.91819 1.5111e-20)
(1.00798 0.00288256 -6.25741e-19)
(0.754396 -0.596624 -9.65775e-21)
(0.919841 -0.619701 0)
(1.34289 -0.818777 -6.60376e-20)
(0.597883 0.110692 2.77308e-19)
(1.13191 0.105294 0)
(1.33332 0.0855502 -4.61671e-19)
(1.34345 -0.962281 -1.04882e-19)
(-0.16059 -0.215008 -1.81517e-19)
(0.301351 -0.430581 -3.14503e-19)
(1.04594 -0.0128025 2.42512e-19)
(1.0207 -0.554207 -9.18304e-20)
(0.408122 0.778272 4.22756e-21)
(0.504048 0.809444 1.23179e-19)
(1.0553 -0.168734 2.06408e-19)
(-0.0240765 -0.00531761 -4.51267e-19)
(1.65487 -0.825715 0)
(1.58495 -0.978444 1.3406e-20)
(1.3275 0.577157 2.21739e-19)
(0.917898 -0.71739 -1.87305e-19)
(0.996095 0.00633725 1.28136e-20)
(0.828616 -0.6382 2.67805e-19)
(1.18567 0.716882 1.92799e-19)
(1.67624 0.102835 -1.67219e-20)
(0.210518 -0.540438 0)
(1.06174 0.0330374 -2.53865e-19)
(-0.0999973 0.148885 -4.3083e-19)
(0.977741 0.41784 9.59287e-20)
(0.464554 -0.10827 2.72188e-19)
(1.16849 0.0219583 -4.42762e-20)
(-0.265316 -0.148514 -4.89371e-20)
(1.18292 0.512076 -1.12556e-19)
(1.02442 0.792649 0)
(0.0723487 -0.507138 -9.10843e-20)
(-0.0204922 -0.871458 0)
(0.558842 0.465464 -3.15806e-19)
(1.83666 0.164434 6.33643e-21)
(-0.564231 -0.746799 2.95095e-19)
(-0.360877 -0.510676 -7.23602e-19)
(0.713464 -0.0492196 2.5367e-19)
(1.64243 0.31296 4.0136e-21)
(1.07117 -0.420249 -2.76655e-20)
(-0.0954318 -0.107867 0)
(-0.21009 1.70536 2.4252e-19)
(1.20041 0.874087 -8.52518e-20)
(0.82159 -0.0212285 -1.41364e-19)
(0.475847 0.442859 2.21584e-19)
(0.44301 0.188729 0)
(0.0218852 -0.555549 -3.60005e-19)
(0.0739879 0.459549 2.60114e-19)
(1.47635 -1.07545 -8.68164e-23)
(1.00413 -0.0811001 -1.92224e-19)
(-0.152032 -0.225907 6.78258e-21)
(0.300198 -0.336923 8.87849e-20)
(-0.269064 -0.26656 -3.25254e-19)
(2.0636 -0.0999347 0)
(1.09734 0.0301907 -3.45619e-19)
(2.01379 0.254456 1.28406e-20)
(1.41692 -0.686475 6.51443e-20)
(0.465965 0.187225 7.09937e-21)
(0.516612 0.188131 0)
(0.840804 0.658528 -2.01264e-20)
(0.597175 0.545034 2.21449e-19)
(1.00602 -0.660248 1.29847e-19)
(0.591441 0.390496 0)
(1.02857 -0.01285 8.32364e-21)
(0.99766 -0.764628 1.83014e-19)
(0.761023 0.327302 -5.10135e-19)
(1.31187 -0.126838 0)
(-0.133945 -0.241999 -7.53518e-19)
(-0.341202 -0.0997186 -3.67355e-20)
(1.45367 0.644892 0)
(1.53324 -1.04218 7.43484e-23)
(-0.359574 0.0613935 0)
(0.265473 -0.410597 7.18441e-20)
(0.640291 0.557073 -1.14001e-19)
(0.902579 -0.308191 0)
(-0.225585 -0.332224 0)
(2.05899 -0.444452 0)
(-0.416749 1.14183 2.67144e-19)
(1.37594 -0.986471 6.88547e-20)
(1.3093 -0.681851 4.65313e-20)
(1.13519 -0.193404 -1.49544e-19)
(1.00022 -0.795403 -1.42301e-19)
(0.221047 -0.22682 0)
(-0.878175 0.299848 0)
(1.11436 -0.591732 1.50258e-19)
(-0.208605 -0.282545 0)
(-0.0762279 -0.0197437 0)
(-0.392889 -1.08723 8.35743e-19)
(0.695673 0.575533 9.88482e-20)
(0.908041 0.702284 0)
(0.601774 0.446776 -9.56574e-20)
(0.847164 -0.139728 -2.246e-19)
(0.652027 0.459579 -2.56956e-19)
(0.506738 0.464522 -1.91099e-19)
(-0.302689 -0.486141 1.18397e-21)
(0.824777 -0.739028 0)
(0.862867 0.0927213 -3.45884e-19)
(-0.411586 -0.634613 1.02428e-19)
(0.52128 0.480316 4.4005e-19)
(0.8527 0.703419 0)
(-0.36222 1.1093 2.06821e-19)
(-0.0949895 -0.325915 5.48575e-19)
(-0.118802 -0.186261 -2.86601e-19)
(0.567857 0.465075 -1.66353e-20)
(0.969713 -0.0114791 6.11622e-20)
(-0.523346 -0.764491 0)
(1.83876 0.43267 -1.64658e-19)
(2.18713 -0.938339 -1.51909e-19)
(0.754777 -0.700838 -6.47169e-20)
(-0.471013 0.307128 4.98797e-21)
(1.09547 0.39446 2.27608e-19)
(0.808216 0.32099 0)
(1.11875 -0.212709 1.83469e-19)
(0.051358 -0.394567 -1.99026e-21)
(-0.157124 -0.135502 1.12837e-19)
(0.945978 0.0147241 -5.2999e-20)
(1.03117 0.11689 0)
(1.71128 0.142431 -1.99548e-19)
(1.71071 0.13083 0)
(0.492081 0.102522 -4.81996e-19)
(0.324737 -0.356782 0)
(-0.326539 -0.453332 4.51148e-19)
(0.753653 0.109278 0)
(0.727099 -0.629638 -1.65398e-19)
(1.16111 0.0107206 2.10999e-19)
(0.0626406 -0.288355 2.54602e-20)
(1.90145 -0.115892 2.9601e-21)
(2.36315 0.0136529 -1.80084e-19)
(1.04422 0.178296 -2.48055e-19)
(-0.432734 -0.684652 -2.01363e-19)
(1.2166 -0.958166 0)
(0.826324 0.0166886 -1.53716e-19)
(1.01584 -0.462191 -2.67519e-19)
(1.90417 -0.590179 -1.52979e-20)
(1.69608 -0.0257253 2.15664e-19)
(1.04813 -0.0216848 4.09334e-19)
(0.0453631 -0.320763 -2.57819e-19)
(1.09211 -0.518302 -1.11551e-19)
(0.233053 -0.224739 2.3388e-19)
(1.00742 -0.0128247 0)
(1.0049 -0.0113223 0)
(1.69807 -0.569513 1.3069e-19)
(-0.216748 0.0477752 -3.76609e-20)
(0.246528 -0.117841 -2.35571e-19)
(2.03187 -0.00539791 -2.05042e-21)
(1.37336 0.30395 0)
(1.46864 0.288342 1.61059e-20)
(1.08617 -0.941304 -4.1104e-20)
(2.05588 -0.552923 -1.37124e-19)
(0.995243 0.744327 0)
(0.558423 -0.543599 0)
(0.508959 0.408394 -1.96899e-19)
(1.02085 0.225078 -4.66642e-19)
(2.20512 -0.00456859 5.22419e-22)
(0.832098 0.0783821 1.4725e-19)
(0.271852 -0.347943 -7.49489e-19)
(1.05868 0.253529 -5.99639e-21)
(0.0347268 -0.58709 0)
(-0.170939 -0.24131 0)
(-0.590886 -0.992157 0)
(1.49932 -0.799922 -3.27395e-20)
(0.129138 -0.301489 -1.00052e-19)
(0.189554 -0.314761 0)
(1.16549 0.875251 -6.90698e-20)
(1.04735 0.106839 -4.74262e-19)
(0.621266 -0.0778086 6.02204e-20)
(0.96743 0.822408 1.3766e-19)
(-0.069333 -0.12089 6.26398e-20)
(0.482304 0.10009 0)
(-0.529466 -0.981845 -6.20234e-19)
(0.0925697 -0.248544 1.29737e-19)
(0.772356 -0.0674011 1.85638e-19)
(1.39652 0.852562 -9.60731e-20)
(0.703475 -1.11402 3.17152e-20)
(-0.2308 -0.207685 -2.89268e-21)
(0.856799 -0.780095 -2.96495e-20)
(0.995276 -0.00105834 0)
(1.43338 -0.112021 0)
(1.12807 0.0599188 0)
(-0.0972729 0.867557 -1.08305e-19)
(-0.500489 -0.932456 2.06599e-19)
(0.937204 0.749044 0)
(1.01165 -0.0392326 5.16431e-19)
(0.67095 0.502274 -2.60254e-19)
(0.114228 1.67533 -1.20774e-19)
(0.854519 -0.0639088 -4.17828e-20)
(0.818078 -0.74901 -1.83786e-19)
(1.26514 0.630001 -5.67969e-20)
(0.668876 -0.580402 -2.69179e-19)
(1.11476 -0.00615386 -4.79278e-19)
(0.849995 0.028429 4.43162e-20)
(1.63336 -0.147617 3.85013e-20)
(1.20822 -0.235989 7.02998e-20)
(-0.109082 -0.12355 2.46206e-22)
(0.988217 0.388826 -3.15073e-19)
(1.20604 0.540442 9.32929e-21)
(-0.165466 -0.292537 0)
(0.279703 -0.484264 2.79801e-19)
(-0.10999 -0.342275 3.15969e-19)
(-0.169391 -0.240237 -2.29615e-19)
(0.383487 0.155574 0)
(1.82292 -0.818077 0)
(-0.0180836 -0.0117748 -3.79761e-20)
(-0.325591 -0.62926 -1.07938e-19)
(1.03776 -0.0369657 1.89822e-19)
(0.273444 -0.632237 -4.04596e-20)
(1.32479 0.47386 -1.35031e-19)
(-0.401087 -0.0185573 0)
(0.951717 -0.842149 -2.37316e-19)
(0.573398 -0.201963 -1.25545e-19)
(0.236041 -0.224827 2.95932e-19)
(0.681124 0.0413972 3.43722e-19)
(0.590458 -0.0113579 1.10337e-19)
(0.589219 -0.562543 1.82294e-19)
(-0.227262 -0.276941 -2.46782e-19)
(0.571753 -0.889863 0)
(0.300019 0.189165 -2.08646e-19)
(1.02377 -0.0243638 -3.00932e-19)
(-0.34949 -0.46717 2.83189e-19)
(1.29739 0.420944 -1.89649e-19)
(-0.233209 -0.330195 -9.05922e-20)
(0.814892 -0.740423 1.00377e-20)
(0.766322 0.0943291 -2.21017e-19)
(0.895503 0.344044 2.63515e-20)
(1.21078 -0.179495 3.26319e-20)
(0.669665 -0.366007 -2.85401e-19)
(2.2295 -0.221436 -2.53236e-19)
(1.68657 -0.213369 0)
(0.998041 -0.255963 6.57693e-20)
(0.65476 0.210416 -1.41824e-20)
(1.75205 0.350332 1.91328e-19)
(0.875737 0.334623 -6.68309e-20)
(0.636167 0.0547599 -4.31461e-20)
(0.328748 0.276636 -2.74102e-19)
(-0.307123 0.255206 5.14945e-20)
(2.53306 0.433534 0)
(0.921119 0.0019259 0)
(1.00148 -0.883139 4.12937e-20)
(-0.0917354 -0.393612 -6.00547e-19)
(-0.69271 0.52053 -1.26349e-19)
(-0.137364 -0.163411 -3.87995e-19)
(-0.248547 0.0480333 -7.3193e-20)
(0.0915462 -0.559308 0)
(-0.158652 -0.210373 6.86233e-20)
(-0.546255 0.0282111 -3.30666e-20)
(0.309469 -0.329109 -2.0468e-19)
(0.844825 -0.208567 0)
(1.9224 -0.944914 6.33263e-20)
(-0.12421 -0.216347 0)
(0.998796 0.0224572 3.75722e-19)
(0.371267 -0.358675 4.33939e-20)
(0.643275 -0.55275 3.60622e-19)
(-0.151336 -0.212368 7.13463e-19)
(-0.346572 1.54453 0)
(-0.301903 0.0732255 2.22372e-20)
(1.0112 0.0140056 -1.13005e-20)
(0.00407714 -0.101797 0)
(1.0044 -0.0116191 -5.90941e-20)
(0.977744 -0.829049 -2.36006e-19)
(1.90777 -0.58799 0)
(1.00188 -0.350444 1.93948e-19)
(-0.237856 0.188525 6.04001e-20)
(-0.0725187 -0.0708163 0)
(0.0242321 -0.580711 -1.03089e-20)
(0.832866 -0.735426 -3.72272e-19)
(0.992083 -0.0289306 -2.6225e-19)
(-0.045824 -0.420066 7.29977e-19)
(-0.27163 -0.42538 2.73746e-19)
(-0.00279204 -0.662237 0)
(0.875468 0.390993 0)
(0.382752 -0.325448 3.57337e-19)
(1.93035 0.847617 -9.01146e-20)
(0.964965 0.798101 2.67826e-20)
(1.02133 0.163484 -1.35527e-19)
(1.1878 0.00080256 -2.10588e-19)
(1.13042 -0.0837903 -7.06828e-20)
(-0.0582735 -0.47049 -6.63914e-19)
(1.837 0.186269 -6.51101e-20)
(0.609006 0.0290118 2.37409e-19)
(1.36327 0.207487 4.17703e-20)
(1.12225 -0.17701 0)
(0.70148 1.16361 2.02191e-19)
(1.1468 0.0217133 -5.09185e-19)
(1.60878 0.548499 7.66899e-20)
(0.838329 -0.562816 -1.4774e-19)
(-0.121473 -0.117022 3.69589e-19)
(0.910533 -0.800645 3.13462e-19)
(1.14916 0.16847 9.1255e-20)
(1.00622 -0.00902897 2.61782e-19)
(0.218329 -0.462021 -2.80836e-19)
(1.00754 -0.00491396 0)
(0.702292 0.0895743 3.59481e-20)
(-0.0989289 -0.0899691 0)
(1.01673 0.00648082 -1.52796e-19)
(-0.151921 1.34964 -3.14203e-19)
(1.57617 0.261518 8.76601e-20)
(-0.295558 -1.12533 3.3941e-19)
(1.39804 -0.0229772 6.05063e-20)
(1.00961 -0.0243874 5.46095e-20)
(1.3801 -0.113207 0)
(1.60894 -0.654946 -6.25017e-20)
(1.00682 0.00337582 -1.63687e-19)
(1.31498 0.706727 -1.41352e-19)
(1.34393 -0.0401261 0)
(2.17368 0.756254 2.76726e-20)
(-0.0367151 -0.0100945 0)
(1.44383 0.0831651 0)
(-0.514134 -0.878943 0)
(1.14568 0.384389 0)
(1.66816 0.18281 -5.52384e-21)
(0.644108 0.518424 4.56751e-19)
(0.343519 -0.346305 -2.15618e-19)
(-0.298452 -0.568947 -6.46342e-19)
(-0.102753 -0.11543 0)
(1.71168 -0.764885 -1.25508e-20)
(1.23217 0.472603 0)
(1.3295 0.261886 0)
(-0.476244 -1.0541 2.64369e-19)
(0.713062 0.625709 1.59354e-19)
(1.75905 0.0451533 0)
(-0.385733 -0.431419 1.60374e-19)
(0.855779 0.136489 2.03157e-19)
(2.03272 -0.755458 -1.04697e-20)
(1.12277 0.832348 7.11272e-20)
(1.06697 -0.956182 -1.07115e-20)
(1.07691 -0.435926 6.08391e-20)
(0.699674 0.629352 1.66317e-19)
(1.0631 0.830371 0)
(2.55532 -0.285363 2.17652e-20)
(0.652527 0.796233 0)
(1.69483 -1.01763 1.6503e-20)
(1.04737 0.0952876 7.98797e-20)
(1.00495 -0.0116346 0)
(0.460987 1.41114 1.10342e-19)
(0.940368 -0.256486 4.59259e-20)
(0.726002 -0.52948 0)
(0.756728 -0.501131 1.97792e-19)
(1.13252 0.488048 -4.36392e-20)
(0.397317 0.368576 3.10048e-19)
(0.344298 -0.372841 2.63303e-20)
(-0.150248 -0.223421 3.19734e-20)
(0.803012 0.0601161 0)
(1.48844 -1.00347 3.002e-21)
(1.02061 -0.0477746 4.23029e-19)
(1.42783 0.320693 5.29778e-20)
(-0.451946 -0.547454 1.40129e-19)
(0.0478994 0.325318 0)
(1.31853 -0.264923 -9.97885e-20)
(-0.0729487 -0.0742886 -3.16541e-19)
(1.01599 1.6623 -3.79037e-20)
(-0.123311 0.0685801 -8.98858e-22)
(-0.174584 0.0954873 1.03823e-19)
(0.366364 -0.0522478 3.76967e-20)
(2.05671 0.226321 2.20613e-19)
(1.09248 0.39864 -3.66995e-19)
(0.772356 -0.0357306 0)
(1.57758 -0.167434 -7.299e-20)
(1.54631 0.0900969 7.46753e-20)
(1.03401 -0.86907 1.11243e-19)
(1.3321 -1.11326 1.13743e-20)
(0.403741 0.370373 2.10344e-19)
(0.987037 0.932534 0)
(1.6072 0.514594 -3.75382e-20)
(-0.0884089 -0.0982733 -6.44529e-19)
(0.786998 0.681302 0)
(0.845163 -0.920998 0)
(0.346802 -0.346922 -4.53375e-21)
(0.23313 0.155344 0)
(-0.399386 0.591409 -5.54526e-19)
(0.359597 -0.426568 -6.75029e-20)
(2.04481 -0.38102 0)
(1.16203 0.0809258 3.51529e-19)
(-0.703809 0.460962 1.02316e-19)
(0.622325 -0.592858 -4.08114e-19)
(1.53805 0.121102 -2.09882e-20)
(0.707137 -0.645489 0)
(0.94295 0.103234 0)
(1.65309 -0.220593 0)
(1.05313 0.178683 -2.68207e-19)
(1.27257 0.0892363 3.83241e-19)
(-0.535087 1.37789 0)
(0.928717 -0.0659148 0)
(1.91676 -0.170024 -9.54465e-21)
(0.0236974 -0.270816 3.45902e-20)
(2.41542 0.130928 -1.63706e-20)
(1.316 -0.616703 3.27134e-19)
(1.92876 0.0993067 3.18216e-20)
(-0.757902 0.209644 -7.83991e-20)
(1.77267 0.158745 6.85683e-20)
(1.0247 -0.0458084 4.22933e-19)
(1.38743 0.53499 0)
(0.189945 -0.306621 1.77145e-20)
(1.1392 -0.936026 1.24045e-19)
(0.870504 -0.100447 4.88417e-20)
(0.734922 -0.550179 0)
(2.1381 -0.501644 1.6347e-20)
(1.29471 -0.227024 1.28412e-19)
(1.8697 -1.0449 0)
(0.702744 -0.653406 3.53576e-19)
(1.08675 -0.0803041 1.32901e-19)
(2.08725 0.197847 -6.64576e-21)
(0.110032 -0.306554 -8.56997e-20)
(1.21718 0.546754 2.15828e-19)
(1.05848 0.343886 4.41772e-21)
(0.832176 0.285077 2.49828e-19)
(1.60624 0.901655 -6.29763e-20)
(-0.0539468 -0.506429 -3.41305e-21)
(1.7585 0.445836 0)
(-0.12142 -0.126331 6.0428e-19)
(1.27379 -1.09989 0)
(1.19215 -0.739461 1.72903e-20)
(1.75061 1.0794 -4.50508e-19)
(1.18757 0.785102 1.51311e-19)
(-0.297492 -0.561739 -6.55346e-19)
(0.898675 0.40319 2.04828e-19)
(-0.122363 0.496976 1.19495e-19)
(0.673556 -0.0412169 0)
(1.96723 -0.113132 0)
(0.367663 0.0275252 1.38674e-20)
(0.805417 -0.0081429 0)
(1.45043 -0.218118 -1.32135e-19)
(-0.795846 0.419945 5.36314e-19)
(1.78685 0.441469 -9.25372e-20)
(1.01915 -0.0386989 0)
(0.647599 -0.485957 9.57333e-20)
(1.01091 0.0256948 2.01688e-19)
(0.251563 0.960057 -1.42204e-20)
(-0.395897 0.161435 0)
(1.22272 -0.536816 4.07411e-19)
(1.6565 -0.148417 7.52379e-23)
(1.20896 -0.571972 -1.77794e-19)
(2.10833 0.212607 -3.93429e-20)
(1.17545 0.70467 0)
(0.838461 0.0138559 0)
(-0.542513 -0.793737 -3.63264e-19)
(-0.0148572 -0.0328595 4.27232e-20)
(0.875919 0.289741 -2.34331e-19)
(0.420773 -0.306771 -2.50439e-19)
(0.566303 0.289229 2.6393e-19)
(1.93894 0.505421 0)
(0.626676 -0.582158 0)
(0.65733 -1.06697 -3.62931e-21)
(1.35687 -0.56676 -7.79809e-20)
(1.0541 -0.0695324 2.48741e-20)
(0.76336 -0.27134 1.15187e-19)
(-0.0578954 -0.195986 -8.06507e-20)
(0.765139 0.217745 -1.26661e-20)
(0.573942 0.53133 0)
(1.15854 0.617478 0)
(1.49755 0.230524 0)
(-0.199518 -0.689526 -2.92669e-19)
(1.14529 0.486006 5.85349e-20)
(1.55417 0.237354 2.04971e-20)
(0.867842 -0.00650039 0)
(1.32662 -0.622899 0)
(1.85296 -0.0866219 5.43579e-20)
(0.0638396 0.358422 2.16526e-20)
(1.00573 -0.00251732 -2.02817e-19)
(1.37699 0.42343 0)
(-0.200048 0.136856 0)
(1.15023 0.266244 3.52257e-19)
(0.93203 0.447848 -1.5559e-19)
(1.05201 0.00955974 0)
(1.51764 0.970064 0)
(1.82542 0.597123 -6.61653e-20)
(-0.142648 -0.176056 -1.92015e-21)
(0.999799 0.0070415 0)
(0.621186 0.361635 -3.70892e-20)
(1.07332 -0.941286 0)
(1.00266 0.0108362 4.68163e-20)
(1.36618 -1.43497 -7.23987e-20)
(0.980993 -0.402715 2.80357e-19)
(1.00353 -1.18566 6.24668e-20)
(2.07552 0.151674 3.52071e-19)
(0.761472 -0.152494 -3.31651e-20)
(0.819338 -0.0247112 0)
(1.04323 0.00101178 0)
(0.181625 -0.165262 0)
(0.581602 0.554359 -2.29833e-19)
(-0.0130144 -0.193459 5.44957e-20)
(1.0865 0.293171 -5.60643e-19)
(-0.085975 -0.330721 0)
(0.732859 0.546226 1.94402e-19)
(1.09226 -0.408278 0)
(1.00528 -0.00581051 1.18899e-19)
(1.02178 1.44518 2.20338e-20)
(0.952011 0.333568 3.03551e-19)
(0.841972 0.283477 0)
(1.90411 0.137647 1.72645e-20)
(0.85177 -0.204622 -3.59177e-19)
(-0.164338 0.953782 -6.71309e-19)
(0.781132 0.879756 0)
(0.825147 0.157307 1.89626e-19)
(2.28274 0.451139 0)
(0.68705 0.419817 4.09167e-19)
(-0.757264 0.704944 2.33105e-19)
(0.0856567 -0.269509 0)
(0.50828 0.479153 -8.15461e-20)
(1.14738 -0.7304 -1.23218e-19)
(0.566921 -0.415472 -1.15049e-19)
(1.02348 -0.0341627 0)
(-0.451941 0.272035 -3.92329e-20)
(0.738105 -0.667519 7.27461e-20)
(0.843619 0.206011 0)
(1.97361 -0.618385 8.40599e-20)
(0.87957 0.743662 3.15522e-20)
(1.23282 -1.11785 4.01387e-20)
(0.607808 -0.0169256 -4.58101e-19)
(0.268607 -0.326769 -5.34357e-19)
(-0.199701 -0.281807 1.67394e-20)
(0.740634 0.261598 2.7388e-19)
(0.204539 -0.328458 -2.72227e-21)
(1.56966 -0.708913 3.36724e-21)
(1.02916 -0.0127 -3.49604e-19)
(-0.195786 -0.679872 0)
(1.0155 0.00716976 -4.27524e-19)
(1.5607 0.663436 5.23633e-20)
(0.789575 0.595943 3.35424e-19)
(1.16742 -0.0908492 1.56736e-19)
(1.01582 -0.0588968 1.61524e-19)
(1.31888 0.652438 -1.38145e-19)
(-0.296945 -0.333809 -2.9549e-22)
(1.99357 -0.958369 2.06633e-20)
(1.22566 -0.147103 -6.46879e-20)
(0.879757 0.0518463 7.3533e-20)
(0.977594 -0.368402 8.45465e-20)
(0.858666 -0.144052 0)
(0.860811 0.641194 0)
(1.21581 1.34066 -2.62737e-20)
(1.86267 0.109302 2.54136e-20)
(-0.562627 0.187806 2.39244e-19)
(1.13557 -0.623244 -4.38707e-19)
(0.717075 -0.638388 3.53332e-19)
(1.00815 0.0302411 3.79471e-20)
(0.387475 -0.187326 2.88376e-20)
(1.42187 -0.623239 0)
(0.730785 0.00595997 -6.95625e-21)
(1.63872 -0.849849 -2.92699e-20)
(0.935883 0.67073 0)
(1.5391 -1.12286 0)
(0.0676671 0.660576 0)
(-0.258364 -0.340465 -1.08762e-19)
(-0.0218652 0.182001 0)
(0.379937 0.614803 -5.24605e-20)
(1.1494 0.153723 7.48102e-21)
(-0.384663 1.6681 1.33286e-19)
(0.34584 -0.662862 -5.39937e-20)
(1.66986 0.400712 4.26663e-20)
(2.17369 -0.161829 -4.44082e-20)
(-0.153626 0.0451577 -6.80279e-20)
(0.0771562 -0.580955 7.67513e-21)
(0.891262 -0.101234 0)
(0.660455 -0.0356943 0)
(1.00045 -0.00312887 2.50117e-22)
(-0.180895 -0.713955 0)
(1.37413 0.0982825 -1.04378e-19)
(0.664991 -0.0320336 0)
(1.09042 -0.00929844 1.25953e-19)
(0.988997 0.0117181 -4.58663e-20)
(0.704039 0.551977 2.95516e-20)
(1.04358 -0.0288638 -9.76819e-22)
(1.0057 -0.254903 -5.18821e-20)
(1.0389 -0.0569387 3.71897e-19)
(0.774051 -0.713035 1.62588e-19)
(-0.0571426 1.22669 -1.87061e-19)
(1.035 -0.581455 -8.88074e-20)
(-0.0157895 -0.0695461 0)
(1.01748 0.704718 0)
(1.04443 -0.0344393 0)
(1.12535 -0.873381 -7.99597e-20)
(1.19917 -1.01603 -1.22572e-20)
(1.85631 -0.370122 4.77751e-20)
(0.839467 1.77256 -3.86262e-19)
(0.761288 -0.701693 -3.92037e-21)
(0.683872 -0.518029 -5.86756e-19)
(0.940765 -0.403066 1.42701e-19)
(0.784491 -1.1611 1.18669e-19)
(2.30614 -0.121829 1.64878e-19)
(1.42131 -0.0660331 1.3028e-19)
(-0.370456 -0.454232 -2.34415e-19)
(1.01732 0.474122 2.45883e-19)
(-0.138959 -0.404474 0)
(0.518581 -0.286366 6.16942e-19)
(-0.161025 -0.201242 -4.64139e-22)
(1.01963 -0.0487414 3.45232e-19)
(1.03148 -0.0179057 -8.68363e-21)
(1.09883 -0.0163801 -9.50471e-20)
(1.64572 0.874335 -1.93647e-19)
(1.49716 0.279951 1.07885e-19)
(0.481202 -0.456698 -2.86919e-19)
(2.04528 -0.149331 -6.59182e-20)
(1.04925 -0.0198105 -2.45437e-19)
(1.47184 -0.623699 9.13819e-20)
(1.87269 0.761962 0)
(1.01001 0.513263 -4.64171e-19)
(1.00257 -0.0085157 9.69068e-20)
(0.581165 0.507439 2.93314e-19)
(0.653208 -0.51065 -1.76322e-21)
(1.04332 -0.0244737 -3.20528e-20)
(1.10675 0.00467006 9.02316e-22)
(2.18778 0.168688 -1.78651e-21)
(1.57033 -0.151443 0)
(1.03892 -0.0431033 0)
(1.04815 -0.0367236 5.99796e-19)
(1.00255 -0.00508641 0)
(-0.134421 -0.158767 0)
(1.16623 -0.714328 0)
(1.0007 -0.00334198 -5.63558e-19)
(1.29085 -0.767688 5.83503e-20)
(1.02813 -0.0123389 1.17435e-20)
(1.21995 0.861124 -5.88619e-20)
(1.39242 0.905894 2.3133e-19)
(0.609604 -0.899676 2.08147e-21)
(1.10746 0.998847 1.56469e-20)
(0.59001 -0.0617276 0)
(-0.370104 -0.0295947 0)
(1.90965 0.673671 2.55377e-19)
(1.71464 -1.13079 0)
(0.999559 -0.00638752 -1.7524e-19)
(1.01078 -0.001319 3.40283e-19)
(1.36146 0.124557 -8.55712e-20)
(0.017713 -0.1123 4.6458e-19)
(0.965819 -0.00217133 1.86928e-19)
(1.91599 0.151897 -8.23627e-20)
(0.497745 0.184621 2.51934e-20)
(1.64148 1.09481 -1.78131e-21)
(0.941035 0.0146915 -1.83425e-19)
(1.0039 0.00238581 2.1827e-19)
(1.00055 -0.00166221 1.29373e-20)
(0.788435 -0.0135098 0)
(0.721641 -0.0272862 0)
(0.714862 -0.0278502 4.06509e-22)
(0.688283 -0.0300261 0)
(0.213378 -0.0967582 0)
(0.0815955 -0.067706 0)
(0.521577 -0.128341 -5.77381e-20)
(0.643238 0.218948 2.91585e-20)
(0.550301 0.878019 0)
(0.777854 1.2224 -8.68286e-20)
(1.50063 1.20597 0)
(1.7212 0.323276 0)
(2.0687 -0.0147553 0)
(2.00599 -0.176979 -2.08146e-20)
(1.1818 -0.262013 -2.55876e-19)
(0.787336 0.0231687 0)
(0.790467 0.0201694 0)
(0.975404 0.0174185 -2.2647e-19)
(0.815162 0.0082465 4.24381e-19)
(1.00861 -0.00127616 0)
(1.00004 -0.000871495 4.0419e-19)
(1.0003 -0.00117248 -5.0166e-22)
(0.791904 0.0220703 3.59184e-19)
(0.989221 -0.00815341 -2.14241e-19)
(1.71866 0.29928 0)
(0.411353 -0.0447611 -2.52198e-20)
(1.00078 -0.00262612 -2.04976e-19)
(0.999438 -0.00102212 -3.50587e-19)
(1.89348 1.17955 0)
(0.999047 0.00122006 0)
(0.999574 -0.000309706 0)
(1.05592 -0.169632 -2.68091e-20)
(0.599081 -0.875679 -6.76259e-20)
(1.63659 -0.594334 0)
(0.355298 -0.619207 1.80661e-19)
(0.0946985 1.266 -1.08543e-19)
(1.01617 -0.0273158 -2.73619e-19)
(-0.372321 -0.762929 -2.03621e-19)
(1.02155 -0.0119061 -2.18934e-19)
(1.26253 -0.244145 -7.93707e-20)
(0.893893 -0.572739 2.74317e-19)
(-0.124546 -0.142549 -1.5667e-19)
(1.03728 0.00085278 0)
(1.02346 -0.0210406 -6.2457e-20)
(0.88126 0.0125105 0)
(-0.109718 -0.0775068 7.82258e-20)
(1.6465 -1.31294 0)
(-0.427981 -0.87267 -5.33942e-19)
(1.71304 -0.068139 9.78567e-20)
(1.51571 0.6111 -1.76033e-19)
(-0.0888034 0.0407312 0)
(1.05023 -0.0401477 1.85656e-19)
(0.468247 -0.69464 -3.40831e-21)
(0.924357 -0.0717909 2.88604e-19)
(1.00914 -0.0169497 -1.86919e-19)
(1.53472 0.774358 -5.20994e-20)
(0.437669 0.400803 0)
(0.351375 0.269265 2.19114e-19)
(1.12723 -0.13374 -1.81248e-21)
(1.08608 0.0974282 2.22787e-19)
(1.21472 -0.804096 0)
(1.01907 -0.00866906 0)
(0.998784 -0.0222284 -4.3065e-19)
(1.02101 0.00801578 -4.14951e-19)
(-0.224528 -0.371416 0)
(1.10916 0.732526 -1.96866e-19)
(0.434975 -0.426471 1.87781e-21)
(1.01517 -0.00571574 1.61054e-19)
(1.01305 0.00803469 -2.00468e-19)
(-0.453725 -0.928126 -5.22016e-20)
(0.593586 -0.765243 2.01742e-19)
(1.01467 -0.0239517 6.88777e-19)
(0.343938 -0.314684 0)
(1.7076 0.570671 5.95324e-20)
(1.01367 -0.0213364 -2.13862e-19)
(1.3058 0.124171 -4.14718e-20)
(1.04629 -0.00400034 -5.02022e-22)
(1.00777 -0.0147299 4.28966e-20)
(2.20522 0.220911 -2.95013e-19)
(1.01856 0.00131093 2.05963e-19)
(0.905066 -1.28659 8.5591e-21)
(1.02008 -0.00981931 0)
(0.894078 0.0833672 5.32565e-20)
(0.0383046 1.58301 5.17976e-21)
(1.0043 0.019309 2.03881e-19)
(1.04278 0.0188712 -7.29175e-22)
(0.267604 -0.605651 1.55318e-20)
(1.16464 0.276294 5.24762e-19)
(1.00238 0.00864411 1.4012e-19)
(1.01459 -0.0222283 3.4283e-22)
(1.5921 0.227676 -5.79877e-20)
(1.61405 0.838058 -4.07205e-20)
(0.886525 -0.794226 4.55049e-20)
(0.549303 -0.478375 -2.85442e-19)
(1.00475 -0.0167403 0)
(1.02407 -0.00431538 5.11676e-20)
(1.01023 -0.0166191 1.0879e-19)
(0.808548 -0.74741 -8.7921e-21)
(1.01675 -0.00473763 -2.14713e-19)
(1.04087 -0.042648 2.43089e-19)
(1.00646 -0.0149492 -2.03518e-19)
(1.01373 -0.00406319 -4.15838e-22)
(1.01234 -0.00610015 -2.6637e-22)
(1.0294 0.00448151 2.05112e-19)
(0.880096 0.00976181 5.3233e-19)
(0.222769 0.0232458 0)
(1.37162 1.35458 2.26091e-19)
(1.01383 -0.0132713 0)
(1.01632 -0.0326253 -6.00017e-20)
(1.40868 0.388347 -1.53288e-19)
(0.930787 0.136962 0)
(2.37133 -0.501284 1.31092e-20)
(0.450359 0.362614 9.84863e-21)
(0.710383 -0.0184193 0)
(2.13612 0.686498 0)
(-0.0290259 0.363939 -2.81476e-20)
(1.00578 0.885882 1.08047e-19)
(1.01728 -0.0155839 -2.17159e-19)
(1.23511 -0.638615 -4.93318e-20)
(0.463478 -0.0177914 1.12716e-19)
(0.686934 -1.2059 0)
(1.14276 -0.157283 0)
(0.889372 -0.104563 0)
(-0.305697 -0.26108 8.50954e-21)
(0.789216 -1.00282 -2.48348e-19)
(0.0376466 -0.0302451 0)
(-0.277436 0.251121 -6.02755e-20)
(1.5605 0.872375 7.65856e-20)
(1.00935 -0.010769 -4.23086e-19)
(0.758969 -0.144683 -1.04428e-19)
(1.02375 -0.00919297 2.80142e-19)
(0.659961 -0.0426648 0)
(-0.189925 -0.330444 -4.77806e-20)
(0.528658 0.312725 -3.73018e-19)
(0.247565 -0.0633632 -6.59354e-20)
(-0.208875 0.111603 0)
(0.862928 0.0785102 6.93311e-20)
(0.440695 0.414353 5.83663e-20)
(1.07482 0.792561 -5.54468e-20)
(-0.0990374 -0.0925399 2.3414e-19)
(1.01355 -0.00732557 0)
(0.700528 -1.42579 -8.23947e-20)
(1.0122 -0.011859 1.59343e-19)
(2.04983 0.188395 0)
(1.01417 -0.00136925 2.6641e-19)
(0.492018 -0.13617 -2.89754e-19)
(1.01837 -0.00122761 -1.65476e-19)
(0.917113 -1.23803 0)
(1.96387 -0.382836 -8.13745e-23)
(1.00963 -0.00412037 -1.10726e-19)
(0.995348 -0.0694525 2.92144e-19)
(1.0407 0.0627104 -8.39721e-22)
(0.853325 -1.50934 4.83554e-20)
(-0.111219 -0.175177 6.1676e-19)
(1.79003 0.105277 -2.78666e-20)
(0.618259 -1.31742 -5.40965e-20)
(0.801642 0.0149779 -3.97576e-19)
(0.760598 0.0227186 0)
(0.724001 -1.34706 -5.22208e-20)
(1.01482 -0.0332564 -3.22939e-20)
(0.975434 -0.0189892 0)
(1.04013 -0.00856011 -2.06932e-19)
(1.22967 -1.43961 5.20167e-20)
(-0.459336 0.891098 3.31531e-19)
(2.43185 -0.516108 0)
(-0.845995 1.3814 -3.62485e-19)
(1.63718 -0.361309 0)
(1.03572 -0.0234313 6.03483e-20)
(1.97076 0.917443 3.25111e-21)
(1.01709 -0.0144879 1.71714e-19)
(-0.905998 0.603297 2.87876e-19)
(1.01709 -0.00780232 0)
(0.993903 0.00359534 -4.16269e-19)
(1.01009 0.000716431 2.18476e-19)
(0.656936 0.62722 0)
(1.30086 0.774983 2.84408e-20)
(0.955801 -0.00156754 -1.86376e-19)
(-0.242191 -0.655985 6.87228e-19)
(1.00456 -0.00692708 -2.13117e-19)
(1.00357 -0.00582143 -5.00842e-19)