/*--------------------------------*- C++ -*----------------------------------*\
| =========                 |                                                 |
| \\      /  F ield         | OpenFOAM: The Open Source CFD Toolbox           |
|  \\    /   O peration     | Version:  2306                                  |
|   \\  /    A nd           | Website:  www.openfoam.com                      |
|    \\/     M anipulation  |                                                 |
\*---------------------------------------------------------------------------*/
FoamFile
{
    version     2.0;
    format      ascii;
    arch        "LSB;label=32;scalar=64";
    class       surfaceScalarField;
    location    "6.8";
    object      phi;
}
// * * * * * * * * * * * * * * * * * * * * * * * * * * * * * * * * * * * * * //

dimensions      [0 3 -1 0 0 0 0];

oriented        oriented;

internalField   nonuniform List<scalar> 
3181
(
-0.995758
0.373336
0.622422
-0.387037
0.363853
0.0231849
0.519939
-0.356372
-0.163568
0.1149
-0.193559
0.0786591
-0.103327
0.125231
-0.021904
0.704937
0.477832
-1.18277
0.148418
-0.142113
-0.00630461
0.0937332
0.00142773
-0.095161
0.623749
-0.820026
0.196277
-0.0721379
0.131372
-0.059234
-0.0104089
-0.0525065
0.0629154
0.141764
0.0351431
-0.176907
-0.0116566
-0.0729042
0.0845608
-1.04435
0.149153
0.895192
-0.321788
0.690382
-0.368594
-1.1115
0.625884
0.48562
0.0862828
-0.940013
0.853731
-0.421173
0.299829
0.121343
-0.62823
-0.409077
-0.00364665
0.0849617
-0.0813151
0.0395925
-0.0870254
0.0474329
-0.0703407
0.0481974
0.0221433
1.01979
-1.01314
-0.00665627
0.0198017
0.0459446
-0.0657464
-0.968354
0.337303
0.631051
-0.109097
0.223997
0.3013
-0.246841
-0.0544586
0.0288509
0.0619501
-0.090801
-0.412468
0.339409
0.0730597
-0.0245507
-0.0046991
0.00151448
0.00318462
-0.0446503
-0.923703
0.164177
-0.101469
-0.0627076
-0.12854
1.10284
-0.974304
-0.0555645
0.0593431
-0.00377858
0.184339
0.275006
-0.459345
0.9204
-1.04894
0.0724484
-0.0328559
1.6189
-0.880036
-0.738862
-0.319301
1.02424
-0.153712
0.142055
-0.0833428
0.0130022
-0.407103
0.0853152
-0.162639
0.0792962
-0.627256
0.124952
0.502304
-0.143281
0.0711428
-0.168352
0.172633
-0.00428134
-0.269074
-0.0769105
0.345984
-0.301847
1.14943
-0.847579
0.112671
0.215238
-0.327909
-0.00834575
-0.102093
0.108395
-0.006302
0.501476
0.188906
-0.0965587
0.143799
-0.0472398
0.0776773
0.0864994
-0.168426
0.19353
-0.0251039
0.161886
0.0571856
-0.219072
0.106845
-0.112827
0.00598266
1.21095
0.407946
-0.828949
-0.166809
0.124208
-0.868434
0.744226
0.55192
0.227805
-0.779725
-0.44908
-0.20522
0.6543
-1.00789
0.688594
-0.269613
0.821532
-0.319068
-0.102091
0.421158
-0.207679
-0.20479
-0.186901
0.167581
0.0193199
0.140816
0.277677
-0.418493
-0.268164
0.891913
-0.0224263
0.11616
-1.09515
1.21936
0.179102
0.122198
-0.169895
-0.114149
0.284044
-0.26989
0.360531
-0.0906409
-0.0775522
0.0863013
-0.00874906
-1.397
-0.916783
0.00445907
0.912324
-0.0743291
0.0187646
-1.11721
0.812391
0.304817
0.631693
-0.560301
-0.0713921
-0.998581
-0.00931411
1.13434
-0.985187
-0.718693
1.0917
-0.196504
1.08969
0.171166
-0.173747
0.00258081
1.14012
-0.662286
0.953046
-0.953046
-0.00387317
0.00241816
0.00145501
-0.204188
-0.0566228
0.26081
0.18369
-0.121706
-0.0619842
-0.42318
0.804143
-0.380963
-0.0232033
-0.224572
0.247775
-1.05745
0.0443129
0.346406
0.0598039
-0.40621
0.132902
-0.839044
1.06685
0.116689
0.100451
-0.21714
-0.0198097
-0.148617
-0.520651
0.653947
-0.133296
-0.6528
0.132149
0.101317
-0.940361
0.325427
-0.748607
0.915832
-0.829549
-0.031218
0.268599
-0.237381
0.0845066
0.0534285
-0.137935
-1.33075
-0.166956
1.49771
-0.234606
0.404916
-0.17031
0.367103
-0.0447529
-0.32235
-0.486245
-0.630963
0.219349
-0.106678
-0.152819
0.14725
0.00556927
-0.0790161
-0.0140683
0.0930844
-0.576087
-0.243939
-0.12366
0.0547594
0.0689001
-0.995524
0.0145336
0.980991
1.16928
-0.0198583
-0.000125118
-0.00374805
0.032017
0.147085
-0.201251
0.385589
0.0409649
0.249023
-0.289988
0.141472
0.0692094
-0.210681
0.459844
-0.201067
-0.258777
-0.587401
-0.524103
-0.804118
-0.191406
-0.0736073
0.190297
-0.100401
0.178492
-0.0780911
0.0386709
0.024629
0.123789
-0.0546458
0.0667711
-0.0121253
-0.0915452
-0.0202829
0.111828
0.0743903
-0.0743903
-0.184516
0.209145
-0.0211073
0.256203
0.10146
0.0920704
-1.27082
1.00265
-1.44525
0.0214315
1.42381
0.0310157
-0.0234703
-0.00754539
-0.0269501
-0.0524648
0.0794148
0.524818
-0.0194835
-0.505334
-0.0486042
0.0510359
-0.0024317
-0.198328
0.0138115
0.151838
0.652304
-0.35683
0.508668
-0.106685
-1.22407
-0.146235
0.0429075
0.47664
-0.29438
-0.18226
0.189787
-0.162386
-0.0274011
0.0481699
-0.317244
0.022659
-0.939442
0.0484096
-0.148811
-0.278992
-0.395978
0.0746071
1.42018
-0.996026
-0.424152
1.08964
0.330536
0.0660662
0.279918
0.0364187
-0.00540295
-0.135251
0.245234
-0.109982
-0.236199
-0.59386
0.830059
-0.348756
0.511888
0.679494
-1.08857
0.161565
-0.00120567
-0.0370065
0.0382121
-0.90068
-0.0701033
0.970783
0.0628594
-0.963539
-0.310784
0.65719
-0.917354
-0.0150668
0.00378272
-0.269264
0.265482
1.43286
-1.58018
0.147317
-0.152788
0.00655359
0.569768
-0.805967
0.275201
-0.514087
0.238885
-0.293698
-0.120571
0.414268
0.16036
-0.989612
-0.0678395
-0.0338735
-0.0474415
-0.561842
0.356622
-0.249684
0.0189104
0.230773
-0.049071
-0.103717
0.0321014
-0.0321014
-0.122461
0.134301
-0.0118394
-0.190468
-1.25478
0.103205
0.0370396
-0.140244
-0.20265
0.0441226
0.158527
-0.223219
0.0363178
1.4614
-0.0340181
-1.42738
-0.184634
0.442359
-0.257725
-0.0016668
0.00264362
-0.000976819
0.375857
-0.00875385
-0.18944
-0.00436459
0.193804
-0.169206
0.310022
-0.104427
0.102722
0.00170459
0.0757724
0.0211348
-0.0969072
-0.237039
0.285584
-0.0485449
0.259165
-0.590826
0.331661
-0.218373
-0.0510294
0.269402
-0.685378
0.657008
0.0283705
0.0059899
0.0399547
0.0564362
-0.0569617
0.000525421
0.00421568
-0.069962
0.518279
0.651005
0.154567
-0.864342
0.709775
-0.22455
1.696
-1.47145
0.37455
0.191247
0.7618
0.0647825
0.207365
-0.0658935
-0.0731029
-0.0289903
0.227422
0.160602
-0.0760949
0.736333
-0.39903
0.0620637
0.198747
0.0501104
-0.167428
0.117317
-0.802814
-0.14113
0.943944
-0.0452575
0.0452575
-0.132687
-0.27436
0.549366
0.0131551
-0.231528
0.0908422
0.208987
0.0585722
-0.13218
0.139115
-0.149524
-0.341457
0.318254
0.020629
0.0933989
-0.114028
0.372732
-0.337589
-0.19944
0.336266
-0.136826
-0.206298
0.272364
0.187037
-0.481417
-0.219626
0.592962
0.163523
-0.032367
0.032367
-0.413229
0.510863
-0.0976332
0.372557
0.0323589
-0.0331823
0.042556
-0.00937377
-0.227458
-0.0624757
-0.0611839
-0.049855
0.18897
-0.183644
0.244797
-0.061153
0.131799
0.0288029
-0.379232
0.132391
0.19471
-0.0629119
-0.0470262
-0.0574004
-0.100554
0.0899978
0.0105561
0.146606
-0.104251
-0.0423549
-0.0222808
0.400733
-0.378452
-0.164238
0.141812
0.107145
-0.111536
0.00439088
0.0237208
0.277095
-0.476535
-0.12373
-0.033622
0.157352
-0.13324
-0.0620887
0.195328
-0.0936583
0.108226
-0.728155
0.619929
-0.0505072
-1.46741
-0.195983
1.6634
0.0946295
0.897348
-0.991978
0.0817407
-0.357245
0.156178
0.279479
0.255276
-0.534755
-0.207875
0.257985
0.179499
-0.891062
0.711563
0.0475425
-0.180782
-0.0326363
-0.00123723
-1.00705
0.458113
0.548942
0.996026
-0.894709
-1.60616
1.4392
-1.43286
1.45429
0.0396814
-0.0869213
0.01615
0.0402862
0.0156056
0.879613
-0.700114
0.117438
-0.069028
0.403968
0.687729
-0.174233
-1.38055
1.156
-0.688472
-0.582347
-0.237483
-0.389772
-0.0221828
-0.16505
0.21322
-0.603087
-0.365936
0.181302
0.759661
-0.234843
-0.868747
-0.737414
0.724335
0.294776
-0.247234
0.272049
0.0362412
-0.0362412
0.671819
0.152165
-0.823984
-0.227531
0.899349
0.623915
-1.01232
0.388401
0.294214
-0.0380113
0.00620188
0.00743905
-0.0136409
-0.868434
-1.03195
1.0121
0.524009
0.937391
-0.0344115
-0.13394
-0.249891
0.751366
-0.200544
-0.0491397
-0.00272646
-0.0748258
-0.0545148
0.107943
0.376069
-0.251117
-0.795157
-0.292171
-0.210636
-0.0747485
0.285384
-0.75565
0.946896
-0.291169
0.260015
0.031154
0.0277813
0.00863733
-0.150681
0.0776788
0.0730026
0.00848236
0.412676
0.129792
0.0599957
0.0355685
0.0136648
-0.0492333
-0.017605
-0.171835
-0.717708
0.366957
0.350751
0.601805
-1.01258
0.410772
0.140076
-0.161811
0.0217351
0.00227598
0.217073
-0.189185
-0.763861
-0.152204
0.00152293
-0.170054
0.0633757
0.148075
-0.349325
-1.13287
0.705953
0.426917
0.0510029
0.0919696
0.0546362
-0.802814
-0.483486
0.742651
0.182535
-0.104857
0.0442536
-0.631993
-0.0533856
0.0622496
0.132461
-0.214969
0.0319912
-0.450484
0.120921
0.353407
-0.293603
-0.111567
0.0200222
0.211229
0.835169
-1.0464
0.0992329
-0.734357
0.635124
-0.944872
0.803742
-0.662487
-0.0385142
0.701002
-0.00729292
0.00899392
-0.001701
0.173919
-0.467617
0.220701
-0.130081
-0.09062
0.0353133
-0.0974019
-0.022179
-0.188457
-0.0131561
0.0271697
-0.0229541
0.0209151
0.0798507
-0.100766
0.718545
-0.0113742
0.0124744
-0.00110021
0.143519
-0.00170718
0.837113
0.081002
-0.0744484
0.0868677
-1.11882
0.266531
0.0276826
0.00700187
0.0849678
-0.701002
0.763861
0.209471
-0.321696
0.112225
-0.255699
0.0819525
0.119777
-0.117196
-0.00114775
0.0874491
-0.0471764
-0.737199
-0.395671
-0.0444496
0.0653647
0.746046
-0.260426
-0.289785
0.0871346
0.343516
0.0193661
-0.0525484
-0.00760471
0.081995
0.146323
0.214208
0.154315
-0.333357
0.179042
0.117386
0.534918
-0.038045
-0.105236
0.893577
-0.237562
-0.656015
-0.662487
-0.0918733
0.693679
0.9204
-0.395225
0.676314
-0.28109
0.381944
-0.0618804
-0.320064
-0.253689
-0.744892
-0.0746668
0.0754743
-0.000807458
0.0530796
-0.200854
0.147774
0.360857
-1.08412
0.723266
0.0255944
0.692631
-0.718225
-0.0440948
-0.108725
-0.00261442
-0.121116
0.084695
-0.497924
-0.0120144
0.00472147
0.146066
0.0550728
-0.201139
0.103192
-0.238443
-0.00422856
0.0320099
0.141398
0.127201
-0.0494633
-0.00749836
0.194741
-0.419313
0.047724
0.849624
0.0340723
0.0111853
-0.98002
-0.0095914
0.223055
-0.0693296
-0.0422379
-0.0975404
0.372741
0.111067
0.0503079
-0.161375
0.165789
0.100743
-0.962445
-0.0227427
-0.0163775
-0.642169
0.750395
-0.0166704
0.180194
-0.283528
-0.728789
0.181178
-0.436105
0.254927
0.0465928
0.20243
-0.00760011
0.008152
-0.000551887
-0.0715583
-0.165481
-0.0194722
-0.129144
0.76403
-0.664797
-0.183396
0.109364
-0.187977
0.311289
-0.156974
0.0994891
1.12363
0.239805
-1.36344
-0.122464
0.141374
-0.498443
-0.219264
-0.565635
0.648101
-0.659987
0.0118866
-0.126189
-0.0572074
-1.38055
0.622106
-0.622106
-1.49699
1.49699
0.879613
0.568305
-0.833986
0.265681
-0.888336
-0.0916845
0.635434
-0.365966
-0.269468
0.155187
-0.233278
-0.00480676
0.00468164
-0.864896
-0.0754647
-0.938881
0.210726
0.066016
-0.140764
0.689765
-0.0979137
-0.591852
0.595803
0.324597
6.7096e-05
-0.00766721
-0.969101
-0.00555499
0.341821
-0.102504
-0.589658
0.692162
-0.0756317
-0.884957
-0.695223
0.218333
-0.805734
-0.943944
1.36273
-0.418789
-0.133172
0.272776
-0.139604
-0.0263686
0.716134
-0.105937
-0.98709
0.98709
-1.0838
0.478933
0.604868
-0.000817365
-0.0105569
0.132028
-0.439214
0.885194
-0.0728032
-0.0872743
-0.0335148
0.154075
0.00310627
-0.00477307
0.915815
-0.954329
-0.350565
0.426337
-0.642697
1.01894
-0.376239
-0.0807784
-0.071426
0.126426
-0.0572165
0.375642
0.00794138
-0.0808456
0.35541
0.0453227
0.0438694
-0.251256
0.207386
0.138772
0.0338607
0.0994758
0.183945
0.89238
0.326978
0.06702
0.830789
-0.897809
-0.93112
0.861017
0.248833
-0.169537
0.0796721
-0.768086
0.688414
0.635325
0.121217
-0.462674
-0.0722678
0.128789
-0.0565208
0.126401
-0.198669
-0.454516
-0.107325
-0.0739844
0.0771727
-0.00318832
-0.00415613
-0.0453072
0.106264
-0.0197642
0.700114
-0.635124
-0.0649894
-0.2884
0.301555
0.860764
0.655782
-0.273838
-0.0380377
0.0750773
-0.178651
-0.335436
0.155932
-0.54512
0.389188
0.00748484
0.000667159
-0.211101
0.590696
-0.379595
0.00344926
-0.0108999
0.00745062
-0.0273533
0.0191228
0.00823049
-1.01656
0.354276
-0.222527
-1.24489
-0.199241
-0.894709
1.45429
1.4392
-0.191326
-0.172004
0.120974
-0.0653333
0.071246
-0.00591262
0.151251
0.905229
-1.05648
0.546505
0.0889297
0.00247263
0.00501221
0.123197
-0.0981651
0.0335148
-0.0490807
0.00463114
-0.534107
0.355456
-0.0811229
0.139695
-0.243964
0.616696
1.08964
-0.27255
-0.0593081
0.000723331
0.0585847
1.71951
-0.28031
-0.0599298
-0.0528975
-1.05779
0.163077
0.381684
-0.221324
-0.469865
-0.129474
0.599339
0.790776
-0.354887
-0.435889
-0.148203
0.25927
-1.156
0.287568
-0.0244681
-0.0537582
0.0782263
0.586568
1.10943
-0.170118
0.17632
0.252086
1.92587
-0.471577
-0.66736
0.0517501
0.615609
0.38283
0.0202427
-0.347241
0.50977
0.778354
-0.0814963
0.075793
-0.0211569
-0.616499
-0.0410515
0.657551
1.11058
0.115742
-0.0801739
-0.0495881
-0.360835
0.106721
-0.314596
1.22366
-0.100027
-0.162587
0.0363981
0.265685
-0.66091
-0.0144562
0.0204461
0.110064
-0.146547
0.0364826
-0.296132
0.307149
-0.0110176
1.04164
-0.801833
-0.970346
0.0470335
0.923313
0.165947
-0.345211
0.179264
0.272457
0.0388327
0.143085
-0.626571
-0.719788
0.719788
0.744226
0.595803
-0.734357
0.314919
0.463435
-0.447152
0.349519
0.924486
-0.377982
0.0217133
-0.863761
0.842048
0.12585
0.00552155
0.0274958
-0.683415
0.8265
0.143922
-0.173838
-0.111859
0.285696
0.0817386
-0.505376
0.331539
-1.0705
-0.289821
-0.698075
-0.0672415
0.0116313
0.000843099
-0.226636
0.167277
0.118107
0.0349874
-0.149186
0.114199
-0.628109
-0.455691
-0.00554341
0.0674935
-1.01063
0.455723
0.554911
-0.554901
0.37264
-0.103466
0.196865
0.226758
-0.0135562
-0.0190801
-1.17701
1.14299
0.0354668
0.071678
-0.280059
0.0920817
0.211538
0.00916377
-0.43568
0.781598
0.54532
0.147374
0.865536
-0.785864
0.78881
-0.445293
-0.613112
0.173898
0.151886
-0.772253
0.756244
0.0160094
1.01279
0.210872
-0.21476
-0.135805
-0.152342
0.0306361
0.960427
-0.851876
-0.108551
-0.186856
0.110761
0.0274889
0.119761
0.892588
0.862627
-0.705882
-0.156746
-0.318056
-0.0478797
-0.564874
-0.445759
0.221976
1.27573
0.708373
-0.112569
0.185416
0.551122
-0.736538
-0.0828108
0.0511788
-0.00897263
-0.0045836
-0.509308
-0.103804
0.164409
-0.21348
-0.190669
0.140814
-0.525092
0.267367
-0.995617
-0.682736
-0.288575
-1.19812
1.39978
0.0240337
-0.286922
-0.138821
-0.395286
0.00741999
0.302868
0.0525424
1.33602
-0.975166
-0.193657
0.130745
-0.334391
-0.341298
0.67569
-0.0250354
0.000567301
0.0502156
-0.0649778
-0.231154
-0.11388
0.688741
-0.410373
-0.278368
-0.0446759
0.129164
-0.0936218
-0.0355423
0.242824
0.0600443
-0.019789
-0.972189
-0.0977553
0.142009
0.833844
0.0287836
0.00800495
0.187323
-0.0223331
0.0172965
0.00503663
0.0238072
-0.0472775
-0.246309
0.0788818
-0.0990106
-0.540696
0.407525
0.0213817
0.195628
-0.0296809
-0.691774
1.16822
-1.26825
0.0152346
-0.196019
0.180784
-0.133406
-0.518423
0.651829
0.0634257
-0.695418
-0.860936
-0.10941
-0.0779678
-0.000903016
0.0788709
-0.245217
-0.648101
-0.154713
-0.136879
-0.616499
-0.234221
0.168328
-0.893836
-1.10746
-0.583994
0.468104
0.115889
0.260699
0.108689
0.5324
0.329442
-0.861842
0.20468
0.0900959
0.835472
-0.110084
-0.725387
-0.219381
-0.0608338
0.921851
-0.244271
0.183118
-0.809769
0.748936
0.352917
0.30103
-0.0367199
0.0523255
-0.013683
0.920329
-0.772956
0.701819
0.0889564
-0.953485
0.216286
0.261686
0.6628
0.896096
-0.00251964
-0.023904
-0.708373
-0.698075
-0.717621
0.72208
-0.0844311
-0.868747
0.692631
0.630624
-0.943561
1.0097
0.00900087
-0.781254
-0.314888
0.640241
-0.769101
0.12886
0.0786787
0.0504854
0.126852
0.0263193
0.989464
-1.01578
0.00598494
0.00564639
-0.265827
0.216687
0.703667
0.219035
-0.205224
-0.179608
0.887956
-0.873422
-0.0265096
0.292191
0.586495
0.469225
-1.05572
-0.840549
0.799497
1.0028
-0.547074
0.10094
0.68387
-0.657551
-0.0106002
0.215028
-0.0787147
0.129705
0.0933498
-0.00275813
-0.0226276
0.0253857
-1.02317
-0.0232313
0.32596
-0.804834
-0.453147
1.15648
-0.703329
0.371458
0.647478
-0.0470532
0.0502374
-0.0031842
-0.0127857
0.900742
-0.717351
0.891299
0.529351
-0.982499
0.315004
-0.0999763
-0.585053
-0.410564
-0.405765
0.99226
-0.0497226
-0.854761
-1.66466
0.193213
0.68387
0.047435
-0.852269
0.830458
-0.642931
-0.187527
-0.984711
0.399658
-0.00112228
0.112933
-1.58729e-05
-0.112917
-0.966775
0.556211
-0.208941
0.912102
-0.934845
0.193735
-0.21134
-0.09619
0.244265
1.02414
-0.0436897
-0.209698
-1.49455
0.131112
0.869983
-0.951479
-0.550085
-0.51641
1.06649
0.449915
0.0180485
-0.0106094
-0.741456
0.718225
0.688961
-0.701747
-0.7618
0.707481
0.0543192
0.639739
0.516737
0.799591
-0.824142
-0.491172
-0.448269
-0.467895
-0.49888
0.809247
-0.809247
0.694021
-0.694021
-0.741456
-0.698167
0.698167
-0.707481
-0.538684
-0.362373
-0.403638
-0.784506
0.784506
0.688961
-0.701747
0.799591
0.779829
-0.779829
0.824142
0.761924
-0.761924
0.508828
0.532105
0.48359
-0.0955446
-0.50112
-0.551731
1.08384
-0.529998
-1.05788
0.652118
0.53552
0.467277
0.0178766
-0.0162408
0.0972428
-0.882459
0.0871941
0.795264
-0.187866
0.165683
-0.982347
0.583316
0.919767
-0.604848
-0.123806
0.00144853
-0.011601
-0.792326
-0.0720167
-0.548942
-0.00305328
0.00181605
0.0602132
-0.231104
0.126248
0.1834
0.0157316
-0.0225013
0.00676968
-0.812862
0.0723015
0.74056
0.471817
0.552319
-0.522841
0.413356
0.109485
0.925999
-0.731874
-0.194125
0.0848276
0.300762
-0.014285
-0.0596994
-0.060036
-0.0146308
0.222412
-0.978061
-0.824752
0.0982081
-0.737881
0.798011
-0.0601297
0.114947
-0.889512
0.774564
-0.803364
0.906347
-0.102983
-0.0866428
0.11045
0.0204824
-0.289747
0.528016
0.464244
-0.0915032
-0.790955
0.911915
-0.0894218
-0.822493
0.101666
-0.182444
1.00734
0.834495
-0.654753
0.475821
-0.386891
0.0993455
-0.890301
1.04894
0.448046
-0.770458
-0.0107968
1.01751
-0.90256
1.22463
0.967284
-0.51881
-0.448474
-0.85989
-0.122457
-0.417865
0.0394126
-0.340529
0.179154
-0.78942
0.78942
-0.605827
-0.076513
-0.848338
0.116464
-0.978014
0.87551
0.0736
-0.203681
-0.0571456
0.0559375
0.0108336
0.173997
0.84351
0.829834
0.773837
0.139586
-0.913422
-0.499011
0.966287
-0.772511
-0.0989793
0.871491
0.180089
-0.89744
-0.674341
0.893181
-0.793836
-0.105011
0.461377
-0.0177321
-0.443645
-0.278486
0.939779
-0.661293
-0.358673
-0.333222
0.691894
-0.877522
-0.826932
0.0890508
0.521191
0.267619
-0.974118
0.641843
-0.653332
0.653332
-1.14004
-0.354511
0.281399
0.545102
-0.835833
0.882866
0.794202
-0.195721
0.925212
-0.570935
0.533333
-0.949164
0.415831
-0.259489
-0.753088
0.307187
0.468273
0.306253
0.436398
0.194367
0.309753
-0.224926
0.777548
-0.880531
0.56279
0.403497
-0.149472
0.732788
0.647772
-0.647772
-0.0899315
0.0985689
0.113109
-0.0781216
0.56193
0.377849
0.303173
-0.00372139
-0.00414753
0.00786892
-0.670978
0.6886
-0.017622
0.430675
-0.949485
0.0999744
-0.89381
-1.00869
1.11934
-0.110653
0.296982
0.881396
-0.651341
1.08202
-0.754225
0.60748
-0.660865
-0.653529
0.155086
-0.416152
0.0234217
0.146333
-0.943223
0.527071
-0.00556
-0.995548
0.0671391
0.730872
0.691959
-0.0844795
0.0672141
0.769899
-0.456574
1.03335
-0.576777
-0.473212
0.507402
0.128893
-0.915188
0.701561
0.213627
-0.680452
-0.125282
1.00828
-0.0593237
-0.438601
-0.0316676
0.488966
0.511034
-0.76922
-0.111311
-0.485555
-0.55507
-0.478287
-0.547342
0.408527
0.591473
-0.193848
0.192141
-0.858642
-0.0686007
-0.592264
-0.150843
-0.242775
0.393618
-0.0417156
-0.00546082
0.115375
0.0735953
-0.130064
-0.116246
0.758939
-0.649739
0.716953
-0.406593
-0.53663
0.863167
-0.354655
-0.508512
-0.706919
-0.204807
0.911726
-0.240709
0.227374
-0.0286267
-0.114918
0.0112004
0.014316
0.796806
-0.143474
0.118343
0.108415
-0.730369
0.0593913
0.923242
-0.468477
0.585237
-0.722063
0.851355
-0.297616
0.985345
-0.000558649
0.410247
-0.158161
-0.00275933
-0.0852791
-0.181218
0.365218
0.558023
-0.436586
0.826221
-0.389635
0.84799
-0.0216072
0.00293262
0.0186745
0.130609
-0.0102919
-0.0017225
0.215899
-0.105835
0.163359
-0.999192
-0.801771
0.365185
-0.00544442
0.278218
0.471566
-1.1545
1.3267
-0.172201
-0.792074
0.851646
-0.0595713
-0.365373
-0.22775
0.580667
-0.0717718
0.927149
-0.458485
-0.0643559
0.278425
0.440778
0.179818
-0.620596
0.395372
0.0418493
0.64675
-0.568022
0.566832
0.00119014
0.949667
-0.942247
-0.0569346
0.0722226
-0.0152879
0.698518
-0.0111319
-0.0844038
0.0175957
0.845257
-0.730121
0.364748
0.132068
-0.13277
-0.212441
0.140257
0.0781908
-0.218448
-0.00140779
-0.00135035
0.667635
-0.777719
0.322787
0.216242
-0.0255725
-0.079809
0.228276
0.0963077
0.00896545
0.14482
0.765657
-0.232249
0.777045
-0.544796
0.907625
-0.39597
-0.511655
0.646839
0.118343
-0.0965056
0.00470036
0.0918052
-0.400622
-0.366052
-0.583112
-0.00594871
0.730284
0.704215
0.176711
-0.503857
0.630709
0.826928
0.11376
-0.0142709
-0.871569
0.233464
-0.270165
0.0813804
-0.166147
0.693564
0.0720934
0.0138455
0.863516
-1.09127
-0.228538
0.1747
0.023293
-0.110318
0.424326
-0.0582084
-0.39846
-0.0673361
0.20487
0.645668
0.261957
-0.148683
0.950383
-0.0371282
-0.106877
0.0196657
-0.00160359
-0.0180621
-1.03713
0.0948865
0.000502835
0.928203
-0.233327
-0.60645
0.628537
-0.0220875
-0.081567
0.752955
-0.873946
0.365434
0.0809398
-0.17713
0.628777
0.124178
0.690573
0.256323
-0.265864
0.741685
-0.342593
0.900617
-0.592429
0.352202
0.240227
-0.508761
-0.0726572
0.0408357
0.0657824
-0.0486203
1.23499
0.730622
0.0963057
0.612398
0.217661
-0.860205
-0.0828957
-0.679096
0.668299
-0.0248261
-0.565807
0.414964
0.859482
0.670626
0.277419
-0.00982398
-0.142333
-0.320341
1.08082
0.0874004
-0.785605
0.0591463
0.537248
0.363368
0.654181
0.326809
-0.0800717
0.902683
-0.717932
0.894357
-0.176425
-0.402792
-0.189637
-0.0843357
-0.19221
-0.0804834
0.940346
0.0215529
-0.00788811
0.620382
-0.060438
-0.661625
0.602025
-0.127526
0.233474
0.742889
0.255262
-0.998152
0.269582
-0.912513
-0.166851
-1.1014
-0.174748
0.757477
-0.582729
-0.675765
-0.154764
0.0398468
-0.0552046
-0.908441
0.0178685
-0.0402016
0.951659
0.0984206
-0.374342
0.275922
-0.0558372
-0.603087
0.191364
0.218883
-0.920782
0.00925469
0.00647694
-0.420857
-0.0534371
-0.586642
0.0186193
0.55591
0.303572
0.693108
0.970288
-0.236965
-0.376513
0.613478
0.288758
-0.62172
0.62172
-0.204843
-0.918062
1.12291
0.0307608
-0.153225
0.665733
-0.109823
-0.223362
-0.216425
-0.222175
0.520493
0.519675
-0.388085
0.18013
-0.105523
-0.723654
0.483918
0.0829145
0.0610844
0.0113641
-0.865657
-0.579753
-0.251938
0.696971
0.303029
-0.579753
0.696971
-0.586435
-0.255597
-0.586435
-0.701543
0.701543
0.298457
-0.0141792
0.20711
-0.0759434
0.229069
0.179062
-0.480624
0.635765
-0.0337402
0.639757
-0.490985
-0.148771
-0.0533239
0.0519097
0.00141417
-0.00159193
-0.00212946
0.356188
0.0186474
-0.129438
-0.435597
-0.358536
0.1319
0.0378572
0.841222
-0.2901
-0.354584
-0.0407021
0.0093823
-0.268124
-0.0070037
0.663821
0.0664622
-0.187777
-0.0452705
-0.00396276
0.0227211
0.0898302
0.559588
-0.473442
-0.0861452
1.19024
0.551286
-0.828324
0.892648
0.0115265
-0.0639913
0.109062
-0.14687
0.218329
1.12786
-0.384973
0.0174987
-0.0847402
0.682965
-0.746943
0.0205225
-0.0205225
0.0208955
-0.0208955
-0.0314364
0.0314364
0.0340723
0.366215
0.45442
-0.073223
-0.696927
0.462085
0.186987
0.0289116
-0.0827086
-0.480773
0.988951
0.111708
-0.79216
-0.85572
0.126931
0.162492
0.0205957
-0.00147295
-0.0252306
0.0252306
0.63444
-0.0243276
0.0243276
0.718228
0.0957258
-0.0317701
-0.0135004
0.00651813
-0.0658262
-0.0212138
0.0212138
-0.0205481
0.0205481
-0.022865
0.022865
-0.0185753
0.0185753
0.193646
-0.298492
-0.079402
0.225008
-0.0170547
0.0170547
-0.369951
0.507276
-0.137326
0.491031
-0.218255
0.130054
-0.484638
0.552476
-0.155899
0.0755108
0.553026
0.574069
-0.00712561
0.00712561
0.392889
0.0254167
-0.0254167
-0.0150181
0.0150181
0.739332
-0.842747
0.0429656
0.397198
0.193498
0.00155305
-0.00155305
0.0252024
-0.0252024
0.0188641
-0.0188641
0.0218653
-0.0218653
-0.0241203
0.0241203
0.0360096
-0.0360096
0.48812
-0.0327097
0.0327097
0.000169453
-0.000169453
0.0247768
-0.0247768
-0.010895
0.010895
0.00955731
-0.00955731
-0.0765736
-0.0262242
0.0262242
0.204715
0.028165
-0.0404005
0.0404005
0.0103695
-0.0103695
0.0323021
-0.0323021
0.0344142
-0.0344142
0.0249657
-0.0249657
0.00315664
-0.00315664
-0.0032941
0.0032941
-0.436401
0.176464
-0.0178679
0.0178679
0.00187046
-0.00187046
-0.0389755
0.0389755
-0.0275753
0.0275753
-0.00134137
0.00134137
-0.407056
0.668743
0.261635
-0.0326735
0.0326735
-0.0523158
-0.0274535
0.0274535
0.00318126
-0.00318126
0.0366356
-0.0366356
-0.0650155
0.0507446
0.00580736
-0.00580736
-0.0215689
0.0215689
-0.47441
0.0428
-0.733523
-0.030653
0.030653
-0.429255
0.0320257
0.0182117
-0.311735
-0.64175
-0.0373289
0.0373289
-0.203027
0.144819
-0.0405296
0.00415808
-0.00415808
-0.00151152
0.0489444
0.256649
-0.317367
-0.273107
0.590474
0.186935
-0.00837064
0.00837064
-0.457799
0.400379
0.0574196
0.737262
-0.369154
-0.368109
-0.46464
-0.621626
-0.342685
0.301983
-0.309207
-0.164005
-0.571479
0.0205185
0.192142
-0.978783
0.0162643
-0.0162643
0.00391894
-0.00391894
0.0313876
-0.0313876
0.0260137
-0.0260137
0.00371962
-0.00371962
0.00325178
-0.00325178
-0.246949
-0.313352
0.167453
-0.291259
-0.00319361
0.00319361
-0.0446611
0.0446611
-0.0409516
0.0409516
0.295118
0.0127527
-0.30787
0.00734679
0.301776
-0.535103
0.00220972
-0.00220972
-0.0279358
0.0279358
-0.100503
-0.321525
-0.0211602
0.00380367
-0.00380367
0.143596
0.0145167
0.995421
-0.477681
-0.0861007
0.563782
-0.622214
-0.370688
0.0301593
-0.0383565
0.0383565
-0.672073
0.273072
0.0504445
-0.0504445
-0.650449
0.380981
0.25978
0.118636
0.00460982
-0.00460982
-0.835806
0.00376672
-0.00376672
0.308884
0.40725
0.110149
-0.0545961
0.0545961
0.00360197
-0.00360197
-0.0430157
0.0430157
-0.0534209
0.0534209
0.00486693
-0.00486693
-0.0589902
0.0589902
0.00474135
-0.00474135
-0.0463932
0.0463932
0.00293166
-0.044811
0.044811
-0.00306785
0.00306785
0.0489932
-0.0489932
0.00288782
-0.00288782
0.0471705
-0.0471705
-0.147826
-0.00109965
0.00109965
-0.00476596
0.00476596
-0.0649468
0.081995
-0.0122166
0.0122166
0.00402245
-0.00402245
-0.0606499
0.0606499
0.30299
-0.0204471
0.0204471
-0.0564225
0.0564225
-0.00765664
0.00765664
-0.0688366
0.0688366
-0.0136568
0.0136568
-0.0825629
0.0825629
-0.0228789
0.0228789
-0.092905
0.092905
-0.669666
-0.0334532
-0.521147
0.49906
-0.884957
-0.196464
-0.547346
0.3812
0.0615459
-0.106222
0.000898212
-0.000898212
0.370564
-0.686521
0.0443311
-0.0329671
-0.525652
0.850249
0.615414
0.248256
-0.0604691
0.0204017
-0.388078
-0.578184
-0.0853052
0.375934
-1.23417
-0.021014
0.021014
-0.765054
0.0187107
-0.0187107
-0.00132155
0.00132155
0.334628
-0.249465
0.000649691
-0.000649691
0.0184475
0.0139195
0.593843
0.0788549
0.00134069
-0.0116246
-0.0122794
-0.0985719
0.496363
-0.397791
0.359028
-0.051841
-0.00746582
1.21605
-0.0189914
0.0503846
-0.404624
0.444036
-0.490725
-0.969034
-0.255032
-0.0730524
0.0185376
-0.62416
0.290939
0.0659447
-0.00474964
-0.0202742
0.770678
-0.543272
-0.0383688
0.0616618
-0.0354554
-0.0692495
0.276359
0.420954
0.236054
-0.158283
0.210172
0.0238997
-0.00276496
-0.744071
0.0404524
-0.0670948
-0.307247
-0.0180296
-1.14115
-0.0722824
0.26675
-0.351741
0.397064
0.0181202
-1.21624
0.0599501
-0.0290326
-0.153412
-0.344787
0.454271
-0.111892
-0.0207181
0.13261
-0.0279651
0.0279651
0.167064
-0.440902
-0.108481
0.152604
-0.0810956
0.0562695
-0.0614591
-0.00578023
0.0672393
-0.0317499
-0.15559
0.162348
-0.131313
-0.277695
-0.343321
0.621016
0.0149813
0.060493
0.14692
-0.0285771
-0.172385
0.0696657
-0.157791
0.309677
-0.0112157
0.0298903
-0.0260475
0.172968
0.00395431
0.261527
-5.24212e-05
5.24212e-05
-0.177088
0.831269
0.0904767
-0.173372
-0.0700111
-0.00562061
0.459507
0.62251
0.0116413
-0.0437427
-0.526544
0.00539732
-0.193695
0.0922956
-0.683971
0.305989
-0.0548162
0.361466
-0.639161
0.201272
0.500289
-0.0926443
0.0926443
-1.58739e-05
-0.92778
0.470341
0.457439
-0.214034
0.15883
-0.181279
0.223781
-1.02561
-0.213869
-0.0602821
0.0764322
0.922426
0.387412
-0.109993
-0.0692153
-0.375578
-0.606921
-0.100597
-0.268604
0.778374
0.566683
-0.264907
-0.274176
0.552394
0.285141
0.391174
-0.267736
0.135083
-0.45955
0.322225
0.121817
-0.121817
0.140924
-0.154524
0.0135995
0.00884166
-0.00693622
0.0172965
-0.305357
-0.0952649
0.222536
-0.181375
-0.0411611
0.539137
-1.0802
-0.262998
-0.855824
0.679506
-0.116602
-0.174656
-0.0372887
-0.0765911
-0.491264
0.0556674
-0.287498
0.00575231
-0.0180296
0.383353
-0.00532872
0.00086573
0.00152059
0.0145662
-0.0195204
0.00495425
-0.0967775
-0.019339
-0.169803
0.189142
-0.124741
-0.334809
0.0184475
0.344517
0.00398286
-0.377146
0.0885708
0.00255174
0.174361
-0.247584
-0.012515
0.012515
-0.00104638
0.00465431
-0.0090603
0.00203656
-0.0907292
0.000651521
-0.00125527
0.36834
0.00440133
0.00275904
-0.00275904
0.157805
0.496875
0.00268023
-0.281963
0.533886
1.14331
-0.469528
0.322738
-0.435057
-0.288674
0.180193
0.224249
-0.223479
-0.0162945
0.0186511
-0.00433512
-0.00694846
-0.174706
-0.375721
0.837806
0.448095
-0.695044
0.303469
-0.00159534
0.350339
-0.053357
0.00225111
0.000366149
0.0182849
-0.232934
0.00142495
-0.000296404
0.696869
-0.627203
-0.245246
-0.291139
0.664593
0.00131081
0.00251325
-0.0405296
-0.00568729
0.809491
-0.431267
0.514181
-0.807008
0.894502
-0.802939
0.557405
-0.176205
0.688295
0.00252432
0.00243182
0.0181639
-0.106273
0.136562
-0.172658
0.00889966
0.0102167
0.0661143
-0.0511516
-0.0149627
0.00256328
0.0493634
0.0381856
-0.087549
-0.0972707
-0.00499046
0.000842928
-0.000308815
0.484162
-0.425869
-0.00436638
0.000868347
0.812739
-0.342398
0.381158
-0.00594134
-0.00023914
0.388972
-0.0661848
-0.0417132
-0.10703
-0.0159774
-0.0036227
0.122753
0.079413
-0.00181184
0.399123
0.00197255
-0.00279049
0.00279049
0.0127508
-0.0243754
0.000526009
-0.319022
-0.00384482
0.0734735
-0.107703
0.198071
0.118414
-0.064953
0.000983884
0.00366631
0.44631
0.0008902
-0.00725837
-0.0770773
-0.00206407
0.00128895
0.00657434
0.296598
-0.701787
0.455354
-0.831076
-0.0305859
-0.000201708
-0.744589
0.177614
0.0167533
0.569202
-0.0150644
0.0256692
-0.00415161
-0.00145137
-0.547895
-0.00337755
-0.000125579
-0.0516275
0.928339
-0.532967
-0.00259995
-0.00185352
-0.00605373
-0.00398747
0.075733
-0.0220319
0.0220319
-0.0569884
0.0616428
-0.00363419
-0.00818672
0.0648681
-0.0640024
-0.167148
0.0944906
-0.00600016
-0.0137263
0.0397844
-0.0167829
0.0635442
-0.0450066
-0.638709
0.578579
0.0428105
-0.00312424
0.353932
-0.149062
-0.0666845
-0.650615
-0.0727441
-0.114636
-0.0952921
0.093228
0.681292
0.00137397
0.0253408
-0.0228275
0.365602
0.0599338
-0.141518
0.0815838
-0.0714219
-0.609474