/*--------------------------------*- C++ -*----------------------------------*\
| =========                 |                                                 |
| \\      /  F ield         | OpenFOAM: The Open Source CFD Toolbox           |
|  \\    /   O peration     | Version:  2306                                  |
|   \\  /    A nd           | Website:  www.openfoam.com                      |
|    \\/     M anipulation  |                                                 |
\*---------------------------------------------------------------------------*/
FoamFile
{
    version     2.0;
    format      ascii;
    arch        "LSB;label=32;scalar=64";
    class       surfaceScalarField;
    location    "30.7";
    object      phi;
}
// * * * * * * * * * * * * * * * * * * * * * * * * * * * * * * * * * * * * * //

dimensions      [0 3 -1 0 0 0 0];

oriented        oriented;

internalField   nonuniform List<scalar> 
3181
(
-1.03281
0.399182
0.633625
-0.392057
0.367835
0.0242218
0.524715
-0.360921
-0.163794
0.1208
-0.200379
0.0795788
-0.0114831
0.0333682
-0.0218851
0.94694
0.654012
-1.60095
0.149568
-0.143197
-0.0063714
0.0283755
0.0054943
-0.0338698
0.582684
-0.792885
0.210201
-0.0756333
0.136525
-0.0608919
-0.0103303
-0.0512199
0.0615502
0.133223
0.0449197
-0.178143
-0.0160235
-0.0181523
0.0341758
-1.1022
0.151974
0.950229
-0.326835
0.702228
-0.375393
-1.12178
0.637843
0.483932
0.0849951
-0.931038
0.846043
-0.177807
0.224673
-0.0468655
-0.431086
-0.663467
0.0091304
0.0411265
-0.0502569
0.0389479
-0.087236
0.0482881
-0.065419
0.0627812
0.00263774
1.06846
-1.04313
-0.0253335
0.0327794
0.0312106
-0.0639899
-0.9586
0.328062
0.630538
-0.108617
0.229417
0.30705
-0.246909
-0.0601402
0.0298193
0.0628043
-0.0926236
-0.412119
0.339674
0.072445
-0.0337413
-0.0228741
0.0240585
-0.00118442
-0.0380993
-0.9205
0.0282045
-0.0509802
0.0227757
0.176392
1.17613
-1.35252
-0.0514511
0.0516405
-0.000189343
0.179619
0.276668
-0.456287
1.49695
-1.32056
0.0723053
-0.0333574
1.53644
-0.810662
-0.725782
-0.551947
1.49889
-0.0512641
0.0352406
-0.0574763
-0.00794268
-0.412679
0.0858438
-0.133839
0.0763625
-0.634461
0.127186
0.507275
-0.147896
0.0722631
-0.169855
0.174154
-0.00429908
-0.271058
-0.0774116
0.34847
0.293883
1.19029
-1.48418
0.0358493
0.167468
-0.203317
-0.0137437
-0.100003
0.106069
-0.00606681
0.512489
0.18974
-0.0952753
0.142132
-0.0468566
0.0927123
-0.0645077
-0.171272
0.197593
-0.0263204
0.163903
0.058353
-0.222256
0.109532
-0.115501
0.00596885
1.23218
0.30426
-0.847244
-0.185563
-0.0527749
-1.77225
1.82502
0.552706
0.232821
-0.785527
-0.446614
-0.207155
0.65377
-1.56549
1.01355
-0.273491
0.826197
-0.323423
-0.104046
0.427469
-0.207464
-0.204655
-0.189589
0.167503
0.0220854
0.136987
0.283266
-0.420253
-0.258572
0.841256
-0.0190883
0.0474638
-2.22169
2.16891
0.185513
0.121536
-0.177715
-0.111791
0.289506
-0.268857
0.357456
-0.0885988
-0.0811164
0.0894753
-0.00835891
-1.92781
-0.919579
0.00963706
0.909942
-0.0431319
-0.00831923
-1.07866
0.796092
0.282563
0.39761
-0.177886
-0.219724
-1.53486
-0.0306385
1.10225
-0.950279
-0.720105
1.15181
-0.201583
1.06415
0.169032
-0.173276
0.00424338
1.12715
-0.473137
1.31981
-1.31981
-0.00741953
-0.00203968
0.00945921
-0.21163
-0.0534672
0.265097
0.0391053
-0.045839
0.00673375
-0.455581
0.834877
-0.379296
-0.0210496
-0.234104
0.255154
-1.08655
0.0434197
0.347844
0.0557156
-0.403559
0.132658
-0.865159
1.09798
0.022103
0.113112
-0.135215
-0.0177868
-0.153486
-0.447237
0.0667982
0.380439
-0.143827
-0.30341
0.120173
-0.985332
0.325637
-0.781217
0.92567
-0.840675
0.0455054
0.0577572
-0.103263
0.0843169
0.0521327
-0.13645
-1.3445
-0.136075
1.48057
-0.244252
0.409498
-0.165246
-0.953283
0.521911
0.431372
-0.473795
-0.60486
0.08408
-0.0482307
-0.153854
0.148192
0.00566134
-0.0775577
-0.0144665
0.0920242
-0.580379
-0.212507
-0.0091766
0.0127667
-0.00359015
-1.2016
-0.540633
1.74223
1.78761
-0.597318
-0.0198064
0.0123869
0.0356164
0.149897
-0.201207
0.380826
-0.0276275
0.230143
-0.202515
0.139076
0.0684578
-0.207534
0.0522891
0.238597
-0.290886
-0.595014
-0.526761
-1.3954
0.193797
-0.0396444
0.0617475
-0.104644
0.183321
-0.0786778
-0.125518
0.0248734
0.124695
-0.0572082
0.0696541
-0.0124459
-0.0951864
-0.0214212
0.116608
0.0754781
-0.0754781
-0.185324
0.210197
0.253783
0.13984
0.104627
0.0929657
-1.26518
1.00661
-1.56661
0.10824
1.45837
0.0314113
-0.0282598
-0.00315148
-0.0266533
-0.0512854
0.0779387
0.534103
-0.018224
-0.515879
-0.0273724
0.0274474
-7.506e-05
-0.200214
0.0148902
0.164205
0.670672
-0.363754
0.527959
-0.122549
-1.22195
-0.0921305
0.0806474
0.485809
-0.303048
-0.182761
0.0288764
-0.0280196
-0.000856774
0.0483901
-0.319448
0.023641
-0.94322
0.0494225
-0.154066
-0.286332
-0.400835
0.0737569
1.39258
-0.937545
-0.455039
1.08795
0.304632
0.067134
0.281336
0.0282246
0.00318666
0.0776118
0.0857277
-0.16334
-0.251958
-0.588029
0.839987
-0.356042
0.696063
0.161208
-0.824674
0.166002
0.0322422
-0.0333809
0.00113871
-2.12747
0.292954
1.83452
-0.216359
-1.91111
-0.306956
0.6548
-0.907397
-0.0170573
0.00500038
-0.268283
0.263283
1.46221
-1.58139
0.119185
-0.0477681
-0.0443624
0.572206
-0.824165
0.273696
-0.345767
0.0720702
-0.295802
-0.12012
0.415921
0.198245
-1.01109
-0.0754562
0.00291388
-0.0531708
-0.55933
0.352174
-0.247424
0.0186051
0.228819
0.066369
-0.114137
-0.0161068
0.0161068
-0.120099
0.131783
-0.0116842
-0.292381
-1.27423
0.0158191
0.0203806
-0.0361997
0.00954894
-0.081541
0.071992
-0.223125
0.0335368
1.44091
-0.430052
-1.01086
-0.189646
0.447364
-0.257718
0.0170938
-0.0167874
-0.000306354
-0.567067
-0.386216
-0.186119
-0.00478129
0.1909
-0.171963
0.30895
-0.101819
0.100136
0.00168282
0.076742
0.0103621
-0.0871041
-0.0988311
0.0960818
0.00274922
-0.440945
0.845437
-0.404492
-0.220238
-0.0509691
0.271207
-0.692569
0.662901
0.0296677
-0.00770906
0.0389196
-0.00205659
0.00277435
-0.000717751
-0.0220974
-0.0418925
1.14886
0.638757
0.172694
-0.887362
0.714667
0.0306684
2.04818
-2.07885
0.381763
0.440938
0.878873
0.0645742
0.205002
-0.0659258
-0.071356
-0.0286466
0.236039
0.158425
-0.0741084
0.736554
-0.408492
0.0607799
0.204317
0.0510191
-0.166793
0.115774
-0.768098
-0.132944
0.901042
0.00144392
-0.00144392
-0.00547475
-0.267869
0.544537
0.0120954
-0.232333
0.20181
0.0228624
0.00320724
-0.0428517
0.13664
-0.14697
-0.347079
0.32603
0.015569
0.0760708
-0.0916398
0.386449
-0.34153
0.133234
-0.307479
0.174245
-0.206836
0.27397
0.186774
-0.489822
-0.205253
0.604435
0.165407
-0.033872
0.033872
0.0607308
0.216196
-0.276927
0.382466
0.0270318
-0.0269295
0.0295389
-0.00260941
-0.0902052
0.0223806
-0.0315572
-0.0494086
0.186048
-0.181217
0.242445
-0.0612282
0.130562
0.0278631
-0.389947
0.143037
0.192149
-0.061587
-0.045984
-0.0558352
-0.033669
0.0417703
-0.00810127
0.148145
-0.105035
-0.0431102
-0.0192645
0.398049
-0.378785
-0.0608131
0.0417248
0.104562
-0.108882
0.00431993
0.0237852
0.0477297
0.0855039
-0.0658175
0.00836627
0.0574513
-0.0659516
0.0425077
0.0234438
-0.0922361
0.0977571
-0.72037
0.622613
-0.035445
-1.44333
-0.329757
1.77308
0.460496
1.29897
-1.75947
0.0832113
-0.0457073
0.284305
0.280324
0.25139
-0.531714
-0.207299
0.258318
0.140859
-0.880521
0.739663
-0.0240999
-0.0418516
-0.0145646
0.0174785
-0.988964
0.44457
0.544394
0.937545
-0.817372
-1.62409
1.48801
-1.46221
1.57045
0.0392538
-0.0861105
0.00157763
-0.00363423
0.0137948
0.794635
-0.653776
0.121694
-0.0722711
0.414528
0.737285
-0.0545672
-1.74504
1.77571
-0.688492
-0.576687
-0.240468
-0.393993
-0.0255724
-0.165831
0.214221
-0.574436
-0.372394
0.182748
0.77325
-0.239147
-0.856034
-0.768052
0.744901
0.0707236
-0.0948235
0.282118
0.0382974
-0.0382974
0.670792
0.148577
-0.819369
-0.224931
0.895722
0.655268
-1.19121
0.535946
0.142616
-0.00277574
0.00600461
0.00745179
-0.0134564
-1.77225
-1.0799
0.482582
1.04689
0.394022
-0.0348592
-0.134996
-0.246587
0.759075
-0.198486
-0.0489381
-0.00299688
-0.0781195
-0.0538827
0.106015
0.377924
-0.250739
-0.811041
-0.288122
-0.0965837
0.0060992
0.0904845
-1.23578
1.67671
-0.119206
0.0682353
0.0509705
0.038408
-0.0101834
-0.0228198
-0.0103441
0.0331639
0.0101731
0.417296
0.0178677
0.0110087
-0.00372622
0.00270106
0.00102516
-0.0162533
-0.169866
-0.726513
0.373801
0.352712
1.24667
-1.89515
0.648483
0.138685
-0.159906
0.0212209
0.0134362
0.0706438
-0.0026348
-1.31718
-0.045074
0.0222542
-0.0617508
0.01352
0.144357
-0.345564
-1.70549
0.844581
0.860909
0.0336305
0.0930784
0.0550664
-0.768098
0.546941
-0.987887
0.0563835
-0.0667276
0.0439596
-0.640196
-0.0523724
0.0611706
0.130979
0.27837
0.0394461
-0.459699
0.122785
0.349005
-0.293289
-0.116128
0.0209419
0.221867
0.837216
-1.05908
0.104572
-0.712679
0.608108
-0.937896
0.804952
-1.68942
0.155881
1.53354
-0.015851
0.0163004
-0.000449437
0.171256
-0.467058
0.208801
-0.122077
-0.0867232
0.0552262
-0.0127184
-0.0765691
-0.0200147
-0.0146629
0.0146546
-0.0367521
0.0204543
0.0795238
-0.0999781
1.11576
0.0036491
-0.00374774
9.86418e-05
0.0572381
-0.0155134
0.85971
0.0137693
-0.0581317
-0.493949
-0.585952
0.0866433
0.0559725
0.00762461
0.0854538
-1.53354
1.31718
0.0461878
-0.280269
0.234081
-0.253888
0.0806127
0.119468
-0.115225
-0.00142849
0.0909038
-0.0218781
-1.27084
-0.434645
-0.0441224
0.0645767
0.739933
-0.256001
-0.123256
0.132805
0.346814
-0.000644311
-0.0262852
-0.00785729
0.0833354
0.14529
0.212167
0.155695
-0.333326
0.177631
0.107581
0.563091
-0.0382819
-0.109615
0.916226
-0.246084
-0.670143
-1.68942
-0.169083
1.41575
1.49695
-0.200742
0.304048
-0.103306
0.368117
-0.0779427
-0.290174
-0.294239
-1.24062
-0.0735056
0.0744171
-0.000911507
-0.186085
-0.0015703
0.187655
0.395145
-0.995783
0.600638
0.0400402
0.660818
-0.700858
-0.0443662
-0.109487
-0.0258097
-0.0400078
0.313695
-0.252964
-0.0140674
-0.00178361
0.18679
-0.0601135
-0.126677
0.11625
-0.0386386
0.00758622
0.0308218
-0.0594509
0.117208
0.00280175
-2.7403e-05
0.197596
-0.431701
-0.258964
1.55793
0.00488705
-0.00633098
-0.992955
-0.018137
0.0091586
-0.0721478
-0.0439804
0.0487255
0.224971
0.699826
-0.673079
-0.0267469
0.0898475
-0.00320423
-0.936645
-0.0136335
-0.017812
-0.648765
0.746522
-0.0177503
0.183157
-0.333393
-0.857822
0.185252
-0.441911
0.256659
0.0464875
0.183655
0.0101171
-0.0105873
0.000470177
-0.0482207
-0.0506104
-0.0208416
-0.132644
0.741773
-0.637201
-0.0676614
0.041126
-0.00295541
0.313222
-0.157527
-0.117152
1.11527
-0.120933
-0.994336
-0.121023
0.139628
-0.505612
-0.220901
-0.554885
0.605137
-0.589382
-0.0157548
-0.0636036
-0.00405778
-1.74504
0.550809
-0.550809
-1.64363
1.64363
0.794635
-0.643892
0.194179
0.449713
-0.899908
-0.0930473
0.63423
-0.370075
-0.264154
0.161366
-0.240044
-0.0133834
-0.006423
-0.901335
-0.083997
-0.932913
0.212543
0.0433636
-0.0372644
0.696243
-0.10631
-0.589933
1.23505
0.261903
-0.00141291
0.01153
-0.961979
0.151168
-0.458647
-0.0823385
-0.609853
0.692192
0.00771766
-0.877257
-0.704133
0.218727
-0.813741
-0.901042
1.33042
-0.429382
-0.139718
0.27963
-0.139912
-0.0288237
0.725067
-0.107282
-0.972427
0.972427
-1.05608
0.892
0.164085
0.000463809
0.00318529
0.0209385
-0.439781
0.836849
-0.0407564
-0.0857994
-0.0353005
0.0491369
0.00782692
0.00926683
2.17008
-2.0142
-0.333862
0.410604
-0.642941
1.02164
-0.378704
-0.0627671
0.0176931
0.124413
-0.0559551
0.357996
0.00610923
-0.0242615
0.354895
0.0431543
0.0428677
-0.248684
0.205816
0.139817
0.0343373
0.0977595
0.181553
1.95315
0.21576
0.266465
0.179624
-0.446089
-1.20981
1.50277
0.225756
-0.149394
0.0768485
-0.767137
0.690288
-0.377427
0.126909
-0.473988
-0.0748554
0.133124
-0.0582688
0.129971
-0.204827
-0.451051
-0.108279
-0.0720916
0.0752129
-0.00312123
0.00343868
-0.000636935
-0.0507104
-0.0137973
0.653776
-0.608108
-0.0456689
-0.291509
0.303604
0.877256
0.623189
-0.255072
-0.00530011
0.0256807
-0.122685
-0.223082
0.169682
-0.577651
0.407969
-0.00983046
-0.000756841
-0.360822
0.223162
0.13766
0.00632759
-0.0122977
0.00597008
-0.024432
0.0166197
0.00781231
-0.544993
0.0718556
-0.16278
-1.28055
-0.199661
-0.817372
1.57045
1.48801
-0.192589
-0.173596
0.122627
-0.0635286
0.069215
-0.00568635
-0.0110684
0.670443
-0.659374
0.557412
0.076818
0.000643172
-0.0104736
0.121545
-0.550817
0.0353005
-0.0486133
0.00449092
-0.457866
0.335181
-0.0111564
0.0143637
-0.237573
0.624023
1.08795
0.267988
-0.0614993
0.00130806
0.0601913
1.80641
-0.318399
-0.0610221
-0.0544784
-0.979907
0.162535
0.415197
-0.216952
-0.477804
-0.133333
0.611137
0.826431
-0.369678
-0.456753
0.224119
0.475708
-1.77571
0.00346133
0.00473639
-0.0199653
0.0152289
0.123839
1.92434
-0.173622
0.179627
-0.0746906
2.21147
-0.64102
-0.677011
0.0513938
0.625618
0.386931
-3.27221e-06
-0.3505
0.526663
0.803307
0.348118
0.0765731
-0.0215067
-1.40778
-0.0379902
1.44577
1.17073
0.0132316
-0.0169578
-0.0513853
-0.360457
0.107675
-0.314974
0.817919
0.297349
-0.056246
-0.00735757
0.21368
-0.414422
-0.0240851
0.016376
0.111266
-0.148475
0.0372087
-0.298481
0.311975
-0.013494
0.457541
-0.578474
-1.62989
0.837484
0.792407
-0.0157457
-0.10235
0.118096
0.273776
0.0394459
-0.216701
0.763643
-0.663235
0.663235
1.82502
1.23505
-0.712679
0.323739
0.479568
-0.355831
0.0789047
0.926582
-0.36917
0.00914138
-0.875085
0.865943
0.130417
0.00610855
0.0257626
-0.000455145
-0.216246
0.0157253
-0.168019
-0.119488
0.287507
0.135605
-0.510961
0.342942
-1.10304
-0.288289
-0.654094
-0.00303579
-0.00382382
7.60757e-05
-0.225651
-0.00535608
0.0958406
0.0334645
-0.147165
0.1137
-0.999723
-0.0563613
-0.00574935
0.0685537
0.361512
-0.0433125
-0.3182
-0.565262
0.382501
-0.122901
0.198972
0.233213
0.00389976
-0.0184643
-0.789033
0.35898
0.0345333
0.0700288
-0.0856991
0.0827437
0.200748
0.00805236
-0.429098
1.83189
0.466427
0.179168
0.866999
-0.79015
0.794307
-0.447493
-0.616901
0.17712
0.153657
-0.792422
0.767547
0.0248747
0.98666
-0.168741
-0.200701
-0.133161
-0.0252611
-0.0205779
0.951903
-0.838457
-0.113446
-0.184473
0.110365
0.0274739
0.120718
0.876447
-0.0547517
-0.831002
0.885754
-0.324119
-0.0482752
0.733812
-0.3723
0.180856
1.29972
1.57687
-0.341819
0.168285
0.552485
-0.72077
-0.208199
0.0501143
-0.00215943
0.00605919
-0.513639
-0.103262
0.141846
-0.0754768
-0.18843
0.139022
-0.530668
0.27295
-0.992067
0.18311
-0.289427
-0.53525
1.52822
-0.0698415
-0.288664
-0.122661
-0.335205
0.224354
0.302404
0.0524909
1.28338
-0.888235
-0.19153
0.129943
-0.403445
0.0412786
0.362167
-0.000206654
0.00494305
0.0489166
-0.0606635
-0.237818
-0.1181
0.697926
-0.421879
-0.276048
0.282734
0.133621
-0.0962775
-0.0373433
0.242331
0.0600736
-0.0745611
-1.6849
-0.0963302
0.14029
0.323984
-0.378735
-0.0254835
0.0489273
-0.0225635
0.0184822
0.00408126
-0.000504474
-0.0277553
-0.244032
0.0772385
-0.0144996
-0.555157
0.415439
0.0209151
0.12623
-0.141976
-0.694339
1.44402
-1.14667
0.0155991
-0.194137
0.178537
-0.141219
-0.536661
0.67788
0.0729384
-0.713135
-0.606481
-1.02341
-0.0206337
0.00198254
0.0186511
-0.248776
-0.605137
-0.162961
-0.138867
-1.40778
-0.232362
0.166436
-0.177712
-1.15505
-0.341516
0.166595
0.174922
0.262978
0.113335
0.459432
0.206386
-0.665818
0.00496448
0.0657591
0.911251
0.152204
-1.06346
-0.220351
0.379558
1.12321
-0.242888
0.18166
-0.325771
0.705328
0.436607
-0.369809
-0.016073
0.0298679
-0.0151615
0.722064
-0.542896
0.7388
0.0876311
-1.56672
0.295879
0.242247
0.684335
0.912534
0.00369247
-0.0181044
-1.57687
-0.654094
-0.712906
0.722543
0.0405307
-0.856034
0.660818
0.600554
-0.931505
0.739419
-0.0038952
-0.788526
-0.315002
0.638319
-0.77068
0.13236
0.0805557
0.053065
-0.180277
-0.103011
2.07897
-1.97596
-0.00241223
-0.00141159
-0.264642
0.215704
0.711258
0.221534
-0.206644
-0.181453
1.23153
-1.77217
0.405131
0.0445823
0.283664
0.146817
-0.430481
-1.71807
1.68008
-0.00737552
-0.035937
0.101493
1.34276
-1.44577
0.000305948
0.216261
-0.0364136
0.0804997
-0.0713411
0.00650235
-0.0391114
0.0326091
-1.02363
-0.0354551
0.314675
-0.8049
-1.23542
1.26781
-0.0323879
0.375615
0.64603
-0.0494499
0.0529246
-0.00347468
-0.329517
1.56105
-0.719286
1.52816
-0.0554214
-1.18
0.315743
-0.0994826
-0.584847
-0.40722
-0.744038
1.0277
-0.0566179
-0.87898
-1.88567
-0.193187
1.34276
0.0503172
-0.855217
0.830505
-0.645333
-0.185172
-0.981777
0.396929
0.0154131
0.115269
7.20847e-05
-0.115341
-0.971639
0.564419
-0.214061
0.912483
-0.926116
0.192693
-0.208946
-0.0960653
0.240422
-0.171383
0.327286
-0.0472902
-1.39737
0.403033
1.26331
-0.915192
-0.553185
-0.518019
1.0712
0.446815
0.0179979
-0.0105461
-0.736314
0.700858
0.769237
-1.09875
-0.878873
0.746791
0.132082
1.47049
-0.202679
0.776019
-0.809761
-0.493212
-0.450008
-0.471435
-0.500204
0.803694
-0.803694
0.685996
-0.685996
-0.736314
-0.716153
0.716153
-0.746791
-0.799496
-1.13076
0.447215
-0.59681
0.59681
0.769237
-1.09875
0.776019
0.766341
-0.766341
0.809761
0.758715
-0.758715
0.506788
0.528565
0.481981
0.172426
-0.499796
-0.549992
1.07856
-0.896152
-1.56712
0.823078
0.183209
-0.190584
-0.24401
-0.0138864
0.0276557
-0.88574
0.0936025
0.792138
-0.0705123
0.0449399
-0.995961
0.587469
0.912419
-0.58868
-0.124967
0.0131489
-0.0080179
-0.809325
-0.0780365
-0.544394
-0.0029709
0.0204494
0.937539
-0.0648138
-0.0019138
0.174462
-0.00285762
-0.00711033
0.00996795
-0.811157
0.0674746
0.743682
-0.192606
0.0212237
-0.530723
0.415488
0.115235
0.916217
-0.742502
-0.173715
0.0804695
0.300357
-0.0137794
-0.0583123
-0.0594446
-0.014061
0.655866
-1.89164
-0.847482
0.0979142
-0.742803
0.795413
-0.05261
0.122206
-0.900031
0.777825
-0.803127
0.904593
-0.101467
-0.0457513
0.0452468
0.0198653
-0.288149
0.503934
0.523769
-0.0947023
-0.791038
0.916573
-0.0920919
-0.824481
-0.0279852
-0.0347819
-0.00939786
0.821515
-1.09702
0.461362
-0.384544
0.101946
-0.892983
1.32056
0.323071
-0.790687
0.00216095
1.01731
-0.895099
1.18746
0.516749
-0.546236
0.0294864
-0.880789
-0.115172
-0.414273
0.0354876
-0.618567
0.59182
-0.784478
0.784478
-0.608408
-0.0855314
-0.863699
0.121198
-0.950662
0.868323
0.076219
-0.198296
-0.0577431
0.0581404
0.0115137
0.188725
0.82858
0.819062
0.771786
0.13925
-0.911036
-0.772394
0.58181
-0.782619
-0.106188
0.888807
0.169964
-0.88925
-0.674974
0.887426
-0.78548
-0.107054
0.460085
-0.0207561
-0.439329
-0.468386
1.12221
-0.653822
-0.111088
0.0687631
0.0423251
-0.889674
-0.829885
0.0870821
0.530322
0.263986
-2.08876
0.253679
-0.581229
0.581229
-0.953623
-0.443746
0.120025
-0.336272
-0.324414
1.1619
0.781238
-0.202314
0.225359
-0.153503
0.275747
-0.469548
0.193801
-0.584947
-1.3102
0.0303966
-0.255645
-0.422145
-0.565742
0.234143
0.303864
-0.223394
0.781073
-0.88254
1.08663
-0.504821
-0.149048
0.736517
0.585199
-0.585199
-0.0532387
0.0430553
0.111329
-0.0778649
0.434688
0.687519
0.180451
0.00349534
0.00798128
-0.0114766
-0.669736
0.693409
-0.0236734
-0.0653847
-0.480851
0.108601
-0.894081
-1.08187
1.41924
-0.337368
0.0751436
0.874841
-1.24851
1.18312
-0.75483
0.604334
-0.656706
-0.661199
0.155588
-0.205104
0.0270416
0.111067
0.313565
-0.518669
0.00396961
-0.00645065
0.0682085
0.727204
0.691792
-0.0874585
0.0740234
0.785687
1.10797
-0.208692
-0.899273
-0.526106
0.521502
0.271848
-0.94516
0.723113
0.222047
-0.685638
-0.128103
0.836578
-0.42993
0.176966
-0.0377471
0.486099
0.513901
-0.770371
-0.112168
-0.69939
-0.856507
0.0595737
-0.475229
0.40061
0.59939
-0.076556
0.0610427
-0.862463
-0.0650301
-0.591676
-0.158082
-0.245398
0.403479
-0.0201574
-0.00172065
0.113461
0.0725873
-0.12817
-0.115862
0.759669
-0.64402
0.718043
-0.413572
0.727137
-0.694393
-0.234333
0.928727
-0.746618
-0.190305
0.936923
-0.241695
0.22957
-0.0252525
-0.0673681
-0.046769
0.0113744
0.715067
-0.133838
0.121315
0.111898
-0.735407
0.0656717
0.373704
-0.52512
0.309484
-0.135239
-0.758417
-0.285534
1.02282
-0.00500051
0.151747
-0.226438
-0.0136007
-0.00771776
-0.0514599
0.51626
-0.142556
0.577217
-0.408077
-0.16914
0.846751
-0.0324197
-0.0030428
0.0354625
0.12906
-0.0140528
-1.45218e-05
0.218679
-0.107413
0.599316
-0.92373
0.84582
-0.268603
0.00672453
0.292295
-0.64241
-0.967668
1.26225
-0.294582
-0.77862
0.834583
-0.0559629
0.280078
0.407599
0.0290086
-0.072643
0.950948
-0.458432
-0.0722909
0.2762
0.452272
0.188438
-0.64071
0.407071
0.037744
0.655665
-0.572818
0.565055
0.00776338
0.980871
-0.756517
-0.00115678
0.000582105
0.000574676
0.697703
-0.00943212
-0.0825907
0.0193482
1.36462
0.541967
-0.261889
0.0313039
0.0666056
-0.168955
0.143474
-0.0678985
-0.0755757
0.0225587
-0.0160563
0.478797
-0.326593
0.100805
0.220138
-0.0258478
-0.0875172
0.225902
0.095913
0.0029565
0.0588174
0.765911
0.0264411
0.243903
-0.270344
0.549393
0.172204
-0.721596
0.644278
0.116393
-0.0207718
-0.0294204
0.0501922
-0.388651
-0.198877
-0.270671
-0.00589144
0.750792
0.718637
0.437976
-0.0163603
-0.163917
0.814242
0.0746276
-0.191779
-0.885851
0.0664976
-0.274009
0.293124
-0.173394
0.693557
0.0723539
0.0133798
0.64164
-0.234041
-0.00633553
0.164259
0.0244181
-0.111654
0.42244
-0.0574518
0.137476
-0.0708711
0.173489
-0.106537
0.655929
-0.15179
0.147691
-0.0442109
-0.110072
0.0166623
5.14887e-05
-0.0167138
-1.211
0.454484
-0.00820333
0.887195
-0.228843
-0.617438
0.642784
-0.0253459
0.505378
0.759229
0.966717
-0.0379905
0.0788081
-0.174873
0.633774
0.125455
1.10853
0.568179
-0.269656
0.731018
0.0603022
-0.202858
-0.59913
0.351342
0.247789
0.698115
-0.0707727
0.0416365
0.0650573
-0.0473319
1.16234
0.736758
0.0774839
0.623329
0.216658
-0.872255
-0.0811652
-0.675768
0.677929
-0.0251202
-0.583111
0.425029
0.869118
0.671518
0.114686
0.0872786
-0.15577
-0.318218
0.883716
0.560301
0.00306335
-0.00323542
-0.490269
0.287411
0.453548
1.28869
-0.0784741
-0.52826
-0.739279
0.929691
-0.190412
-0.413991
-0.185139
-0.00201356
-0.154527
-0.194675
0.763692
0.00125721
0.00144385
0.626841
0.367384
-0.502623
0.606488
-0.132564
0.23336
0.759037
0.24683
-1.00587
0.277418
-0.92275
0.129573
-1.27624
-0.175424
0.766107
-0.590683
-0.669464
-0.0289287
-0.0384394
-0.0551148
-1.39126
0.0190416
-0.041605
0.849966
0.18552
-0.181248
-0.0042727
-0.0495739
-0.574436
-0.0622643
0.214011
-1.23877
-0.00613951
0.00328188
-0.258826
-0.0538247
-0.594302
0.0214839
0.568128
0.300991
0.899877
0.873207
-0.241662
-0.386811
0.628473
-0.354932
-0.618522
0.618522
-0.233762
-0.931165
1.16493
0.0303039
-0.151327
0.681095
-0.112967
-0.22232
-0.0308005
0.207766
0.0311361
1.23962
0.048316
0.177763
-0.104006
-0.827297
0.483463
0.0815924
0.0607242
0.0115811
-1.65202
-0.55509
-0.318103
0.693209
0.306791
-0.55509
0.693209
-0.311409
0.0257432
-0.311409
-0.696345
0.696345
0.303655
-0.0142775
0.00328651
-0.0764518
0.211959
0.0678681
-0.470357
0.639027
-0.0325391
0.655653
-0.505671
-0.149982
-0.055683
0.0542446
0.00143848
-0.018103
0.0215983
-0.0149227
0.01883
-0.092799
-0.435029
-0.355806
0.130155
0.0422755
0.827613
-0.275128
-0.496778
0.161573
-0.00828967
-0.180614
-0.0063637
0.682177
0.0686149
-0.269428
0.000561999
0.000463159
-0.00462527
0.0854616
0.560646
-0.477976
-0.0826698
1.73643
0.551568
-0.603737
0.905937
0.0112657
-0.0625511
0.107121
-0.302322
0.0808299
1.13392
-0.374885
0.0105111
-0.0135469
0.346453
-0.310613
0.0218676
-0.0218676
0.0205043
-0.0205043
-0.00279851
0.00279851
0.00488705
0.365651
0.460469
0.0679973
-0.716783
0.477636
0.189098
0.0295806
-0.0829817
-0.48354
0.814318
0.111535
-0.797173
-1.17811
0.320288
0.031256
0.0196578
-0.00303813
-0.00631739
0.00631739
0.370572
-0.00829993
0.00829993
0.700477
0.0951721
-0.000675831
0.00123783
0.00667346
-0.0681728
-0.0226305
0.0226305
0.00066155
-0.00066155
-0.0221477
0.0221477
-0.00793873
0.00793873
0.0822266
-0.295733
-0.0818638
0.220748
-0.00874936
0.00874936
-0.375507
0.509399
-0.133892
0.499698
-0.220068
-0.153398
-0.343379
0.559332
0.0534669
0.077896
0.564888
0.565514
-0.00753222
0.00753222
-0.240419
0.0247249
-0.0247249
-0.00932793
0.00932793
0.760073
-1.05471
0.0338285
-0.262519
0.485681
0.005827
-0.005827
0.000151798
-0.000151798
0.0181748
-0.0181748
0.0233551
-0.0233551
-0.0233078
0.0233078
0.034822
-0.034822
0.487041
-0.0315545
0.0315545
-0.00581247
0.00581247
0.0238611
-0.0238611
0.00213264
-0.00213264
0.00760729
-0.00760729
-0.0968272
-0.0256364
0.0256364
0.539353
0.0316162
-0.0391419
0.0391419
-0.00141489
0.00141489
0.00603725
-0.00603725
0.0332374
-0.0332374
0.0259332
-0.0259332
0.00577551
-0.00577551
0.00216651
-0.00216651
0.162901
-0.27122
0.00138749
-0.00138749
-0.00536303
0.00536303
-0.0378147
0.0378147
-0.0282026
0.0282026
-0.00116263
0.00116263
-0.417786
0.660033
0.26547
-0.0317479
0.0317479
-0.0198515
-0.00104833
0.00104833
-0.00491123
0.00491123
0.0376149
-0.0376149
-0.0861334
-0.105646
-0.00239658
0.00239658
-0.023032
0.023032
-0.492888
0.0443365
-0.0135192
-0.031646
0.031646
-0.444434
0.033783
0.0191416
-0.533044
-1.03368
-0.0364256
0.0364256
-0.201065
0.143613
-0.0411408
-0.00460488
0.00460488
-0.000676221
0.0489643
0.264719
-0.324807
-0.277224
0.602031
0.191181
0.00239178
-0.00239178
-0.0538699
-0.0287347
0.0826046
0.769473
-0.391945
-0.377528
-0.46372
-0.661795
-0.194309
0.355882
-0.438422
-0.0876846
-0.574575
-0.00799188
0.191822
-0.705316
0.0160134
-0.0160134
-0.00339808
0.00339808
0.0305769
-0.0305769
0.0263901
-0.0263901
-6.79951e-05
6.79951e-05
-0.00264124
0.00264124
0.000283612
-0.17817
0.173294
-0.298261
-0.000300125
0.000300125
-0.0452201
0.0452201
-0.0400035
0.0400035
0.0446283
0.126316
-0.170944
0.00350134
0.313046
-0.541889
0.000767584
-0.000767584
-0.0126446
0.0126446
-0.0963115
0.127977
-0.322287
-0.00311141
0.00311141
0.0637919
0.0161159
0.981319
-0.484895
-0.0824602
0.567355
-0.627958
-0.142613
-0.475954
-0.0388487
0.0388487
-0.679193
0.277384
0.0492018
-0.0492018
-0.650916
0.386762
0.26307
0.119059
-0.000476186
0.000476186
-0.838622
-0.000552263
0.000552263
0.316366
0.408701
0.0303951
-0.0531594
0.0531594
-0.00316484
0.00316484
-0.0420337
0.0420337
-0.054056
0.054056
-0.000650901
0.000650901
-0.0597174
0.0597174
-0.00082019
0.00082019
-0.0453353
0.0453353
-0.00538313
-0.0454399
0.0454399
0.00472312
-0.00472312
0.0478474
-0.0478474
-0.00126609
0.00126609
0.0478967
-0.0478967
-0.294332
-0.00278286
0.00278286
-0.00441594
0.00441594
-0.0514216
0.0833354
-0.010386
0.010386
0.00474358
-0.00474358
-0.0589206
0.0589206
0.296083
-0.0181983
0.0181983
-0.0574876
0.0574876
-0.007379
0.007379
-0.0667182
0.0667182
-0.0133843
0.0133843
-0.0797904
0.0797904
-0.0215969
0.0215969
-0.0946962
0.0946962
-0.691894
0.1328
-0.532368
0.507023
-0.877257
-0.0597555
-0.564158
0.390764
0.197465
0.0852692
0.00357624
-0.00357624
0.21532
-0.716752
0.0439668
-0.0323857
-1.13241
1.39431
0.417904
0.2543
-0.0101225
-0.021127
-0.393617
-0.581206
-0.0675408
0.39303
-1.20405
-0.0206599
0.0206599
-0.749458
0.0199207
-0.0199207
0.00189982
-0.00189982
0.313232
-0.299229
-0.00268344
0.00268344
0.0192597
0.0146123
0.59829
-0.162043
-0.0211458
-0.0108099
-0.00729456
-0.0982716
0.495806
-0.397534
0.036665
-0.00626835
0.00846472
0.924882
0.00754588
0.0522787
-0.407724
0.443212
-0.490184
-0.986543
-0.235406
-0.0718578
0.0179751
-0.0165615
0.0853247
0.00643577
-0.0046465
0.00604279
0.787252
-0.551234
-0.0386843
0.0631024
-0.0366415
0.0289958
-0.0257093
0.423127
0.239774
-0.167672
0.21332
0.0141101
-0.00374804
-0.800793
-9.37261e-05
-0.153859
-0.0273888
-0.0191558
-1.22295
-0.0711222
0.264658
-0.35085
0.394004
0.279165
-0.814414
0.0447328
0.0543581
-0.08914
-0.348729
0.463964
-0.0585577
0.0446936
0.0138641
-0.0269823
0.0269823
0.17859
-0.433662
-0.1298
0.0482587
-0.080284
0.0551638
-0.064249
-0.00596198
0.070211
-0.0407538
-0.152871
0.111234
0.0572293
-0.28982
-0.355181
0.645
0.0151284
0.0592887
0.151925
-0.0306108
-0.150319
0.0681787
-0.157352
0.311008
0.00692532
0.0285372
-0.0255404
0.177466
0.0031299
0.260153
-0.0016052
0.0016052
-0.733752
1.1873
0.090352
-0.171517
-0.0325092
0.0402269
1.17061
0.0125114
0.0344501
-0.0183433
-0.533024
0.000655577
0.105945
0.0923618
-0.682845
0.313675
-0.0573164
0.378609
-0.668429
0.211239
0.511874
-0.0890166
0.0890166
7.20833e-05
-0.914966
-0.196336
1.1113
-0.212614
0.157499
-0.161532
0.0452962
-0.62377
-0.0522683
-0.0011443
0.00272193
0.930071
0.25711
-0.142423
-0.069001
-1.13094
-0.0490633
-0.0479997
-0.269174
0.795838
0.577501
-0.264455
-0.2829
0.575196
0.0508502
0.253198
-0.268938
0.0566827
-0.464862
0.33097
0.124277
-0.124277
0.00419956
-0.0801644
0.0759649
-0.00143034
0.00821485
0.0184822
-0.000628424
-0.388023
0.227365
-0.187163
-0.040202
0.542522
-1.07902
0.313448
-0.8994
0.694021
-0.119171
-0.17909
-0.03843
-0.0796701
-0.486964
0.0519354
-0.287637
0.000361201
-0.0191558
0.380083
-0.00513207
0.00323873
-0.000810624
0.0139308
-0.00975003
-0.00418072
-0.103337
-0.0170278
-0.166664
0.183692
-0.124405
-0.340457
0.0192597
0.346454
0.00175018
-0.375223
0.0857953
0.00257718
0.166854
-0.098857
-0.012311
0.012311
-0.00116434
0.000813349
-0.00941223
-0.000578576
0.0121844
0.000724673
-0.00116011
0.115489
0.109482
-0.00263845
0.00263845
0.0520575
0.512507
0.000725939
-0.291754
0.494522
1.1438
-0.473135
0.333093
-0.438249
-0.122043
-0.00775681
0.22752
-0.229243
0.0218055
0.0146082
-0.00323384
-0.00948348
-0.181657
-0.380871
0.858507
0.345304
-0.345021
0.0614616
-0.00158465
0.0743104
0.000833219
0.000896528
0.00147712
0.0131311
0.200573
0.00132719
-0.00032315
0.721592
-0.653414
-0.245067
0.142302
0.604018
0.000451801
-0.000230072
-0.0411408
-0.00571282
0.817556
-0.43084
0.512433
-1.17461
0.906182
-0.449486
0.578687
-0.187923
0.698768
0.000259139
0.00339858
0.0162592
-0.12043
0.139921
-0.00301968
0.00893578
-0.00105134
0.0651556
-0.0509963
-0.0141593
4.80412e-06
-0.0218836
0.0603974
-0.0385138
-0.0902742
0.00850767
-0.000526386
0.00208467
0.474818
-0.430185
0.0066074
-0.000395042
1.0558
-1.25213
0.386958
-0.00584868
0.0012068
0.159925
-0.0591204
-0.0422812
-0.113463
-0.0165786
-0.00357791
0.121896
0.0132194
-0.00194696
0.411015
-0.000266688
-0.00429838
0.00429838
-0.000217919
-0.0105919
-0.000368117
-0.323713
-0.00367454
0.07209
-0.107349
0.285401
0.161063
-0.0655065
-0.000467463
0.00163308
0.463343
-0.000408195
-0.000575109
-0.00143845
-0.00203019
-0.000442577
0.101969
0.0784818
-0.710207
0.472311
-0.853182
0.213302
-5.34249e-05
-0.521024
0.134455
0.0996878
0.589333
-0.0152074
-0.0879212
-0.00395756
-0.00135447
-0.553738
-0.00330166
-0.000169289
-0.0115529
0.944719
-0.537648
-0.00251204
-0.000445898
-0.0057612
-0.00151677
0.0675873
-0.0224533
0.0224533
-0.00242783
0.00324118
-0.00263543
-0.00779762
0.021768
-0.0185292
-0.165051
0.0942786
-0.00600532
-0.0130722
0.0417987
-0.016694
0.0619868
-0.0440118
-0.62368
0.57107
-0.00337509