/*--------------------------------*- C++ -*----------------------------------*\
| =========                 |                                                 |
| \\      /  F ield         | OpenFOAM: The Open Source CFD Toolbox           |
|  \\    /   O peration     | Version:  2306                                  |
|   \\  /    A nd           | Website:  www.openfoam.com                      |
|    \\/     M anipulation  |                                                 |
\*---------------------------------------------------------------------------*/
FoamFile
{
    version     2.0;
    format      ascii;
    arch        "LSB;label=32;scalar=64";
    class       surfaceScalarField;
    location    "36.2";
    object      phi;
}
// * * * * * * * * * * * * * * * * * * * * * * * * * * * * * * * * * * * * * //

dimensions      [0 3 -1 0 0 0 0];

oriented        oriented;

internalField   nonuniform List<scalar> 
3181
(
-1.04315
0.407057
0.63609
-0.387803
0.365342
0.0224609
0.521769
-0.358316
-0.163453
0.120991
-0.20018
0.0791896
-0.0190386
0.0133874
0.00565116
0.568308
1.6033
-2.17161
0.147575
-0.141309
-0.0062664
0.0192279
0.000743989
-0.0199719
0.564917
-0.748645
0.183728
-0.0750868
0.135962
-0.060875
-0.0105629
-0.0519614
0.0625243
0.117045
0.0515533
-0.168598
-0.0021348
-0.0166569
0.0187917
-1.10093
0.150913
0.950021
-0.327907
0.697132
-0.369224
-1.12274
0.638201
0.484539
0.0842694
-0.92995
0.845681
-0.101108
0.00725595
0.0938522
-1.77025
0.193584
0.0152117
0.0379849
-0.0531966
0.039029
-0.0873619
0.0483328
-0.0371259
0.0426567
-0.00553076
1.06738
-1.04187
-0.0255047
0.0266863
0.0348922
-0.0615784
-0.956778
0.326254
0.630523
-0.10809
0.22908
0.306866
-0.246517
-0.060349
0.0293676
0.0616428
-0.0910104
-0.414056
0.340079
0.0739769
-0.0335549
-0.0315207
0.0315365
-1.57922e-05
-0.0366551
-0.920123
0.0260357
-0.0525602
0.0265245
0.217981
1.49128
-1.70927
-0.0554811
0.0484093
0.00707178
0.184481
0.274381
-0.458862
1.74294
-1.52496
0.0726876
-0.0336586
1.54239
-0.86064
-0.681749
-1.07876
1.64707
-0.0547709
0.0526361
-0.0231579
-0.013968
-0.407451
0.0795439
-0.11946
0.096302
-0.636425
0.1297
0.506725
-0.14747
0.0723831
-0.167554
0.171711
-0.00415739
-0.270401
-0.0766874
0.347088
0.252726
0.914463
-1.16719
0.0372461
0.0146559
-0.051902
-0.016309
-0.101861
0.108099
-0.00623773
0.51653
0.180602
-0.0959873
0.142672
-0.0466849
0.0814751
-0.0554394
-0.170447
0.196527
-0.0260807
0.163221
0.0554155
-0.218636
0.107929
-0.113803
0.00587404
1.13943
0.40296
-0.856497
-0.18665
-0.115135
-1.40017
1.5153
0.554862
0.230382
-0.785244
-0.449984
-0.204816
0.6548
-1.65197
0.573206
-0.269623
0.824485
-0.322909
-0.102551
0.425459
-0.209338
-0.204718
-0.189823
0.167478
0.0223455
0.136414
0.283615
-0.420028
-0.17857
0.743487
-0.0117513
0.0309793
-1.81888
1.70375
0.185488
0.121378
-0.177752
-0.111289
0.289041
-0.269372
0.357779
-0.0884066
-0.080098
0.0882324
-0.00813441
-1.56615
-0.920172
0.0104617
0.909711
-0.0339796
-0.0215015
-1.11098
0.781065
0.32991
0.0617719
-0.193246
0.131475
-1.29779
-0.354174
1.10064
-0.949731
-0.719607
1.1509
-0.200883
1.06399
0.169455
-0.174199
0.00474371
1.76986
-0.166559
2.18615
-2.18615
-0.00751753
-0.00141238
0.00892991
-0.211513
-0.0529943
0.264507
0.0439149
-0.0439507
3.578e-05
-0.452261
0.831936
-0.379676
-0.0200851
-0.234236
0.254322
-1.08529
0.0434146
0.346037
0.0590737
-0.405111
0.133967
-0.860596
1.09098
0.0299037
-0.00699838
-0.0229053
-0.0175674
-0.152879
0.0842608
-0.10506
0.0207996
-0.0336969
0.117958
0.115747
-0.976342
0.328736
-0.780997
0.925074
-0.840805
0.0409954
0.0430318
-0.0840272
0.0841776
0.0526387
-0.136816
-1.37983
-0.0956967
1.47553
-0.244308
0.40876
-0.164452
-0.262769
0.0723152
0.190453
-0.468847
-0.642128
0.0452289
-0.00798283
-0.151931
0.146361
0.00557032
-0.0782052
-0.0141756
0.0923807
-0.540691
-0.207954
-0.0603899
0.014686
0.045704
-1.20199
0.338442
0.86355
1.19685
-0.28239
-0.0168834
0.00936585
0.0358978
0.14959
-0.201017
0.385498
0.0557875
-0.00322894
-0.0525586
0.139781
0.0692863
-0.209067
0.23188
-0.314794
0.082914
-0.595404
-0.527336
-0.760051
-0.441941
3.99096e-05
0.0298638
-0.104827
0.182874
-0.0780472
0.130772
0.0246497
0.122925
-0.0567793
0.0693705
-0.0125911
-0.0946705
-0.0213368
0.116007
0.0738232
-0.0738232
-0.184255
0.208904
0.028075
0.0704434
0.104318
0.0922089
-1.25007
1.0715
-1.43172
0.0396793
1.39204
0.0155434
-0.0156747
0.000131294
-0.0271104
-0.0524938
0.0796042
0.537796
-0.0231865
-0.51461
-0.00624942
0.00635962
-0.000110201
-0.199183
0.0149284
0.161685
0.670251
-0.365575
0.52726
-0.160296
-1.21953
-0.00358959
-0.015449
0.484752
-0.303589
-0.181163
0.0276035
-0.0265717
-0.00103173
0.0479186
-0.318319
0.0230885
-0.943261
0.0489791
-0.153806
-0.285841
-0.399596
0.0734682
1.36649
-0.922445
-0.444042
1.05106
0.315432
0.0663381
0.28075
0.0126854
0.00285804
-0.136245
0.141342
-0.00509713
-0.254943
-0.58766
0.842602
-0.355597
-0.000390039
0.743992
-0.550408
0.143731
0.0394576
-0.0481394
0.00868181
-1.86463
-0.198218
2.06285
0.128657
-1.99329
-0.312222
0.65826
-0.906862
-0.017306
0.00350011
-0.269295
0.265795
1.3804
-1.51868
0.138275
-0.0245474
0.0209578
0.571265
-0.826207
-0.248794
-0.033198
0.281992
-0.297337
-0.118882
0.416219
0.183189
-1.00997
-0.0753174
0.00711582
-0.0603124
-0.560447
0.355631
-0.249529
0.0192159
0.230313
-0.0450837
0.0205363
0.0217142
-0.0217142
-0.121092
0.132856
-0.0117641
-0.200941
-1.23078
0.0450464
0.00637612
-0.0514225
-0.12299
0.0892907
0.0336996
-0.223266
0.0334424
1.36171
-0.257798
-1.10391
-0.190628
0.447181
-0.256553
0.0063796
-0.00671576
0.000336157
-0.119023
-0.143745
-0.189854
-0.00437353
0.194228
-0.173147
0.309561
-0.1036
0.101876
0.00172459
0.0774763
0.0220259
-0.0995022
-0.104149
0.112545
-0.00839612
-0.948146
0.574294
0.373852
-0.218311
-0.0507128
0.269024
-0.693269
0.661692
0.0315773
-0.00597893
0.0408711
0.00711431
-0.00768686
0.000572549
-0.0146195
-0.0469589
0.874381
0.322472
0.174563
-0.886489
0.711926
-0.0153867
1.73787
-1.72249
0.382201
0.663414
1.52274
0.064467
0.206416
-0.0666358
-0.0727662
-0.0290949
0.236046
0.158972
-0.0747945
0.735457
-0.409203
0.0604504
0.204057
0.0501629
-0.166599
0.116436
-0.778013
-0.138662
0.916674
-0.0115734
0.0115734
-0.0115648
-0.275049
0.54943
0.0127062
-0.231017
-0.0556807
0.0629367
0.0102571
-0.0102172
0.137399
-0.147962
-0.346211
0.326126
0.0371634
0.0423993
-0.0795628
0.383907
-0.332353
0.712119
-0.184158
-0.527961
-0.205696
0.272034
0.18567
-0.489259
-0.205825
0.612882
0.164769
-0.0327627
0.0327627
-0.486682
0.216905
0.269777
0.382389
0.0263704
-0.0124363
0.0123981
3.82115e-05
-0.0589004
-0.0579916
-0.0023983
-0.0498423
0.187241
-0.182248
0.244245
-0.0619972
0.130717
0.028255
-0.390257
0.14374
0.192858
-0.0621404
-0.0466232
-0.0569772
-0.023554
0.0304132
-0.00685914
0.146312
-0.103965
-0.0423461
-0.018334
0.398093
-0.379759
-0.0596908
0.0479394
0.106374
-0.11081
0.00443634
0.0241686
0.870526
-0.158407
-0.0650584
0.0162766
0.0487818
-0.0550603
0.0522825
0.00277786
-0.092837
0.0972441
-0.720318
0.623074
-0.00972446
-1.48166
-0.48105
1.96271
-0.450305
1.42978
-0.979473
0.0818487
-0.260986
-0.0538087
0.278182
0.25484
-0.533022
-0.208385
0.258548
0.140959
-0.887457
0.746498
-0.0195737
-0.0354866
-0.0170693
0.0241851
-0.990365
0.443828
0.546537
0.922445
-0.806698
-1.68114
1.58545
-1.3804
1.42008
0.0396119
-0.0862968
0.000276006
0.00683831
0.00742523
0.799224
-0.658265
0.121145
-0.0721664
0.415423
0.73548
-0.0383543
-1.4358
1.42042
-0.667026
-0.583048
-0.241552
-0.394873
-0.0070547
-0.164949
0.212868
-0.574942
-0.372673
0.182045
0.770863
-0.233067
-0.885255
-0.795887
0.745828
0.0767057
-0.0962794
0.282729
0.0371445
-0.0371445
0.670141
0.149467
-0.819608
-0.225994
0.896135
0.654927
-0.062827
-0.5921
0.0536847
0.0167586
0.00753641
0.00495036
-0.0124868
-1.40017
-0.620285
0.337895
0.857321
0.504391
-0.034427
-0.133127
-0.237121
0.75365
-0.199604
-0.0499251
-0.00298825
-0.0771097
-0.0542238
0.106862
0.378837
-0.249137
-0.827322
-0.287706
-0.104491
-0.0108342
0.115326
-1.33748
2.00089
-0.1185
0.11877
-0.000270117
0.0263373
-0.0136519
-0.0844118
0.0658111
0.0186007
0.00905376
0.416406
0.0148849
0.0127186
0.00185046
0.00708233
-0.00893279
-0.0177286
-0.172126
-0.727771
0.373025
0.354747
0.631345
-1.80572
1.17438
0.140222
-0.162045
0.0218233
0.0141786
0.0310504
-0.249207
-1.93695
-0.0621375
-0.0222743
-0.0226134
0.0146305
0.148652
-0.349669
-1.10993
0.741737
0.368196
0.0323501
0.092039
0.0542725
-0.778013
-0.624368
-0.323778
0.0820538
-0.0162426
0.0446408
-0.639006
-0.0542626
0.0617287
0.131129
0.45527
0.0402238
-0.460252
0.121577
0.353173
-0.294099
-0.11579
0.0211199
0.223367
0.837749
-1.06112
0.104347
-0.714926
0.610579
-0.945681
0.80702
-1.60343
-0.204854
1.80829
-0.00420587
0.00400326
0.000202608
0.170273
-0.46761
0.222632
-0.131358
-0.0912746
0.0551505
-0.00286802
-0.0144958
-0.0899957
0.0101409
0.0181592
-0.0327788
0.0208294
0.0795947
-0.100424
0.204622
0.00939107
-0.00995016
0.000559097
0.0554996
-0.00756017
0.861569
0.0100046
0.0109532
-0.053071
-0.567214
-9.14107e-05
0.0537761
0.0075519
0.0844871
-1.80829
1.93695
0.172895
-0.0205317
-0.152364
-0.254597
0.0803975
0.119955
-0.115212
-0.00139353
0.0896259
-0.00550543
-0.981919
-0.128015
-0.0444833
0.0653128
0.740688
-0.256149
-0.0806243
-0.0423661
0.342577
-0.00184317
-0.0105931
-0.00766156
0.0814848
0.145945
0.211834
0.156952
-0.333629
0.176678
0.109999
0.560252
-0.0384169
-0.109053
0.929206
-0.256082
-0.673124
-1.60343
-0.57155
1.20289
1.74294
-0.0517895
0.221835
-0.170046
0.398822
-0.0767039
-0.322119
0.148986
-1.44678
-0.0743766
0.0752696
-0.000892986
0.128433
-0.142251
0.0138182
0.476724
-0.917824
0.4411
0.0408002
0.659402
-0.700203
-0.0439549
-0.107976
-0.0320162
-0.0330422
-0.0608342
-0.425848
-0.00283591
-0.00136996
-0.0201939
0.0459771
-0.0257832
0.00566072
-0.141905
0.00748589
0.0188514
-0.0447093
0.0877411
-0.00694145
-0.000745411
0.197095
-0.431331
0.304505
1.12527
0.00397128
0.00760209
-0.991675
-0.0182963
0.126846
-0.0717716
-0.0440188
-0.275064
0.0262698
0.199318
-0.574926
0.375608
0.0351581
-0.0352495
-0.935745
-0.0139854
-0.0109759
-0.64934
0.746584
-0.0176111
0.18238
-0.0275595
-0.0352675
0.184218
-0.441718
0.2575
-0.0740288
0.0707998
0.00490783
-0.00543607
0.000528243
-0.0287748
-0.075374
-0.0207732
-0.132106
0.746469
-0.642122
-0.0675027
0.02857
-0.11284
0.313915
-0.156964
0.167798
1.13447
-0.376554
-0.75792
-0.122372
0.141588
-0.508156
-0.219615
-0.558721
0.611051
-0.593398
-0.0176531
-0.0659021
-0.00160065
-1.4358
0.543311
-0.543311
-1.84439
1.84439
0.799224
0.635444
-0.214936
-0.420507
-0.899392
-0.0922827
0.640144
-0.36642
-0.273724
0.161487
-0.239534
-0.0124048
-0.00447857
-0.89463
-0.0817128
-0.933319
0.213002
0.040051
-0.0508851
0.697869
-0.108812
-0.589057
1.27806
0.464879
-0.00288796
0.00779578
-0.96125
0.502611
-0.686769
-0.104892
-0.595722
0.700614
-0.0478508
-0.843153
-0.675523
0.218539
-0.813943
-0.916674
1.36065
-0.443978
-0.137551
0.278102
-0.14055
-0.0266741
0.724543
-0.105689
-1.00765
1.00765
-1.72559
0.774669
0.950917
0.000290506
0.00910056
0.0723293
-0.441425
0.872652
-0.0915871
-0.0862329
-0.0341562
0.0486404
0.00219446
0.00418515
1.68878
-1.89364
-0.354599
0.432075
-0.646936
1.02122
-0.374289
0.009076
-0.0712135
0.126129
-0.0568431
0.353003
0.000742349
-0.0173993
0.355678
0.0424157
0.0440395
-0.251331
0.207291
0.138023
0.0336879
0.099019
0.184261
1.68277
0.0209797
-0.136581
0.920216
-0.783635
-1.59938
1.40116
0.307864
-0.211562
0.0754608
-0.766283
0.690822
0.498862
0.12772
-0.473931
-0.0742576
0.132686
-0.0584286
0.130067
-0.204324
-0.453201
-0.107245
-0.0734038
0.0766143
-0.00321049
-0.00234778
-0.00459367
0.0076887
-0.0631281
0.658265
-0.610579
-0.0476858
-0.289804
0.30251
0.878549
0.680409
-0.281586
-0.0095715
0.0159476
-0.388884
0.355686
0.17144
-0.577702
0.406262
-0.00550867
7.26032e-05
0.628393
-0.159927
-0.468467
0.0114534
-0.0173139
0.00586049
-0.0280841
0.0206495
0.00743456
-1.44917
1.28261
-0.124782
-1.35687
-0.198361
-0.806698
1.42008
1.58545
-0.191631
-0.171378
0.120666
-0.0648502
0.0707761
-0.00592591
-0.538138
1.15216
-0.614025
0.54847
0.0916739
-0.00137552
-0.00413315
0.123188
-0.0183138
0.0341562
-0.0491852
0.00470184
-0.108322
-0.280562
-0.00536992
0.015627
-0.227349
0.611256
1.05106
-0.32182
-0.060308
0.0012602
0.0590478
1.96917
-0.383726
-0.0603128
-0.0534906
-0.970161
0.163463
0.388741
-0.205552
-0.480535
-0.131472
0.612007
0.820236
-0.364747
-0.455489
-0.277834
0.477152
-1.42042
0.0202507
-4.60496e-05
-0.0210324
0.0210784
0.19197
1.5459
-0.167561
0.175098
0.299819
1.91685
-0.496765
-0.678326
0.0535999
0.624726
0.383211
0.00725044
-0.350033
0.533743
0.80753
-0.474105
0.0752575
-0.020985
-0.640864
0.143138
0.497726
1.04929
0.0209966
-0.0191461
-0.0494801
-0.362749
0.106827
-0.315212
0.605494
0.52898
-0.0604707
-0.00543139
0.254742
-0.306531
-0.0234251
0.0174461
0.109836
-0.146104
0.0362679
-0.297534
0.311308
-0.0137738
0.272316
-0.64887
0.518433
-0.65768
0.139247
0.12101
-0.128079
0.00706935
0.273643
0.040272
-0.26925
-0.355117
-0.659208
0.659208
1.5153
1.27806
-0.714926
0.326946
0.480584
-0.0498569
0.319634
0.932413
-0.383942
0.00762533
-0.873922
0.866296
0.1302
0.00576151
0.0256825
-0.902977
0.633727
0.0727524
-0.166964
-0.120175
0.287139
-0.0881331
-0.509978
0.343014
-1.06158
-0.290599
-0.651583
-0.0328219
-0.00959738
-0.000352781
-0.226802
0.0469028
0.0684229
0.0340612
-0.14772
0.113659
-0.904736
-0.82085
-0.00554564
0.0671884
-0.383699
0.373522
0.0101768
-0.56357
0.382407
-0.105379
0.147779
0.232993
0.00257134
-0.0196406
-0.806071
0.548273
0.0349598
0.0714138
-0.119013
0.00617324
0.212457
0.0101757
-0.42685
1.81364
0.481042
0.0172384
0.866335
-0.790874
0.792774
-0.450197
-0.615867
0.174441
0.154761
-0.794605
0.767559
0.027046
1.1635
-0.558011
-0.218788
-0.135811
-0.0263927
-0.0175579
0.950995
-0.838036
-0.11296
-0.185028
0.110233
0.027255
0.119106
0.875678
0.433791
-0.102375
-0.331416
-0.323899
-0.048774
0.0910949
-0.474794
0.119356
1.35617
1.21241
0.0656427
0.168389
0.552499
-0.720889
0.26146
0.0512557
-0.00683833
0.00940967
-0.515286
-0.100581
0.00517635
-0.05026
-0.18912
0.139277
-0.530114
0.273561
-0.992277
-0.753074
-0.290932
-0.777996
1.39039
0.00164778
-0.287591
-0.408997
0.300674
0.368529
0.30241
0.0532675
1.28316
-0.806432
-0.191994
0.129853
0.123012
-0.533894
0.410881
-0.00737174
0.00732569
0.0499145
-0.060095
-0.237439
-0.117654
0.697483
-0.419868
-0.277615
-0.19606
0.132742
-0.0957051
-0.0370373
0.243387
0.0590235
0.299003
-1.27848
-0.0974565
0.142097
0.480714
-0.0469237
-0.00394235
0.0067202
-0.0225975
0.0179231
0.00467435
-0.00464662
-0.0110281
-0.244425
0.0778257
-0.0119412
-0.553264
0.415712
0.0191572
0.0350048
0.0860047
-0.696471
1.70251
-1.17353
0.0159608
-0.194966
0.179005
-0.140062
-0.536564
0.676626
0.0750868
-0.714093
0.221825
0.296608
-0.0151069
-0.000364591
0.0154715
-0.24423
-0.611051
-0.166962
-0.139681
-0.640864
-0.233472
0.166836
-0.124681
-1.0925
-0.0804624
0.274952
-0.194489
0.262215
0.113011
0.404987
0.358989
-0.763976
0.014635
0.0620707
1.22132
0.0699853
-1.29131
-0.221154
-0.142608
1.54377
-0.244136
0.182138
-0.945533
0.802925
-0.280415
0.175355
-0.00466794
0.0120932
-0.0340472
1.37854
-1.3613
0.731167
0.089069
-1.12673
0.144812
0.266439
0.665973
0.912741
0.0164648
-0.0166307
-1.21241
-0.651583
-0.7123
0.722762
-0.0840081
-0.885255
0.659402
0.606406
-0.930318
0.569072
-0.00586888
-0.788736
-0.313998
0.636933
-0.771344
0.134411
0.0798259
0.0529165
-0.231499
0.123415
1.24892
-1.37234
-0.00488809
-0.00470929
-0.266261
0.216336
0.71202
0.220938
-0.20601
-0.17904
1.33055
-0.992108
-0.305916
-0.114591
0.292111
0.539796
-0.831907
-1.08439
1.22753
0.186178
0.187344
0.0854196
0.62114
-0.497726
-0.00118017
0.217857
-0.0244123
0.0877276
0.0391185
0.00869886
-0.0324783
0.0237795
-1.02517
-0.0359485
0.315589
-0.806628
-0.308072
0.777599
-0.469527
0.376956
0.644268
-0.0486005
0.0519309
-0.00333046
0.210889
1.11966
-0.717745
1.23061
0.706091
-1.01416
0.316583
-0.0987263
-0.584128
-0.408149
-1.11274
1.40485
-0.0586488
-0.87979
-1.69649
-0.026
0.62114
0.049953
-0.856581
0.831175
-0.646133
-0.185043
-0.981947
0.397819
0.00968034
0.112146
-0.000600229
-0.111546
-0.971437
0.563288
-0.213927
0.911339
-0.925325
0.19375
-0.211479
-0.0961537
0.244806
0.549973
0.54948
-0.030251
-1.35858
0.600658
0.531507
-1.00561
-0.552721
-0.518409
1.07113
0.447279
0.0161302
-0.0111798
-0.736151
0.700203
1.07053
-0.859643
-1.52274
1.1641
0.358634
0.465089
0.31251
0.775824
-0.809379
-0.493755
-0.449506
-0.471792
-0.499645
0.803886
-0.803886
0.686198
-0.686198
-0.736151
-0.80993
0.80993
-1.1641
-1.48088
0.00383415
0.017103
-1.3852
1.3852
1.07053
-0.859643
0.775824
0.765965
-0.765965
0.809379
0.758578
-0.758578
0.506245
0.528208
0.481591
-0.314671
-0.500355
-0.550494
1.0787
-0.939647
-1.94995
0.837208
0.184342
0.00183576
0.238503
0.00597244
0.00403213
-0.886097
0.0940727
0.792024
-0.0801033
0.0730486
-0.995248
0.586044
0.922175
-0.595229
-0.124355
0.00413456
-0.00878349
-0.807647
-0.078842
-0.546537
-0.00475658
0.0289417
-0.414026
-0.103927
0.0876842
0.18301
-0.00993413
-0.00600106
0.0159352
-0.811962
0.0673545
0.744607
0.232984
0.316989
-0.532011
0.415154
0.116857
0.91723
-0.743155
-0.174075
0.0859467
0.299551
-0.0140255
-0.0593783
-0.0600083
-0.0143684
0.728628
-2.0661
-0.845281
0.0973812
-0.741936
0.796339
-0.0544032
0.121611
-0.900016
0.778405
-0.803139
0.904152
-0.101013
-0.0358318
0.0311851
0.0210173
-0.290313
0.272671
1.13218
-0.0945968
-0.7915
0.916099
-0.0910257
-0.825073
0.096924
-0.087848
0.417326
0.822633
-1.89894
0.475284
-0.38361
0.101896
-0.893397
1.52496
0.319433
-0.792342
0.00360622
1.01766
-0.896051
1.19086
-0.104113
0.334414
-0.230301
-0.879419
-0.115828
-0.414259
0.0344992
0.0996248
0.275984
-0.784261
0.784261
-0.610803
-0.0855721
-0.864087
0.120932
-0.9597
0.854808
0.0731555
-0.204513
-0.0568216
0.0581014
0.011269
0.187953
0.82971
0.81858
0.772465
0.138358
-0.910823
0.479475
-0.477639
-0.782113
-0.106089
0.888203
0.171442
-0.889186
-0.676134
0.88727
-0.785374
-0.106744
0.460854
-0.0215252
-0.439328
0.207241
1.26806
-1.4753
0.410376
-0.465968
0.0555924
-0.888857
-0.83048
0.0885442
0.522011
0.270763
-1.59463
1.58578
-0.575875
0.575875
-0.802107
-0.556471
-0.512678
1.14641
-0.573479
-0.084201
0.781181
-0.20212
1.2901
-0.00749076
0.411209
-0.476523
0.065314
-0.0867639
-1.71896
-0.00955118
0.375362
-0.946106
0.622328
-0.0602106
0.31106
-0.225113
0.780688
-0.881701
-0.57605
0.0984113
-0.150885
0.736929
0.580366
-0.580366
-0.0449819
0.03133
0.111885
-0.0778242
1.28459
-0.0165213
0.0355503
0.00106027
0.00630936
-0.00736962
-0.669019
0.69438
-0.025361
0.556962
-0.222548
0.10817
-0.893544
-1.00881
1.21545
-0.206639
0.13463
0.875253
0.00843043
0.548532
-0.755185
0.60361
-0.657873
-0.661075
0.152919
0.188661
0.0275251
0.190904
0.166018
0.0226438
0.0044915
-0.0429573
0.069865
0.726474
0.693507
-0.0898974
0.0758046
0.785764
-0.380891
-0.0707813
0.451673
-0.285984
0.526301
0.592692
-0.949253
0.728705
0.220548
-0.685645
-0.128298
1.48076
-0.0644315
-0.361417
-0.0384558
0.48604
0.51396
-0.770551
-0.11115
-0.166188
-1.00652
-0.541113
-1.10187
0.400617
0.599383
-0.0834879
0.0759277
-0.861577
-0.0671274
-0.590745
-0.153792
-0.246664
0.400456
-0.00517765
-0.000327784
0.113964
0.0732767
-0.128848
-0.115578
0.759425
-0.643679
0.719484
0.725239
-0.559222
-0.344348
0.765596
-0.421248
-0.745862
-0.192094
0.937956
-0.240123
0.229034
-0.0249778
-0.00710672
0.027643
0.00169168
0.707516
-0.131641
0.121545
0.111448
-0.736355
0.0673362
1.0731
-0.0203135
-0.80789
0.279929
0.200299
-0.287443
1.02292
-0.00657792
0.143784
0.156035
-0.00385772
-0.0077177
-0.0562284
-0.213754
1.28686
-0.722612
-0.35338
1.07599
0.847969
-0.0308512
0.00134661
0.0295046
0.129925
-0.00304327
0.000207364
0.215407
-0.105571
-0.739694
0.166215
0.399997
-1.12261
0.00781961
0.283362
0.412216
-1.0259
1.20672
-0.180826
-0.776546
0.833472
-0.0569263
1.02232
-0.26314
-0.0172747
-0.0718257
1.07083
-0.457885
-0.0741262
0.277061
0.453447
0.190468
-0.643915
0.405704
0.03982
0.65456
-0.573806
0.5638
0.0100065
1.50255
-1.13402
-0.00983775
0.0112407
-0.00140291
0.697084
-0.00925113
-0.0832532
0.0192136
0.895361
0.322357
0.699967
0.0290635
-0.157936
0.0298572
-0.0122427
0.0724847
-0.0602421
0.0170037
-0.00830482
0.825987
-0.756001
0.0830579
0.219783
-0.0254384
-0.0893673
0.226342
0.0970091
0.00409999
0.0616598
0.766949
-0.0313901
-0.398942
0.430332
-0.0160713
-0.792644
0.808716
0.641378
0.122394
-0.0151436
0.0185083
-0.00336474
-0.598325
0.495453
-0.971977
-0.00384441
0.749672
0.716418
0.14125
0.43332
-0.664819
0.81282
0.122885
0.0449131
-0.88234
0.0954298
-0.272614
-0.37457
-0.171063
0.692508
0.0744412
0.0137988
0.12521
-0.388351
-0.361024
0.164205
0.024374
-0.111736
0.421789
-0.0579907
0.696209
-0.0699373
0.143836
0.516401
-0.532472
-0.151752
0.0721394
-0.0450976
-0.109467
0.00300506
0.000187466
-0.00319253
-1.55976
0.425734
-0.00988068
0.893626
-0.227249
-0.619552
0.642664
-0.0231118
0.180722
0.759844
0.201544
-0.622792
0.0813169
-0.177471
0.632645
0.1272
1.08814
0.912745
-0.264378
0.739662
0.720766
0.56609
-0.599872
0.350297
0.249575
-0.921065
-0.0713687
0.0410169
0.0654192
-0.0482857
1.14108
0.734508
0.0783121
0.623397
0.219206
-0.871971
-0.0817607
-0.675786
0.679392
-0.0249309
-0.580221
0.42643
0.868919
0.672465
0.0687909
-0.033178
-0.156583
-0.317348
1.01028
0.692235
0.283348
0.00143781
0.68656
-0.12047
1.08646
-0.222915
-0.0791416
0.0637686
-0.737665
0.926645
-0.18898
-0.412809
-0.187063
-0.0108695
-0.174338
-0.115179
0.807947
0.00832586
-0.00124354
0.627886
-0.270186
0.550115
0.605337
-0.131941
0.235622
0.731843
0.268323
-1.00017
0.276943
-0.923075
0.262836
-1.43637
-0.176551
0.764797
-0.588246
-0.669425
-0.0472659
0.0401592
-0.0556888
-1.74995
0.0188538
-0.0414513
0.0677087
-0.113726
-0.0960604
0.209786
-0.00777401
-0.574942
0.19435
-0.0505657
-1.56207
-0.0141071
0.00417301
0.983315
-0.0544665
-0.592993
0.0191868
0.566384
0.302535
1.127
0.83571
-0.243455
-0.385121
0.628577
0.622255
-0.618844
0.618844
-0.192343
-0.934297
1.12664
0.0308789
-0.153251
0.681031
-0.114647
-0.220556
-0.50668
0.145264
-0.0803668
0.15635
-0.00592066
0.178225
-0.104756
-1.21941
0.484389
0.0794106
0.0608123
0.0118754
-1.65331
-0.402383
0.0257637
0.693203
0.306797
-0.402383
0.693203
-0.954121
-0.280125
-0.954121
-0.696397
0.696397
0.303603
-0.014021
0.162004
-0.0772997
0.244736
0.047809
-0.483166
0.64023
-0.0348925
0.656265
-0.50448
-0.151785
-0.0553048
0.0539329
0.00137182
-0.0154623
0.0165226
0.584374
0.0184358
-0.0070028
-0.435784
-0.356035
0.129233
0.0436977
0.831102
-0.278603
0.00434253
0.296332
-0.0136269
-0.0559007
-0.00856048
0.683051
0.0666215
0.463848
-0.00928596
0.000353175
-0.00726176
0.0846375
0.561843
-0.477166
-0.0846771
2.18352
0.550333
0.402772
0.898967
0.01161
-0.0641037
0.108236
0.118506
0.0938574
1.11903
-0.387188
0.000819051
-0.0336409
0.682692
0.0282027
0.021167
-0.021167
0.0212603
-0.0212603
-0.000529603
0.000529603
0.00397128
0.366401
0.459314
-0.0625027
-0.714663
0.481596
0.186906
0.0285011
-0.0841223
-0.484426
0.695842
0.111974
-0.797619
-0.418383
0.383116
0.0860834
0.020594
5.55386e-05
-0.00176027
0.00176027
0.139371
-0.00139567
0.00139567
0.701412
0.0949714
-0.00748385
-0.00180211
0.00648972
-0.0667977
-0.0218127
0.0218127
-0.00300049
0.00300049
-0.0230387
0.0230387
-0.000694701
0.000694701
0.0858133
-0.297012
-0.0810861
0.220001
-0.000441358
0.000441358
-0.37478
0.510066
-0.135286
0.498151
-0.220049
-0.40141
0.405753
0.560339
-0.208264
0.0760482
0.566616
0.566484
0.000209446
-0.000209446
0.446573
0.0256718
-0.0256718
-0.000228539
0.000228539
0.759099
-0.43351
0.0374334
0.130429
-0.290356
-2.27456e-05
2.27456e-05
0.00278302
-0.00278302
0.0188794
-0.0188794
0.0225256
-0.0225256
-0.0242294
0.0242294
0.0360317
-0.0360317
0.486213
-0.0326783
0.0326783
-0.000184616
0.000184616
0.0248053
-0.0248053
-0.00305975
0.00305975
-9.92467e-05
9.92468e-05
0.0252188
-0.0265648
0.0265648
0.0959113
0.0104393
-0.040468
0.040468
0.0024872
-0.0024872
-0.00222568
0.00222568
0.0344029
-0.0344029
0.0250432
-0.0250432
-0.000210213
0.000210213
-0.00267614
0.00267614
-0.409835
-0.0601072
-0.00323261
0.00323261
-0.000387227
0.000387227
-0.0391156
0.0391156
-0.0273128
0.0273128
0.00209648
-0.00209648
-0.406646
0.673086
0.254642
-0.0328779
0.0328779
-0.00635782
-0.0020107
0.0020107
-0.000664066
0.000664066
0.0364745
-0.0364745
-0.176268
0.221181
0.00295076
-0.00295076
-0.0222397
0.0222397
-0.495806
0.043841
0.120257
-0.0306005
0.0306005
-0.444174
0.0332687
0.0186622
0.14963
-1.27636
-0.0376646
0.0376646
-0.201646
0.143655
-0.0401353
-0.00100022
0.00100022
-0.000861055
0.0491939
0.263002
-0.323389
-0.27839
0.601779
0.192718
-0.00307805
0.00307805
-0.11501
0.356188
-0.241178
0.768064
-0.394462
-0.373603
-0.46333
-0.659353
0.387303
-0.0909714
0.125427
-0.411411
-0.573597
-0.0137967
0.190362
-1.09999
0.0165584
-0.0165584
-0.00105222
0.00105222
0.0316397
-0.0316397
0.0256245
-0.0256245
-0.00218864
0.00218864
-0.00112482
0.00112482
-0.191416
-0.00183092
0.173552
-0.297906
0.00213372
-0.00213372
-0.0440603
0.0440603
-0.0413463
0.0413463
0.157196
-0.124326
-0.0328697
0.00178681
0.313695
-0.540945
-0.00206928
0.00206928
0.00735028
-0.00735028
-0.0944593
0.0898261
0.297477
-0.00165306
0.00165306
0.0675316
0.0175686
0.972446
-0.485975
-0.081009
0.566984
-0.628951
0.175487
-0.0758622
-0.0377939
0.0377939
-0.680112
0.275855
0.0509166
-0.0509166
-0.653974
0.38025
0.262417
0.121111
-0.00264263
0.00264263
-0.834471
-0.00228985
0.00228985
0.314354
0.410189
0.0337879
-0.0550862
0.0550862
-0.00207922
0.00207922
-0.043442
0.043442
-0.0527433
0.0527433
-0.00284895
0.00284895
-0.0583137
0.0583137
-0.00324175
0.00324175
-0.0468493
0.0468493
-0.00964468
-0.0442927
0.0442927
0.00391
-0.00391
0.0494629
-0.0494629
-0.00363414
0.00363414
0.0466095
-0.0466095
0.0851922
-0.0047584
0.0047584
-0.00572256
0.00572256
-0.0476065
0.0814848
-0.011583
0.011583
0.00482949
-0.00482949
-0.0611665
0.0611665
0.303245
-0.0190176
0.0190176
-0.0560464
0.0560464
-0.00724766
0.00724766
-0.0693911
0.0693911
-0.013087
0.013087
-0.0832314
0.0832314
-0.0223009
0.0223009
-0.0923143
0.0923143
-0.692362
0.264715
-0.530895
0.507783
-0.843153
-0.252462
-0.561696
0.390633
-0.116756
-0.0793036
0.0035874
-0.0035874
-0.000112209
-0.71785
0.0444991
-0.0326238
-1.17221
1.63709
1.22046
0.251487
-0.0142879
0.0265282
-0.392411
-0.580434
0.0124994
0.390082
-1.12991
-0.0212445
0.0212445
-0.755213
0.019295
-0.019295
-0.00241979
0.00241979
0.333016
-0.384428
-0.00249762
0.00249762
0.0185535
0.0142092
0.597373
0.320618
-0.0141157
-0.0135756
-0.00305513
-0.0969731
0.495329
-0.398356
0.087452
-0.0970032
0.00996704
1.00008
0.00706091
0.0522661
-0.408183
0.442682
-0.489192
-1.00178
-0.21776
-0.072527
0.0183032
-0.143068
-0.3229
0.0222881
-0.00468604
0.00267073
0.783039
-0.551004
-0.0386273
0.0630013
-0.036451
0.0692859
0.0927178
0.423689
0.238003
-0.164509
0.209367
0.0337646
-0.0117387
-1.42082
0.0037568
0.185119
-0.28118
-0.0184822
-1.44643
-0.0717926
0.265101
-0.351569
0.393985
0.12983
-0.907827
0.0459138
-0.0742342
-0.0136138
-0.347717
0.464574
-0.0115296
-0.0620823
0.0736118
-0.0280158
0.0280158
0.161386
-0.442972
0.0377773
0.0515134
-0.0806546
0.0557237
-0.0638629
-0.00606007
0.069923
-0.0382771
-0.155918
-0.000740487
-0.102608
-0.288064
-0.355917
0.643981
0.0150472
0.0602224
0.151488
-0.0299431
-0.0129232
0.0667366
-0.157382
0.312143
0.000843665
0.028661
-0.0257782
0.177266
0.00418762
0.261608
0.00227495
-0.00227495
0.099747
0.986717
0.0901044
-0.171865
-0.00240024
-0.0454505
-0.327205
0.875736
-0.0269015
0.00518724
-0.533559
0.00266451
-0.00120127
0.0911134
-0.683495
0.299552
-0.0558065
0.380179
-0.668243
0.21814
0.510565
-0.093523
0.093523
-0.000600229
-0.0481573
0.368394
-0.320236
-0.213328
0.157639
0.349907
-0.213119
-0.435751
-0.0910109
-0.00861071
0.00888671
0.929689
0.180213
-0.111422
-0.0696723
-0.165867
-0.848296
-0.0468389
-0.264191
0.797934
0.576473
-0.262778
-0.271033
0.554395
-0.0745448
0.29638
-0.267383
0.0557014
-0.46492
0.329634
0.120815
-0.120815
0.0857637
-0.0249418
-0.060822
0.00221102
0.00411779
0.0179231
-0.532585
-0.0657405
0.227212
-0.186444
-0.0407671
0.543016
-1.06271
0.117898
-0.685112
0.692616
-0.119469
-0.178438
-0.0383227
-0.0793317
-0.486176
0.0503923
-0.28884
0.000700971
-0.0184822
0.384215
-0.00530453
-0.00275529
0.000253341
0.018278
-0.00811368
-0.0101644
-0.104371
-0.0196927
-0.17038
0.190072
-0.125909
-0.339012
0.0185535
0.347369
-0.00148109
-0.375425
0.0844927
0.00263309
0.00894778
-0.0714505
-0.0121924
0.0121924
-0.00107273
-0.000217474
-0.00916176
0.000212819
-0.0644825
0.000712946
-0.00119068
0.178407
-0.152137
-0.00195636
0.00195636
0.0484396
0.512577
-0.00023212
-0.288233
0.574646
1.15317
-0.473625
0.334396
-0.4388
-0.0854603
0.123238
0.229018
-0.228936
-0.0195512
0.00176547
-7.37931e-05
0.00317025
-0.179289
-0.377079
0.858675
0.280705
-0.47212
0.185007
-0.0016288
0.10076
0.0338704
-0.000772323
7.30263e-05
0.00169245
-0.800989
0.0013524
-0.00028593
0.718135
-0.651398
-0.246192
0.115397
1.01131
-0.00027684
0.00027462
-0.0401353
-0.00555724
0.817563
-0.432041
0.511451
-0.980754
0.90618
-1.382
0.576367
-0.185734
0.701076
-1.82979e-05
0.00328333
0.0173107
-0.109956
0.138815
-0.189555
0.00926963
-0.000282667
0.0656074
-0.0510508
-0.0145566
0.00012729
0.0402633
-0.0342935
-0.00596978
-0.0989507
0.00643221
-0.000122858
0.00195364
0.482561
-0.429376
-0.0051246
2.72139e-05
0.172919
0.195474
0.385453
-0.00602482
-5.19986e-05
0.105034
-0.0219765
-0.0423123
-0.11454
-0.0165701
-0.00368169
0.121586
0.0070163
-0.00187201
0.411858
0.000256344
0.000283238
-0.000283238
-0.00782151
-0.00575407
-5.49181e-05
-0.321986
-0.00378639
0.0735794
-0.107489
0.431083
0.407548
-0.0653751
-6.44403e-05
0.000964161
0.464692
-0.00045399
0.000342769
-0.0112123
-0.00209578
0.000178465
0.0256798
0.00987048
-0.710074
0.477659
-0.854738
-0.233074
-0.000426157
0.00772658
-0.052171
-0.00803956
0.594483
-0.0149494
0.0982959
-0.00416958
-0.0014537
-0.552913
-0.00340726
-0.0003928
-0.0120768
0.930497
-0.524794
-0.00261361
-0.000392395
-0.00608031
-0.00112426
0.0766456
-0.0217671
0.0217671
-0.00525311
0.00503563
-0.00241817
-0.00822464
-0.00381159
0.0010563
-0.165408
0.0940393
-0.00583935
-0.0138403
0.0413418
-0.0168033
0.0631647
-0.0448614