/*--------------------------------*- C++ -*----------------------------------*\
| =========                 |                                                 |
| \\      /  F ield         | OpenFOAM: The Open Source CFD Toolbox           |
|  \\    /   O peration     | Version:  2306                                  |
|   \\  /    A nd           | Website:  www.openfoam.com                      |
|    \\/     M anipulation  |                                                 |
\*---------------------------------------------------------------------------*/
FoamFile
{
    version     2.0;
    format      ascii;
    arch        "LSB;label=32;scalar=64";
    class       volVectorField;
    location    "47.7";
    object      U;
}
// * * * * * * * * * * * * * * * * * * * * * * * * * * * * * * * * * * * * * //

dimensions      [0 1 -1 0 0 0 0];

internalField   nonuniform List<vector> 
2186
(
(1.34514 -0.0679473 2.8084e-19)
(1.66519 -0.977962 1.61868e-20)
(1.50584 -0.950422 1.07363e-20)
(0.775419 -0.618391 -1.71739e-19)
(-0.110576 -0.186097 -1.87623e-19)
(1.16972 0.0378771 0)
(0.745754 -0.687487 0)
(0.402872 0.249712 1.11539e-19)
(1.53185 -0.16863 2.8731e-20)
(0.578921 -0.357153 -1.83508e-21)
(0.667193 0.596539 0)
(0.841589 -0.307946 -7.50197e-20)
(0.414955 0.188403 -4.3524e-20)
(1.21759 0.0184965 -4.17653e-19)
(1.86305 -0.724899 7.87029e-21)
(1.01438 -0.00990009 1.92144e-19)
(0.975767 0.0140331 0)
(-0.541222 -0.888254 0)
(0.623439 0.0562035 0)
(-0.0687997 0.261635 -9.79262e-20)
(0.486889 0.0408641 -1.22316e-19)
(0.0844363 0.0816342 1.30778e-19)
(1.20092 0.0229597 3.43158e-19)
(-0.270959 -0.0343206 4.77562e-21)
(1.03465 -0.000802412 -2.70474e-19)
(0.827788 -0.595091 0)
(0.769422 -0.0601411 1.59713e-19)
(0.629911 -0.607239 -2.07001e-19)
(1.20238 0.685273 0)
(0.96053 0.0208943 -3.68467e-19)
(-0.0303549 0.0935253 0)
(1.02687 -0.0182915 1.27708e-20)
(-0.201887 0.320021 0)
(2.02768 0.379555 -1.83938e-20)
(-0.286894 -0.0319128 1.40599e-21)
(1.55358 0.71951 4.32506e-20)
(1.25185 0.217743 -3.91324e-20)
(0.507608 0.0899981 -3.63564e-19)
(1.87399 -0.22558 -2.70965e-19)
(0.77169 -0.0730027 -1.26398e-20)
(0.361975 0.0246725 0)
(0.147555 0.108989 0)
(1.95098 -0.923652 4.7611e-20)
(-0.210039 0.270614 0)
(1.10013 0.258969 1.55969e-19)
(0.620874 -0.336202 3.10758e-19)
(0.954006 -0.81225 0)
(1.23568 -0.819568 1.5678e-19)
(0.939401 0.233068 0)
(-0.336531 0.0277469 2.36932e-19)
(-0.000947958 0.150441 1.44752e-19)
(0.63176 0.579542 7.90412e-20)
(2.16025 -0.792859 2.62041e-20)
(0.581726 0.228637 -2.90792e-19)
(-0.266243 0.240269 5.41389e-20)
(0.795941 -0.681093 0)
(1.71811 -1.01211 1.84206e-20)
(0.598217 -0.557573 0)
(1.97659 -0.0894792 6.73249e-20)
(1.16687 -0.182697 -4.53472e-19)
(1.3746 0.0147951 -1.29693e-19)
(1.32242 0.273326 -1.73279e-19)
(1.32273 0.507551 0)
(0.678044 0.334652 1.38479e-20)
(1.33015 0.368238 -1.02076e-19)
(1.29861 -0.76521 -2.30414e-19)
(1.15757 0.630943 5.0331e-20)
(0.675293 0.0332347 -5.97824e-19)
(0.823604 0.025148 0)
(2.42765 -0.123835 -1.36594e-20)
(0.400722 0.278704 -1.313e-19)
(1.47762 0.360087 1.33999e-19)
(0.731506 -0.0777759 -2.65322e-19)
(0.911522 -0.550868 0)
(0.818147 0.149142 -9.63099e-20)
(0.570897 -0.534314 -3.39264e-19)
(1.43761 0.208509 0)
(1.00709 0.00959493 3.99756e-19)
(-0.326476 0.00210878 0)
(2.16475 0.0266661 0)
(0.641055 -0.807486 6.34583e-20)
(0.768747 0.133143 2.19721e-21)
(1.02258 0.00172101 4.49354e-20)
(1.30425 0.368724 2.6056e-20)
(0.969555 0.0204292 4.72625e-19)
(1.04187 0.0217807 -1.1157e-20)
(0.662137 0.134746 -3.52567e-19)
(0.922249 -0.405862 3.90064e-21)
(1.45641 -0.441211 0)
(-0.0712297 -0.0454385 5.32189e-20)
(0.90018 -0.657417 -1.99597e-19)
(-0.280346 0.190108 1.138e-21)
(1.13215 -0.087074 2.91635e-19)
(0.837468 -0.213193 0)
(0.969612 0.0222589 4.47966e-20)
(1.35418 0.601947 0)
(1.68786 -0.987146 0)
(1.28044 0.211689 0)
(-0.264287 -0.0575137 0)
(0.830645 -0.701949 3.46287e-19)
(0.170417 -1.12475 1.78449e-20)
(0.123531 -0.787723 6.41624e-20)
(1.50581 0.161045 0)
(1.16205 -0.114341 -2.66599e-19)
(1.12357 0.0225791 1.98073e-19)
(-0.214079 0.110413 2.04736e-19)
(0.614965 0.471846 0)
(2.2091 -0.111457 -1.5618e-20)
(0.996192 -0.507595 9.78504e-20)
(0.933397 1.27705 2.31414e-19)
(1.85658 0.145544 1.53352e-19)
(-0.306993 0.0802877 -3.48503e-19)
(0.844134 -0.76574 0)
(0.545102 0.302339 1.75264e-19)
(1.78144 -0.19454 -9.71827e-20)
(0.0446757 -0.468232 -4.28692e-19)
(0.653249 -0.479911 -8.76213e-20)
(0.599546 0.175759 0)
(-0.0986427 -0.051545 -1.59451e-19)
(0.717343 -0.107861 8.44712e-20)
(1.58447 0.847907 0)
(-0.327788 -0.2068 -3.55991e-19)
(0.872996 0.743968 -2.68622e-19)
(-0.638079 -1.28451 3.28768e-19)
(1.02964 -0.0271793 0)
(0.488411 -0.54516 1.10364e-19)
(-0.230393 -0.031842 0)
(0.733644 -0.535564 -1.22617e-19)
(-0.630126 -1.11108 -1.8438e-19)
(0.81737 -0.742357 0)
(0.464888 -0.335537 4.46838e-19)
(0.571553 -0.495544 3.12052e-19)
(0.424154 -0.38321 0)
(1.02352 -0.815221 -1.7276e-19)
(0.691885 -0.965268 0)
(-0.34027 -0.121768 -1.85544e-19)
(0.846193 -0.72964 1.70017e-19)
(2.35016 -0.215407 6.28269e-20)
(1.84459 -0.108866 0)
(0.137373 0.323683 0)
(0.686411 0.636249 -3.28656e-19)
(1.871 -0.652631 -3.61858e-20)
(0.364393 0.317816 0)
(1.02782 -0.841032 -1.826e-20)
(1.16962 -0.109705 0)
(1.10392 -0.136257 4.63371e-19)
(2.18569 -0.122246 1.59891e-22)
(-0.138008 -0.195332 0)
(1.26539 -0.579896 -7.44203e-20)
(0.0442369 0.294727 -6.76573e-20)
(-0.199739 0.104156 0)
(1.13482 -0.848293 1.10781e-20)
(1.00745 0.00618348 -6.67715e-19)
(0.683947 -0.520322 -1.19089e-20)
(0.850674 -0.550999 0)
(1.24705 -0.761083 -1.3045e-19)
(0.644914 0.197844 2.7244e-19)
(1.17692 0.145168 0)
(1.38288 0.00888944 -2.32947e-19)
(1.24141 -0.891148 -3.15149e-19)
(0.0409988 0.292746 -7.23348e-20)
(0.0800392 -1.18165 -1.20153e-19)
(1.05984 0.00308259 2.44091e-19)
(0.953936 -0.496206 -1.23042e-19)
(0.788299 -0.437317 -3.61057e-21)
(0.899655 -0.702443 -4.31358e-20)
(0.781159 -0.134041 6.8289e-20)
(-0.25358 -0.0432429 -1.47294e-19)
(2.31012 -0.497767 0)
(2.20945 -0.0917657 -5.54929e-20)
(1.43539 0.609949 1.15993e-19)
(0.847254 -0.651182 -2.52619e-19)
(0.996248 0.00850164 1.36852e-20)
(0.756197 -0.571068 3.37125e-19)
(1.30226 0.764397 1.07253e-19)
(1.57062 -0.029376 5.36933e-21)
(-0.094669 -0.33116 0)
(1.07671 0.0387313 -2.50708e-19)
(0.120309 -1.30661 -2.61521e-19)
(1.05039 0.460077 7.84344e-20)
(0.0309557 -0.129719 8.89745e-20)
(1.1654 0.0247109 -4.76535e-20)
(-0.131557 0.227515 -2.41629e-19)
(1.28443 0.544257 -6.82234e-20)
(1.13203 0.868197 0)
(-0.155933 -0.443889 -8.82307e-20)
(0.0576965 -0.327735 0)
(0.637408 0.538112 -2.81439e-19)
(1.70847 -0.135354 -1.31443e-20)
(0.246033 -0.01521 1.40359e-19)
(-0.29697 -1.02751 -5.3977e-19)
(0.726828 0.0375577 2.62497e-19)
(1.35005 -0.217827 1.68757e-20)
(1.01173 -0.373303 -3.55484e-20)
(0.117752 0.210639 0)
(0.511809 1.54556 2.42782e-19)
(1.35854 0.961437 9.28715e-21)
(0.840836 0.0454136 -1.43122e-19)
(0.552131 0.514994 1.94821e-19)
(0.770907 0.169807 0)
(-0.28467 -0.790947 -1.93963e-19)
(0.439941 1.71991 1.10193e-19)
(1.34543 -0.991986 9.14637e-22)
(0.991544 -0.0510437 -2.09408e-19)
(-0.189181 -0.172162 8.07618e-21)
(-0.022533 0.0068838 1.75081e-19)
(-0.337366 -0.150021 -1.10448e-19)
(0.612097 0.513467 0)
(1.11457 0.0345595 -3.34777e-19)
(1.34023 -0.149286 -1.02234e-19)
(1.32443 -0.647197 1.46811e-19)
(0.814226 -0.223976 -2.27075e-20)
(0.577204 0.285782 0)
(0.927307 0.726961 -1.57492e-20)
(0.681453 0.622627 1.80855e-19)
(0.934658 -0.598042 1.80229e-19)
(0.661874 0.466042 0)
(1.02321 -0.0060988 8.97875e-21)
(0.921413 -0.6991 2.56983e-19)
(0.818392 0.391831 -4.64423e-19)
(1.25149 -0.128602 0)
(0.0662766 0.016885 -3.3596e-19)
(-0.219444 0.170035 -1.58614e-19)
(1.59347 0.668395 0)
(1.40541 -0.974306 -7.82907e-22)
(-0.493914 -0.785234 0)
(-0.132555 -0.0559703 1.2445e-19)
(0.717337 0.630445 -9.77785e-20)
(0.873764 -0.251677 0)
(-0.380849 0.00840728 0)
(1.69586 -0.478924 0)
(-0.117228 1.21335 2.94816e-19)
(1.26382 -0.917608 2.05382e-19)
(1.22167 -0.632293 8.26288e-20)
(1.10224 -0.181859 -2.11982e-19)
(0.921306 -0.730759 -2.04574e-19)
(0.185366 -0.190323 0)
(-0.697863 -1.21929 0)
(1.04171 -0.543844 2.20269e-19)
(0.288 0.389126 0)
(-0.392117 -0.121834 0)
(0.0968954 -0.553855 3.70571e-19)
(0.771662 0.646063 8.48232e-20)
(0.998608 0.771545 0)
(0.672186 0.520478 -8.61197e-20)
(0.836798 -0.0762202 -2.41252e-19)
(0.723295 0.531789 -2.29589e-19)
(0.583981 0.53977 -1.6777e-19)
(0.242593 0.276968 9.32991e-21)
(0.744764 -0.668189 0)
(0.891073 0.145831 -3.35059e-19)
(0.323747 0.0959577 6.3252e-20)
(0.602712 0.555327 3.7359e-19)
(0.941576 0.776623 0)
(-0.330181 0.244593 2.72947e-19)
(-0.379077 0.0869233 2.14154e-19)
(-0.387827 0.0602808 -8.52547e-20)
(0.6425 0.540928 -1.49779e-20)
(0.970664 -0.00796899 6.42179e-20)
(0.294616 -0.0519438 0)
(2.2896 0.264087 -5.10894e-20)
(1.52815 0.693248 7.65609e-20)
(0.673363 -0.623239 -9.04301e-20)
(-0.533045 -1.06506 9.52911e-21)
(1.17706 0.429041 1.71862e-19)
(0.866405 0.380103 0)
(1.07872 -0.19301 2.30038e-19)
(-0.502305 -0.275924 -2.48022e-20)
(-0.113989 0.18092 5.59238e-19)
(0.932583 0.0138502 -5.89934e-20)
(1.09093 0.146483 0)
(1.89009 0.044425 7.10026e-20)
(1.49562 -0.0490585 0)
(0.531422 0.211217 -4.79422e-19)
(-0.0312927 -0.000139517 0)
(0.341336 0.322844 2.53672e-19)
(0.717688 0.121642 0)
(0.655894 -0.555221 -2.05365e-19)
(1.15148 0.0124375 2.33241e-19)
(-0.261339 -0.202744 4.14588e-20)
(1.27851 0.023253 -2.29607e-20)
(2.25526 -0.192727 -2.67033e-20)
(1.0981 0.207903 -2.20851e-19)
(0.310618 -0.00224765 -1.19395e-19)
(1.12075 -0.885336 0)
(0.816438 0.0187877 -1.69529e-19)
(0.960035 -0.405397 -3.34387e-19)
(1.76055 -0.592544 6.37519e-21)
(1.69215 -0.023383 -1.13001e-19)
(1.07019 -0.00922255 4.029e-19)
(-0.402219 -0.36679 -8.02549e-20)
(1.03163 -0.466799 -1.53251e-19)
(0.196248 -0.188785 2.87822e-19)
(1.0083 -0.00715903 0)
(1.0048 -0.00557816 0)
(0.692868 1.21587 1.10579e-20)
(-0.342112 0.109511 -1.4059e-19)
(0.15635 -0.122792 -8.20022e-20)
(1.21105 0.0830635 1.78138e-20)
(-0.0670247 0.298365 0)
(1.14484 -0.256464 8.0154e-20)
(0.976539 -0.848906 -1.23591e-19)
(1.86937 -0.58751 -1.97933e-20)
(1.09549 0.813259 0)
(0.489193 -0.472961 0)
(0.584206 0.488272 -1.80859e-19)
(1.07672 0.251646 -4.01036e-19)
(2.22498 -0.199635 2.37728e-23)
(0.852535 0.132236 1.44574e-19)
(-0.268795 -0.907757 -2.33904e-19)
(1.58638 -0.943572 3.48553e-20)
(-0.0142285 -1.21177 0)
(-0.0383097 0.25533 0)
(0.131805 -0.551627 0)
(1.38984 -0.755999 -1.49287e-19)
(-0.204072 0.133752 -2.98103e-19)
(-0.107473 0.0927488 0)
(1.30934 0.962916 -2.00782e-20)
(1.10373 0.127623 -4.25503e-19)
(1.09937 0.159899 1.84393e-20)
(1.0871 0.918392 6.42591e-20)
(-0.306923 0.177365 1.83463e-19)
(1.30512 -0.366234 0)
(0.0792775 -0.736761 -3.01221e-19)
(-0.23848 0.093647 3.27896e-19)
(0.775175 -0.000467269 1.95974e-19)
(1.56766 0.902967 3.88549e-20)
(0.240156 -0.155856 3.63172e-22)
(-0.266287 0.246922 6.08549e-21)
(0.768737 -0.701416 -4.66657e-20)
(1.01637 -0.0561959 0)
(1.37712 -0.0250339 0)
(1.09555 0.0663916 0)
(1.08517 1.5713 -1.19964e-19)
(0.109756 -0.692213 1.04902e-19)
(1.03457 0.823375 0)
(1.00418 -0.0129675 5.62622e-19)
(0.745319 0.573938 -2.28996e-19)
(0.729501 1.65104 -1.54513e-19)
(0.859145 -0.00901457 -4.42797e-20)
(0.741733 -0.675504 -2.65678e-19)
(1.38213 0.658647 -2.3437e-20)
(0.595377 -0.49488 -3.21084e-19)
(1.12811 -0.00625166 -4.95475e-19)
(0.826028 0.0471228 5.14885e-20)
(1.58424 -0.149373 1.21938e-19)
(1.77981 -0.0919829 1.01114e-19)
(0.223317 0.28971 4.1169e-21)
(1.0629 0.441225 -2.62973e-19)
(1.53216 0.609599 1.1448e-19)
(-0.560285 0.0920082 0)
(-0.107429 -1.0696 9.40737e-20)
(0.0804068 -0.0824153 1.43308e-19)
(-0.214636 -0.101934 -7.44707e-20)
(0.456786 0.266382 0)
(0.992032 1.05182 0)
(-0.0511649 0.0562706 -2.00363e-19)
(0.143749 0.0167675 -7.05729e-20)
(1.04468 -0.0329429 1.96361e-19)
(0.00610897 -0.352333 -4.28018e-20)
(0.127038 -0.221402 2.0622e-19)
(-0.147967 0.0618841 0)
(0.865011 -0.765462 -3.81464e-19)
(1.71439 -0.208311 -1.87491e-19)
(0.137356 -1.28236 1.59523e-19)
(0.713588 0.124296 3.43318e-19)
(0.618138 0.094023 1.11402e-19)
(0.518369 -0.493031 2.29402e-19)
(0.398892 0.30994 -1.3219e-19)
(0.219055 0.239808 0)
(0.373279 0.304572 -2.02781e-19)
(1.02619 -0.0196453 -3.13577e-19)
(-0.340062 -1.04401 2.09472e-19)
(1.40726 0.416152 -9.92294e-20)
(0.295402 0.373551 -4.78934e-20)
(0.71067 -0.647646 -1.09369e-19)
(0.806833 0.152746 -2.13516e-19)
(0.956906 0.396094 2.27023e-20)
(1.16869 -0.149213 4.1754e-20)
(0.626185 -0.274269 -3.26295e-19)
(2.11595 -0.340887 1.25693e-20)
(1.72429 0.159121 0)
(1.06466 -0.0356374 2.4821e-20)
(1.1759 0.237463 -3.5083e-21)
(1.11038 -0.307692 5.4589e-20)
(1.43198 0.233513 -2.49806e-19)
(0.895602 0.0349196 -1.15259e-21)
(0.405426 0.365066 -2.60953e-19)
(-0.454624 -0.788282 2.58092e-19)
(2.30411 -0.0650549 0)
(0.923286 0.00110355 0)
(0.904601 -0.797581 7.88137e-20)
(-0.411203 0.0732904 -2.34259e-19)
(-0.630717 -1.37184 -1.94624e-19)
(0.262267 0.3328 -1.73329e-19)
(-0.470731 -0.356748 -1.6881e-19)
(-0.0366861 -1.25309 0)
(-0.0316629 0.208609 2.48661e-20)
(0.259637 -0.0655082 -1.55327e-19)
(-0.0246234 -0.00791716 -3.93541e-19)
(0.812784 -0.146358 0)
(1.63325 0.461301 -1.26254e-20)
(0.0617498 0.0518151 0)
(0.991893 0.024752 4.03722e-19)
(0.00338346 -1.06914 3.18112e-20)
(0.569288 -0.4654 4.30443e-19)
(-0.05545 -1.32297 4.31135e-19)
(0.237657 0.477622 0)
(0.0241074 -0.0259074 1.83427e-19)
(1.00413 0.0180264 -1.21864e-20)
(-0.23984 -0.08437 0)
(1.006 -0.00841497 -6.21553e-20)
(0.899051 -0.757941 -3.53939e-19)
(0.61734 1.18156 0)
(0.95693 -0.295844 2.39528e-19)
(-0.256487 -0.392897 2.9636e-19)
(0.0236071 0.0771839 0)
(-0.171442 -0.961636 -5.12367e-21)
(0.759162 -0.664235 -4.92365e-19)
(0.981932 -0.0377579 -3.06036e-19)
(-0.49992 -0.0504349 2.91707e-19)
(0.191066 0.360283 1.545e-19)
(-0.0587338 -1.29158 0)
(0.936878 0.443682 0)
(0.14598 -1.14194 1.64406e-19)
(2.43706 0.546024 -6.2067e-20)
(1.07223 0.883151 1.61834e-20)
(1.05304 0.19317 -1.27009e-19)
(1.16552 0.0125341 -2.64047e-19)
(1.07371 -0.086254 -1.01277e-19)
(-0.395431 -0.167908 -3.15945e-19)
(1.21154 -0.0513044 -1.13997e-19)
(0.642081 0.0205031 2.10027e-19)
(1.78878 0.0948742 -2.28036e-20)
(1.08415 -0.168317 0)
(1.62194 1.39265 4.20774e-19)
(1.14406 0.0238972 -5.46917e-19)
(1.74128 0.539146 -1.56883e-20)
(0.7716 -0.491894 -1.81106e-19)
(-0.0911382 -0.0333269 1.19337e-19)
(0.828117 -0.72681 4.6064e-19)
(1.21947 0.189821 7.23519e-20)
(1.00708 -0.0071243 2.75152e-19)
(-0.295023 -0.704622 -1.13098e-19)
(1.01884 0.00915437 0)
(0.893488 0.116666 8.80513e-20)
(-0.0181244 0.0686362 0)
(1.01123 0.0105627 -1.64655e-19)
(0.180953 0.98166 -3.95399e-19)
(1.61047 0.174859 2.679e-20)
(0.0459638 -0.619557 1.73524e-19)
(1.40761 0.00353417 1.72852e-21)
(1.01377 -0.0216124 5.67527e-20)
(1.33798 -0.106377 0)
(1.49754 -0.635475 -2.31104e-19)
(1.01483 0.0204853 -1.6556e-19)
(1.44552 0.754105 -2.5177e-20)
(1.3576 -0.00520645 0)
(1.21866 -0.7965 1.06819e-19)
(-0.0603916 0.0643817 0)
(1.40309 0.0613615 0)
(0.204616 -0.455647 0)
(1.21596 0.422608 0)
(1.94673 0.00232993 5.43899e-20)
(0.720056 0.588884 4.01113e-19)
(0.29348 -0.294657 -2.71515e-19)
(0.13145 0.17122 -3.96941e-19)
(0.0777222 0.206799 0)
(1.98576 0.329955 -9.46612e-20)
(1.65645 0.44073 0)
(1.42125 0.254006 0)
(0.0838895 -0.994844 1.31525e-19)
(0.801047 0.701382 1.23188e-19)
(1.71608 0.00180497 0)
(0.353903 0.150906 8.46424e-20)
(0.897277 0.192091 1.96561e-19)
(2.29924 -0.0408212 5.34497e-20)
(1.24424 0.907088 3.64431e-20)
(0.952819 -0.85592 -5.85526e-20)
(1.90277 0.0120427 9.4613e-20)
(0.79059 0.71014 1.25233e-19)
(1.18662 0.912748 0)
(1.66892 0.296252 -1.48681e-19)
(1.9278 1.54118 0)
(1.85441 -0.126832 5.60277e-20)
(1.30867 0.0773063 2.87932e-19)
(1.00471 -0.00526377 0)
(1.04486 1.54274 2.74315e-19)
(0.901473 -0.198918 5.4003e-20)
(0.662045 -0.451048 0)
(0.695943 -0.420708 2.33879e-19)
(1.22565 0.528919 -3.12294e-20)
(0.470945 0.441075 2.82167e-19)
(-0.0173858 -0.0454488 4.48542e-20)
(0.829222 -0.0299449 1.71673e-19)
(0.774881 0.0786631 0)
(1.37075 -0.934634 -1.52177e-19)
(1.02533 -0.0447234 4.34816e-19)
(1.6837 0.232086 1.97419e-19)
(0.264301 0.115415 6.95071e-20)
(0.228317 -0.92556 0)
(1.26302 -0.249128 -1.42978e-19)
(0.0496833 0.0969648 -1.07456e-19)
(1.31519 0.455367 -5.52912e-20)
(-0.169428 0.0965989 -1.71168e-21)
(-0.22977 0.142292 4.52353e-19)
(1.24957 -0.597929 -8.37314e-21)
(2.30525 0.0621522 6.84201e-20)
(1.17372 0.418786 -2.77147e-19)
(0.783274 -0.0476948 0)
(1.30448 -0.0221285 -6.28013e-21)
(1.67557 0.133459 -2.06154e-20)
(0.949264 -0.795984 1.77915e-19)
(1.19702 -1.00791 -8.40549e-20)
(0.47699 0.439952 1.87672e-19)
(2.18386 1.34652 0)
(1.76778 0.464826 5.45982e-20)
(0.0442216 0.128702 -2.2344e-19)
(0.877118 0.758652 0)
(0.390938 -0.11511 0)
(0.294629 -0.295329 -3.17224e-21)
(0.309776 0.270111 0)
(0.0292832 -0.99504 -4.41806e-19)
(-0.0836273 -0.043829 -1.39086e-19)
(1.82371 -0.454338 0)
(1.1616 0.114421 1.76156e-19)
(-0.805291 -1.35913 1.62346e-19)
(0.549855 -0.52107 -5.36188e-19)
(1.83757 -0.00531688 6.97798e-21)
(0.629699 -0.572979 0)
(1.00222 0.112178 0)
(1.45454 -0.263749 0)
(1.10377 0.212302 -2.3585e-19)
(1.30087 0.087511 3.33453e-19)
(0.151387 0.245994 0)
(0.912618 -0.0772665 0)
(1.2717 0.0409849 1.89223e-20)
(-0.167775 0.147342 1.53091e-19)
(1.40308 -0.0135997 1.36549e-19)
(1.08619 -0.543041 1.00843e-19)
(1.149 0.0185422 1.59187e-19)
(-0.539453 -1.21524 -1.35067e-19)
(1.36166 -0.0912598 8.09989e-21)
(1.01973 -0.0319744 4.57022e-19)
(1.51603 0.535929 0)
(-0.231551 0.0488331 3.78947e-20)
(1.04344 -0.860068 2.31877e-19)
(0.865652 -0.0420398 5.17581e-20)
(0.665632 -0.473912 0)
(2.00857 -0.554286 -6.81058e-21)
(1.24267 -0.210421 1.92748e-19)
(2.05629 0.0701898 0)
(0.625957 -0.579713 5.5671e-19)
(0.3218 -0.0834333 5.64444e-20)
(1.3596 -0.00638235 -2.29197e-19)
(-0.164209 0.122165 -3.07067e-19)
(1.32439 0.584923 1.30888e-19)
(1.13384 0.380103 3.57655e-21)
(0.891534 0.345029 2.28278e-19)
(2.25612 0.561271 -8.02144e-20)
(-0.446902 -0.261153 4.6356e-22)
(0.990031 -0.225069 0)
(-0.151418 -0.123759 1.98516e-19)
(1.12888 -0.981693 0)
(1.10411 -0.684312 2.73859e-20)
(1.83662 0.236333 -4.32789e-19)
(0.915725 -0.875173 -1.72097e-20)
(-0.00133113 -1.28659 -3.43158e-19)
(0.973023 0.453762 1.73222e-19)
(0.854818 1.6849 1.32617e-19)
(0.682461 -0.0391584 0)
(1.44387 0.161797 0)
(0.555398 0.153148 -7.73183e-21)
(0.791446 -0.0184718 0)
(1.39911 -0.20544 -1.98337e-19)
(-0.580335 -1.43493 5.13114e-19)
(1.89171 0.381855 4.37766e-20)
(1.02967 -0.0360694 0)
(0.578869 -0.395627 1.16794e-19)
(1.00755 0.0279304 2.16394e-19)
(1.54657 1.53957 -7.25873e-20)
(-0.504531 -0.867805 0)
(1.15817 -0.508173 6.10713e-19)
(1.59556 -0.0376872 4.94386e-22)
(1.13611 -0.520736 -2.65376e-19)
(2.02358 0.016405 1.32487e-19)
(1.28209 0.765567 0)
(0.849842 0.0157826 0)
(0.178113 -0.0777602 -1.739e-19)
(-0.0514936 0.0601091 2.25525e-19)
(0.932624 0.340247 -2.09271e-19)
(-0.0410199 -0.727598 -2.91602e-20)
(0.628268 0.373261 2.49753e-19)
(1.07533 -0.71523 0)
(0.551209 -0.511536 0)
(1.25382 -1.19475 -1.30048e-20)
(1.27168 -0.528847 -1.29682e-19)
(0.74758 0.0672388 5.52788e-21)
(0.747734 -0.189775 1.28651e-19)
(-0.128105 0.159431 -4.06089e-19)
(0.875346 -0.524493 -4.54138e-20)
(0.658877 0.611852 0)
(1.26307 0.660025 0)
(1.55806 0.224113 0)
(-0.0132181 -1.24829 -1.50332e-19)
(1.45953 0.565188 3.14468e-19)
(1.76981 0.198877 -6.81035e-21)
(0.891078 -0.00603616 0)
(2.299 -0.570223 0)
(1.36537 -0.0335275 7.42711e-20)
(1.26992 1.4897 8.29218e-20)
(1.00527 0.00502312 -2.1536e-19)
(1.45848 0.448178 0)
(-0.555767 -0.482418 0)
(1.2247 0.284262 2.81071e-19)
(1.00578 0.499068 -1.27161e-19)
(1.06714 0.0134732 0)
(2.36879 0.970107 0)
(2.13844 0.543095 -4.36092e-19)
(-0.271349 0.204205 -2.74519e-21)
(0.997325 0.0119103 0)
(0.688414 0.439979 -3.39584e-20)
(0.967701 -0.8503 0)
(0.99779 0.0149395 5.03874e-20)
(1.12524 -0.161427 -3.40364e-19)
(0.927832 -0.349401 3.54247e-19)
(1.53312 -1.21961 2.56354e-19)
(2.23294 -0.0204377 2.99806e-20)
(0.511652 0.0944089 -4.31798e-20)
(0.8057 -0.0411328 0)
(1.02646 0.00608758 0)
(0.229252 -1.09737 0)
(0.668537 0.638201 -1.83216e-19)
(-0.0979328 0.125651 2.72685e-19)
(1.14852 0.325784 -4.52186e-19)
(-0.262434 -0.43659 0)
(0.808466 0.614901 1.67411e-19)
(1.03491 -0.357225 0)
(1.00604 -0.000546326 1.25823e-19)
(1.53503 1.02141 5.25599e-20)
(1.01683 0.378775 2.52865e-19)
(1.17484 -0.499745 0)
(1.67731 -0.122779 -8.62897e-21)
(0.839507 -0.137434 -3.98492e-19)
(0.11462 -0.680814 -6.3901e-19)
(1.63995 1.35397 0)
(0.866127 0.210865 1.80726e-19)
(2.30783 0.0420377 0)
(0.755986 0.490809 3.66001e-19)
(-0.425785 -0.998443 2.50457e-19)
(-0.114092 0.115808 0)
(0.588016 0.55786 -7.05879e-20)
(1.06605 -0.671667 -1.91724e-19)
(0.501476 -0.298606 -1.30149e-19)
(1.0236 -0.0235511 0)
(-0.4427 -1.25045 -1.51587e-19)
(0.664857 -0.596011 9.25587e-20)
(0.894246 0.259153 0)
(1.12939 0.734465 -5.95731e-20)
(0.978097 0.824565 2.27074e-20)
(1.54797 -0.731774 3.16904e-19)
(-0.0412939 0.115335 -8.48917e-20)
(0.243774 -0.107417 -5.81629e-19)
(0.125961 0.341127 7.85763e-21)
(0.80324 0.324711 2.50839e-19)
(-0.222401 0.0815297 -6.85785e-21)
(1.46342 -0.671859 3.0716e-21)
(1.02517 -0.00171752 -3.77565e-19)
(-0.0569452 -1.31886 0)
(1.03207 0.0209142 -4.31399e-19)
(2.18805 0.745497 6.66924e-20)
(0.867108 0.663749 2.76462e-19)
(1.14908 -0.0848067 1.83594e-19)
(1.00767 -0.0424462 1.74663e-19)
(1.0048 -1.15501 1.51696e-20)
(0.136976 0.108848 -1.84952e-21)
(1.78736 -0.910943 1.54084e-20)
(1.16468 -0.150263 -1.02793e-19)
(0.843617 0.0672274 1.19218e-19)
(0.938176 -0.321308 1.01551e-19)
(0.194869 0.0169301 0)
(0.944612 0.709316 0)
(1.74069 0.942238 -6.26113e-20)
(1.84027 0.0822008 -8.16063e-21)
(-0.258909 -1.40058 1.87503e-19)
(1.06071 -0.56497 -6.29165e-19)
(0.645314 -0.565901 4.37215e-19)
(1.55556 -0.354744 -8.7217e-20)
(-0.206882 -0.299302 5.22592e-21)
(2.02786 -1.06324 0)
(0.751454 0.0827096 -7.11402e-21)
(2.16427 -0.653191 -1.08402e-19)
(1.0253 0.735985 0)
(1.67682 -0.404209 0)
(-0.344658 -0.605097 0)
(0.405016 0.373656 -6.1593e-20)
(0.310513 0.0425961 0)
(1.40968 1.19061 1.08016e-20)
(1.19749 0.176177 6.40431e-21)
(0.284996 1.38307 1.92214e-19)
(0.206354 0.262277 -2.08647e-20)
(1.82541 0.320186 -1.01529e-19)
(2.12066 -0.271284 -6.2097e-21)
(-0.204573 0.0554381 -3.20044e-19)
(-0.22189 -1.1503 3.8138e-21)
(0.32461 -0.0210711 0)
(0.671863 -0.0339797 0)
(1.00001 0.00143854 1.52267e-22)
(0.0128939 -1.31249 0)
(1.47528 0.0946718 6.47294e-20)
(0.677342 -0.030611 0)
(1.07048 0.0119768 1.46746e-19)
(0.985221 0.0159865 -4.92012e-20)
(0.592948 -0.491863 -6.0112e-21)
(1.05808 -0.0227608 -9.88894e-22)
(0.968601 -0.210624 -6.10089e-20)
(1.0315 -0.0381595 4.098e-19)
(0.699717 -0.637709 2.11582e-19)
(0.157515 1.50119 -1.4816e-19)
(0.3681 -0.0263503 -5.38727e-20)
(-0.0594549 0.0782473 0)
(1.1166 0.770159 0)
(1.03255 -0.0173342 0)
(1.04368 -0.806875 -1.36738e-19)
(1.07501 -0.918544 9.05302e-20)
(0.287061 -0.518882 1.01155e-19)
(1.37879 1.32711 -8.15375e-19)
(1.56183 -1.26656 -3.28927e-20)
(0.611356 -0.425698 -6.89942e-19)
(0.674003 -0.0534875 6.51464e-20)
(1.39639 -1.52766 1.515e-19)
(2.18989 -0.283867 9.20272e-22)
(0.357423 -0.0305027 6.0019e-20)
(0.397253 0.2467 -1.27792e-19)
(1.09684 0.52582 1.88756e-19)
(-0.519689 -0.0613068 0)
(0.195975 -0.920015 1.87571e-19)
(-0.131852 0.0954316 1.88526e-21)
(1.02446 -0.0448224 3.57466e-19)
(1.02563 -0.00691 -9.36716e-21)
(1.10947 -0.0145638 -9.90713e-20)
(1.14693 -1.06009 4.49507e-20)
(1.57172 0.276898 5.02238e-20)
(0.412437 -0.389135 -3.47062e-19)
(0.568792 -0.311019 -1.98732e-19)
(1.03735 -0.00813816 -2.69967e-19)
(0.141589 -0.0230829 5.54103e-20)
(1.05735 -1.12822 0)
(1.09509 0.564328 -3.52528e-19)
(1.00229 -0.00339023 1.02768e-19)
(0.660149 0.584233 2.61452e-19)
(1.73872 -1.33536 -1.64499e-23)
(1.06171 -0.0146428 -3.19587e-20)
(1.12161 0.00623761 9.1347e-22)
(1.51008 -0.167535 -5.22817e-21)
(0.341851 -0.0733373 0)
(1.04355 -0.0402986 0)
(1.04953 -0.034221 6.28758e-19)
(1.00276 -0.00145211 0)
(0.0173518 0.188276 0)
(0.969874 -0.605174 0)
(1.00127 0.00102774 -5.97716e-19)
(1.20049 -0.71168 1.15254e-19)
(1.02335 -0.00820522 1.26641e-20)
(1.3581 0.929025 -1.42023e-20)
(1.56028 0.979465 -1.05146e-19)
(1.5523 -1.49488 5.98953e-20)
(1.99031 0.974456 7.22901e-20)
(0.180916 0.108231 0)
(-0.214614 0.134215 0)
(2.32771 0.153971 2.18976e-19)
(1.32106 0.335712 0)
(1.00024 -0.00390414 -1.84293e-19)
(1.01035 -0.000246299 3.58357e-19)
(1.39243 0.117356 -6.78482e-20)
(-0.0195757 -0.117267 1.54003e-19)
(0.966425 -0.00370998 1.93845e-19)
(0.747909 -0.246101 -1.23816e-19)
(0.480876 0.0261607 1.07788e-20)
(1.09293 -1.33707 3.42413e-22)
(0.931814 0.0165813 -1.99321e-19)
(1.0037 0.00459867 2.32865e-19)
(1.00017 0.000686595 1.37171e-20)
(0.79054 -0.0121108 0)
(0.728945 -0.0263912 0)
(0.724873 -0.0268725 9.92596e-22)
(0.70035 -0.0284396 0)
(1.78477 -0.155505 0)
(0.397018 -0.149446 0)
(0.359425 -0.109159 -2.91107e-20)
(0.469373 0.327039 1.28775e-20)
(0.656931 0.203823 0)
(0.604587 -0.119371 2.70769e-20)
(0.84111 -0.640841 0)
(1.21007 -0.208423 0)
(0.749902 -0.131533 0)
(0.455903 0.0280494 1.88333e-20)
(0.314839 0.00303044 -1.13556e-19)
(0.783373 0.0217386 0)
(0.785336 0.0201145 0)
(0.969708 0.0189911 -2.45181e-19)
(0.813456 0.00906647 4.5477e-19)
(1.00917 -0.00118988 0)
(1.00031 -7.13713e-05 4.29573e-19)
(1.00004 -0.00052825 -2.16195e-22)
(0.786582 0.0216053 3.89671e-19)
(0.990554 -0.00901802 -2.22776e-19)
(1.13255 -0.196546 0)
(0.0118697 -0.144544 -1.0786e-20)
(1.00068 -0.000387594 -2.16483e-19)
(0.999342 0.0020041 -3.72603e-19)
(1.29264 -0.855318 0)
(0.999021 0.0024605 0)
(0.999691 0.000715329 0)
(1.96474 -1.07425 -1.14888e-20)
(1.11585 -1.38249 -2.54201e-20)
(0.394323 -0.140309 0)
(0.0381309 -0.312789 2.00437e-19)
(1.3819 1.60845 -2.65781e-19)
(1.01945 -0.0225733 -2.88688e-19)
(0.207143 -0.363324 -1.17e-19)
(1.01811 -0.00561622 -2.339e-19)
(1.20201 -0.232806 -1.48731e-19)
(0.829695 -0.504882 3.46693e-19)
(0.197439 0.297354 -6.43606e-20)
(1.03192 0.00740896 0)
(1.03941 -0.0168603 -6.11378e-20)
(0.866504 0.0230241 0)
(-0.0878987 0.124657 3.98761e-19)
(1.39799 0.125047 0)
(0.108714 -1.0029 -2.71829e-19)
(0.536582 -0.155957 9.48062e-20)
(1.67167 0.602581 5.96554e-20)
(-0.0901241 0.0162956 0)
(1.05313 -0.0378131 1.94325e-19)
(1.42784 -1.43772 -5.44777e-21)
(0.927967 -0.0304787 3.04152e-19)
(1.01216 -0.0101645 -1.96056e-19)
(1.71665 0.793401 8.07272e-20)
(0.514117 0.478659 0)
(0.429002 0.369605 2.11476e-19)
(2.28018 -0.958121 2.45215e-21)
(1.13763 0.115806 1.95926e-19)
(1.12656 -0.742206 0)
(1.02057 -0.000766908 0)
(1.0001 -0.0183539 -4.51516e-19)
(1.01879 0.0137316 -4.44312e-19)
(0.0328542 0.342818 0)
(1.21835 0.794942 -1.09485e-19)
(1.61648 -1.07936 1.75186e-23)
(1.01722 0.00236874 1.69957e-19)
(1.01176 0.0131204 -2.1419e-19)
(0.0588586 -1.06386 -2.66398e-20)
(1.3199 -1.34773 5.30331e-20)
(1.01815 -0.0210075 7.23134e-19)
(1.15164 -0.377292 0)
(1.90337 0.539342 -8.65973e-20)
(1.01535 -0.0155051 -2.259e-19)
(1.57524 0.227926 2.2589e-20)
(1.06046 -0.000797888 -5.14224e-22)
(1.01119 -0.00969821 4.50461e-20)
(2.23055 -0.108409 -5.47766e-20)
(1.01569 0.00664114 2.20416e-19)
(0.932883 -1.26367 -2.35552e-20)
(1.01963 -0.00399851 0)
(0.924768 0.12592 5.15462e-20)
(0.576324 0.436183 6.849e-21)
(1.00147 0.0204741 2.1923e-19)
(1.04218 0.0194755 -4.89363e-22)
(1.3718 -0.958522 -1.35347e-20)
(1.23531 0.299782 3.94665e-19)
(0.997551 0.0130669 1.51228e-19)
(1.01741 -0.0166213 6.22043e-22)
(1.64508 0.16067 -1.77177e-20)
(1.94823 0.93154 -1.52363e-19)
(0.799032 -0.715908 7.40161e-20)
(0.475484 -0.372926 -3.29665e-19)
(1.00769 -0.0124493 0)
(1.02004 0.000955973 5.47312e-20)
(1.01058 -0.010151 1.14675e-19)
(1.31804 -1.42974 -1.04204e-20)
(1.01402 0.00146129 -2.29409e-19)
(1.0326 -0.0313687 2.65657e-19)
(1.00853 -0.00792036 -2.14288e-19)
(1.01378 0.00218355 -5.03032e-22)
(1.01429 0.00135033 -4.51139e-22)
(1.02583 0.0108354 2.19994e-19)
(0.899785 0.0648918 5.38748e-19)
(0.597687 0.391114 0)
(1.31535 0.142997 2.43727e-19)
(1.01155 -0.00757409 0)
(1.02127 -0.0278957 -6.33091e-20)
(1.51295 0.374541 -6.80373e-20)
(1.47216 0.110003 0)
(2.00989 0.231545 9.88877e-20)
(1.00166 0.910148 -1.59839e-21)
(0.727155 -0.015705 0)
(2.35616 0.227651 0)
(0.9963 1.15547 -2.66557e-20)
(0.933987 -1.06351 -1.88525e-20)
(1.01686 -0.00847016 -2.30558e-19)
(1.15579 -0.590041 -7.6036e-20)
(1.14859 -0.703353 -4.02538e-21)
(0.326936 -0.487158 0)
(1.8746 -1.15381 0)
(1.12743 0.228945 0)
(0.279164 -0.184214 1.79299e-19)
(0.780629 -1.27081 -2.00727e-20)
(0.596497 1.36961 0)
(-0.0811486 -0.926577 -3.01029e-19)
(1.74704 0.929522 -1.18582e-19)
(1.00769 -0.00420036 -4.51189e-19)
(1.02438 -1.23641 6.78296e-21)
(1.02247 -0.00112366 2.99292e-19)
(0.666921 -0.0409698 0)
(-0.131062 0.262926 -1.9157e-20)
(0.592577 0.39685 -3.51469e-19)
(0.654155 0.473249 -3.16662e-20)
(0.149097 -0.308861 0)
(0.817049 0.0684782 9.93137e-20)
(0.515876 0.49024 5.24649e-20)
(1.1846 0.863794 -2.83964e-20)
(-0.042833 0.0163056 7.61435e-20)
(1.01617 0.00570486 0)
(0.548637 -0.941925 -4.71675e-20)
(1.01158 -0.00512784 1.69078e-19)
(1.71303 -0.247757 0)
(1.011 0.00559243 2.84064e-19)
(0.128227 -0.746032 -7.96694e-20)
(1.01919 0.00498193 -1.75647e-19)
(0.629902 -0.975212 0)
(1.72678 0.455179 -5.34738e-22)
(1.00862 0.00316088 -1.17859e-19)
(0.994537 -0.04272 3.10767e-19)
(1.08623 0.0800475 -4.21158e-21)
(0.600326 -0.657116 1.04188e-19)
(-0.15672 -0.0899162 1.99877e-19)
(2.04957 -0.134323 1.57471e-19)
(0.661232 -0.557084 -1.17943e-19)
(0.79792 0.0154864 -4.27163e-19)
(0.78699 0.0221218 0)
(0.876856 -1.08844 -8.74861e-20)
(1.0213 -0.0260828 -3.39772e-20)
(0.978264 0.00975037 0)
(1.05109 -0.00734462 -2.14061e-19)
(0.956943 -0.221915 1.71476e-19)
(-0.120468 -0.797227 2.95471e-19)
(2.26385 -0.598264 0)
(-0.280338 -0.00587113 -4.57088e-19)
(1.55058 -0.3575 0)
(1.04042 -0.0197211 6.30912e-20)
(1.33244 -0.913514 -7.58931e-21)
(1.0138 -0.00849636 1.83467e-19)
(-0.691858 -1.07701 3.73103e-19)
(1.01904 0.000136428 0)
(0.993388 0.00395055 -4.37174e-19)
(1.00754 0.00778506 2.32935e-19)
(0.671921 0.195055 0)
(1.74957 -0.746638 4.57994e-20)
(0.95664 -0.000674733 -1.99158e-19)
(0.0307201 -0.340884 4.32876e-19)
(1.00332 -0.000636953 -2.27061e-19)
(1.00358 0.0126257 -5.34194e-19)
(1.72675 -0.629533 -3.17134e-20)
(0.329788 0.261887 -9.65446e-20)