/*--------------------------------*- C++ -*----------------------------------*\
| =========                 |                                                 |
| \\      /  F ield         | OpenFOAM: The Open Source CFD Toolbox           |
|  \\    /   O peration     | Version:  2306                                  |
|   \\  /    A nd           | Website:  www.openfoam.com                      |
|    \\/     M anipulation  |                                                 |
\*---------------------------------------------------------------------------*/
FoamFile
{
    version     2.0;
    format      ascii;
    arch        "LSB;label=32;scalar=64";
    class       surfaceScalarField;
    location    "19.7";
    object      phi;
}
// * * * * * * * * * * * * * * * * * * * * * * * * * * * * * * * * * * * * * //

dimensions      [0 3 -1 0 0 0 0];

oriented        oriented;

internalField   nonuniform List<scalar> 
3181
(
-1.04954
0.409393
0.640142
-0.388954
0.367112
0.0218416
0.524821
-0.359853
-0.164968
0.123144
-0.203216
0.0800724
-0.056803
0.0722536
-0.0154506
0.653967
0.901556
-1.55552
0.149344
-0.142964
-0.00638027
0.0730571
0.00162968
-0.0746868
0.592976
-0.758248
0.165272
-0.0747693
0.138245
-0.0634762
-0.0104097
-0.0507039
0.0611137
0.113623
0.0530027
-0.166626
-0.00803266
-0.0585718
0.0666045
-1.09749
0.150399
0.947095
-0.330294
0.698803
-0.368509
-1.12133
0.637848
0.483484
0.084159
-0.931846
0.847687
-0.224575
0.167519
0.057056
-1.00069
-0.404586
0.00416908
0.0443491
-0.0485182
0.035011
-0.0846681
0.0496571
-0.0599273
0.0524289
0.00749841
1.06471
-1.03935
-0.0253658
0.019149
0.0368081
-0.0559571
-0.954929
0.324991
0.629938
-0.108751
0.231895
0.307828
-0.243699
-0.0641285
0.0298604
0.062567
-0.0924274
-0.408758
0.336245
0.0725135
-0.0327812
-0.0147736
0.0144882
0.000285386
-0.035901
-0.919028
0.0471392
-0.0424831
-0.00465616
0.174719
1.51351
-1.68823
-0.0511936
0.0511387
5.48781e-05
0.179202
0.273391
-0.452593
1.71567
-1.54096
0.0709064
-0.0358954
1.51964
-0.798683
-0.720952
-0.468052
1.12202
-0.120186
0.112153
-0.0590736
-0.000853769
-0.408582
0.078288
-0.130727
0.0716536
-0.631913
0.129994
0.501919
-0.149954
0.0751843
-0.16895
0.173226
-0.00427572
-0.273068
-0.076399
0.349467
0.235054
1.24132
-1.47638
0.0546176
0.138011
-0.192629
-0.0106045
-0.0995114
0.105574
-0.0060622
0.520987
0.177817
-0.0956569
0.138851
-0.0431937
0.0863781
-0.0392389
-0.172489
0.199022
-0.0265329
0.164385
0.0550598
-0.219445
0.10961
-0.115556
0.00594602
1.22411
0.295525
-0.860843
-0.188692
0.0128445
-1.74155
1.7287
0.548953
0.228891
-0.777843
-0.443551
-0.203754
0.647304
-0.908816
0.440764
-0.269882
0.818835
-0.326016
-0.101791
0.427806
-0.206756
-0.202003
-0.191113
0.165828
0.0252852
0.13141
0.284885
-0.416296
-0.158037
0.751013
-0.0167105
0.0897677
-2.09904
2.11188
0.189005
0.118823
-0.180672
-0.111302
0.291974
-0.268134
0.353187
-0.0850527
-0.0816443
0.0897654
-0.00812111
-1.86398
-0.918803
0.0092224
0.90958
-0.0536665
0.00247295
-1.06418
0.784391
0.279794
0.407155
-0.259944
-0.147211
-0.795311
-0.113506
1.10404
-0.953639
-0.713433
1.14703
-0.199939
1.06814
0.165798
-0.174104
0.0083058
1.57214
-0.670582
0.944937
-0.944937
-0.00748906
-0.000384973
0.00787404
-0.21447
-0.0528819
0.267352
0.082509
-0.058517
-0.023992
-0.451514
0.836864
-0.38535
-0.0164979
-0.238744
0.255242
-1.08298
0.0436383
0.344618
0.056487
-0.401106
0.135867
-0.854707
1.0836
0.0642696
0.0723165
-0.136586
-0.0174245
-0.155065
-0.225886
-0.0349831
0.260869
-0.174923
-0.0509624
0.119333
-0.97404
0.331373
-0.782886
0.923344
-0.839185
-0.0113219
0.146011
-0.134689
0.0816778
0.0516062
-0.133284
-1.40766
-0.0929375
1.5006
-0.247623
0.411835
-0.164212
-1.0439
0.652381
0.391516
-0.465907
-0.598278
0.126294
-0.0716766
-0.15344
0.14786
0.0055796
-0.077176
-0.0127906
0.0899666
-0.529447
-0.2288
-0.101134
0.0436842
0.0574499
-1.14967
-0.241296
1.39096
1.69266
-0.45134
-0.0125482
0.00505911
0.0397142
0.149291
-0.198989
0.378191
0.00844838
0.173987
-0.182435
0.137183
0.0679227
-0.205106
0.244287
-0.0990575
-0.145229
-0.594856
-0.526475
-1.20199
0.0523196
-0.0476053
0.111875
-0.107113
0.18532
-0.0782071
0.0197113
0.0250613
0.124283
-0.0570232
0.0712092
-0.014186
-0.0962883
-0.0219783
0.118267
0.0745031
-0.0745031
-0.185797
0.210859
0.232232
0.14646
0.105761
0.0932612
-1.2738
1.11576
-1.5497
0.112177
1.43752
0.0278929
-0.0234669
-0.00442597
-0.0265058
-0.051188
0.0776938
0.543122
-0.0261673
-0.516955
-0.0376029
0.0389309
-0.00132808
-0.201293
0.0154957
0.160912
0.675952
-0.368483
0.529395
-0.175158
-1.2325
-0.0916201
0.0348171
0.488277
-0.307245
-0.181032
0.101144
-0.0863017
-0.0148424
0.047839
-0.320907
0.0232192
-0.942022
0.0493779
-0.156491
-0.289423
-0.402415
0.0701413
1.37897
-0.928176
-0.450797
1.07752
0.301451
0.0662805
0.283186
0.0283382
-0.000445291
-0.0847416
0.165067
-0.0803258
-0.254692
-0.584497
0.839189
-0.358925
0.571451
0.929123
-1.33371
0.132772
0.0401259
-0.0577356
0.0176097
-1.84573
0.398452
1.44728
-0.260836
-1.5849
-0.305716
0.650334
-0.908627
-0.0178964
0.00430395
-0.265519
0.261215
1.43949
-1.55765
0.118162
-0.0904775
-0.00114253
0.570152
-0.824844
0.0645315
-0.3757
0.311168
-0.295667
-0.117317
0.412983
0.172898
-1.00806
-0.074924
-0.00711276
-0.0414054
-0.554828
0.351075
-0.245148
0.018601
0.226547
-0.0178394
-0.0726381
0.0280424
-0.0280424
-0.118406
0.129796
-0.01139
-0.287104
-1.26259
0.0825908
0.0296542
-0.112245
-0.142456
0.0273403
0.115115
-0.220757
0.0296434
1.44662
-0.417561
-1.02906
-0.194035
0.450783
-0.256748
0.00724594
-0.00683679
-0.000409155
-0.456963
-0.586934
-0.185275
-0.00464744
0.189922
-0.174897
0.306307
-0.10106
0.0993695
0.00169058
0.0746856
0.0146064
-0.089292
-0.137384
0.165928
-0.028544
-0.933093
1.09929
-0.166196
-0.21945
-0.0513157
0.270766
-0.69453
0.661585
0.0329452
-0.0025785
0.0393866
0.0266592
-0.0267539
9.47134e-05
-0.00477649
-0.0511806
1.02018
0.67248
0.175023
-0.887067
0.712044
0.018423
2.00131
-2.01973
0.386487
0.52423
0.420707
0.0616745
0.202735
-0.0655514
-0.0710184
-0.028493
0.239093
0.155481
-0.0738035
0.735461
-0.410469
0.0607692
0.206583
0.0481766
-0.163443
0.115266
-0.782553
-0.145465
0.928018
-0.0353905
0.0353905
-0.053805
-0.267472
0.540863
0.0133663
-0.232816
0.0792413
0.0882781
0.0303721
-0.0779774
0.134493
-0.144903
-0.34571
0.329212
0.0429437
0.060226
-0.10317
0.382947
-0.329945
1.0022
-0.640881
-0.361322
-0.207573
0.273853
0.18591
-0.493154
-0.20472
0.614113
0.16653
-0.0334981
0.0334981
-0.374832
0.340098
0.0347339
0.386197
0.0256381
-0.0280769
0.0336539
-0.00557703
-0.120312
-0.054859
-0.0462751
-0.0491131
0.183607
-0.179044
0.239977
-0.0609331
0.127528
0.0279537
-0.3922
0.148501
0.188918
-0.0613907
-0.0456097
-0.0554503
-0.0763212
0.0694908
0.00683036
0.148131
-0.10513
-0.0430007
-0.0152249
0.393464
-0.378239
-0.127689
0.110978
0.103855
-0.108182
0.00432649
0.023691
0.587254
0.414948
-0.0956304
-0.012544
0.108174
-0.0941425
-0.00747765
0.10162
-0.0904524
0.0981773
-0.720504
0.622327
-0.0375947
-1.52464
-0.477467
2.0021
0.458262
1.23848
-1.69674
0.083077
-0.245045
0.145987
0.275361
0.251242
-0.526603
-0.207168
0.255345
0.142932
-0.890427
0.747495
0.0308072
-0.12495
-0.0166937
0.00958092
-0.991194
0.444385
0.546808
0.928176
-0.808842
-1.72332
1.63038
-1.43949
1.55167
0.0400751
-0.0832688
0.0082117
0.0184475
0.0134465
0.801689
-0.658757
0.123096
-0.0737176
0.412627
0.734407
-0.101769
-1.75621
1.77464
-0.666847
-0.606953
-0.241196
-0.390717
-0.0155358
-0.166616
0.214455
-0.578567
-0.376398
0.182362
0.774025
-0.230903
-0.913433
-0.809884
0.745175
0.175254
-0.144446
0.286571
0.0380237
-0.0380237
0.670259
0.149373
-0.819631
-0.225489
0.895748
0.473285
-1.05667
0.583388
0.181287
-0.0348276
0.00793628
0.00454681
-0.0124831
-1.74155
-1.00208
0.55074
1.04205
0.404574
-0.0345454
-0.134405
-0.234421
0.755408
-0.196286
-0.0488622
-0.00307116
-0.0785731
-0.0526193
0.104226
0.376285
-0.246291
-0.842005
-0.283359
-0.119741
-0.0455727
0.165313
-0.681792
1.20602
-0.157078
0.134051
0.0230276
0.0300078
-0.00166967
-0.11448
0.0573085
0.0571714
0.00820378
0.419603
0.0728401
0.028304
0.0131031
0.00718736
-0.0202905
-0.0165081
-0.168767
-0.723489
0.370302
0.353187
0.684936
-1.75073
1.06579
0.137682
-0.158842
0.0211603
-0.0068332
0.133127
0.158943
-1.10388
-0.113796
-0.000684417
-0.103587
0.0319107
0.144083
-0.343072
-1.67568
0.690322
0.985363
0.028704
0.0931985
0.0549324
-0.782553
-0.212493
-0.7206
0.128535
-0.0712263
0.0436906
-0.638301
-0.056229
0.0607168
0.128202
0.642326
0.0447842
-0.46108
0.123122
0.347005
-0.290518
-0.118273
0.0219842
0.223696
0.838085
-1.06178
0.104548
-0.715681
0.611133
-0.953874
0.808409
-1.53911
0.174397
1.36472
-0.0102191
0.0110381
-0.000819059
0.167308
-0.462974
0.211197
-0.124103
-0.0870941
0.0500092
-0.0574869
-0.0250631
-0.0946774
-0.00734811
0.0219244
-0.0267008
0.0208931
0.0762646
-0.0971577
0.931547
0.000907788
-0.000778446
-0.000129342
0.110946
3.22447e-05
0.861544
0.0452714
-0.046414
-0.423629
-0.578451
0.163872
0.017415
0.00782798
0.0853706
-1.36472
1.10388
0.204386
-0.20947
0.00508397
-0.250898
0.0767942
0.119164
-0.110858
-0.00145449
0.0912199
-0.0359732
-1.60257
-0.0731151
-0.041874
0.062767
0.739114
-0.25563
-0.213411
0.0709551
0.341589
0.01131
-0.0393869
-0.00763158
0.0821347
0.145811
0.207376
0.156797
-0.330498
0.173702
0.113348
0.562604
-0.0411519
-0.108802
0.939782
-0.266258
-0.673524
-1.53911
-0.492986
1.17792
1.71567
-0.082274
0.333481
-0.251207
0.365717
-0.0700919
-0.295625
0.0348101
-0.830121
-0.0719535
0.0727107
-0.000757205
-0.00266671
-0.117189
0.119856
0.503256
-0.949449
0.446192
0.0405789
0.657917
-0.698496
-0.0442429
-0.109197
-0.00728133
-0.0883491
0.0926275
-0.46746
-0.0115096
0.00129048
0.105861
0.00569194
-0.111553
0.0575846
-0.142326
0.00292913
0.0270787
0.0415128
0.104498
-0.0232817
-0.00347218
0.195138
-0.433883
-0.346811
1.58529
0.0254752
0.00991529
-0.990479
-0.0175812
0.140004
-0.072942
-0.0453305
-0.157543
0.222074
0.742395
-0.94126
0.198865
0.118503
0.0453689
-0.939813
-0.0138262
-0.0147919
-0.648199
0.746376
-0.0179914
0.184522
-0.135785
-0.920888
0.183005
-0.445036
0.262031
0.00753635
0.166451
0.00238098
-0.00259616
0.000215171
-0.0393732
-0.0980111
-0.0211663
-0.133899
0.746558
-0.64201
-0.132231
0.0808009
-0.0994937
0.311136
-0.15434
0.12406
1.23518
-0.360743
-0.874433
-0.1201
0.138701
-0.505662
-0.217827
-0.559054
0.612307
-0.596969
-0.0153382
-0.093931
-0.0383
-1.75621
0.542873
-0.542873
-1.89094
1.89094
0.801689
0.0640757
-0.262249
0.198173
-0.897545
-0.0929346
0.628913
-0.36556
-0.263353
0.164634
-0.242841
-0.0104355
-0.00211268
-0.892957
-0.0810826
-0.933372
0.212868
0.0373459
-0.0829186
0.698116
-0.11049
-0.587626
1.26803
0.447647
-0.00162636
0.00400735
-0.965179
0.288879
-0.92976
-0.0781904
-0.599052
0.677242
-0.0622071
-0.863165
-0.694489
0.217844
-0.8127
-0.928018
1.38353
-0.455516
-0.136813
0.279169
-0.142356
-0.02483
0.722946
-0.105588
-1.03304
1.03304
-0.90453
0.510979
0.393551
0.000413877
0.000493913
0.0909401
-0.438072
0.822579
-0.0381882
-0.0841864
-0.0349526
0.117776
0.00442058
0.00282537
1.93171
-1.75731
-0.335008
0.409693
-0.6328
1.00778
-0.374975
-0.0562992
-0.0574964
0.123515
-0.0555922
0.350497
0.00615517
-0.064727
0.353819
0.0396446
0.042741
-0.246694
0.203953
0.139273
0.033953
0.0970091
0.180423
1.77877
0.333117
0.223296
0.554988
-0.778284
-1.18465
1.58311
0.227445
-0.155791
0.0762744
-0.76683
0.690555
0.287372
0.131746
-0.477456
-0.0742745
0.134507
-0.0602321
0.133105
-0.20738
-0.448446
-0.106382
-0.0714218
0.0745139
-0.00309212
-0.000903128
-0.0223786
-0.0102562
-0.0289827
0.658757
-0.611133
-0.0476238
-0.29139
0.304756
0.878664
0.621697
-0.255981
-0.0305559
0.0602101
-0.42363
0.0479304
0.173426
-0.582148
0.408722
-0.00258662
-9.53583e-06
0.236582
0.00862051
-0.245202
0.00580725
-0.0118662
0.00605893
-0.0242856
0.016535
0.00775056
-1.38832
0.717738
-0.126681
-1.39796
-0.197204
-0.808842
1.55167
1.63038
-0.193465
-0.172678
0.121363
-0.0631238
0.0688328
-0.00570892
-0.2491
0.991046
-0.741946
0.549225
0.079688
0.000523449
-0.00311007
0.1207
-0.511663
0.0349526
-0.0465571
0.00468316
-0.517254
0.0936238
-0.0443465
0.0747186
-0.222623
0.605571
1.07752
-0.152417
-0.0614132
0.00136525
0.0600479
2.01762
-0.387238
-0.0611549
-0.054401
-0.969983
0.161141
0.36829
-0.195392
-0.478049
-0.129106
0.607155
0.820638
-0.366545
-0.454093
0.0140059
0.728389
-1.77464
0.0330892
-0.00682786
-0.0247207
0.0315485
0.170414
1.8309
-0.167475
0.175412
0.194869
2.20056
-0.64889
-0.678637
0.0551358
0.623501
0.382863
0.00828772
-0.347416
0.539604
0.813568
0.400632
0.0762809
-0.0213485
-0.765342
0.209617
0.555725
1.21246
0.0487127
-0.0356096
-0.0500307
-0.359295
0.10441
-0.311578
0.774988
0.460188
-0.118022
0.0240907
0.30374
-0.386014
-0.0212102
0.0186317
0.110662
-0.147063
0.0364003
-0.299715
0.314175
-0.0144596
0.410538
-0.771281
-1.34114
0.0632873
1.27785
0.100868
-0.202364
0.101495
0.27075
0.0403867
-0.512055
0.299562
-0.656844
0.656844
1.7287
1.26803
-0.715681
0.331347
0.482221
-0.341963
0.376697
0.915784
-0.366559
0.00764907
-0.87487
0.867221
0.133174
0.00507132
0.0257997
-0.584432
0.0723762
0.0765746
-0.166503
-0.122129
0.288632
0.18959
-0.513962
0.347459
-1.08579
-0.286214
-0.649195
-0.0550736
-0.000823998
4.55534e-05
-0.226088
0.0946956
0.0706177
0.034202
-0.144359
0.110157
-0.500958
-0.403572
-0.00567326
0.0682402
-0.759916
0.540735
0.219182
-0.568184
0.387152
-0.080951
0.141177
0.234853
-0.00250274
-0.0141909
-0.78966
0.372099
0.0341451
0.06971
-0.154464
0.0549702
0.202162
0.0090351
-0.42711
1.60623
0.444345
-0.0294438
0.867093
-0.790819
0.785448
-0.44386
-0.610934
0.172862
0.153433
-0.793939
0.766622
0.0273168
1.17475
-0.399761
-0.203256
-0.131752
-0.0774916
0.0189747
0.953182
-0.840297
-0.112886
-0.18101
0.107207
0.0276632
0.120197
0.878258
0.37343
-0.57135
0.19792
-0.325584
-0.0508143
-0.0102929
-0.749624
0.113636
1.38696
1.25833
0.00969921
0.168873
0.552318
-0.721191
0.101698
0.0499814
-0.00576814
0.0032654
-0.511832
-0.0991021
0.114794
-0.132634
-0.185504
0.136391
-0.534376
0.277628
-0.992319
-0.511349
-0.289273
-0.557428
1.51297
-0.0754524
-0.285382
-0.461938
-0.0553155
0.212762
0.298915
0.0549043
1.33443
-0.831171
-0.188175
0.126784
-0.196109
-0.458003
0.654112
-0.0107041
0.00387624
0.0486656
-0.0595461
-0.240169
-0.120499
0.69731
-0.419205
-0.278106
0.0287982
0.134782
-0.0970781
-0.0377041
0.242244
0.0566705
-0.211045
-1.48569
-0.0955858
0.139276
0.79098
-0.41755
0.0232791
0.078341
-0.0212324
0.0197003
0.00153215
0.0114775
-0.0349444
-0.240825
0.077382
-0.0543911
-0.557036
0.420224
0.0186735
0.102782
-0.00191395
-0.694987
1.69002
-1.22983
0.0158472
-0.191461
0.175614
-0.13988
-0.537485
0.677365
0.0766722
-0.714974
-1.09322
-0.247921
-0.0622117
-0.000467672
0.0626794
-0.244197
-0.612307
-0.170246
-0.142578
-0.765342
-0.229439
0.163887
-0.274767
-1.14443
-0.405773
0.399082
0.00669068
0.264069
0.114974
0.469955
0.194625
-0.66458
0.109586
0.0656675
0.818201
0.442293
-1.26049
-0.221255
0.457507
1.1256
-0.240137
0.179204
-0.657991
1.1155
-0.129441
0.094458
-0.0271302
0.0405767
-0.017663
1.16655
-1.19599
0.731817
0.0888216
-1.45197
-0.1506
0.242495
0.673288
0.913425
0.0263566
-0.0184783
-1.25833
-0.649195
-0.713679
0.722902
-0.0516817
-0.913433
0.657917
0.606678
-0.933231
0.632968
-0.00570383
-0.788235
-0.313289
0.635567
-0.772626
0.137058
0.0809559
0.0538262
-0.287434
-0.22572
1.25068
-1.02496
-0.00021113
-0.00061287
-0.262014
0.213152
0.71224
0.223237
-0.207741
-0.18031
0.678284
-0.91958
0.0788608
0.119312
0.266774
0.914824
-1.1816
-0.965947
1.17556
0.745725
-0.20499
0.0714198
0.330006
-0.555725
-0.00808231
0.215779
-0.0531605
0.0970066
0.0429977
0.00361039
-0.0282066
0.0245962
-1.0256
-0.0361776
0.316256
-0.807759
-0.754001
1.69364
-0.939635
0.371765
0.636011
-0.0496485
0.0530994
-0.00345098
-0.104693
0.782976
-0.71749
0.73902
0.567559
-1.32156
0.313138
-0.0973586
-0.585222
-0.407097
-1.09975
1.36652
-0.0582224
-0.880574
-1.84308
-0.17665
0.330006
0.0495836
-0.857343
0.832073
-0.646315
-0.185758
-0.982053
0.396831
0.00734971
0.112416
-0.000724395
-0.111691
-0.97126
0.564163
-0.216505
0.910977
-0.924803
0.19094
-0.207448
-0.0951344
0.239218
1.13401
0.432803
-0.117274
-1.44041
0.56598
1.17481
-0.774178
-0.552587
-0.518412
1.071
0.447413
0.0163831
-0.0118363
-0.734674
0.698496
0.0447527
-0.149445
-0.420707
0.135055
0.285653
1.06158
0.632059
0.778507
-0.811288
-0.492757
-0.449265
-0.471725
-0.499535
0.803473
-0.803473
0.68509
-0.68509
-0.734674
-0.0215486
0.0215486
-0.135055
-0.679291
-0.389101
-0.517929
-0.0112987
0.0112987
0.0447527
-0.149445
0.778507
0.76765
-0.76765
0.811288
0.759431
-0.759431
0.507243
0.528275
0.481588
0.0334541
-0.500465
-0.550735
1.07901
-0.668497
-1.60774
0.507992
0.314344
0.431381
-0.18056
-0.0101857
0.0554571
-0.886547
0.0957548
0.790792
-0.128222
0.112686
-0.996059
0.58559
0.930122
-0.598775
-0.124789
0.00661216
-0.00805093
-0.808998
-0.0780691
-0.546808
-0.00372009
0.013301
0.51682
-0.147971
0.076745
0.175303
0.0015122
-0.0101209
0.00860865
-0.812585
0.0673751
0.745209
0.761039
0.372966
-0.532486
0.411597
0.120889
0.917619
-0.742668
-0.174951
0.0811959
0.296995
-0.0137732
-0.0576486
-0.0575213
-0.0144322
0.789538
-1.47133
-0.844594
0.0976695
-0.741485
0.795566
-0.0540813
0.121899
-0.899448
0.777549
-0.802353
0.904464
-0.102111
-0.0671542
0.0786317
0.0201464
-0.285666
0.351168
1.01535
-0.0957825
-0.790764
0.915239
-0.0912025
-0.824036
0.0709449
-0.127244
1.07538
0.821837
-1.20436
0.460256
-0.380568
0.102456
-0.89322
1.54096
0.349979
-0.791611
0.00337608
1.01765
-0.895749
1.2294
0.920726
-0.708298
-0.212428
-0.880043
-0.116016
-0.410628
0.0323886
-0.457782
0.656647
-0.785231
0.785231
-0.604981
-0.0869205
-0.864386
0.121718
-0.937462
0.859271
0.0738794
-0.197982
-0.0575931
0.0600676
0.0111416
0.188425
0.829223
0.817543
0.771502
0.13884
-0.910342
-0.507614
0.938995
-0.781041
-0.107053
0.888094
0.171907
-0.889397
-0.675962
0.88835
-0.785894
-0.10726
0.458256
-0.0242937
-0.433962
-0.0127234
1.37244
-1.35972
0.26399
-0.440677
0.176688
-0.888301
-0.829351
0.0878662
0.523402
0.262046
-1.96836
1.15383
-0.573329
0.573329
-0.85696
-0.583452
-0.113486
0.185863
-0.991658
1.05495
0.781297
-0.204522
1.22486
-0.507122
0.916663
-1.07729
0.160628
-0.115235
-1.63549
0.160016
0.413112
-0.512162
-0.208437
0.127392
0.302713
-0.221517
0.780819
-0.88293
0.532247
0.406748
-0.151258
0.736848
0.578775
-0.578775
-0.0690081
0.0673384
0.10939
-0.075188
1.22087
0.15157
0.21182
-0.000147795
0.0038225
-0.0036747
-0.66724
0.694405
-0.0271651
0.281299
-0.989598
0.107483
-0.893377
-1.06146
1.39874
-0.337279
0.191702
0.877052
-1.19831
1.47961
-0.754537
0.602344
-0.658573
-0.658729
0.153068
-0.0729348
0.0269835
0.101627
-0.354609
0.281674
0.00544664
-0.417418
0.0700602
0.725506
0.693974
-0.0916296
0.0767447
0.784799
0.0187439
0.146037
-0.164781
-0.658048
0.532784
0.60126
-0.958395
0.738847
0.219548
-0.684904
-0.127796
1.07854
-0.190272
-0.277188
-0.0385594
0.485959
0.514041
-0.770373
-0.112556
-0.442729
-0.323172
-0.41004
-0.295947
0.401383
0.598617
-0.132136
0.132168
-0.861576
-0.0686954
-0.589878
-0.151529
-0.249435
0.400965
-0.0320489
-0.00392428
0.111727
0.0718793
-0.128109
-0.112716
0.761036
-0.642191
0.718936
0.216814
-0.571423
-0.235558
0.03684
0.198718
-0.745013
-0.192052
0.937064
-0.242118
0.231144
-0.0245617
-0.0770259
0.00438784
0.0118007
0.704946
-0.131617
0.124256
0.110597
-0.735846
0.0686059
1.04034
-0.135744
-0.693088
0.331767
-0.3263
-0.287411
1.02182
-0.00681179
0.282787
-0.087918
-0.00728208
-0.0452496
-0.1071
0.00770249
1.03264
0.344083
-0.429657
0.0855734
0.848903
-0.0246511
0.00107002
0.0235811
0.127574
-0.0107987
-0.000710845
0.21646
-0.105797
0.10885
-1.10051
0.733256
-0.389172
0.00872177
0.287339
-0.392817
-0.951283
1.25631
-0.305029
-0.780727
0.837523
-0.0567966
0.524818
0.191106
-0.320547
-0.0693337
1.22858
-0.455847
-0.0766394
0.276805
0.455107
0.193998
-0.649105
0.410179
0.0414843
0.652921
-0.573669
0.563078
0.0105912
1.36838
-1.15561
-0.0255191
0.0323277
-0.00680867
0.697644
-0.00894343
-0.0826848
0.0194886
1.3533
0.740301
-0.215483
0.0660069
-0.0925036
-0.10986
0.105849
0.0422
-0.148049
0.0114835
-0.00787316
1.14024
-0.697947
0.180204
0.222201
-0.0256999
-0.0914726
0.222605
0.0969229
0.00577329
0.0830097
0.767704
0.278307
-0.19664
-0.081667
0.414207
0.275608
-0.689815
0.645472
0.119604
-0.0595735
0.00363129
0.0559422
-0.648275
0.0257317
-1.10302
-0.00357329
0.748749
0.717491
0.172381
0.564978
-0.852412
0.817379
0.147721
-0.0236606
-0.881203
0.0942422
-0.272345
-0.12811
-0.17055
0.692712
0.0749926
0.0133824
0.386282
-0.195176
-0.312149
0.162072
0.0274046
-0.112073
0.4228
-0.0573023
0.574105
-0.0716268
0.164456
0.0545301
0.359677
-0.152128
-0.0373464
-0.0494831
-0.109736
0.0163757
-0.000678026
-0.0156977
-1.52776
0.372146
-0.0103399
0.864084
-0.227391
-0.616483
0.640075
-0.0235926
0.437792
0.761318
0.512024
-0.313306
0.0787303
-0.173865
0.632376
0.128942
0.544468
0.661554
-0.265066
0.725322
0.203448
0.829191
-0.601279
0.349241
0.252038
0.122852
-0.0708532
0.0410367
0.0634741
-0.047068
1.14866
0.73649
0.0808888
0.620056
0.219133
-0.871852
-0.0809676
-0.674605
0.677981
-0.023894
-0.583431
0.431901
0.873548
0.67386
0.144008
0.0130253
-0.161765
-0.315691
1.09496
0.595062
0.361181
0.0173576
0.858997
-0.0298063
0.70085
0.690112
-0.0775315
0.545691
-0.739376
0.928261
-0.188885
-0.411875
-0.189404
-0.0403615
-0.198436
-0.197375
0.765479
0.0101837
-0.00299639
0.628091
0.175625
0.156142
0.605165
-0.132195
0.238127
0.746087
0.242267
-0.988354
0.277121
-0.923437
0.214476
-1.44431
-0.179769
0.770229
-0.59046
-0.66767
-0.100958
0.0239316
-0.0550706
-1.16955
0.0220397
-0.0432722
0.726365
0.0826044
-0.308496
0.225892
-0.0372821
-0.578567
0.130806
0.151981
-1.47496
-0.00237327
0.00388548
0.145698
-0.0538247
-0.591965
0.0182959
0.568343
0.305205
1.12378
0.878327
-0.246367
-0.384878
0.631245
0.118795
-0.617715
0.617715
-0.227627
-0.915555
1.14318
0.0301418
-0.150242
0.684709
-0.116366
-0.220725
-0.444723
0.167535
0.665844
0.759921
-0.0413569
0.174543
-0.104402
-0.467504
0.484008
0.0790699
0.0570826
0.0138237
-1.62579
0.0175625
-0.156703
0.694034
0.305966
0.0175625
0.694034
0.0283317
-0.137235
0.0283317
-0.696107
0.696107
0.303893
-0.0142083
0.190719
-0.0762498
0.198462
0.0982997
-0.468322
0.641291
-0.0361261
0.658242
-0.50494
-0.153301
-0.0575619
0.0569162
0.000645693
-0.0109272
0.0107794
-0.0509419
0.0186878
-0.0770264
-0.434921
-0.3521
0.126012
0.0443309
0.830895
-0.278577
-0.48813
0.432815
-0.00112788
-0.14424
-0.00991344
0.682166
0.0665827
0.533743
-0.019014
-0.00127643
0.0136467
0.0855442
0.562508
-0.475517
-0.0869904
2.10858
0.549661
-0.217452
0.895167
0.0112701
-0.0624581
0.106024
0.211975
0.131715
1.12523
-0.379139
0.0139745
-0.0690481
0.674528
-0.345562
0.0219922
-0.0219922
0.0202232
-0.0202232
-0.015866
0.015866
0.0254752
0.365331
0.458743
-0.0267852
-0.718814
0.48791
0.188048
0.0284119
-0.0828102
-0.483445
0.749933
0.112133
-0.797037
-1.05328
0.132395
0.0944331
0.0188748
-0.00233975
-0.0185548
0.0185548
0.166481
-0.0180872
0.0180872
0.701427
0.0918584
-0.0135375
-0.00547658
0.00662083
-0.068034
-0.0223994
0.0223994
-0.00996718
0.00996718
-0.0222153
0.0222153
-0.0138899
0.0138899
0.117461
-0.29543
-0.0823212
0.219786
-0.0129632
0.0129632
-0.373103
0.512152
-0.139049
0.501319
-0.22215
-0.448447
-0.0396837
0.560253
-0.139156
0.0760344
0.564041
0.566207
-0.00646535
0.00646535
0.213196
0.0247117
-0.0247117
-0.0117177
0.0117177
0.7582
-1.14599
0.0363468
-0.131907
0.140528
0.00308009
-0.00308009
0.0123666
-0.0123666
0.01828
-0.01828
0.0231808
-0.0231808
-0.0233951
0.0233951
0.0349506
-0.0349506
0.483613
-0.0316624
0.0316624
-0.00236925
0.00236925
0.0239889
-0.0239889
-0.00517645
0.00517645
0.00779343
-0.00779343
-0.0587576
-0.0254689
0.0254689
0.380803
0.0194496
-0.0392771
0.0392771
0.00508174
-0.00508174
0.0164829
-0.0164829
0.033353
-0.033353
0.0256007
-0.0256007
0.00375812
-0.00375812
-0.00207642
0.00207642
-0.568261
-0.231527
-0.00855391
0.00855391
-0.00155019
0.00155019
-0.0379687
0.0379687
-0.0278433
0.0278433
0.000402306
-0.000402306
-0.410079
0.652574
0.2537
-0.0319065
0.0319065
-0.0401312
-0.0136125
0.0136125
-0.000880274
0.000880274
0.0371937
-0.0371937
-0.234174
0.210514
0.00305417
-0.00305417
-0.0229559
0.0229559
-0.503288
0.044549
0.0331395
-0.0312476
0.0312476
-0.447147
0.0340241
0.0190753
-0.0226324
-1.42934
-0.0365463
0.0365463
-0.197887
0.140585
-0.0405501
-0.000471122
0.000471122
0.00291586
0.0467412
0.262762
-0.323725
-0.281689
0.605414
0.196461
-0.0040969
0.0040969
-0.184184
0.443263
-0.259079
0.77276
-0.398848
-0.373912
-0.458397
-0.658487
0.127119
0.305695
-0.208201
-0.449847
-0.573141
0.00962363
0.190612
-1.17614
0.01554
-0.01554
-0.000186418
0.000186418
0.0306999
-0.0306999
0.026061
-0.026061
0.000120241
-0.000120241
-0.000176883
0.000176883
-0.0325167
-0.227427
0.176563
-0.301351
-2.25182e-05
2.25182e-05
-0.0447488
0.0447488
-0.0401207
0.0401207
0.197568
0.00400341
-0.201571
0.000167872
0.317847
-0.545238
-0.000158466
0.000158466
-0.0136781
0.0136781
-0.0946887
0.159449
-0.0323293
-0.000392054
0.000392054
0.103624
0.0136344
0.999726
-0.48396
-0.0800251
0.563985
-0.628818
0.0530464
-0.510829
-0.0383686
0.0383686
-0.68135
0.277247
0.0492865
-0.0492865
-0.644908
0.381555
0.264731
0.122915
0.000159612
-0.000159612
-0.825905
0.000114055
-0.000114055
0.313174
0.409771
0.0460616
-0.0532467
0.0532467
-0.000724701
0.000724701
-0.0421411
0.0421411
-0.0534546
0.0534546
0.0002434
-0.0002434
-0.0590342
0.0590342
4.5812e-05
-4.5812e-05
-0.045432
0.045432
-0.00393122
-0.0448258
0.0448258
0.00243452
-0.00243452
0.0479318
-0.0479318
-0.000705304
0.000705304
0.0474095
-0.0474095
-0.132476
-0.00259465
0.00259465
-0.00444778
0.00444778
-0.0547944
0.0821347
-0.0105067
0.0105067
0.00506234
-0.00506234
-0.0590155
0.0590155
0.296115
-0.0182573
0.0182573
-0.0564348
0.0564348
-0.00747807
0.00747807
-0.0668351
0.0668351
-0.0132075
0.0132075
-0.0799873
0.0799873
-0.0215298
0.0215298
-0.0928351
0.0928351
-0.691527
0.353626
-0.529622
0.50603
-0.863165
0.134895
-0.566199
0.395649
-0.0586135
0.0874117
0.00345994
-0.00345994
0.241539
-0.722574
0.0427243
-0.0289006
-1.1694
1.61705
1.20594
0.251884
-0.0482372
-0.0192065
-0.394676
-0.578649
-0.0551857
0.390776
-1.20571
-0.0193728
0.0193728
-0.759876
0.020346
-0.020346
-0.00132986
0.00132986
0.315243
-0.398229
-0.00204955
0.00204955
0.0189799
0.0145182
0.595873
0.261993
-0.00985718
-0.0101226
-0.00835573
-0.0943209
0.491664
-0.397343
0.169561
-0.00954526
0.0103111
0.919033
-0.0143975
0.0549698
-0.406432
0.438821
-0.486457
-1.01815
-0.214351
-0.070484
0.0178647
-0.230839
-0.209838
0.0535995
-0.00383278
-0.0114847
0.784074
-0.554034
-0.0365039
0.0639085
-0.0355222
0.0698343
0.120884
0.4253
0.236285
-0.163207
0.209889
0.0193205
-0.00471408
-1.30258
0.0187903
-0.0130265
-0.29547
-0.0189484
-1.47376
-0.0711035
0.26228
-0.350106
0.389751
0.286678
-0.844106
0.0506875
-0.0263321
-0.100912
-0.345446
0.466335
-0.0836786
-0.0200928
0.103771
-0.027081
0.027081
0.173331
-0.429312
-0.0887359
0.116076
-0.078184
0.05429
-0.0651389
-0.00651627
0.0716552
-0.0335709
-0.152132
0.105064
-0.0770935
-0.289365
-0.36059
0.649955
0.0143635
0.0583473
0.152029
-0.0277733
-0.11462
0.0666737
-0.154942
0.308374
-0.00277588
0.0263569
-0.0279659
0.179995
0.00349543
0.25772
0.000847146
-0.000847146
-0.315472
1.01632
0.0877447
-0.168712
-0.0510335
-0.0111736
0.824684
0.654926
-5.47982e-06
-0.0280369
-0.532307
0.0026853
0.109576
0.0887147
-0.677671
0.311112
-0.0550966
0.384305
-0.67367
0.226531
0.512316
-0.089474
0.089474
-0.000724396
-1.2378
0.551328
0.686468
-0.209688
0.154618
0.22115
-0.212424
-0.558858
-0.128708
-0.0299834
0.0381951
0.929493
0.228646
-0.0846376
-0.0691033
-0.61275
-0.708809
-0.0787254
-0.26043
0.800034
0.581315
-0.263468
-0.252871
0.54021
-0.0588953
0.392377
-0.26761
0.103379
-0.467276
0.328227
0.121247
-0.121247
0.110011
-0.118099
0.00808816
0.0069204
0.000343908
0.0197003
-0.369733
-0.278542
0.230018
-0.186633
-0.0433847
0.545702
-1.07363
0.263915
-0.842366
0.695981
-0.122148
-0.179203
-0.0414085
-0.0790908
-0.484176
0.0492546
-0.284813
0.00419726
-0.0189484
0.376592
-0.0052457
0.000616969
0.000926686
0.0137193
-0.0111555
-0.00256384
-0.105521
-0.0177009
-0.166026
0.183727
-0.128967
-0.33831
0.0189799
0.346159
0.00225347
-0.371385
0.0821123
0.0024964
0.12487
-0.151655
-0.0118756
0.0118756
-0.000963725
0.00239945
-0.00935039
0.00124551
-0.0711263
0.000781411
-0.00117986
0.249016
-0.0269417
-0.000871136
0.000871136
0.117025
0.514801
0.00141326
-0.286912
0.478256
1.12398
-0.474412
0.337804
-0.437203
-0.229895
0.141159
0.232412
-0.231884
-0.0136836
0.0152541
-0.00345343
-0.00572389
-0.179048
-0.375426
0.863336
0.383655
-0.416172
0.228513
-0.00159758
0.181373
0.010329
0.00124586
0.000746187
0.0145079
0.157369
0.00130839
-0.000224883
0.71913
-0.652457
-0.245373
0.100844
0.939176
0.000669916
0.000977752
-0.0405501
-0.00564691
0.817934
-0.430752
0.509822
-0.479875
0.904583
-0.433182
0.58069
-0.18504
0.695977
0.00107955
0.00327256
0.0156022
-0.114069
0.138674
-0.243079
0.00955577
0.00165744
0.0638205
-0.0490419
-0.0147786
0.00104273
0.0392105
0.0217388
-0.0609493
-0.0917299
0.00367607
0.000146432
0.00156339
0.472298
-0.428067
-0.00280479
0.000243842
1.18756
-0.636229
0.387751
-0.00584642
0.000284703
0.202053
-0.0218493
-0.0403563
-0.118919
-0.0178406
-0.00357443
0.118203
0.0447352
-0.00164622
0.417483
0.000746555
-0.00301193
0.00301193
0.00254682
-0.0126694
9.77241e-05
-0.321622
-0.00368589
0.0718474
-0.107366
0.0396304
0.0391111
-0.0653971
0.000180985
0.00185313
0.470907
3.93685e-05
-0.00353452
-0.0368269
-0.00202041
0.000444843
0.0519852
0.159834
-0.710569
0.487008
-0.862434
-0.0503892
-0.000332646
-0.532446
0.0597991
0.067593
0.602907
-0.015086
0.0230606
-0.00396017
-0.00135472
-0.552409
-0.00329084
-0.000197585
-0.0413168
0.926623
-0.516444
-0.00249984
-0.000751117
-0.00576883
-0.00188934
0.07041
-0.02217
0.02217
-0.0289128
0.0313122
-0.00241573
-0.00781962
0.0362192
-0.0356022
-0.162183
0.0913302
-0.00572941
-0.0131522
0.0427302
-0.016194
0.0613345
-0.0434698
-0.62457
0.570489
0.019527
-0.0016024
0.313438
-0.148982
-0.0708454
-0.688328
-0.0769307
-0.120243
-0.0933873
0.0913668
0.686063
0.000482718
0.0112043
-0.0102265
0.221547