/*--------------------------------*- C++ -*----------------------------------*\
| =========                 |                                                 |
| \\      /  F ield         | OpenFOAM: The Open Source CFD Toolbox           |
|  \\    /   O peration     | Version:  2306                                  |
|   \\  /    A nd           | Website:  www.openfoam.com                      |
|    \\/     M anipulation  |                                                 |
\*---------------------------------------------------------------------------*/
FoamFile
{
    version     2.0;
    format      ascii;
    arch        "LSB;label=32;scalar=64";
    class       volVectorField;
    location    "35.4";
    object      U;
}
// * * * * * * * * * * * * * * * * * * * * * * * * * * * * * * * * * * * * * //

dimensions      [0 1 -1 0 0 0 0];

internalField   nonuniform List<vector> 
2186
(
(1.33408 -0.0748367 2.27319e-19)
(1.63878 -0.962677 -5.25958e-20)
(1.48381 -0.937723 4.63139e-21)
(0.761864 -0.604596 -1.47471e-19)
(-0.0421758 -0.0452215 -1.60449e-19)
(1.8942 -0.619229 0)
(0.740155 -0.683844 0)
(-0.130091 -0.169923 1.01939e-19)
(1.43827 -0.23799 1.41668e-19)
(0.569771 -0.339338 -2.24504e-21)
(0.666262 0.599098 0)
(0.798468 -0.285722 -1.12575e-19)
(-0.16336 -0.225754 -4.17317e-20)
(1.21243 0.0213621 -3.71115e-19)
(1.82603 -0.710274 -6.09201e-20)
(1.01372 -0.00616935 1.74083e-19)
(0.977535 0.0127037 0)
(-0.371406 -0.148543 0)
(1.36964 -0.393455 0)
(-0.14626 0.198447 -6.92498e-20)
(0.483145 0.0584118 -1.13646e-19)
(-0.0835091 0.200009 9.59667e-20)
(1.19781 0.0251799 3.06144e-19)
(-0.210847 -0.0434749 6.28081e-21)
(1.0338 0.0034701 -2.41056e-19)
(0.813487 -0.580632 0)
(0.764954 -0.0508635 1.4438e-19)
(0.627301 -0.606421 -1.7199e-19)
(1.19743 0.698198 0)
(0.963872 0.0227467 -3.2875e-19)
(-0.0888951 0.105826 0)
(1.02679 -0.0146916 1.13906e-20)
(-0.224582 0.0568995 0)
(2.58227 0.0414906 2.3443e-19)
(-0.144691 -0.172351 2.03096e-21)
(1.52769 0.755405 6.72347e-20)
(1.97521 0.183727 1.28554e-19)
(0.506725 0.107259 -3.38637e-19)
(1.89161 0.107213 -2.61414e-19)
(1.47211 -0.434399 9.39755e-21)
(-0.213217 -0.307718 0)
(-0.0134606 0.160175 0)
(1.90785 -0.907514 7.52855e-20)
(-0.333912 0.121682 0)
(1.10107 0.26975 1.50858e-19)
(0.612222 -0.320315 2.80484e-19)
(0.941758 -0.80342 0)
(1.21466 -0.810446 1.15511e-19)
(1.90528 0.116859 0)
(-0.14179 0.0808714 1.52605e-19)
(-0.0854438 0.129664 1.02305e-19)
(0.622386 0.57342 7.86126e-20)
(2.11016 -0.791935 8.18088e-20)
(0.585635 0.245051 -2.72315e-19)
(-0.270243 -0.202726 3.8366e-20)
(0.7852 -0.671023 0)
(1.68642 -0.991312 1.84251e-20)
(0.596873 -0.55676 0)
(2.1639 0.12994 7.07057e-20)
(1.15734 -0.175754 -3.67737e-19)
(1.96515 0.00315393 7.68421e-20)
(1.33041 0.293847 -1.73805e-19)
(1.32963 0.52573 0)
(1.56141 -0.509429 -1.02929e-20)
(1.34911 0.382193 -1.05487e-19)
(1.27726 -0.753543 -1.63043e-19)
(1.1557 0.64753 5.13237e-20)
(0.676845 0.0472509 -5.51553e-19)
(0.819653 0.0369231 0)
(2.15628 -0.235768 -5.1145e-20)
(-0.161475 -0.21478 -1.16565e-19)
(2.43758 0.0926689 -6.5772e-20)
(0.728693 -0.0632152 -2.43136e-19)
(0.897723 -0.539395 0)
(0.820355 0.160535 -8.95855e-20)
(0.565848 -0.52799 -2.96992e-19)
(1.85382 0.0780656 0)
(1.00737 0.00884371 3.59442e-19)
(-0.148523 -0.20069 0)
(2.02544 0.253189 0)
(0.249598 -0.22032 5.75879e-20)
(1.2937 -0.510479 -1.01387e-20)
(1.02332 0.00376338 4.00186e-20)
(1.3027 0.396098 2.66507e-20)
(0.971943 0.0217513 4.19843e-19)
(1.04161 0.0248352 -9.95118e-21)
(0.662888 0.150186 -3.28655e-19)
(1.48843 -0.907856 -6.80094e-22)
(1.81703 -0.175896 0)
(-0.0684905 -0.0565856 8.27767e-20)
(0.885032 -0.644877 -1.65969e-19)
(-0.113011 0.0769197 1.24268e-21)
(1.1235 -0.0830556 2.49098e-19)
(0.830018 -0.20359 0)
(0.972379 0.0225942 4.00513e-20)
(1.34955 0.62874 0)
(1.65582 -0.977522 0)
(1.28722 0.217924 0)
(-0.101308 0.0225354 0)
(0.81561 -0.688804 2.92932e-19)
(-0.308918 0.0916392 -1.26478e-19)
(-0.0573334 -0.0883326 8.91151e-20)
(1.53781 0.180881 0)
(1.15868 -0.108967 -2.27715e-19)
(1.12442 0.0229193 1.77963e-19)
(-0.18196 0.195073 1.25639e-19)
(0.621615 0.484095 0)
(2.24583 -0.171121 -9.8024e-20)
(0.986197 -0.498251 8.22947e-20)
(-0.528476 0.510054 3.2341e-19)
(1.75801 0.240551 1.28086e-19)
(-0.103484 0.0903497 -2.40475e-19)
(0.835523 -0.759642 0)
(0.551379 0.320365 1.65001e-19)
(1.69555 -0.240993 -4.14519e-19)
(-0.201055 -0.395336 -4.52593e-19)
(1.08622 -0.623227 1.4193e-20)
(1.45627 0.0454883 0)
(-0.0918 -0.0764358 -2.47638e-19)
(0.714062 -0.0969655 7.69789e-20)
(1.55172 0.865092 0)
(-0.187444 0.0615318 -2.02996e-19)
(0.872375 0.747699 -2.65309e-19)
(-0.444305 -0.333238 2.57146e-19)
(1.02846 -0.0257538 0)
(1.02166 -0.566565 -1.78766e-20)
(-0.0739353 0.0243399 0)
(0.719697 -0.519463 -1.0669e-19)
(-0.409827 -0.245233 -1.40579e-19)
(0.808649 -0.737653 0)
(0.454041 -0.31197 4.07137e-19)
(0.562076 -0.481025 2.76801e-19)
(0.421055 -0.381172 0)
(1.00834 -0.803516 -1.31083e-19)
(0.100006 -0.10587 0)
(-0.138507 0.0915864 -1.19545e-19)
(0.834188 -0.719378 1.4097e-19)
(2.44047 -0.26772 2.22957e-19)
(1.99505 0.105338 0)
(-0.0972365 -0.103083 0)
(0.676758 0.628425 -3.29154e-19)
(1.81813 -0.647002 -3.22099e-21)
(-0.060921 -0.0739817 0)
(1.01012 -0.829282 -1.41461e-20)
(1.16175 -0.105336 0)
(1.09444 -0.133033 3.95305e-19)
(2.14156 -0.202271 -8.77888e-20)
(-0.0586344 -0.0537485 0)
(1.24963 -0.571738 -5.66408e-20)
(-0.290807 0.15517 -4.78717e-20)
(-0.0365267 0.0424226 0)
(1.11948 -0.836351 1.21093e-20)
(1.00712 0.00495346 -6.00419e-19)
(0.672345 -0.504882 -1.04567e-20)
(0.83939 -0.538813 0)
(1.22804 -0.75161 -9.69918e-20)
(0.647841 0.211727 2.55189e-19)
(1.17915 0.127659 0)
(1.46522 0.0565638 -2.36401e-19)
(1.22391 -0.878632 -2.14048e-19)
(-0.0980659 -0.102327 -9.18722e-20)
(-0.0730107 -0.441187 -1.43067e-19)
(1.06542 0.00287796 2.23977e-19)
(0.941065 -0.485392 -1.03484e-19)
(1.32707 -0.696685 6.29504e-22)
(0.342315 -0.232477 -9.6933e-20)
(0.718828 -0.117184 9.98615e-20)
(-0.154784 -0.0877733 -2.25146e-19)
(1.97561 -0.122033 0)
(2.72706 -0.0442391 9.82655e-20)
(1.43022 0.633401 1.28168e-19)
(0.832653 -0.637421 -2.13685e-19)
(0.995933 0.00821007 1.23034e-20)
(0.743652 -0.555387 2.93304e-19)
(1.29005 0.783621 1.18208e-19)
(1.72457 0.0217347 1.12373e-20)
(-0.0633848 -0.124079 0)
(1.0805 0.0467235 -2.3163e-19)
(-0.0940947 -0.675639 -2.03682e-19)
(1.05531 0.474383 7.71191e-20)
(0.0618957 -0.131432 1.36078e-19)
(1.16458 0.0262204 -4.26722e-20)
(-0.245382 0.0277313 -1.65744e-19)
(1.28037 0.566419 -7.27903e-20)
(1.12325 0.871986 0)
(-0.111093 -0.165275 -8.5043e-20)
(-0.0690721 -0.230049 0)
(0.639535 0.545432 -2.70183e-19)
(2.00434 0.0825524 -1.62327e-20)
(-0.210133 -0.312079 1.44223e-19)
(-0.288949 -0.342521 -5.09729e-19)
(0.724286 0.0500964 2.42248e-19)
(1.81712 0.0611247 -2.18292e-20)
(1.00167 -0.364838 -3.02438e-20)
(-0.0478981 -0.047687 0)
(-0.473111 0.393305 5.17102e-19)
(1.32053 0.958914 -1.21836e-20)
(0.838392 0.0545057 -1.3258e-19)
(0.546573 0.511751 1.87807e-19)
(0.52288 0.199222 0)
(-0.118614 -0.389304 -1.76652e-19)
(-0.208247 1.21968 2.83428e-19)
(1.32348 -0.979396 4.83307e-22)
(0.991624 -0.0449939 -1.87097e-19)
(-0.183458 -0.159269 6.7912e-21)
(0.000523384 -0.00268185 1.38669e-19)
(-0.254169 -0.192492 -1.60702e-19)
(1.35062 0.120011 0)
(1.12326 0.0389745 -3.10657e-19)
(2.28606 0.0594241 8.87498e-20)
(1.3024 -0.639335 1.04779e-19)
(1.70375 -0.134816 2.16512e-20)
(0.581137 0.300943 0)
(0.927789 0.734546 -1.5666e-20)
(0.674122 0.618839 1.77753e-19)
(0.92134 -0.585982 1.5e-19)
(0.668878 0.479427 0)
(1.02308 -0.00238243 8.02764e-21)
(0.906885 -0.686455 2.13669e-19)
(0.823936 0.403352 -4.43714e-19)
(1.23787 -0.108375 0)
(-0.0510931 -0.0992265 -3.36685e-19)
(-0.109058 0.0598504 -1.02142e-19)
(1.57471 0.700493 0)
(1.37967 -0.961892 -4.13667e-22)
(-0.313339 -0.0934868 0)
(-0.0393103 -0.00303283 1.02159e-19)
(0.720869 0.636554 -9.48732e-20)
(0.864065 -0.239154 0)
(-0.210794 -0.120894 0)
(1.61659 -0.481004 0)
(-0.957111 -0.152787 4.15159e-19)
(1.24128 -0.906437 1.39967e-19)
(1.20327 -0.624314 6.28937e-20)
(1.07915 -0.178162 -1.68306e-19)
(0.904544 -0.71682 -1.68916e-19)
(0.190257 -0.194736 0)
(-0.680637 -0.693668 0)
(1.02702 -0.532332 1.78053e-19)
(-0.0947392 -0.108872 0)
(-0.151965 0.0400689 0)
(-0.18732 -0.413776 3.89203e-19)
(0.776187 0.653785 8.23074e-20)
(0.996835 0.778424 0)
(0.679892 0.532749 -8.24816e-20)
(0.834529 -0.0638379 -2.19447e-19)
(0.729349 0.542586 -2.20413e-19)
(0.580521 0.538446 -1.61743e-19)
(-0.166065 -0.223067 3.74792e-22)
(0.737946 -0.662549 0)
(0.893466 0.156796 -3.13937e-19)
(-0.206285 -0.299907 5.17179e-20)
(0.594611 0.550248 3.63424e-19)
(0.941075 0.781893 0)
(-1.34121 0.102125 3.26366e-19)
(-0.163497 -0.199404 2.74232e-19)
(-0.115056 -0.0702277 -1.38326e-19)
(0.648027 0.550686 -1.43367e-20)
(0.969698 -0.00839602 5.8035e-20)
(-0.228035 -0.35356 0)
(2.37976 -0.0924704 -2.55353e-19)
(1.54715 0.181692 -1.90692e-19)
(0.669822 -0.62072 -7.5609e-20)
(-0.474735 -0.343669 7.83045e-21)
(1.17795 0.444309 1.7246e-19)
(0.871827 0.393622 0)
(1.07107 -0.182045 1.93172e-19)
(-0.0598157 -0.233462 -2.91723e-21)
(-0.147457 0.0356745 3.83489e-19)
(0.926196 0.016687 -5.20418e-20)
(1.08981 0.143777 0)
(1.94273 -0.0782864 -2.16315e-19)
(1.73806 0.0259124 0)
(0.536111 0.225328 -4.47812e-19)
(-0.000595309 -0.00357349 0)
(-0.145777 -0.18776 2.28307e-19)
(0.722074 0.1074 0)
(0.642818 -0.539021 -1.79951e-19)
(1.14661 0.0154982 2.06314e-19)
(-0.111305 -0.0379268 3.46556e-20)
(1.89539 -0.00384691 -4.00848e-21)
(2.12318 -0.261196 -1.03064e-19)
(1.10168 0.217712 -2.11324e-19)
(-0.21618 -0.333221 -1.00907e-19)
(1.10169 -0.87348 0)
(0.81686 0.017567 -1.50092e-19)
(0.948323 -0.396926 -2.87722e-19)
(1.75643 -0.596698 -2.86474e-21)
(1.7909 0.0276538 1.75967e-19)
(1.07284 -0.00885547 3.72502e-19)
(-0.034221 -0.270303 -1.25329e-19)
(1.01806 -0.457747 -1.26792e-19)
(0.200796 -0.193372 2.53515e-19)
(1.00802 -0.00814322 0)
(1.00484 -0.00640631 0)
(0.427821 0.511312 5.35288e-20)
(-0.14358 0.131454 -8.69198e-20)
(0.169129 -0.120583 -1.21499e-19)
(1.70339 0.0673082 5.0569e-22)
(0.596697 0.0288881 0)
(1.65907 0.0469665 -5.35871e-20)
(0.964491 -0.840213 -8.47914e-20)
(1.81881 -0.586739 -6.17926e-20)
(1.08936 0.820661 0)
(0.487002 -0.469887 0)
(0.589292 0.498084 -1.7207e-19)
(1.0828 0.265637 -3.88144e-19)
(2.31295 -0.269373 3.09549e-22)
(0.855912 0.141638 1.3496e-19)
(-0.0179157 -0.385244 -3.54189e-19)
(1.80657 -0.426647 -5.20621e-20)
(-0.156416 -0.437652 0)
(-0.128124 -0.128669 0)
(-0.251935 -0.438764 0)
(1.36888 -0.745219 -9.33864e-20)
(-0.0418555 0.0478525 -2.05677e-19)
(-0.0106454 0.00529739 0)
(1.27885 0.960601 -2.93126e-20)
(1.10359 0.13818 -4.05622e-19)
(2.02934 0.333224 -4.66386e-20)
(1.06805 0.909697 7.57684e-20)
(-0.104518 0.10712 1.23544e-19)
(1.90772 -0.12406 0)
(-0.239385 -0.448696 -3.08385e-19)
(-0.0695788 0.0618885 2.33222e-19)
(0.775398 0.0109667 1.79347e-19)
(1.52516 0.92623 7.18197e-21)
(0.7353 -0.18119 5.01087e-20)
(-0.123602 0.0672441 5.64204e-22)
(0.763716 -0.697368 -3.73838e-20)
(1.09833 -0.0381318 0)
(1.62882 -0.0167286 0)
(1.08215 0.0441634 0)
(-0.146782 1.2017 -3.79525e-19)
(-0.250077 -0.448925 1.01945e-19)
(1.03041 0.827991 0)
(1.00193 -0.0111694 5.02635e-19)
(0.751073 0.584993 -2.20669e-19)
(-1.03154 0.805048 -3.44698e-19)
(0.860386 0.000490687 -4.02864e-20)
(0.73379 -0.669865 -2.19149e-19)
(1.37016 0.68897 -2.87667e-20)
(0.584 -0.477779 -2.8691e-19)
(1.12664 -0.00231759 -4.50068e-19)
(0.822009 0.0432425 4.45944e-20)
(1.56858 -0.188916 7.3711e-20)
(2.07475 -0.0383012 -7.48905e-20)
(-0.0434849 -0.0439978 3.10116e-22)
(1.06427 0.452999 -2.56943e-19)
(1.35855 0.609086 8.09323e-20)
(-0.177166 -0.139835 0)
(-0.014133 -0.422156 1.3176e-19)
(-0.0898338 -0.191633 1.42722e-19)
(-0.173449 -0.133075 -1.14784e-19)
(0.461194 0.284193 0)
(1.01137 0.431152 0)
(-0.0532517 0.0463501 -1.39533e-19)
(-0.199742 -0.320298 -5.31882e-20)
(1.04465 -0.0312372 1.7835e-19)
(-0.0184916 -0.136223 -4.07316e-20)
(0.915623 0.00973173 -1.55896e-19)
(-0.213693 0.0903219 0)
(0.854431 -0.757812 -3.03485e-19)
(2.04738 -0.0748842 1.44526e-19)
(-0.112171 -0.495162 1.31433e-19)
(0.714221 0.136587 3.20154e-19)
(0.618578 0.108805 1.03708e-19)
(0.516271 -0.490028 2.00032e-19)
(-0.0728196 -0.0983899 -1.24265e-19)
(0.990082 -0.0764542 0)
(0.377751 0.317643 -1.89976e-19)
(1.02715 -0.0171027 -2.84108e-19)
(-0.297938 -0.331949 2.01389e-19)
(1.40247 0.456129 -1.09651e-19)
(-0.110586 -0.13463 -4.60578e-20)
(0.701533 -0.640662 -5.84941e-20)
(0.808095 0.165872 -2.00455e-19)
(0.962049 0.408493 2.2007e-20)
(1.16354 -0.146949 3.47548e-20)
(0.619616 -0.257942 -2.94363e-19)
(2.05123 -0.373166 -1.17209e-19)
(1.88534 0.118609 0)
(1.63625 0.507884 -2.25146e-20)
(1.90265 0.12479 -1.46899e-20)
(0.660684 -0.19358 9.087e-20)
(1.05801 0.353587 -2.00738e-19)
(1.75017 -0.546674 2.87698e-20)
(0.406047 0.370362 -2.45835e-19)
(-0.26675 -0.0864931 1.58261e-19)
(1.95317 -0.221363 0)
(0.932782 0.00378598 0)
(0.893771 -0.790788 5.96585e-20)
(-0.160657 -0.221062 -3.00507e-19)
(-0.607967 -0.606963 -1.57e-19)
(-0.0560836 -0.0599757 -1.96596e-19)
(-0.225944 0.000887747 -1.20327e-19)
(-0.177145 -0.461376 0)
(-0.117504 -0.118564 3.45723e-20)
(-0.189542 0.135755 -9.59922e-20)
(4.31548e-05 -0.00519431 -3.14754e-19)
(0.810932 -0.133027 0)
(1.86384 0.126919 9.32789e-20)
(-0.0703087 -0.111608 0)
(0.993639 0.0240069 3.61909e-19)
(-0.0428288 -0.430618 1.91399e-20)
(0.559286 -0.449481 3.84569e-19)
(-0.295929 -0.683126 3.36617e-19)
(-0.956703 0.00668012 0)
(-0.115853 0.132976 9.93452e-20)
(1.0045 0.0209517 -1.08945e-20)
(-0.103124 -0.134169 0)
(1.00507 -0.00903988 -5.61979e-20)
(0.884103 -0.747255 -2.88034e-19)
(0.419152 0.315461 0)
(0.949978 -0.288375 2.05824e-19)
(-0.178355 0.109595 1.69194e-19)
(-0.0431665 -0.0390204 0)
(-0.125162 -0.412686 -4.96787e-21)
(0.747337 -0.653954 -4.20472e-19)
(0.971215 -0.0318893 -2.64512e-19)
(-0.149561 -0.238214 3.58678e-19)
(-0.148271 -0.188695 1.39155e-19)
(-0.172382 -0.450719 0)
(0.942976 0.457184 0)
(-0.101924 -0.483935 1.57385e-19)
(1.71434 -0.181878 -1.945e-19)
(1.06092 0.881986 1.74052e-20)
(1.06113 0.20195 -1.19715e-19)
(1.15432 0.00639016 -2.21734e-19)
(1.06211 -0.0736099 -8.02355e-20)
(-0.136859 -0.280992 -3.29043e-19)
(1.6018 0.0352467 2.38471e-19)
(0.657336 0.034012 1.9989e-19)
(1.96548 -0.125254 1.27896e-19)
(1.05942 -0.159067 0)
(0.525963 0.0697816 6.25729e-19)
(1.14461 0.0248298 -4.90382e-19)
(1.73205 0.594186 2.42153e-21)
(0.761093 -0.477938 -1.58747e-19)
(-0.0873306 -0.0733873 1.85138e-19)
(0.818063 -0.718658 3.77687e-19)
(1.22325 0.192877 7.08869e-20)
(1.00676 -0.00784845 2.48902e-19)
(-0.0132078 -0.368639 -1.37615e-19)
(1.02037 0.0119167 0)
(1.73667 0.198033 -1.93617e-19)
(-0.0637615 -0.0528196 0)
(1.01314 0.0118306 -1.47272e-19)
(-1.29628 0.288422 -5.15013e-19)
(1.70888 0.272299 3.08853e-20)
(-0.165217 -0.409688 1.73725e-19)
(1.55418 0.0276344 -2.70296e-21)
(1.01387 -0.0198841 5.14911e-20)
(1.33254 -0.0856404 0)
(1.4747 -0.62742 -1.47707e-19)
(1.01869 0.0266526 -1.51791e-19)
(1.42762 0.771882 -4.70254e-20)
(1.3649 -0.0522244 0)
(2.06179 0.120324 -1.03403e-20)
(-0.0661469 0.0531733 0)
(1.40053 0.040441 0)
(-0.253139 -0.422798 0)
(1.22609 0.436651 0)
(1.87671 0.187873 4.60422e-20)
(0.725109 0.598276 3.86707e-19)
(0.29814 -0.299868 -2.36762e-19)
(-0.18936 -0.284492 -3.27162e-19)
(-0.0576764 -0.053506 0)
(2.63632 0.0738275 7.91659e-20)
(1.4023 0.511601 0)
(1.44531 0.27911 0)
(-0.239293 -0.479632 1.33863e-19)
(0.79603 0.701487 1.22914e-19)
(1.73122 -0.0329358 0)
(-0.136538 -0.177871 8.0261e-20)
(0.900362 0.203298 1.84231e-19)
(1.95273 0.0186678 -8.63714e-20)
(1.22806 0.911952 4.15314e-20)
(0.941039 -0.847021 -3.70995e-20)
(1.94885 0.0490518 -7.58844e-20)
(0.783232 0.706564 1.2591e-19)
(1.16698 0.912233 0)
(1.89221 0.132346 7.30025e-20)
(1.20906 0.622956 0)
(1.89953 -0.0581927 1.61698e-19)
(1.19932 0.0822066 2.27777e-19)
(1.00505 -0.0058375 0)
(0.762419 0.668157 6.51141e-19)
(0.899491 -0.189693 4.73017e-20)
(0.649515 -0.433696 0)
(0.686757 -0.405873 2.08221e-19)
(1.22419 0.543236 -3.18208e-20)
(0.466349 0.4385 2.69114e-19)
(0.00104598 -0.010656 3.71366e-20)
(0.214279 -0.166001 1.03629e-19)
(0.773226 0.0677054 0)
(1.35 -0.922306 -8.34182e-20)
(1.03003 -0.0443038 3.9569e-19)
(1.57389 0.328893 1.58927e-19)
(-0.163561 -0.230581 6.90204e-20)
(-0.280154 -0.815523 0)
(1.24533 -0.24944 -1.14359e-19)
(-0.041816 -0.0383906 -1.58984e-19)
(0.721807 -0.360708 -6.20068e-20)
(-0.148476 0.0838971 -1.13528e-21)
(-0.209862 0.120447 3.20193e-19)
(1.33731 -0.748993 4.42351e-20)
(2.44916 -0.0780738 3.41913e-19)
(1.17617 0.442681 -2.78106e-19)
(0.843748 -0.060093 0)
(1.72583 -0.0550004 1.37192e-19)
(1.92117 0.107695 9.36916e-20)
(0.934566 -0.785655 1.41788e-19)
(1.17872 -0.994853 -4.36942e-20)
(0.471288 0.436423 1.8016e-19)
(1.44993 0.10369 0)
(1.74715 0.543587 3.41484e-20)
(-0.0523395 -0.0512747 -3.24184e-19)
(0.87198 0.758961 0)
(1.11427 -0.332564 0)
(0.299504 -0.29958 -3.66569e-21)
(0.311592 0.27987 0)
(-0.161161 -0.825306 -3.28718e-19)
(-0.0173006 -0.00419639 -1.08374e-19)
(1.75821 -0.449453 0)
(1.18606 0.0900216 1.74728e-19)
(-0.549128 -0.564543 1.2973e-19)
(0.548046 -0.520507 -4.59236e-19)
(1.98676 -0.106097 -4.34179e-20)
(0.627025 -0.570107 0)
(1.00802 0.123856 0)
(1.37313 -0.266403 0)
(1.11099 0.21855 -2.25509e-19)
(1.32739 0.0976914 3.19154e-19)
(-0.765767 -0.189547 0)
(0.890812 -0.0685973 0)
(1.92817 0.0036248 3.66817e-22)
(-0.0535492 0.0198583 1.04566e-19)
(1.9153 0.0306451 -1.15008e-19)
(1.07448 -0.52498 1.63853e-19)
(1.62667 0.0504652 -1.52351e-19)
(-0.530421 -0.530105 -1.05729e-19)
(1.73497 0.0151228 -1.16206e-19)
(1.01883 -0.0288932 4.08562e-19)
(1.50468 0.579191 0)
(-0.0637271 0.0444222 2.93515e-20)
(1.02759 -0.849289 1.76459e-19)
(0.861017 -0.0332335 4.70901e-20)
(0.653952 -0.456364 0)
(1.94034 -0.554702 3.06007e-21)
(1.23037 -0.199704 1.51021e-19)
(1.75979 0.0169673 0)
(0.622177 -0.577767 4.4589e-19)
(0.894632 0.0183282 -2.96819e-20)
(2.03795 0.0683467 1.95722e-19)
(-0.034907 0.0232774 -2.1132e-19)
(1.31771 0.60307 1.39646e-19)
(1.13573 0.394058 3.52258e-21)
(0.894206 0.356314 2.17851e-19)
(1.94753 -0.0462597 -2.35879e-19)
(-0.134462 -0.311916 -1.01621e-21)
(0.562575 -0.233848 0)
(-0.146146 -0.110423 3.03855e-19)
(1.11135 -0.967972 0)
(1.08815 -0.672729 2.17837e-20)
(1.07598 -0.155728 -5.54647e-19)
(0.00732779 -0.323914 7.40248e-20)
(-0.24304 -0.455094 -3.1718e-19)
(0.974852 0.467752 1.68804e-19)
(0.286096 1.14777 4.19422e-19)
(0.686735 -0.0390488 0)
(1.81419 0.0900488 0)
(1.4586 0.150297 2.06911e-20)
(0.785614 -0.0157331 0)
(1.38267 -0.214879 -1.55399e-19)
(-0.542114 -0.764068 3.8489e-19)
(1.9037 0.474242 2.05816e-20)
(1.03717 -0.0348059 0)
(0.569529 -0.376439 1.02981e-19)
(1.00838 0.0267723 1.94136e-19)
(0.692764 0.919603 -3.33428e-19)
(-0.280987 -0.0475905 0)
(1.13453 -0.495423 4.8997e-19)
(2.00882 -0.0191609 -2.42331e-22)
(1.12165 -0.513945 -2.13229e-19)
(2.21094 0.182759 1.39018e-19)
(1.27455 0.776504 0)
(0.863529 0.0179843 0)
(-0.21976 -0.348194 -1.78193e-19)
(-0.0545772 0.0366133 1.57048e-19)
(0.937699 0.351861 -2.0086e-19)
(0.11468 -0.330654 -1.14646e-19)
(0.634441 0.386581 2.36031e-19)
(1.63168 0.0611326 0)
(0.55078 -0.512052 0)
(0.329832 -0.477904 -1.33163e-20)
(1.25406 -0.524028 -1.00103e-19)
(0.699965 -0.0351103 1.17175e-20)
(0.740171 -0.177131 1.16098e-19)
(-0.0842092 0.0139285 -2.7831e-19)
(0.947724 -0.0876104 9.93186e-20)
(0.652078 0.607107 0)
(1.25693 0.680212 0)
(1.58961 0.248214 0)
(-0.229634 -0.443447 -1.41714e-19)
(1.29387 0.557141 2.19282e-19)
(2.08408 0.0610819 4.23473e-20)
(0.917404 -0.0127585 0)
(2.75905 -0.266693 0)
(1.89471 -0.0463291 -1.84944e-19)
(0.852907 0.892081 3.87433e-19)
(1.00526 0.00395912 -1.93939e-19)
(1.47891 0.470827 0)
(-0.236678 0.0153574 0)
(1.2282 0.304282 2.76738e-19)
(1.00925 0.512507 -1.25017e-19)
(1.06871 0.0195339 0)
(1.61875 -0.126781 0)
(2.02067 0.635885 -3.20009e-19)
(-0.115576 0.0860728 1.00322e-21)
(0.996958 0.0122011 0)
(0.69457 0.45285 -3.23863e-20)
(0.955747 -0.842633 0)
(0.999958 0.0153212 4.51203e-20)
(0.632647 -0.141244 -3.98232e-19)
(0.919858 -0.339783 3.03342e-19)
(0.544641 -0.564009 2.39559e-19)
(2.20419 -0.16238 2.70197e-19)
(1.36276 0.219747 7.82894e-20)
(0.793576 -0.0332739 0)
(1.02 0.00746086 0)
(-0.148836 -0.622057 0)
(0.658106 0.629558 -1.8129e-19)
(-0.0602604 0.0113435 1.87291e-19)
(1.15636 0.33887 -4.43974e-19)
(-0.164673 -0.136702 0)
(0.813557 0.62562 1.62307e-19)
(1.02477 -0.349737 0)
(1.00569 -0.00147387 1.13452e-19)
(0.957434 -0.064255 7.50673e-20)
(1.0213 0.390621 2.47173e-19)
(1.24186 -0.0435751 0)
(2.06285 0.0589213 -4.94982e-20)
(0.832526 -0.129245 -3.57185e-19)
(-0.460605 -0.793151 -5.06125e-19)
(1.48776 0.336498 0)
(0.870215 0.224063 1.70294e-19)
(1.99715 -0.191421 0)
(0.761602 0.502863 3.51267e-19)
(-0.696143 -0.762914 1.93781e-19)
(-0.0281696 0.00579219 0)
(0.582346 0.553157 -6.83399e-20)
(1.05044 -0.660692 -1.52715e-19)
(0.494042 -0.277734 -1.19172e-19)
(1.02155 -0.0199408 0)
(-0.353182 -0.239551 -1.21828e-19)
(0.656133 -0.586891 8.02625e-20)
(0.897171 0.272141 0)
(1.6862 0.191242 8.23899e-20)
(0.970568 0.824532 2.31379e-20)
(0.686425 -0.398885 3.68815e-19)
(0.111425 -0.0434323 -2.18999e-19)
(0.24052 -0.0835517 -5.38785e-19)
(-0.116274 -0.126411 8.49825e-21)
(0.805604 0.338474 2.39309e-19)
(-0.0448912 0.0419471 -4.9438e-21)
(1.43929 -0.66666 3.376e-21)
(1.02413 0.00370125 -3.3752e-19)
(-0.230401 -0.465409 0)
(1.03121 0.027312 -3.95533e-19)
(2.28737 0.132482 1.96105e-19)
(0.871572 0.673297 2.7127e-19)
(1.14246 -0.0765905 1.58396e-19)
(1.00667 -0.03662 1.56193e-19)
(0.0225399 -0.0141022 -7.21875e-20)
(-0.113787 -0.142745 -4.1145e-22)
(1.75502 -0.894112 1.52865e-20)
(1.14707 -0.126867 -7.821e-20)
(0.834598 0.0498008 8.99079e-20)
(0.925629 -0.310311 8.8592e-20)
(0.607296 -0.00170659 0)
(0.946284 0.718229 0)
(0.913192 -0.191114 -8.94311e-20)
(1.89034 0.159078 -1.70791e-20)
(-0.306272 -0.742294 1.41483e-19)
(1.05034 -0.556916 -5.14506e-19)
(0.635289 -0.553803 3.83845e-19)
(1.36143 0.0320643 -9.7252e-20)
(0.0591206 -0.278655 1.36262e-20)
(1.68146 -0.467651 0)
(0.750819 0.0938399 -6.5833e-21)
(1.82081 -0.261934 -3.37494e-19)
(1.02429 0.745427 0)
(1.20922 -0.0892807 0)
(-0.391815 0.125295 0)
(-0.106935 -0.127611 -5.50965e-20)
(0.0101004 0.169293 0)
(1.82851 0.899874 4.00164e-19)
(1.20796 0.177539 6.15252e-21)
(-0.654531 -0.10245 2.31715e-19)
(1.21925 0.0653363 -9.82234e-21)
(1.81644 0.409026 -7.48859e-20)
(2.17838 -0.332539 -2.92826e-20)
(-0.184228 0.0531489 -2.25979e-19)
(-0.132221 -0.439665 3.7011e-21)
(0.967792 0.0144101 0)
(0.672405 -0.0340887 0)
(1.00049 0.000243192 1.92273e-22)
(-0.217835 -0.457457 0)
(1.50644 -0.000574224 -7.39882e-20)
(0.675781 -0.0308357 0)
(1.06537 0.00694573 1.26934e-19)
(0.987253 0.0152929 -4.41386e-20)
(0.795216 0.0533553 6.80663e-20)
(1.05956 -0.0202307 -9.04465e-22)
(0.961434 -0.204615 -5.34385e-20)
(1.02819 -0.0367782 3.63352e-19)
(0.690124 -0.628566 1.81754e-19)
(-0.817705 0.168735 -2.78307e-19)
(1.57643 -0.194309 -2.15424e-20)
(-0.0594721 0.0305638 0)
(1.11112 0.779154 0)
(1.03085 -0.0117772 0)
(1.02608 -0.794564 -1.06258e-19)
(1.05929 -0.908055 4.7057e-20)
(1.31035 -0.223562 1.45629e-20)
(0.4117 -0.247984 -1.22969e-18)
(0.50297 -0.272393 -6.10711e-20)
(0.602528 -0.408169 -6.18851e-19)
(1.68925 0.0753382 -4.17945e-20)
(0.0477507 -0.372213 1.52882e-19)
(2.10357 -0.329719 8.49978e-20)
(0.919248 -0.0903912 -1.07123e-20)
(-0.136691 -0.178848 -1.17915e-19)
(1.09867 0.538473 1.88757e-19)
(-0.179192 -0.241353 0)
(0.134066 -0.40935 2.82826e-19)
(-0.133757 -0.134513 -7.89365e-23)
(1.02597 -0.0448702 3.24548e-19)
(1.02471 -0.00278816 -8.37495e-21)
(1.10754 -0.0122905 -8.97765e-20)
(0.975766 0.270755 -1.91251e-19)
(1.60123 0.305896 5.4853e-20)
(0.411575 -0.387219 -3.08193e-19)
(1.90259 -0.266578 -6.13147e-21)
(1.03653 -0.00292001 -2.39544e-19)
(1.17823 -0.112509 2.21751e-20)
(1.27868 0.0634807 0)
(1.09538 0.576895 -3.53568e-19)
(1.00242 -0.004392 9.26136e-20)
(0.662081 0.589253 2.50936e-19)
(1.60044 -0.388561 1.17693e-20)
(1.06326 -0.0127627 -2.9396e-20)
(1.12397 0.0103946 8.35481e-22)
(1.98081 0.00656682 8.43427e-21)
(0.779178 -0.141109 0)
(1.0433 -0.0404389 0)
(1.0492 -0.0347345 5.69226e-19)
(1.00267 -0.00258241 0)
(-0.0904886 -0.0854504 0)
(0.960846 -0.590692 0)
(1.0011 -0.000409479 -5.38586e-19)
(1.18126 -0.701475 8.56909e-20)
(1.02396 -0.00566395 1.13216e-20)
(1.33283 0.939656 -2.27991e-20)
(1.51988 0.987111 -2.51894e-20)
(0.618506 -0.196449 1.08749e-19)
(1.68536 0.156935 2.50841e-19)
(1.24632 0.357814 0)
(-0.186937 0.114298 0)
(2.15919 -0.156516 4.13515e-19)
(1.03923 0.286777 0)
(0.999921 -0.00472586 -1.66683e-19)
(1.01055 -0.000826356 3.23907e-19)
(1.42507 0.131243 -6.64741e-20)
(-0.00712759 -0.117779 2.35858e-19)
(0.972868 -0.00119839 1.75916e-19)
(1.34938 -0.0503891 -1.43128e-20)
(1.30202 -0.187071 4.57898e-23)
(0.884182 0.295287 -2.11285e-21)
(0.931993 0.0173308 -1.77741e-19)
(1.00401 0.00401029 2.09426e-19)
(1.00004 -0.000147359 1.2362e-20)
(0.789641 -0.0129384 0)
(0.727657 -0.0266472 0)
(0.723033 -0.0270147 7.55564e-22)
(0.698235 -0.0289052 0)
(1.90893 -0.0588846 0)
(1.47516 -0.208536 0)
(0.786245 -0.133365 -1.69009e-20)
(0.900986 -0.205186 1.01519e-20)
(1.49222 -0.264007 0)
(0.503435 0.125168 8.95645e-20)
(0.687068 0.619407 0)
(1.42217 0.206269 0)
(1.29779 -0.0312714 0)
(1.08065 -0.166859 -1.98749e-21)
(0.59103 0.0164779 3.93313e-20)
(0.779401 0.0221693 0)
(0.786099 0.0198024 0)
(0.969448 0.0198929 -2.19028e-19)
(0.813758 0.00832581 4.085e-19)
(1.00863 -0.00131527 0)
(1.0003 -0.000507576 3.86788e-19)
(1.00018 -0.000688746 -3.17531e-22)
(0.785906 0.0214531 3.47757e-19)
(0.993732 -0.00717569 -2.02017e-19)
(1.40662 0.0496886 0)
(1.18467 -0.185446 -4.5816e-23)
(1.00066 -0.00105678 -1.95421e-19)
(0.999583 0.00128435 -3.35492e-19)
(1.43854 0.622703 0)
(0.998836 0.00185408 0)
(0.999787 0.000302317 0)
(1.97451 -0.596821 7.74652e-20)
(-0.077942 -0.0972049 -1.28749e-19)
(1.72214 -0.347406 0)
(-0.00132929 -0.107974 1.88703e-19)
(0.356121 0.592384 -6.39011e-19)
(1.01958 -0.0184394 -2.60411e-19)
(-0.23219 -0.401431 -1.00951e-19)
(1.01841 -0.000801734 -2.0985e-19)
(1.19009 -0.220466 -1.05012e-19)
(0.81782 -0.492729 2.99437e-19)
(-0.0581105 -0.0557202 -7.91821e-20)
(1.03124 0.00986341 0)
(1.04783 -0.01446 -5.64881e-20)
(0.861188 0.0225321 0)
(-0.133034 0.0496737 2.78394e-19)
(1.17303 0.000598389 0)
(-0.250273 -0.462836 -2.63826e-19)
(1.14401 -0.0940944 1.54163e-20)
(1.64565 0.658705 1.06731e-20)
(-0.0926085 0.0524312 0)
(1.05273 -0.0380952 1.75975e-19)
(0.278584 -0.0610924 -1.37209e-20)
(0.927013 -0.0221822 2.76135e-19)
(1.01206 -0.00910984 -1.773e-19)
(1.67032 0.837394 4.66612e-20)
(0.512316 0.478946 0)
(0.432403 0.379782 1.98483e-19)
(2.53578 -0.411277 -1.28081e-20)
(1.14071 0.120662 1.87341e-19)
(1.11074 -0.731487 0)
(1.0213 0.00117138 0)
(0.999859 -0.0185938 -4.08471e-19)
(1.01904 0.0146099 -3.98618e-19)
(-0.151178 -0.178028 0)
(1.20826 0.806038 -1.20672e-19)
(1.6647 -0.500498 -1.25321e-20)
(1.01607 0.00375875 1.533e-19)
(1.01223 0.0129982 -1.92419e-19)
(-0.246122 -0.469825 -2.63857e-20)
(0.0973103 -0.296699 2.52391e-19)
(1.01799 -0.0172347 6.5368e-19)
(1.74919 -0.782056 0)
(1.85819 0.607885 -5.41618e-20)
(1.01561 -0.0135323 -2.03717e-19)
(2.07962 0.126603 -1.14551e-19)
(1.06069 0.00417788 -4.68721e-22)
(1.00945 -0.0100757 4.07375e-20)
(2.08653 -0.247093 -2.33463e-19)
(1.01631 0.00625025 1.97809e-19)
(-0.0277685 -0.664948 -2.12569e-20)
(1.01882 0.000170884 0)
(0.927927 0.1362 4.82157e-20)
(-0.514131 -0.278644 6.6173e-21)
(1.00115 0.0212637 1.96547e-19)
(1.04184 0.0201739 -5.833e-22)
(1.44448 -0.540322 4.93094e-20)
(1.24624 0.309494 3.93561e-19)
(0.997501 0.0146045 1.35171e-19)
(1.01694 -0.0154765 4.90906e-22)
(1.70979 0.22172 -2.04297e-20)
(1.80027 0.932935 -1.11402e-19)
(0.791636 -0.710709 5.86991e-20)
(0.466408 -0.352133 -2.98803e-19)
(1.00786 -0.0114114 0)
(1.02085 0.00175192 4.91366e-20)
(1.0109 -0.00979884 1.03499e-19)
(-0.438979 -0.483467 -1.22747e-20)
(1.01449 0.00413952 -2.05924e-19)
(1.03141 -0.0278855 2.36164e-19)
(1.00831 -0.00802452 -1.93502e-19)
(1.01387 0.00422198 -4.91486e-22)
(1.01317 0.00203911 -3.70924e-22)
(1.02565 0.0128535 1.97193e-19)
(0.899174 0.0724614 4.97317e-19)
(1.7797 0.741572 0)
(0.68364 -0.428318 2.43972e-19)
(1.01138 -0.00514436 0)
(1.02126 -0.0222208 -5.7096e-20)
(1.51523 0.417776 -7.62326e-20)
(1.88247 -0.0201991 0)
(1.90804 0.109041 -8.2698e-20)
(1.50068 1.1346 -6.56187e-20)
(0.744747 -0.0185482 0)
(1.85615 -0.191632 0)
(0.268237 1.58977 -2.58887e-19)
(0.0544484 -0.395937 4.30278e-20)
(1.01727 -0.00605182 -2.07425e-19)
(1.14019 -0.581266 -6.05398e-20)
(1.37908 -0.763987 8.93389e-20)
(0.269354 -0.0800475 0)
(1.83986 -0.345605 0)
(1.94758 0.593151 0)
(-0.166071 -0.129484 9.21675e-20)
(-0.343847 -0.729463 -1.8538e-19)
(-0.167001 1.7005 0)
(-0.19679 0.00437966 -1.8519e-19)
(1.69768 0.947481 -6.85566e-20)
(1.00785 -0.00391926 -4.0548e-19)
(-0.726459 -0.526116 -6.64316e-20)
(1.02205 0.00386848 2.68519e-19)
(0.677919 -0.0418828 0)
(-0.162414 -0.17929 -2.40841e-20)
(0.60027 0.411604 -3.3256e-19)
(1.20871 0.65196 4.39236e-20)
(-0.0457836 0.105602 0)
(0.814151 0.0706812 7.86747e-20)
(0.511645 0.487813 5.02335e-20)
(1.17363 0.870352 -3.23625e-20)
(-0.064928 -0.05764 1.17443e-19)
(1.01864 0.00839539 0)
(0.00903185 -0.831021 -3.97789e-20)
(1.01155 -0.00374112 1.52181e-19)
(2.08008 0.0390007 0)
(1.01168 0.00676638 2.55285e-19)
(0.156232 -0.367294 -1.33105e-19)
(1.01899 0.00865339 -1.57974e-19)
(0.410599 -0.78548 0)
(2.53117 0.113234 2.62096e-22)
(1.0089 0.00316919 -1.06013e-19)
(0.994532 -0.0372403 2.79818e-19)
(1.08716 0.0882723 -3.01123e-21)
(0.14547 -0.245023 1.5701e-21)
(-0.133169 -0.108708 3.08666e-19)
(2.01152 0.146754 1.56447e-19)
(-0.23939 -0.210539 -6.47973e-21)
(0.79886 0.014918 -3.83126e-19)
(0.798037 0.0251437 0)
(-0.132793 -0.658026 -9.78495e-20)
(1.02136 -0.0198375 -3.06781e-20)
(0.974442 0.0165836 0)
(1.05069 -0.00232862 -1.94427e-19)
(0.107799 0.109391 1.61714e-19)
(-0.332406 -0.673801 2.3935e-19)
(2.19821 -0.606603 0)
(-1.2492 -0.0223677 -5.6825e-19)
(1.54269 -0.355555 0)
(1.03941 -0.0186529 5.71023e-20)
(1.62798 0.367533 7.10153e-21)
(1.01373 -0.00451575 1.64685e-19)
(-0.856318 -0.576177 3.12807e-19)
(1.01848 0.00165793 0)
(0.993719 0.00379242 -3.95904e-19)
(1.00825 0.00749768 2.09363e-19)