/*--------------------------------*- C++ -*----------------------------------*\
| =========                 |                                                 |
| \\      /  F ield         | OpenFOAM: The Open Source CFD Toolbox           |
|  \\    /   O peration     | Version:  2306                                  |
|   \\  /    A nd           | Website:  www.openfoam.com                      |
|    \\/     M anipulation  |                                                 |
\*---------------------------------------------------------------------------*/
FoamFile
{
    version     2.0;
    format      ascii;
    arch        "LSB;label=32;scalar=64";
    class       surfaceScalarField;
    location    "47.1";
    object      phi;
}
// * * * * * * * * * * * * * * * * * * * * * * * * * * * * * * * * * * * * * //

dimensions      [0 3 -1 0 0 0 0];

oriented        oriented;

internalField   nonuniform List<scalar> 
3181
(
-1.08516
0.426905
0.658253
-0.414299
0.389156
0.0251422
0.555088
-0.381641
-0.173446
0.134331
-0.219316
0.0849853
0.000572587
-0.0380277
0.0374551
0.399575
0.695727
-1.0953
0.158043
-0.151392
-0.00665071
-0.0323733
-0.0158848
0.0482581
0.612681
-0.861181
0.2485
-0.073596
0.149746
-0.0761499
-0.0105339
-0.0480345
0.0585684
0.140685
0.0491955
-0.18988
0.039827
0.0152593
-0.0550863
-1.10543
0.145745
0.959686
-0.348885
0.746734
-0.39785
-1.12067
0.631291
0.489381
0.0849202
-0.930179
0.845259
-0.0438351
-0.160162
0.203997
-0.301325
-0.147407
0.00731572
0.0571668
-0.0644825
0.0178467
-0.074665
0.0568183
0.00558963
0.00467932
-0.0102689
1.07442
-1.0439
-0.0305228
0.0296537
0.0426688
-0.0723226
-0.956891
0.318883
0.638008
-0.113216
0.247547
0.316017
-0.23124
-0.0847773
0.0314518
0.0661801
-0.0976318
-0.392892
0.319284
0.0736086
-0.0310088
-0.0258325
0.0282846
-0.00245205
-0.0284935
-0.928398
0.090463
-0.0974787
0.00701566
-0.150402
1.19751
-1.04711
-0.0664799
0.0441856
0.0222943
0.182413
0.253923
-0.436336
0.882711
-1.03311
0.0654801
-0.0476334
1.41379
-0.846918
-0.566875
-0.156766
0.556341
0.0122529
0.0275741
0.0238353
-0.0182456
-0.438135
0.08925
-0.103422
0.127257
-0.614808
0.135756
0.479051
-0.162574
0.0889782
-0.179975
0.184472
-0.00449721
-0.287946
-0.0816792
0.369625
0.506161
0.306872
-0.813033
0.0835229
-0.119095
0.0355716
-0.0185168
-0.0959412
0.101764
-0.00582244
0.545701
0.201033
-0.0984517
0.125904
-0.0274521
0.0462553
0.0442077
-0.183706
0.211937
-0.0282315
0.175384
0.0602991
-0.235683
0.116083
-0.122381
0.0062981
0.90316
0.510632
-0.886252
-0.198906
-0.229879
-1.2426
1.47248
0.533379
0.211037
-0.744416
-0.435188
-0.1855
0.620688
-0.590234
0.433468
-0.24724
0.780619
-0.34402
-0.108112
0.452132
-0.202344
-0.190548
-0.201974
0.16051
0.0414647
0.107605
0.296268
-0.403873
-0.338037
0.950718
0.0198252
-0.0521985
-1.70976
1.47988
0.208797
0.10722
-0.195367
-0.11419
0.309557
-0.273482
0.342384
-0.0689024
-0.0877692
0.095682
-0.00791278
-1.2036
-0.919995
0.00956577
0.91043
-0.0165076
-0.0499723
-1.0831
0.699538
0.383559
-0.0306426
-0.373788
0.40443
-0.840878
0.250644
1.10097
-0.955222
-0.682428
1.15957
-0.199888
1.07247
0.152658
-0.180454
0.0277969
0.733634
-0.0379065
0.988274
-0.988274
-0.00801029
-0.000790187
0.00880048
-0.230029
-0.0541292
0.284158
0.0544317
-0.080743
0.0263112
-0.450243
0.853917
-0.403674
0.0010805
-0.261678
0.260598
-1.08937
0.0454705
0.321807
0.0629285
-0.384736
0.140789
-0.825218
1.03625
0.0359628
-0.0945531
0.0585903
-0.0175178
-0.166188
0.213231
0.102268
-0.315499
-0.206453
0.419684
0.104149
-0.929367
0.344621
-0.794864
0.925295
-0.840375
0.102872
-0.035992
-0.0668804
0.0723469
0.0494122
-0.121759
-1.39649
-0.198635
1.59512
-0.265845
0.43355
-0.167705
0.369375
0.824537
-1.19391
-0.432896
-0.6502
0.0265962
0.0569268
-0.162849
0.156767
0.00608215
-0.0760037
-0.00620965
0.0822133
-0.649139
-0.212041
-0.0745619
-0.0049755
0.0795374
-1.11095
0.583825
0.527125
0.773469
-0.466597
-0.0158407
0.00783043
0.0593063
0.149491
-0.188229
0.370642
0.183864
-0.249032
0.065168
0.12991
0.0655982
-0.195508
0.365788
-0.635624
0.269837
-0.598511
-0.522162
-0.346316
-0.764634
0.0518452
-0.0158824
-0.11913
0.198251
-0.0791211
0.321952
0.0262639
0.131779
-0.0583079
0.0802026
-0.0218947
-0.104352
-0.0249052
0.129257
0.0798652
-0.0798652
-0.197299
0.223563
-0.237096
0.0647694
0.11296
0.0989776
-1.35193
1.01389
-1.23162
-0.0196649
1.25129
-0.0245586
0.0132143
0.0113443
-0.0257822
-0.0496453
0.0754275
0.566515
-0.0186516
-0.547863
0.0618624
-0.0597055
-0.00215691
-0.213449
0.0161503
0.156309
0.697608
-0.382594
0.538903
-0.0871581
-1.30933
0.0852233
-0.0846508
0.513537
-0.323946
-0.18959
-0.0129771
-0.00286949
0.0158466
0.0512901
-0.339236
0.0234548
-0.94345
0.0512945
-0.170424
-0.308583
-0.425699
0.0542059
1.28004
-0.858892
-0.421144
0.978467
0.301569
0.0711582
0.298467
-0.0302156
0.00565704
-0.3844
0.293494
0.0909055
-0.263394
-0.571121
0.834515
-0.380035
0.432309
0.406611
-0.554017
0.170339
0.0341853
-0.0690049
0.0348196
-2.14506
0.497058
1.64801
-0.236193
-1.90887
-0.305586
0.627393
-0.906725
-0.0210658
-0.00056685
-0.254015
0.254582
1.19373
-1.35566
0.161923
0.0218162
0.0634071
0.556404
-0.819799
-0.390379
0.0964063
0.293973
-0.288014
-0.104965
0.392979
0.204524
-1.01054
-0.0788292
-0.000482854
-0.0639997
-0.528878
0.343378
-0.236807
0.0194662
0.217341
-0.118012
0.139828
0.0390182
-0.0390182
-0.111551
0.121742
-0.0101905
-0.103868
-1.12776
0.0351234
-0.034688
-0.000435471
-0.222736
0.238752
-0.0160154
-0.211491
0.00951664
0.894577
-0.0625594
-0.832018
-0.212178
0.473518
-0.26134
-0.0181569
0.0154172
0.00273973
1.19699
-0.827616
-0.183862
-0.00317353
0.187035
-0.190742
0.298347
-0.0964208
0.0947228
0.00169799
0.0670608
0.0410239
-0.108085
-0.274122
0.274154
-3.20134e-05
-0.959357
-0.220669
1.18003
-0.233542
-0.0537948
0.287337
-0.709464
0.661148
0.0483153
-0.00878962
0.0514585
-0.0292264
0.0289369
0.000289536
-0.00862919
-0.0636934
1.02029
-0.246818
0.18014
-0.870782
0.690643
-0.00924847
1.29588
-1.28663
0.405425
0.795341
0.192933
0.0499001
0.194144
-0.0642343
-0.0683161
-0.0276251
0.255428
0.145138
-0.0727911
0.738358
-0.419475
0.0641655
0.219993
0.0376223
-0.151449
0.113826
-0.818371
-0.136392
0.954763
0.00737309
-0.00737309
0.00539366
-0.271843
0.525766
0.0127049
-0.246247
-0.271148
0.110985
-0.00219318
0.0540383
0.126373
-0.136907
-0.346131
0.347212
0.0693832
0.049205
-0.118588
0.415192
-0.365997
0.236836
-1.00284
0.766008
-0.219407
0.290566
0.196445
-0.520391
-0.213634
0.640539
0.177125
-0.0348711
0.0348711
-0.621849
0.177427
0.444423
0.408895
0.0246547
0.0298385
-0.0387799
0.00894143
-0.0589814
-0.134249
0.0596871
-0.0479199
0.174293
-0.170555
0.230731
-0.0601762
0.117051
0.0280872
-0.405216
0.173977
0.177713
-0.0606622
-0.0436504
-0.0527705
0.0340986
-0.0191557
-0.0149429
0.156749
-0.11142
-0.0453281
0.0035448
0.375038
-0.378583
0.0029964
0.0168288
0.0993872
-0.103647
0.00425975
0.0235893
-0.181804
0.41864
-0.101107
0.0573436
0.0437633
-0.124341
0.124797
-0.000456302
-0.0834642
0.098425
-0.720893
0.622468
0.0473763
-1.55521
-0.230372
1.78558
-0.430641
1.65934
-1.2287
0.0878516
-0.338277
-0.297347
0.255317
0.249955
-0.505272
-0.203677
0.2413
0.152174
-0.918799
0.766626
-0.109097
-0.0152442
-0.025042
0.0245591
-1.00409
0.448204
0.555883
0.858892
-0.754744
-1.65797
1.45933
-1.19373
1.17407
0.0440439
-0.071496
-0.0105621
-0.0186643
-0.0180999
0.837498
-0.685325
0.132953
-0.0816588
0.421412
0.738162
-0.0260604
-1.1886
1.17935
-0.751168
-0.600762
-0.239398
-0.375409
0.0305705
-0.176334
0.227624
-0.582675
-0.3994
0.187223
0.819912
-0.253398
-0.885063
-0.772905
0.736544
0.109041
-0.218138
0.305814
0.0398953
-0.0398953
0.671624
0.147919
-0.819543
-0.224626
0.89625
1.22869
-0.854382
-0.374304
-0.0205482
0.0853176
0.00864954
0.00394879
-0.0125983
-1.2426
-0.11506
-0.351537
0.606574
0.288003
-0.0371507
-0.142824
-0.266553
0.812253
-0.187579
-0.0492283
-0.00342285
-0.0843463
-0.0476034
0.0970156
0.366202
-0.230445
-0.838326
-0.269937
-0.260168
0.0131131
0.247055
-0.502993
1.29833
-0.277225
0.337123
-0.0598976
0.00262745
-0.0328431
-0.151903
0.178426
-0.0265234
0.0102743
0.441858
-0.0301894
0.0172123
-0.0156818
0.00754434
0.00813748
-0.0195238
-0.164338
-0.703364
0.353706
0.349658
0.525465
-0.929111
0.403646
0.132922
-0.154236
0.0213139
0.0622116
-0.0356154
0.416263
-1.40454
-0.0720019
-0.079901
0.0329321
0.0239947
0.147163
-0.335393
-0.38329
0.582113
-0.198823
0.0598254
0.0985004
0.0582482
-0.818371
-1.40393
0.444571
0.116395
0.062031
0.0431526
-0.636767
-0.072697
0.0588151
0.118898
0.976323
0.0669723
-0.470845
0.130429
0.340287
-0.277359
-0.130833
0.0264806
0.229351
0.829099
-1.05845
0.101195
-0.732223
0.631028
-0.98946
0.853068
-1.60392
-0.0368071
1.64073
0.0264569
-0.0295523
0.00309535
0.153221
-0.441235
0.230137
-0.138795
-0.0913422
0.0993311
0.0254661
0.0136876
-0.273856
0.0463913
0.0220054
-0.0306345
0.0226539
0.0634621
-0.0861161
0.798045
0.0114592
-0.0119396
0.000480425
0.0234371
-0.00660835
0.860642
-0.0292401
0.0926472
-0.0113989
-0.103661
-0.111988
0.09144
0.00798982
0.0905105
-1.64073
1.40454
0.279865
0.091563
-0.371428
-0.238961
0.0585068
0.119129
-0.0913324
-0.00160142
0.0972834
0.0459776
-0.177225
-0.206065
-0.0322589
0.0549128
0.738769
-0.249388
-0.0255477
-0.197189
0.315102
-0.0133076
0.043146
-0.00847203
0.0883372
0.152922
0.189462
0.156346
-0.314318
0.157972
0.119627
0.577981
-0.0544643
-0.10811
0.958332
-0.252752
-0.70558
-1.60392
-0.000695801
0.52616
0.882711
-0.295143
0.557655
-0.262511
0.400335
-0.0551973
-0.345138
-0.314963
-0.525915
-0.0651132
0.0652117
-9.85123e-05
0.39697
-0.197026
-0.199944
0.360357
-1.11011
0.749758
0.0436853
0.649211
-0.692896
-0.0472287
-0.11562
-0.0984254
-0.00268145
-0.319267
-0.302583
0.0303229
-0.00386602
-0.19099
0.145216
0.045774
-0.0710719
-0.313328
0.0118946
-0.00926715
0.0298634
-0.0658553
0.0242554
0.00468152
0.186822
-0.448501
-0.0231658
1.68251
-0.0121009
0.00472783
-0.993354
-0.0171866
0.307182
-0.0787475
-0.0520852
-0.345692
-0.0446866
0.375604
0.214838
-0.590442
-0.0557763
-0.0562119
-0.934207
-0.0210149
0.000378301
-0.648841
0.747266
-0.019009
0.196134
-1.10539
0.251004
0.179699
-0.46266
0.282962
-0.169395
-0.0796366
-0.00584494
0.00479154
0.00105339
-0.0632671
-0.210855
-0.0228977
-0.14329
0.76101
-0.659814
-0.11367
-0.0324632
-0.348297
0.297348
-0.141002
0.37077
1.34274
0.03973
-1.38247
-0.115649
0.135115
-0.502512
-0.200852
-0.574179
0.644996
-0.623865
-0.0211318
-0.155372
0.0417022
-1.1886
0.512342
-0.512342
-1.48443
1.48443
0.837498
0.937795
-1.41797
0.480172
-0.899078
-0.0942757
0.613683
-0.338986
-0.274698
0.180598
-0.259719
-0.0140594
-0.00178129
-0.859808
-0.0695593
-0.933633
0.21274
0.116375
-0.103262
0.699326
-0.122632
-0.576694
0.399671
0.48304
-0.00812489
0.00227995
-0.96473
-1.03937
0.0365309
-0.126695
-0.542258
0.668953
-0.0878577
-0.772139
-0.583516
0.213305
-0.811815
-0.954763
1.39929
-0.44453
-0.146716
0.295305
-0.148589
-0.0134205
0.712746
-0.0960483
-1.0136
1.0136
-1.38387
-7.58962e-05
1.38395
0.00134423
0.010115
0.163772
-0.427111
0.848759
-0.149221
-0.0780915
-0.0364725
0.0084942
-0.0121164
-0.00604056
1.93204
-1.96884
-0.36135
0.428411
-0.615111
0.960453
-0.345342
0.126205
-0.198207
0.118905
-0.0533069
0.385688
-0.018187
0.0334463
0.350127
0.0249111
0.0434986
-0.239881
0.196382
0.14799
0.0364817
0.0931229
0.17642
1.75421
-0.274332
0.597832
1.03639
-1.63422
-1.59316
2.09022
0.390296
-0.263039
0.0780939
-0.76737
0.689276
1.53563
0.14947
-0.495601
-0.074366
0.143944
-0.0695776
0.148397
-0.222763
-0.432501
-0.0963762
-0.0675307
0.0703897
-0.00285907
-0.00157012
0.0258255
0.184175
-0.139967
0.685325
-0.631028
-0.0542971
-0.308741
0.321446
0.872784
0.695935
-0.295599
0.00439186
-0.0390798
-0.239352
0.335758
0.185941
-0.605616
0.419675
0.00242096
0.00237058
0.177711
0.597604
-0.775315
0.0114298
-0.0171841
0.00575433
-0.0267169
0.0196269
0.00708995
-1.12447
1.08656
-0.247082
-1.30813
-0.182547
-0.754744
1.17407
1.45933
-0.20546
-0.183837
0.130042
-0.0601992
0.0657196
-0.00552041
0.216977
1.2709
-1.48788
0.506684
0.107
-0.00730451
0.00972547
0.116712
0.235797
0.0364725
-0.037605
0.0053461
0.0931823
-0.332534
0.0415708
-0.043764
-0.259238
0.67443
0.978467
-0.657544
-0.0649394
0.0015675
0.0633719
1.73151
-0.272175
-0.0649162
-0.057465
-0.918679
0.163935
0.451535
-0.247011
-0.469333
-0.114308
0.58364
0.788659
-0.343939
-0.44472
0.397956
-0.0223523
-1.17935
-0.0632498
0.0113611
-0.0388449
0.0274839
0.029035
1.26685
-0.183104
0.191753
0.447263
1.57533
-0.401259
-0.689373
0.0674096
0.621964
0.35555
0.0170497
-0.338244
0.55336
0.844194
0.0893481
0.0807482
-0.0225
-0.275401
-0.0756218
0.351022
0.635609
0.0125337
-0.0282155
-0.0413581
-0.352051
0.0910828
-0.29476
1.37997
-0.0372305
-0.0862418
-0.0691299
0.255229
-0.550372
-0.0258216
0.017032
0.117813
-0.157396
0.039583
-0.31663
0.332375
-0.0157451
1.0524
-1.01267
-0.324838
-0.611855
0.936693
0.295633
-0.221005
-0.0746277
0.254921
0.0424263
-0.695919
-0.70801
-0.640849
0.640849
1.47248
0.399671
-0.732223
0.342912
0.501282
0.0901432
0.35428
0.894156
-0.387473
0.00331873
-0.858795
0.855476
0.148325
0.00142086
0.0262167
-1.4355
0.739586
0.125822
-0.173086
-0.130918
0.304005
-0.131442
-0.539489
0.366402
-0.950786
-0.277926
-0.63753
-0.0269588
-0.0112064
-0.00073326
-0.223235
0.0857372
0.161318
0.037197
-0.134136
0.0969394
-0.271357
-1.11251
-0.00588685
0.0720669
-1.44721
1.80497
-0.357768
-0.595527
0.405937
-0.146106
0.195311
0.246129
0.00528331
-0.0303253
-0.510805
0.448245
0.0322586
0.0671286
-0.278458
-0.0698389
0.215566
0.0145709
-0.406337
2.06427
0.386728
-0.399119
0.86806
-0.789966
0.75038
-0.435277
-0.583389
0.156278
0.149956
-0.79004
0.754031
0.0360092
1.37149
0.0084878
-0.233988
-0.127362
-0.00648116
-0.0742618
0.953314
-0.837302
-0.116012
-0.168923
0.0961322
0.0289337
0.127833
0.874485
0.715732
-1.07873
0.363002
-0.338239
-0.0611611
0.410208
-1.85741
0.254213
1.34091
0.276096
0.123574
0.17634
0.557306
-0.733646
0.385536
0.0484567
-0.00676663
0.0120499
-0.497781
-0.0856075
-0.102004
-0.0160083
-0.175549
0.127629
-0.558178
0.296838
-0.991996
-1.20099
-0.283262
-0.747901
1.17209
0.0791995
-0.274524
-0.12055
0.213733
-0.363319
0.282895
0.0672321
1.38907
-1.02871
-0.176833
0.116171
0.170618
-0.364943
0.194324
-0.000498181
0.0118592
0.0466883
-0.0615906
-0.255039
-0.134458
0.697496
-0.410347
-0.287149
-0.494373
0.144551
-0.103975
-0.0405767
0.23915
0.0437451
0.346074
-1.57477
-0.091832
0.134985
1.53723
-0.821503
-0.0258908
0.0254345
-0.0154886
0.0262031
-0.0107145
-0.0294316
0.0426459
-0.230296
0.0788472
0.0211252
-0.586371
0.439655
0.008123
0.00914643
0.286487
-0.693752
1.37292
-1.41015
0.0165821
-0.182239
0.165656
-0.132534
-0.549965
0.682499
0.0904172
-0.727184
-1.18056
0.855726
0.0298296
-0.00208275
-0.0277468
-0.262751
-0.644996
-0.173374
-0.15854
-0.275401
-0.219181
0.154947
-1.02328
-0.965834
0.0480668
0.269763
-0.31783
0.277977
0.125041
0.202039
0.548379
-0.750417
0.0107242
0.0983167
0.770404
0.993379
-1.76378
-0.229445
0.703263
1.38695
-0.230194
0.170018
-1.03927
1.74253
-0.427754
0.530023
0.0313136
-0.0494135
-0.050518
0.855017
-1.25414
0.695872
0.0927872
-0.136693
-0.0405322
0.283311
0.610845
0.973114
-0.0147822
-0.015287
-0.276096
-0.63753
-0.712496
0.722062
-0.269312
-0.885063
0.649211
0.628476
-0.931578
0.132747
-0.0129987
-0.777042
-0.313191
0.63497
-0.783025
0.148056
0.0862464
0.0583051
1.01285
0.10642
0.226442
-0.332862
-0.00508578
-0.00612058
-0.252175
0.202947
0.725387
0.236116
-0.219966
-0.192309
0.8154
-0.231575
-0.443255
0.923427
-0.205889
1.80012
-1.59423
-0.449016
0.373394
1.26627
0.538708
0.134788
0.457443
-0.351022
-0.00682824
0.210432
-0.0192571
0.156079
0.151103
0.0178952
-0.0266049
0.00870968
-1.01976
-0.0386872
0.328011
-0.806458
0.329665
1.32946
-1.65913
0.363112
0.597342
-0.0533133
0.0569488
-0.00363545
0.341568
0.473832
-0.715616
0.462239
1.40918
-1.07952
0.29872
-0.0882879
-0.584661
-0.407335
-1.59858
1.39269
-0.0657678
-0.871794
-1.29272
0.00608378
0.457443
0.0478498
-0.854308
0.831184
-0.645364
-0.18582
-0.982036
0.397376
-0.000221782
0.122805
-0.00107576
-0.121729
-0.97151
0.564175
-0.229254
0.909119
-0.930134
0.183272
-0.202796
-0.0898853
0.237049
1.44235
-0.11639
0.0245596
-1.60285
0.220374
1.45124
-1.36189
-0.552685
-0.518323
1.07101
0.447315
0.0142
-0.0102512
-0.731584
0.692896
1.02967
-0.688106
-0.192933
0.193044
-0.000111787
0.0680414
1.26142
0.782563
-0.813572
-0.493829
-0.449621
-0.47187
-0.499641
0.80358
-0.80358
0.683734
-0.683734
-0.731584
-0.443689
0.443689
-0.193044
-0.105107
-0.0476082
-0.818282
-1.64809
1.64809
1.02967
-0.688106
0.782563
0.768101
-0.768101
0.813572
0.759071
-0.759071
0.506171
0.52813
0.481677
-0.618419
-0.500359
-0.550379
1.07851
-0.164998
-1.95485
0.356272
-0.285158
1.55142
0.230664
0.0335832
-0.0628233
-0.888831
0.102612
0.786219
-0.109918
0.140489
-0.998282
0.578806
0.962319
-0.619407
-0.127985
-0.0182079
-0.0192786
-0.789708
-0.0810738
-0.555883
-0.00677078
0.0313299
0.411974
-0.21936
0.281391
0.18678
-0.0100265
-0.00416288
0.0141894
-0.810388
0.065974
0.744414
1.42888
0.0134685
-0.540966
0.40065
0.140316
0.919529
-0.739195
-0.180335
0.0903614
0.28028
-0.0135514
-0.0539793
-0.04933
-0.0157832
1.18445
-1.68744
-0.813272
0.10312
-0.734448
0.798201
-0.0637529
0.123888
-0.899946
0.776059
-0.801486
0.906851
-0.105365
-0.00387615
-0.0255555
0.0225403
-0.276556
0.281686
1.111
-0.101292
-0.787539
0.917498
-0.0933872
-0.824111
0.29953
-0.173325
1.14372
0.818237
-0.813616
0.466739
-0.359739
0.108088
-0.895626
1.03311
0.451314
-0.789128
0.0120864
1.01907
-0.895185
1.26811
0.945972
0.570475
-1.51645
-0.873249
-0.125033
-0.39465
0.0160676
-0.308531
-0.281911
-0.785288
0.785288
-0.588138
-0.0902454
-0.865123
0.125929
-0.898911
0.772216
0.0612806
-0.200075
-0.0608817
0.0699187
0.0102839
0.191721
0.827351
0.816606
0.769698
0.142426
-0.912124
0.505459
1.04596
-0.778899
-0.113628
0.892527
0.183312
-0.898928
-0.673402
0.889679
-0.781591
-0.113528
0.460679
-0.042442
-0.418237
0.197771
0.316327
-0.514098
-0.0376075
-0.666069
0.703676
-0.892427
-0.833174
0.0987262
0.481535
0.268844
-1.62277
1.05279
-0.54978
0.54978
-1.1587
-0.444149
-0.439565
1.17915
-1.1834
0.571549
0.77605
-0.216386
1.11984
-0.0332809
-0.398898
-0.36862
0.767518
-0.0952756
-0.833835
-0.0259129
1.45143
-0.729249
1.17382
-0.36934
0.304265
-0.213904
0.778419
-0.883784
-0.492864
1.53883
-0.161606
0.740412
0.559775
-0.559775
-0.0278792
-0.00496394
0.102331
-0.0651338
0.432194
-0.115867
-0.135849
-0.0042441
0.0049353
-0.000691198
-0.659128
0.697092
-0.0379646
1.2705
-0.700021
0.114008
-0.895599
-0.805002
0.90599
-0.100987
0.241817
0.878663
0.195939
1.07456
-0.753173
0.594224
-0.666921
-0.638414
0.135901
-1.09892
0.0298358
0.281884
-0.647405
-0.451515
0.00999485
-0.977738
0.0805675
0.717633
0.702315
-0.108092
0.0841863
0.776456
0.0411016
1.01905
-1.06015
0.0500678
0.553015
0.216153
-0.989936
0.757487
0.232449
-0.686961
-0.124855
1.40911
0.141316
-0.443899
-0.0469555
0.486318
0.513682
-0.768897
-0.114887
-0.451234
-0.179619
-1.24411
-0.735521
0.400554
0.599446
-0.135141
0.128533
-0.862284
-0.0827101
-0.584211
-0.168791
-0.260225
0.429015
0.044924
0.00105364
0.105409
0.0688834
-0.129899
-0.100397
0.75363
-0.634966
0.719152
-0.652209
0.00480455
0.611108
-0.111616
-0.499491
-0.74891
-0.202746
0.951656
-0.256558
0.245036
-0.0250433
0.057192
0.0826364
-0.0283919
0.671485
-0.121705
0.138982
0.107147
-0.738414
0.0792866
0.613223
-1.42925
0.0958652
0.670142
0.449902
-0.296189
1.03435
-0.0126718
0.118312
0.328952
0.0210742
0.0400007
-0.101763
-0.244864
0.858087
-0.947803
0.503634
0.444169
0.852356
-0.031004
0.0122544
0.0187496
0.121991
0.0293841
0.00093885
0.231704
-0.11389
-0.565827
-0.617577
-0.293625
-0.654178
0.0116813
0.305429
0.392018
-0.948188
0.971832
-0.0236438
-0.776284
0.843376
-0.0670916
0.880195
-0.347206
-0.0805483
-0.0556104
0.18733
-0.446301
-0.0946648
0.285442
0.473755
0.200515
-0.67427
0.427419
0.0541715
0.642921
-0.575623
0.54756
0.0280628
1.02338
-1.3867
0.00578668
-0.013097
0.0073103
0.69075
-0.00932531
-0.0842363
0.0207956
0.745956
-0.260141
1.14034
0.0320222
-0.362979
0.141973
-0.148434
0.189875
-0.0414415
0.0103689
0.00752629
1.91441
-0.921027
0.172042
0.235711
-0.027354
-0.10522
0.211429
0.103804
0.00401419
0.170892
0.771318
-1.0869
0.325534
0.761363
0.971887
-0.808617
-0.163271
0.64063
0.128541
0.0237615
0.0559334
-0.0796949
-0.223626
-0.367617
-0.001003
0.00816148
0.728382
0.700638
-0.230755
0.845842
0.167011
0.823942
0.152792
0.217978
-0.851057
0.118319
-0.275217
0.941708
-0.180946
0.684074
0.087244
0.0129492
-0.207542
-0.139664
-0.284468
0.159142
0.041599
-0.116264
0.422167
-0.0566514
0.919885
-0.0782185
0.16942
0.66676
0.305127
-0.164963
-0.21894
-0.0701952
-0.111322
-0.0383255
6.36432e-05
0.0382619
-1.21288
-0.17382
-0.0207809
0.77083
-0.233675
-0.61291
0.621979
-0.00906861
-0.00691784
0.76336
-0.355357
-0.144135
0.0802415
-0.170127
0.62256
0.140801
0.526027
0.772307
-0.23888
0.705619
0.559632
0.298454
-0.620971
0.349782
0.271189
-1.00953
-0.0719838
0.0443187
0.0572525
-0.0450786
0.98236
0.735544
0.0883976
0.604749
0.229766
-0.860112
-0.0807006
-0.666652
0.678738
-0.0194283
-0.61602
0.447229
0.8836
0.676731
0.123751
-0.128064
-0.184083
-0.311517
1.32927
0.0436541
-0.364447
-0.00284141
0.506947
-0.208493
1.13195
-0.604821
-0.0735169
0.362812
-0.752397
0.937545
-0.185147
-0.412802
-0.208169
0.0216333
-0.159397
-0.0341721
0.712671
0.00361017
0.00393418
0.6295
0.578485
0.0916576
0.594021
-0.133784
0.256014
0.650041
0.283525
-0.933566
0.277478
-0.922842
-0.153883
-1.25627
-0.190658
0.783729
-0.593071
-0.657743
-0.047504
0.104696
-0.0546091
-1.12858
0.0361509
-0.0516395
0.226948
-0.330571
-0.0240458
0.354617
0.0538535
-0.582675
0.356119
-0.237807
-0.609373
-0.0137885
0.00376198
0.775888
-0.0535249
-0.578631
0.00300786
0.565744
0.317857
0.749681
1.0359
-0.261478
-0.380055
0.641533
-0.127283
-0.61776
0.61776
-0.126402
-0.89437
1.02077
0.0296466
-0.145295
0.69483
-0.129087
-0.229124
-0.328478
-0.115421
0.523941
0.118411
0.320179
0.16274
-0.108534
-0.889775
0.486461
0.0610986
0.0420722
0.0234079
-0.710261
-0.458404
-0.239134
0.693522
0.306478
-0.458404
0.693522
-1.57147
-0.725047
-1.57147
-0.696431
0.696431
0.303569
-0.0149913
0.303895
-0.075247
0.250329
0.0497022
-0.472867
0.64489
-0.0508694
0.67428
-0.504173
-0.170108
-0.0677017
0.0705161
-0.00281443
-0.0144984
0.0102543
1.10142
0.0198665
0.0801696
-0.437092
-0.335593
0.112358
0.0525005
0.844962
-0.287656
0.346335
-0.132602
-0.035872
-0.0268414
-0.0187302
0.670687
0.0576958
0.291357
0.00490183
0.00323565
-0.0363394
0.0863185
0.578134
-0.474507
-0.103627
1.24117
0.536799
-0.344024
0.844647
0.0110136
-0.0606589
0.101142
0.0771445
0.211552
1.04507
-0.395028
-0.0147498
-0.012209
1.01479
0.597684
0.0240094
-0.0240094
0.01805
-0.01805
0.030833
-0.030833
-0.0121009
0.366013
0.453263
-0.164442
-0.754652
0.501254
0.20056
0.0311433
-0.0821575
-0.488432
1.00499
0.109894
-0.796854
-0.577813
0.828818
0.265406
0.0172143
0.00241258
0.00984152
-0.00984152
0.560838
0.0119243
-0.0119243
0.702497
0.0785038
-0.00144087
0.0063427
0.00700443
-0.0719439
-0.0233298
0.0233298
0.0138894
-0.0138894
-0.0214313
0.0214313
0.0126276
-0.0126276
0.205508
-0.291848
-0.0878139
0.222847
0.0164607
-0.0164607
-0.369965
0.526966
-0.157001
0.528379
-0.233074
0.379339
-0.033004
0.564862
-0.398269
0.06197
0.560009
0.568849
0.0221072
-0.0221072
0.210809
0.0235343
-0.0235343
0.021004
-0.021004
0.732657
-0.568694
0.0445639
1.02227
-0.424667
-0.0184411
0.0184411
-0.018264
0.018264
0.0179044
-0.0179044
0.0243178
-0.0243178
-0.0226606
0.0226606
0.0341613
-0.0341613
0.470197
-0.0308536
0.0308536
0.0175023
-0.0175023
0.0234248
-0.0234248
0.00629686
-0.00629686
-0.0199503
0.0199503
0.142371
-0.0236328
0.0236328
0.824632
-0.00534728
-0.0384211
0.0384211
-0.00658639
0.00658639
-0.0415992
0.0415992
0.0325516
-0.0325516
0.0266383
-0.0266383
-0.0185047
0.0185047
0.00204107
-0.00204107
-1.11044
-0.11767
0.0112679
-0.0112679
0.0144069
-0.0144069
-0.0372336
0.0372336
-0.0290631
0.0290631
0.0013294
-0.0013294
-0.366329
0.64964
0.281003
-0.0314111
0.0314111
0.0380957
0.0227704
-0.0227704
0.0115406
-0.0115406
0.0388433
-0.0388433
-0.115668
0.333646
-0.00351522
0.00351522
-0.0243804
0.0243804
-0.516181
0.0475985
-0.697145
-0.0325452
0.0325452
-0.458607
0.0367478
0.020201
0.22823
-0.364923
-0.0360043
0.0360043
-0.187219
0.130567
-0.0433835
0.00880084
-0.00880084
0.0192028
0.0376155
0.258939
-0.327516
-0.301066
0.628581
0.215449
0.00499595
-0.00499595
-0.398262
0.60209
-0.203828
0.796349
-0.417274
-0.379075
-0.437659
-0.664
0.176137
-0.308739
-0.097428
0.147496
-0.570916
-0.0534346
0.190733
-0.207068
0.0127039
-0.0127039
0.00511592
-0.00511592
0.0302226
-0.0302226
0.027415
-0.027415
-0.0031551
0.0031551
0.00274534
-0.00274534
-0.532682
0.158894
0.192813
-0.320797
0.00287174
-0.00287174
-0.0472816
0.0472816
-0.0395994
0.0395994
0.27336
-0.308915
0.0355557
-0.0182356
0.336252
-0.569927
-0.00213686
0.00213686
0.0571603
-0.0571603
-0.0784044
-0.353173
0.52931
0.00169195
-0.00169195
0.128501
0.010039
1.06873
-0.482144
-0.0633849
0.545529
-0.644615
-0.579016
0.270485
-0.0406308
0.0406308
-0.689431
0.293268
0.049167
-0.049167
-0.624394
0.349697
0.280082
0.126406
-0.00362106
0.00362106
-0.776603
-0.0028878
0.0028878
0.300273
0.412473
0.056984
-0.0533636
0.0533636
0.000103193
-0.000103193
-0.0416704
0.0416704
-0.0567898
0.0567898
-0.00336823
0.00336823
-0.062872
0.062872
-0.00357919
0.00357919
-0.045021
0.045021
-0.0118566
-0.0478807
0.0478807
0.00305081
-0.00305081
0.0476244
-0.0476244
-0.00378213
0.00378213
0.0499151
-0.0499151
0.269867
-0.00483649
0.00483649
-0.00575189
0.00575189
-0.0523796
0.0883372
-0.0115062
0.0115062
0.0045068
-0.0045068
-0.0594992
0.0594992
0.302389
-0.0185962
0.0185962
-0.0609833
0.0609833
-0.00707968
0.00707968
-0.0678723
0.0678723
-0.0136741
0.0136741
-0.0820057
0.0820057
-0.02172
0.02172
-0.100566
0.100566
-0.67737
0.0270198
-0.51322
0.504152
-0.772139
0.37683
-0.594229
0.413283
-0.176742
-0.317631
0.00334785
-0.00334785
-0.075929
-0.744789
0.0373719
-0.0139641
-0.41493
0.89797
0.41556
0.268154
0.0150798
0.0792345
-0.416501
-0.560549
0.106398
0.387579
-0.825934
-0.012937
0.012937
-0.788945
0.0233886
-0.0233886
0.000747329
-0.000747329
0.33929
-0.239393
-0.00226063
0.00226063
0.0196339
0.0152372
0.5963
0.414602
-0.002244
-0.00943406
-0.00585298
-0.0804154
0.472806
-0.392391
0.257761
-0.283674
0.0209946
0.870844
0.0422591
0.0691771
-0.40475
0.420817
-0.468135
-1.0285
-0.280827
-0.0647471
0.0171437
-0.591687
-0.0743815
-0.000247666
-0.000233087
0.025541
0.758333
-0.576282
-0.0273416
0.0689407
-0.0315508
0.0210101
0.282885
0.435616
0.225532
-0.176365
0.225702
0.0579296
-0.0169057
-0.840128
-0.0145378
0.341355
-0.365401
-0.0196944
-1.201
-0.0710483
0.256694
-0.347353
0.372264
-0.0449102
-0.702991
0.0692294
-0.243786
0.0704614
-0.336636
0.476952
0.0693069
-0.207827
0.13852
-0.0262839
0.0262839
0.126963
-0.422562
0.196231
0.0425207
-0.0700154
0.0505871
-0.0713395
-0.00881023
0.0801498
-0.0288738
-0.15212
-0.089619
-0.23863
-0.297719
-0.376818
0.674538
0.0114666
0.0537451
0.155545
-0.0165635
0.086235
0.0552861
-0.145243
0.295199
-0.0156901
0.0344397
-0.0388147
0.19436
0.00641347
0.248169
0.000367732
-0.000367732
0.415944
0.716003
0.0783489
-0.15905
0.0684914
-0.156349
-0.470133
1.54469
-0.106499
0.0674808
-0.530039
0.0168187
-0.242942
0.0734648
-0.652086
0.264613
-0.0601948
0.398489
-0.696209
0.217989
0.539498
-0.093537
0.093537
-0.00107576
-0.981298
1.33956
-0.358265
-0.199392
0.144783
0.296887
-0.0104027
-1.00227
-0.189142
0.0149214
-0.0254835
0.930188
0.288912
-0.165161
-0.0688244
0.396512
-1.47603
-0.0561161
-0.288895
0.842255
0.605943
-0.269691
-0.319838
0.625267
0.116227
0.441428
-0.273089
0.0507533
-0.4769
0.319899
0.13171
-0.13171
0.174479
0.0409945
-0.215474
-0.00225941
-0.00380516
0.0262031
-0.0984829
-0.125143
0.245571
-0.188671
-0.0568995
0.565231
-0.978544
0.177424
-0.281085
0.705436
-0.136388
-0.184409
-0.0557265
-0.0787313
-0.468226
0.0311333
-0.272706
0.000703312
-0.0196944
0.365546
-0.00558283
-0.0107663
0.00383316
0.0180995
-0.00777406
-0.0103255
-0.112364
-0.0231449
-0.164581
0.187726
-0.144911
-0.331989
0.0196339
0.344678
-0.00806262
-0.354719
0.0714569
0.00210306
-0.11493
-0.0495123
-0.0101543
0.0101543
-0.000370951
-0.00437461
-0.00978024
0.00454322
-0.139335
0.000987973
-0.00122938
0.256296
-0.300982
-0.000834943
0.000834943
0.0144139
0.530128
-0.00262147
-0.307423
0.633888
1.10001
-0.481547
0.355492
-0.437001
-0.0457019
0.241933
0.25204
-0.24771
-0.0493387
-0.0367866
0.00839467
0.0160107
-0.188292
-0.403995
0.905249
0.0139635
-0.546646
0.265426
-0.00160976
0.241501
0.000315509
-0.00450637
-0.00479218
-0.0319944
-0.563847
0.00118748
6.25587e-05
0.691915
-0.636629
-0.242361
-0.457671
0.826238
-0.00286633
-0.00147415
-0.0433835
-0.00590692
0.817251
-0.4323
0.493398
-0.418753
0.905924
-1.46057
0.608849
-0.195566
0.676427
-0.00130091
0.00312387
0.0140905
-0.0832725
0.140222
-0.282035
0.00998048
0.00741161
0.0585488
-0.0414693
-0.0170795
-0.00148073
0.0888683
-0.150139
0.061271
-0.107322
0.00399716
0.000938137
0.00221587
0.467061
-0.415481
-0.015561
-0.000807455
0.803403
0.53616
0.408943
-0.0057817
-0.00368491
0.233011
-0.0609691
-0.0324367
-0.138708
-0.0236514
-0.00359509
0.102895
-0.0288426
-0.000620776
0.432483
-0.00129374
0.0137126
-0.0137126
-0.0064153
-0.00301876
-0.000283359
-0.324242
-0.00362324
0.0696458
-0.107149
0.0766211
-0.0147149
-0.0655488
-0.000734873
0.000915394
0.486245
-0.000465962
0.00548198
0.0161513
-0.00207101
-0.00096167
-0.259494
0.123646
-0.710102
0.493013
-0.897008
-0.427555
-0.00158875
-0.727118
-0.0867992
-0.28254
0.616354
-0.016159
0.282927
-0.00419658
-0.0015426
-0.54863
-0.00335061
-0.000210958
0.0128204
1.01747
-0.590047
-0.00260346
-0.000202941
-0.00613557
-0.00105436
0.0882037
-0.0231762
0.0231762
0.0333485
-0.0377231
-0.00257288
-0.00837309
-0.0704868
0.0597206
-0.152186
0.0802023
-0.0065944
-0.0141334
0.0486214
-0.01416
0.0576025
-0.0404588
-0.625697
0.561944
-0.0199652
-0.00115895
0.377202
-0.207782
-0.0772305
-0.711747
-0.0872773
-0.133196
-0.0909309
0.0888599
0.657697
-0.00111505
-0.0101278
0.00865365
-0.00173309
0.0470869
-0.148684
0.101597
-0.0736824
-0.614658
0.899771
-0.540507
0.0192089
0.0122022
0.0058761