/*--------------------------------*- C++ -*----------------------------------*\
| =========                 |                                                 |
| \\      /  F ield         | OpenFOAM: The Open Source CFD Toolbox           |
|  \\    /   O peration     | Version:  2306                                  |
|   \\  /    A nd           | Website:  www.openfoam.com                      |
|    \\/     M anipulation  |                                                 |
\*---------------------------------------------------------------------------*/
FoamFile
{
    version     2.0;
    format      ascii;
    arch        "LSB;label=32;scalar=64";
    class       volScalarField;
    location    "40.8";
    object      p;
}
// * * * * * * * * * * * * * * * * * * * * * * * * * * * * * * * * * * * * * //

dimensions      [0 2 -2 0 0 0 0];

internalField   nonuniform List<scalar> 
2186
(
1.18957
0.12292
0.419848
1.51052
-1.1005
0.0989708
1.11924
-0.459296
-0.274685
1.7511
1.36227
-0.469221
-0.464722
1.40684
-0.0901341
1.40726
1.43429
-1.17438
-0.0217662
-0.772287
1.782
-0.733187
1.41521
-0.551912
1.40678
1.48439
1.6292
1.34279
0.878712
1.40722
-0.744553
1.4072
-0.700346
0.243574
-0.491255
0.345548
0.152789
1.76074
-0.60541
-0.0176662
-0.468905
-0.700518
-0.210631
-0.872603
1.24678
1.73009
0.798716
0.959063
-0.525729
-0.909578
-0.754835
1.19832
-0.191401
1.6795
-0.726048
1.39126
-0.264418
1.41929
-0.700688
1.22235
0.037579
0.953537
0.845277
0.0543863
0.881014
0.902624
0.963483
1.68232
1.57921
-0.211804
-0.456991
-0.174606
1.66642
1.4347
1.55411
1.60052
-0.373249
1.42847
-0.497245
-0.66163
-1.23552
0.179624
1.40213
0.929721
1.39657
1.40351
1.67006
-0.0473678
0.845334
-0.498227
1.38902
-0.775067
1.33478
1.58298
1.41607
0.693817
0.299332
0.90889
-1.00693
1.432
-1.62103
-1.524
0.975265
1.34625
1.43621
-0.7381
1.54457
0.0429193
1.36427
-1.03035
-0.621046
-0.892448
0.986914
1.6609
-0.344163
-0.615199
0.12558
-0.508437
-0.498236
1.67351
0.191519
-0.977468
1.15707
-1.34719
1.41287
0.0306918
-0.990992
1.58661
-1.21801
1.10071
1.82795
1.68686
0.686979
1.09223
-1.35831
-0.887333
1.36184
-0.111022
-0.295029
-0.460806
1.09558
0.257339
-0.45737
1.1425
1.32503
1.35934
0.0215394
-1.09972
1.04838
-0.832298
-0.872736
1.02101
1.43165
1.62685
1.48253
0.970345
1.65589
0.751496
0.642337
0.867487
-0.464301
-0.482201
1.37564
1.42129
-0.266507
0.0394964
-0.435659
-0.506989
0.80427
0.669528
0.631181
1.43523
1.43492
1.55344
0.694498
-0.0602891
-1.13636
1.37801
-0.727034
1.18325
-0.480523
1.42083
-0.765354
0.83408
0.803243
-1.10105
-0.84584
1.46027
-0.296253
-0.493286
-0.960948
1.64888
-1.1822
1.40478
-0.46575
-1.22065
0.303794
1.56859
1.3929
-0.742663
-0.460192
-0.839368
0.536133
1.43909
-0.48075
-0.996505
-0.512584
-0.231218
1.33817
-0.474017
0.960337
0.739725
1.65415
1.12824
1.22956
1.38792
1.51821
1.40949
1.33834
1.44741
0.834157
-0.655015
-0.73338
0.335907
0.641488
-1.16286
-1.02268
1.36077
1.55418
-0.593277
-0.415135
-1.77485
0.819255
1.0917
1.19843
1.34087
1.56809
-1.55663
1.31961
-0.455184
-0.966925
-0.656624
1.31934
1.02283
1.484
1.58693
1.44332
1.41511
-0.456254
1.26969
1.49226
-0.459769
1.30357
1.07351
-2.00552
-0.480209
-0.506864
1.48293
1.4311
-0.479473
0.150856
0.477358
1.40087
-1.41302
1.06928
1.41605
1.27664
-0.458158
-0.760976
1.38871
0.962352
0.129653
-0.260798
1.70825
-0.978385
-0.45699
1.2567
1.63259
1.39861
-1.06001
-0.30884
-0.126063
1.27375
-0.464786
0.991838
1.38396
1.45055
0.27135
0.186244
1.35984
-0.470255
1.35875
1.6446
1.42709
1.4244
0.296172
-0.826142
-0.565133
-0.0493014
-0.896367
-1.1091
0.829852
-0.0738277
0.890871
1.62091
1.5386
1.27015
-0.0569156
1.52913
-0.454243
0.816723
-0.479537
-0.465292
-0.521352
0.799028
-0.861324
-0.827419
0.397905
1.29381
-0.224795
0.64084
-0.842782
0.686875
-0.550573
-0.90461
1.61805
0.197728
-0.39579
-0.759028
1.23459
0.882896
-0.181714
0.967601
-0.567147
-0.502491
0.948053
1.43479
1.40312
-1.05019
1.55214
1.33517
0.645276
1.69616
1.40202
1.35005
0.824851
0.219132
-0.458038
1.20087
-0.856271
-0.533418
-0.454983
-0.738461
-0.507361
1.70724
0.360643
-0.761659
-0.459569
1.40194
-1.17844
-1.20693
-0.799069
1.20588
0.513642
-0.542557
1.63691
1.69676
1.57684
-0.456233
-0.565423
1.71649
1.4073
-1.00931
0.736309
-0.453767
0.624304
1.55508
1.33083
1.29348
1.73584
0.0177625
0.102294
-0.0891739
0.187121
-0.195666
-0.707745
0.30222
1.64259
-1.20729
-0.0676367
1.39205
1.03025
-0.475252
-1.67833
-0.45486
-1.05324
-0.507629
-0.471397
-0.730967
-1.01363
1.60947
0.525114
-0.606529
1.42282
-0.460019
1.71442
-0.807938
-1.63157
-0.802453
1.40565
-0.485991
1.42964
1.29293
0.132424
1.46525
-0.952139
-0.479886
-0.46487
1.45999
1.35328
-0.472424
-0.456609
-0.493037
1.32534
-0.497425
0.241243
0.783225
1.32202
1.29793
1.13241
-0.467209
-0.325088
1.19835
0.119508
1.22665
-0.0212571
1.42828
0.184822
1.57506
-0.495794
1.29875
1.04783
1.4366
-0.456684
1.39698
0.159552
-0.480327
1.40878
-1.58339
0.402977
-0.73339
0.108654
1.40969
0.6016
0.739746
1.40503
0.492289
0.414109
0.128042
-0.75961
0.719633
-0.484363
1.0295
-0.572886
1.39976
1.58611
-0.45789
-0.468275
0.230137
-0.733344
0.716115
-0.572191
1.14063
0.488067
-0.473397
1.47398
0.535026
0.632835
0.749453
0.446941
1.10018
0.601459
-0.105362
-0.0439451
0.721031
-0.675578
1.42236
-0.229714
1.52724
1.67582
1.6588
0.958086
1.49791
-1.03404
-0.646635
1.31014
0.671757
1.39351
-0.717418
-0.481264
-0.788008
1.21569
-0.473539
-0.0444779
-0.765282
-0.811313
0.0556947
0.13996
1.05661
1.05704
-0.320132
0.111609
1.1968
0.531589
1.46701
0.293865
0.0277549
-0.471494
1.06107
-0.154285
1.62571
1.72975
-1.12439
-1.02504
-0.37333
0.573584
-1.63379
1.48897
0.126369
1.44362
1.1142
-0.557815
1.23359
1.19649
-1.74804
1.29103
-0.177318
-0.787898
-0.531392
-0.457864
-0.220155
-1.37634
-0.396084
1.40927
0.47066
-0.941367
1.03872
1.5555
1.66335
0.129916
1.17841
0.671801
1.22449
0.155316
-0.808167
-0.81239
0.782371
1.14763
1.41675
0.383221
-0.464908
-0.180079
-0.502259
0.345019
1.17542
0.205297
0.368374
-0.613978
1.27913
-0.495564
1.35018
0.00336634
0.126867
1.36082
1.09515
-1.52619
0.0416296
1.36206
1.74248
1.43045
-0.371483
-1.19542
1.23628
0.0508915
1.22248
-0.398498
0.722006
1.35892
-0.506031
-0.761388
1.37534
-0.407979
1.59064
0.0931112
1.32556
-0.168976
1.06537
-0.49764
1.65585
-0.771074
-1.34326
1.2822
0.808216
0.811362
-0.505002
-0.752463
0.129284
1.14196
0.831289
-0.385098
-0.201319
1.4233
0.681461
-1.03309
1.08528
1.22736
1.38438
0.407971
-0.642578
-0.784517
1.42181
1.5188
0.942141
1.41804
-0.274503
1.48538
-0.341206
0.0145386
0.0288204
1.33544
1.37895
-0.591249
1.16184
-0.777398
1.15408
-1.07486
1.32935
1.38172
1.42361
0.187893
1.26886
-1.30727
-0.464354
1.58171
-1.17681
0.174082
1.4884
-0.0457283
1.44627
-1.66637
-0.797136
1.37262
1.2246
1.80597
1.40688
-1.32956
1.53555
1.4536
0.475757
0.928207
-0.199994
-0.462557
1.89609
-0.456803
1.49094
-0.897163
0.754875
1.40765
-0.560543
1.39058
0.341642
1.24812
1.36028
1.42338
0.520861
-0.51521
-0.140893
1.01943
1.09359
1.49307
0.0483712
1.14352
0.162741
-0.123511
-1.08049
1.27212
1.59887
-0.861266
-0.455226
0.561676
1.62782
0.758419
1.04214
0.408745
-1.8103
-0.452622
-0.747385
-0.259125
1.16615
-1.47095
-0.54249
-0.108528
0.0269529
-0.785811
-0.468872
0.0478279
1.36936
1.4267
-0.526226
0.232447
1.38508
1.34748
1.42713
-1.50736
1.3823
1.47732
1.40581
1.5117
-1.3052
0.0167203
-0.764273
0.915183
1.41089
1.15407
0.610743
-0.208208
-0.403826
0.190261
1.71198
0.0538153
-0.205162
-0.0698239
0.297919
-0.462966
1.11436
-0.548766
-0.422255
-0.481039
1.40479
1.40939
1.41574
0.300247
0.620504
1.69407
-0.285378
1.4067
-0.125455
0.249062
1.08301
1.42566
1.42487
0.306149
1.37707
1.3755
-0.58881
0.317274
1.41639
1.42939
1.42713
-0.467519
-0.54882
1.42746
1.05762
1.4101
0.458664
0.0788718
0.0445473
0.457357
0.0614338
-0.757233
0.197296
0.504588
1.43244
1.43673
1.11386
-0.514712
1.40437
-0.267041
0.581761
0.192955
1.40879
1.43246
1.42821
1.43967
1.41599
1.40871
1.39833
0.727675
0.765302
0.256132
0.339608
-0.0203597
-0.142851
0.075854
0.134513
-0.189244
-0.0773894
0.270099
1.40363
1.42288
1.41778
1.43975
1.43685
1.42838
1.43104
1.41277
1.41351
-0.140406
0.535462
1.42855
1.42809
0.0845147
1.43056
1.42841
0.414416
-0.0197835
-0.251857
-1.19224
-0.287905
1.41052
-0.467665
1.40813
1.06821
1.52239
-0.458254
1.40905
1.33883
1.36066
-0.759926
0.249605
-0.512169
0.147957
0.184488
-0.746967
1.42255
-0.0462125
1.49793
1.41358
0.0299478
1.51508
1.6663
0.816523
1.25151
1.11339
1.40561
1.42381
1.41838
-0.460084
0.769334
0.142753
1.41299
1.4237
-0.573961
-0.00356652
1.41419
0.219224
-0.151035
1.41421
0.166594
1.38997
1.42612
-0.0193748
1.42087
-0.342338
1.41048
1.46908
-1.21614
1.42749
1.43478
0.100095
1.03227
1.41306
1.41621
0.408445
-0.635343
1.16843
1.80504
1.42238
1.41488
1.41822
0.0221863
1.41419
1.40284
1.41909
1.41377
1.41605
1.41379
1.50698
-0.528798
0.0831625
1.41603
1.40865
0.577097
0.192983
0.246608
-0.513772
1.26278
0.0855276
-0.580132
0.124699
1.41066
1.17084
0.0385995
-0.759372
0.503353
-0.211222
-0.729363
-0.0228539
-0.774896
-1.09132
-0.152465
1.41933
0.141861
1.40613
1.31743
-0.468675
1.59874
-0.648375
-0.865743
1.18047
1.47451
0.738697
-0.488417
1.40741
-0.353875
1.41685
-0.673594
1.4175
-0.411781
1.40801
-0.289054
-0.0472899
1.41923
1.43304
1.33774
-0.687067
-0.499571
-0.62453
-0.819564
1.43281
1.29884
-0.416169
1.40762
1.44994
1.3996
-0.773483
-1.51601
-0.171734
-2.00931
0.793624
1.41398
0.104563
1.41311
-1.87419
1.40959
1.44837
1.42109
-0.00834558
0.0239486
1.44805
-0.461278
1.42327
1.42546
0.481053
-0.458789
1.27826
1.51028
1.40608
1.40108
-1.02288
-1.05781
1.38572
0.869179
1.42148
1.29395
-1.08441
-0.455602
1.23658
1.67462
1.40906
0.799294
-0.706886
-0.623411
-1.52582
-0.768114
1.39977
-0.421612
1.39238
-1.23005
-0.46192
-1.04943
0.775837
-0.463585
-0.955372
-0.719308
1.40704
-0.491684
1.24934
-0.454189
0.291873
-1.05428
0.190048
-0.762902
1.37703
-0.639177
-0.460767
-0.749594
-0.818936
1.40158
-0.794982
0.0728262
-1.92321
1.4582
-0.866412
-0.457214
1.47739
1.40037
1.39271
0.935295
-0.448742
1.41315
1.43563
0.139568
-0.880218
1.4069
1.24726
1.61705
1.42695
-0.0903106
-0.535818
-0.849952
-0.656189
-1.0502
-0.477941
0.296431
-0.468175
1.25048
0.442361
1.41957
1.5966
1.40454
-0.498727
-0.458387
1.40853
-0.380438
-0.167891
1.39181
0.319946
-1.1617
-1.87283
-0.909402
1.34973
1.3205
-0.0706512
1.26072
1.01166
-1.03013
1.39731
-0.440578
1.19715
-0.711448
1.41452
-1.14201
0.875984
1.40972
1.44025
-1.73456
-1.23383
1.21832
1.77395
1.42993
1.36774
-0.706564
1.70515
-0.462496
-0.2356
-0.34742
0.927332
-1.61265
1.51695
1.60597
-0.453477
0.215031
1.40466
-0.519339
1.28961
1.43924
1.36617
-1.49213
1.40951
-0.195006
1.43888
0.152165
-1.10557
0.0815498
1.41262
0.681112
-0.296848
-1.13582
1.42212
-1.09921
1.55205
0.722539
1.67813
1.33157
-0.682635
1.39426
-0.796874
1.37613
1.37967
-0.0868364
-1.08763
1.48469
1.39624
1.57701
1.3591
0.551189
1.35938
1.40133
1.24846
1.41573
-0.496259
-1.05239
-0.776252
1.51936
0.341612
-0.274181
-0.777833
0.274446
-1.20872
0.0909917
1.20849
-1.24213
1.37088
1.42806
-0.898028
-0.180319
-0.645627
0.0586091
-0.834925
-0.812153
1.41146
-1.56042
1.42561
1.67994
1.46582
0.0631858
1.43309
1.33601
0.310411
1.3787
1.39062
-1.02933
1.38978
1.29184
0.322091
-0.568264
1.88024
-0.944906
-0.992364
-0.4763
0.697322
1.39157
-1.14223
-0.335522
-0.745544
1.53747
-0.39147
1.2001
1.41963
1.39867
0.202378
1.38686
-1.76799
1.42219
1.43727
-0.17812
1.42798
0.816643
1.40426
1.15428
-1.96942
0.0970825
0.23006
0.224099
1.61709
-0.00574451
1.43353
1.7666
-0.0307321
0.0530691
1.4774
0.11062
1.47472
0.0523281
0.092842
1.47247
1.47731
0.884333
-0.40309
1.10517
-0.671055
-0.825202
-0.536442
1.43104
1.41312
1.87627
-0.490488
-0.161696
1.1961
-0.542338
1.4759
1.36826
1.40747
1.40006
1.37178
-0.868541
-0.477347
-0.548356
1.19043
1.3228
-2.06754
-0.840399
-0.459297
1.42697
1.44824
0.278303
-1.48188
1.44558
-0.291698
0.540835
1.11254
1.27022
-0.10073
-0.49757
0.0472454
-0.525247
-0.692609
0.228788
-0.639226
1.83812
1.70567
-1.24067
-0.571714
1.4268
1.40301
-1.08082
0.416455
0.108395
0.990785
1.50147
-0.10606
1.41708
0.156017
-0.481509
-0.734741
-1.05015
-0.852786
1.3994
-0.527217
0.0252522
1.72867
-0.497442
1.41893
1.60127
-0.848671
1.50399
1.71629
-1.08414
1.59176
-0.479768
-0.475475
1.40481
-1.10714
1.47184
1.42113
-0.468037
1.47666
0.61068
-0.834459
1.45083
1.49134
-0.434025
-0.583619
1.34724
1.4112
-0.453428
-2.02286
1.62991
-0.460347
1.31013
-0.28718
1.3631
-0.504366
-0.356773
-0.452041
-1.1274
1.44539
1.45067
1.75509
1.55768
1.33041
1.46955
1.41926
-0.454262
1.48647
1.60463
-0.959926
-0.455954
-1.01912
1.66931
-0.523665
-0.466893
-0.257432
1.28935
-1.00341
-1.31156
1.37495
1.48062
-0.451255
-0.864203
-0.46578
0.0866
-2.08864
-1.04515
-0.457885
1.24045
1.35319
-0.80841
-0.240885
-0.392876
1.18887
-0.461956
-1.18106
-0.460462
1.40406
-0.420456
-0.890516
1.79587
1.31732
0.861094
1.65725
-0.649888
1.44075
1.42107
1.54095
1.67135
-0.603847
1.02268
1.3695
0.729447
-0.464444
1.81942
1.38284
1.34142
1.48306
-0.922185
-0.187864
1.28575
1.17825
1.38148
-0.609269
-1.5523
1.40143
-0.465059
1.25699
-0.853881
1.75625
-0.46954
1.08017
1.1998
-0.775441
-0.474615
-1.02614
1.50833
-0.784459
-0.489243
1.15939
0.955358
-0.798344
1.47494
1.27803
-0.794914
-1.50093
1.35694
-0.359297
-0.480959
-0.462281
-0.74507
0.0601743
1.38016
1.42718
-1.06099
1.08145
1.41907
1.72965
0.740345
0.600579
0.321651
1.33638
0.0271395
-0.768335
-0.147172
-0.392457
-0.762567
1.4017
-0.767561
0.479811
-0.485761
0.882346
1.03104
-0.756761
1.09462
0.315084
0.959409
-0.752235
0.801573
-0.768516
0.857409
-0.495409
0.710443
-0.748843
1.27658
-0.510804
-0.749619
-0.758007
-0.484141
1.42818
0.557074
-0.790238
-0.507425
0.332635
0.447351
-0.761875
-0.47773
-0.836806
0.355438
-0.523145
0.151017
-0.557779
-0.0796145
-0.91992
0.181054
1.28858
0.565947
-0.649345
1.38737
0.23678
0.813324
0.907803
1.388
-1.37565
-1.20369
-0.502197
-0.929335
1.32263
1.78444
0.198038
-0.895119
0.49624
-0.523657
-0.0911396
0.11967
1.37472
-1.1161
1.37216
-0.993343
1.82487
0.916901
1.88249
-0.842692
1.65281
-0.346324
1.45852
0.0657597
-0.499166
1.53832
1.41026
-1.85039
-0.487273
-0.754246
1.36137
-0.725662
1.39628
-0.824364
-0.461627
-0.453392
1.70548
1.43561
1.57142
1.4151
1.42968
-0.9863
0.10063
1.55931
-0.032486
-0.589983
1.7652
-0.811285
1.31637
1.38526
1.78482
1.86606
-0.777981
-0.324381
1.45098
0.694596
0.017242
-0.700722
-0.138187
-0.512745
-0.861276
1.0042
-1.05692
1.66418
0.244539
1.40848
1.52055
1.43016
-1.1675
-0.491692
-0.625063
1.50293
-0.673075
1.5274
-0.560694
-0.882831
1.59306
1.76785
-0.517154
0.383047
1.36343
-0.720403
-1.05785
1.10736
1.6247
1.6561
-1.01649
1.27768
1.20481
-0.498697
1.67307
0.599209
-0.823633
0.107975
0.168795
0.520921
1.48487
-0.791697
0.572255
-0.150328
0.179289
-1.09736
-0.505666
1.39832
-1.67037
1.41736
0.187823
0.555229
1.13311
0.73467
-0.504588
-0.433405
-0.725296
0.0143949
0.30827
-0.976653
1.29228
-0.498446
0.162018
1.40015
-0.551784
-0.96859
1.42684
-0.447432
1.3309
0.262492
-0.465252
0.164842
1.22912
-0.357941
-0.182908
1.32508
-0.460088
1.49061
-0.115766
-0.73907
-0.544451
-0.495236
1.93533
-2.0137
1.56213
0.0414076
1.38095
1.58758
1.16502
1.44862
1.51374
0.144181
-1.10767
1.38736
1.53866
1.80401
-0.508562
1.45216
1.01789
-0.48602
1.23718
1.67412
-0.395795
1.68775
0.451348
-1.29841
1.28672
-0.472325
-0.753068
1.35956
-0.270459
1.47342
1.51773
1.35739
-1.21652
1.28289
1.61008
-1.10282
-0.0633675
-2.08349
-1.10933
-0.67483
-0.482267
1.81865
1.20361
-1.1086
1.36882
-0.463073
-0.740681
1.73719
1.57558
-1.54987
-0.748061
-0.491449
-0.460678
1.39871
-1.06514
0.549272
-0.704944
-0.166904
1.4792
-0.453491
1.73166
1.4539
1.31169
1.42556
1.64895
-0.829559
-0.456704
1.4419
1.58929
-1.29798
1.42265
-1.79934
-0.45201
-0.453478
1.43782
1.46558
-0.450871
-1.06332
1.00088
0.41365
-0.995444
1.38998
1.31223
-0.965891
1.35353
1.39767
-0.357832
-0.979609
-1.15543
-0.454149
-0.452756
1.77026
0.396735
1.2638
-1.02609
1.77552
1.28118
1.21254
1.32554
-0.538523
0.247202
-0.457146
0.856676
-0.876293
1.37691
0.758816
-0.357966
1.24382
1.46323
1.45141
1.41439
0.0233157
1.45374
0.111818
0.870317
1.18597
-0.389611
-0.938132
-0.858427
-0.547939
1.42515
1.4253
1.42477
-0.18434
-0.348235
-0.461476
-0.673107
1.42046
1.64336
1.43403
-0.905202
-0.955633
-0.878536
-0.364353
-0.489041
-0.494311
0.0286541
1.40361
-1.36018
-0.801055
0.381435
0.376408
1.05618
-0.925987
-0.466529
-0.382054
1.32256
1.84029
0.402692
1.5189
1.86038
0.990745
1.58937
-0.988802
-0.52812
1.86095
-0.471573
0.769802
-0.852521
-0.451378
-0.748242
-0.779763
1.4057
1.18827
1.54293
1.50511
-0.0104703
1.2346
0.328714
0.317958
-0.477516
1.52604
1.05812
1.42942
1.44606
0.0492833
0.16592
1.44511
0.202886
-0.50073
-0.789162
-0.760573
1.03667
-0.771485
1.37809
1.12522
-0.473538
1.69579
-0.917658
-0.120857
1.39848
-0.911973
-0.626882
-0.0684655
0.921298
-0.815469
-0.902512
1.25913
1.43766
0.713185
0.530257
-0.223881
-0.483128
0.0402418
-1.12193
0.300558
1.05872
-0.758272
-0.7663
1.61593
0.546096
0.658963
-0.75957
-0.451269
1.41453
1.50385
0.844113
0.993736
-0.754052
-0.541177
-0.281676
0.759869
0.904638
-0.750439
1.23809
0.415121
-0.746687
1.78816
-0.750215
-0.0375318
-0.451462
-0.682079
1.30035
-0.768733
-1.09569
-0.512017
0.471986
-0.810185
0.252833
-1.23714
-0.000704535
1.54622
-0.870713
0.290696
-0.541247
0.0505348
1.68768
1.84924
1.58069
1.42021
1.55684
-0.582855
1.40508
-0.939189
1.49855
-0.503972
-0.480662
1.72556
-0.0116601
0.933741
-1.20513
1.83463
0.226949
1.77329
0.919401
1.14819
-0.832177
-0.875739
-0.498484
-0.864615
1.72382
1.56703
1.40116
1.07108
1.40969
1.32454
1.14757
-0.74392
-0.464501
0.540505
0.0179042
1.11977
1.42163
0.434968
-0.822513
-0.741759
-0.356017
-0.500534
-0.804073
1.80635
1.44055
1.41721
0.0979097
0.114567
1.44125
0.0156569
-0.484949
-0.0196417
-0.501085
1.10939
-0.800363
-0.754864
0.160662
1.40679
-0.346938
-0.452268
1.40868
1.06644
1.14642
1.40627
-0.488912
1.21125
1.61823
1.29317
-0.492976
1.40431
0.818114
0.759492
-0.80054
-0.778917
1.81991
0.722199
-0.870954
0.525037
1.25436
1.35426
-0.561966
-0.655624
0.218959
-0.736396
-0.431029
-1.1187
0.00946035
1.40071
-1.04756
1.39069
1.71222
1.54933
1.38001
1.44833
1.51209
1.41038
-0.836479
-0.19542
-0.227545
-0.588232
-0.314102
-0.753342
1.52764
1.40898
-0.466275
1.38625
-1.17555
-0.654376
-0.750785
-0.438743
0.98506
-0.374848
1.39652
1.24177
-0.987412
0.0603312
1.73976
-0.306488
0.149775
-0.372548
-1.12503
-0.717965
1.45584
1.10942
1.53185
-0.60023
0.0427514
-0.469097
-0.161538
-0.468858
0.235082
-1.151
-0.353198
1.25502
-0.265282
1.90586
-1.01698
-0.0779854
-0.528786
-0.749927
1.35247
-0.534152
-0.640766
-0.43847
0.219661
1.53949
1.66084
-0.295299
0.129614
1.1617
-0.520236
-0.380324
1.53522
-1.02648
-1.25866
-0.901988
1.08301
0.0648117
-0.474675
1.40091
0.294766
-0.809786
1.40941
-1.06096
-1.18674
-1.09874
-0.842609
0.429828
-0.480118
1.66498
-0.469216
0.633972
-0.503111
1.12558
-0.656135
-0.809206
0.963434
1.19303
1.46706
1.37789
1.55512
-0.767596
1.27234
0.997969
-1.10837
1.3176
-0.184888
-0.7022
-0.28034
1.61826
1.6002
-0.678841
-0.892418
-0.709706
1.35443
-1.05544
0.379396
-0.317727
-0.759312
1.6352
1.36875
-0.852377
-1.19771
-0.845945
-0.815117
1.30159
-0.970811
1.33045
0.509717
1.02783
1.17257
-0.729265
-0.932911
1.29032
-0.754912
0.23621
1.68937
-0.460499
-0.807026
1.14591
-1.12956
-1.13878
0.314286
-0.565228
1.77126
-0.130507
0.627111
-0.866188
1.76761
-0.905201
-1.22138
0.958202
-0.310347
-0.502976
1.76567
0.990576
1.46424
-1.12841
1.57463
-0.429641
-0.229615
-1.08796
-1.09117
-0.926059
1.60654
0.884552
-0.455133
-0.893382
-0.488282
1.50188
-1.31805
1.74218
-0.501266
1.08175
-0.788868
0.660849
0.844374
0.807047
0.718303
0.643023
-1.25714
1.36844
-1.06236
-0.548538
-0.352911
0.734179
1.78256
0.21791
-1.14288
-0.942217
-0.795511
0.543101
-1.0045
-0.782888
1.29855
0.652016
-0.831323
1.8465
-0.481419
-1.26191
1.78329
-0.806181
0.415703
-1.21643
-0.751869
-0.775068
1.82056
-0.742159
1.70683
-0.770842
-1.00519
1.54552
0.316225
-1.21449
0.873689
-0.542063
0.266895
0.0949659
-0.783616
1.23706
-0.461988
-0.786962
-0.753962
-0.752468
-0.508882
1.272
0.0732354
0.125001
-0.840006
1.73135
-0.397661
-1.16557
-0.705728
0.297798
-0.89543
-0.732773
-0.824142
0.420628
1.58997
-0.937303
-0.495926
-1.10944
-0.179106
-0.0161068
-0.514394
1.81753
1.74048
0.709052
-0.914832
-0.50488
0.615141
-0.503017
1.81819
0.481021
1.53055
1.01876
1.74488
0.348957
-0.897837
-0.859495
0.179437
-1.06434
0.178209
0.35239
-0.771394
1.72042
0.279697
0.494685
0.191699
-0.48033
-0.9604
)
;

boundaryField
{
    frontback
    {
        type            empty;
    }
    Top
    {
        type            zeroGradient;
    }
    outlet
    {
        type            fixedValue;
        value           uniform 0;
    }
    bottom
    {
        type            zeroGradient;
    }
    Inlet
    {
        type            zeroGradient;
    }
    rectangle
    {
        type            zeroGradient;
    }
}


// ************************************************************************* //
