/*--------------------------------*- C++ -*----------------------------------*\
| =========                 |                                                 |
| \\      /  F ield         | OpenFOAM: The Open Source CFD Toolbox           |
|  \\    /   O peration     | Version:  2306                                  |
|   \\  /    A nd           | Website:  www.openfoam.com                      |
|    \\/     M anipulation  |                                                 |
\*---------------------------------------------------------------------------*/
FoamFile
{
    version     2.0;
    format      ascii;
    arch        "LSB;label=32;scalar=64";
    class       volVectorField;
    location    "21.6";
    object      U;
}
// * * * * * * * * * * * * * * * * * * * * * * * * * * * * * * * * * * * * * //

dimensions      [0 1 -1 0 0 0 0];

internalField   nonuniform List<vector> 
2186
(
(1.31989 -0.0702943 2.50686e-19)
(1.58734 -0.935335 -7.30961e-21)
(1.43944 -0.91155 8.12535e-21)
(0.735697 -0.577246 -1.61113e-19)
(-0.3017 0.388906 -1.76041e-19)
(1.53624 -0.50765 0)
(0.714044 -0.659921 0)
(-0.21224 -0.307104 7.47411e-20)
(1.34555 -0.300753 1.07374e-19)
(0.548278 -0.303042 -2.10806e-21)
(0.688147 0.621273 0)
(0.744242 -0.270172 -7.89623e-20)
(-0.260445 -0.346276 -3.07486e-20)
(1.20221 0.0243865 -3.97466e-19)
(1.76957 -0.693083 -1.82293e-20)
(1.01409 -0.0039583 1.85556e-19)
(0.981182 0.0124951 0)
(-0.492458 -0.185065 0)
(1.51575 -0.2834 0)
(-0.0841782 0.240332 -6.94082e-20)
(0.486964 0.105912 -1.18755e-19)
(-0.152983 0.174636 9.53492e-20)
(1.1895 0.0282504 3.27458e-19)
(-0.193697 0.0095731 5.31072e-21)
(1.03171 0.00818302 -2.5781e-19)
(0.786761 -0.554468 0)
(0.761617 -0.0241642 1.53534e-19)
(0.60442 -0.584183 -1.90984e-19)
(1.22398 0.720026 0)
(0.962812 0.0230127 -3.5163e-19)
(-0.0417001 0.0756268 0)
(1.02308 -0.0106411 1.21844e-20)
(-0.108658 0.141341 0)
(2.74702 0.0685086 2.5437e-19)
(-0.125523 -0.158888 3.2278e-21)
(1.55967 0.777494 7.22464e-20)
(2.04894 0.128247 1.50218e-19)
(0.514506 0.15371 -3.53375e-19)
(1.93099 0.186114 -2.80983e-19)
(1.16827 -0.285332 1.35598e-22)
(-0.30664 -0.381355 0)
(-0.0920844 0.147774 0)
(1.8369 -0.881956 5.30608e-20)
(-0.400713 0.173016 0)
(1.119 0.286242 1.58619e-19)
(0.593927 -0.285621 2.99363e-19)
(0.907839 -0.775399 0)
(1.178 -0.787359 1.36665e-19)
(2.25861 0.031487 0)
(-0.169544 0.340274 1.74476e-19)
(-0.0299671 0.1271 1.02577e-19)
(0.640914 0.591305 8.1645e-20)
(2.03272 -0.779105 4.52849e-20)
(0.600011 0.282552 -2.83576e-19)
(-0.275679 -0.0742116 3.69684e-20)
(0.758213 -0.646246 0)
(1.62122 -0.956769 1.70235e-20)
(0.574867 -0.53562 0)
(2.24908 0.191807 7.9878e-20)
(1.13417 -0.16608 -4.05353e-19)
(2.00502 -0.119418 1.54785e-19)
(1.3682 0.309292 -1.83306e-19)
(1.35535 0.540894 0)
(0.934807 -0.295539 -1.48509e-22)
(1.37235 0.394015 -1.10873e-19)
(1.24148 -0.730454 -1.97015e-19)
(1.18179 0.668313 5.36374e-20)
(0.679257 0.0774116 -5.80242e-19)
(0.822762 0.0620752 0)
(1.95536 -0.304651 -4.02049e-20)
(-0.227266 -0.35854 -8.55556e-20)
(2.26435 0.040326 -1.70022e-19)
(0.724915 -0.0323865 -2.56823e-19)
(0.871686 -0.515453 0)
(0.830065 0.187738 -9.42174e-20)
(0.542607 -0.503482 -3.22084e-19)
(2.45077 -0.0146577 0)
(1.00641 0.0103037 3.83551e-19)
(-0.116263 -0.223506 0)
(2.05565 0.323157 0)
(0.605394 0.006889 7.42416e-20)
(0.97742 -0.336762 3.67683e-21)
(1.02487 0.00619325 4.28301e-20)
(1.33513 0.419752 2.80091e-20)
(0.968072 0.0244389 4.49693e-19)
(1.03906 0.0296137 -1.06447e-20)
(0.671345 0.182699 -3.44107e-19)
(1.44832 -0.358777 2.20746e-21)
(1.20389 -0.280895 0)
(-0.0651602 -0.0339638 5.75582e-20)
(0.857224 -0.619946 -1.83811e-19)
(-0.0903952 0.270796 -4.75342e-22)
(1.1088 -0.0741836 2.69664e-19)
(0.816763 -0.178714 0)
(0.973146 0.0228321 4.28136e-20)
(1.38074 0.647797 0)
(1.60259 -0.9519 0)
(1.31708 0.22673 0)
(-0.257269 0.383641 0)
(0.787191 -0.661749 3.22155e-19)
(-0.309753 0.218592 -1.80733e-19)
(0.372111 -0.0708594 1.191e-19)
(1.57555 0.195128 0)
(1.1438 -0.101022 -2.4652e-19)
(1.11983 0.0234997 1.89886e-19)
(-0.0280119 0.294031 1.23047e-19)
(0.646502 0.515072 0)
(2.21184 -0.232835 -8.45441e-20)
(0.96093 -0.475617 9.03534e-20)
(-1.14742 0.433779 2.62739e-19)
(1.78519 0.272544 1.23658e-19)
(-0.141003 0.434686 -2.63268e-19)
(0.806529 -0.733569 0)
(0.573431 0.357491 1.70957e-19)
(1.5563 -0.295119 -3.04124e-19)
(-0.283913 -0.178206 -3.30898e-19)
(1.27361 0.378787 2.11134e-20)
(1.69361 0.0190731 0)
(-0.0860008 -0.0364867 -1.72572e-19)
(0.707248 -0.0665997 8.15543e-20)
(1.58303 0.886621 0)
(-0.10174 0.208444 -2.37082e-19)
(0.896606 0.771249 -2.75578e-19)
(-0.555034 -0.322633 2.88158e-19)
(1.03107 -0.0230097 0)
(1.59904 0.458745 -2.66067e-20)
(-0.235392 0.432271 0)
(0.694848 -0.491162 -1.15848e-19)
(-0.52894 -0.279613 -1.60207e-19)
(0.780661 -0.712383 0)
(0.430166 -0.266509 4.33957e-19)
(0.536168 -0.45047 2.98745e-19)
(0.404177 -0.365856 0)
(0.975756 -0.777772 -1.53033e-19)
(0.263887 0.0415066 0)
(-0.0602226 0.348341 -1.36741e-19)
(0.805765 -0.69315 1.56531e-19)
(2.41215 -0.32265 1.87106e-19)
(2.21941 0.142559 0)
(-0.0642948 -0.127897 0)
(0.695755 0.646724 -3.42193e-19)
(1.75908 -0.637512 -2.16048e-20)
(-0.121819 -0.161468 0)
(0.97798 -0.802771 -1.63097e-20)
(1.14348 -0.0998051 0)
(1.08459 -0.123156 4.27542e-19)
(2.12218 -0.225912 -6.59645e-20)
(-0.310564 0.356176 0)
(1.21576 -0.55432 -6.5409e-20)
(-0.247764 0.261723 -4.61244e-20)
(-0.159464 0.363957 0)
(1.08694 -0.81042 1.15549e-20)
(1.00594 0.00493035 -6.40658e-19)
(0.647046 -0.474897 -1.13167e-20)
(0.81411 -0.512644 0)
(1.19275 -0.728839 -1.14115e-19)
(0.662867 0.244172 2.65824e-19)
(1.23239 0.127491 0)
(1.50417 0.0736879 -2.48346e-19)
(1.18864 -0.852043 -2.67464e-19)
(-0.0564979 -0.113653 -6.57208e-20)
(-0.121322 -0.513012 -1.24516e-19)
(1.07334 0.00925679 2.38358e-19)
(0.915349 -0.462485 -1.13625e-19)
(1.52356 -0.394278 -2.04356e-21)
(1.38338 -0.301553 -2.88798e-20)
(0.652895 -0.0917975 6.94856e-20)
(-0.204427 -0.0554354 -1.51477e-19)
(1.83655 -0.381146 0)
(2.12737 -0.42666 7.79095e-20)
(1.46248 0.655127 1.35799e-19)
(0.805595 -0.61148 -2.34976e-19)
(0.995553 0.00876291 1.31277e-20)
(0.717113 -0.528012 3.18531e-19)
(1.31795 0.80533 1.2421e-19)
(1.81669 0.0726119 1.47344e-20)
(-0.335927 0.262037 0)
(1.08593 0.0543092 -2.46391e-19)
(-0.398668 -0.612306 -2.09428e-19)
(1.07978 0.496072 8.05284e-20)
(0.0122944 -0.0911611 9.15638e-20)
(1.15869 0.0281591 -4.55852e-20)
(-0.184618 0.138164 -1.67009e-19)
(1.30847 0.586909 -7.66295e-20)
(1.14928 0.894518 0)
(-0.346981 0.179147 -8.889e-20)
(-0.0606544 0.0141486 0)
(0.663313 0.570641 -2.79832e-19)
(2.01047 0.147322 -1.9033e-20)
(-0.313837 -0.326443 1.06661e-19)
(-0.499089 -0.282058 -5.16389e-19)
(0.727298 0.0820126 2.54884e-19)
(1.94319 0.120009 -3.10238e-20)
(0.977375 -0.3451 -3.29658e-20)
(-0.0120823 -0.0244673 0)
(-0.920696 0.320368 4.24971e-19)
(1.34815 0.981368 -1.4467e-20)
(0.844403 0.0811377 -1.39664e-19)
(0.565395 0.530708 1.94655e-19)
(0.503028 0.197137 0)
(-0.160909 -0.414827 -1.39902e-19)
(-0.928263 0.441068 3.09314e-19)
(1.28087 -0.950295 7.30006e-22)
(0.987792 -0.0304614 -2.00118e-19)
(-0.17856 -0.125631 7.10159e-21)
(-0.127624 0.165607 1.48178e-19)
(-0.286085 -0.126015 -1.12853e-19)
(1.85751 -0.123935 0)
(1.13715 0.0440256 -3.30348e-19)
(2.18969 0.134731 1.78213e-19)
(1.26737 -0.621316 1.25861e-19)
(0.699085 -0.0823478 -5.455e-21)
(0.600171 0.337927 0)
(0.952241 0.757692 -1.62846e-20)
(0.69392 0.63865 1.84456e-19)
(0.894285 -0.561692 1.65741e-19)
(0.69282 0.508912 0)
(1.0214 0.00323062 8.5789e-21)
(0.878377 -0.661216 2.36603e-19)
(0.842553 0.428881 -4.62181e-19)
(1.23088 -0.107979 0)
(-0.0746544 -0.053151 -2.31032e-19)
(-0.0101 0.204396 -1.01704e-19)
(1.60812 0.72259 0)
(1.33556 -0.934847 -6.2472e-22)
(-0.384031 -0.0922446 0)
(-0.274826 0.436952 1.11342e-19)
(0.744564 0.661019 -9.83962e-20)
(0.850148 -0.214891 0)
(-0.190299 -0.122724 0)
(1.52637 -0.468187 0)
(-0.895248 0.305544 4.67175e-19)
(1.20159 -0.880224 1.74807e-19)
(1.17081 -0.604375 7.26417e-20)
(1.05787 -0.170802 -1.8682e-19)
(0.874345 -0.69118 -1.87893e-19)
(0.182582 -0.186514 0)
(-0.785502 -0.435799 0)
(0.998687 -0.511625 1.98572e-19)
(-0.103418 -0.1804 0)
(-0.201074 0.321311 0)
(-0.296987 -0.167709 2.84355e-19)
(0.799939 0.678151 8.53782e-20)
(1.02138 0.801135 0)
(0.704178 0.561116 -8.55058e-20)
(0.830773 -0.0384743 -2.32705e-19)
(0.752767 0.569592 -2.28783e-19)
(0.600759 0.559409 -1.67577e-19)
(-0.204556 -0.380541 1.41455e-21)
(0.712595 -0.639819 0)
(0.904246 0.181221 -3.30227e-19)
(-0.277063 -0.411547 3.88729e-20)
(0.613411 0.568926 3.76803e-19)
(0.965569 0.804954 0)
(-1.03599 0.417323 3.27401e-19)
(-0.0975186 -0.363277 1.94326e-19)
(-0.0284364 -0.289456 -9.73963e-20)
(0.672544 0.578246 -1.48447e-20)
(0.96896 -0.00743622 6.18637e-20)
(-0.324589 -0.368685 0)
(2.41514 -0.160824 -2.43747e-19)
(1.87292 -0.354705 -3.13561e-19)
(0.645321 -0.597466 -8.37078e-20)
(-0.525499 -0.264898 8.98659e-21)
(1.20282 0.46675 1.80977e-19)
(0.891288 0.418986 0)
(1.04345 -0.171309 2.10562e-19)
(0.0412134 -0.399321 -6.79833e-21)
(-0.0980967 0.103195 3.87013e-19)
(0.920433 0.019011 -5.58511e-20)
(1.12981 0.147914 0)
(1.99162 -0.0919472 -1.74584e-19)
(1.85539 0.0841169 0)
(0.549587 0.264642 -4.6605e-19)
(-0.13618 0.193791 0)
(-0.205542 -0.330229 1.6743e-19)
(0.688445 0.104649 0)
(0.616352 -0.509189 -1.94983e-19)
(1.13622 0.0184745 2.21224e-19)
(-0.300651 0.301137 3.93824e-20)
(2.06463 -0.058074 6.13146e-21)
(2.0567 -0.320803 -7.47654e-20)
(1.12103 0.234655 -2.22796e-19)
(-0.293677 -0.410076 -7.70981e-20)
(1.06712 -0.846718 0)
(0.810391 0.0161615 -1.60892e-19)
(0.925359 -0.374766 -3.12091e-19)
(1.71458 -0.585207 2.11669e-21)
(1.75106 0.0256595 1.1917e-19)
(1.08747 -0.00395264 3.96218e-19)
(0.0080702 -0.376203 -9.81156e-20)
(0.992841 -0.4368 -1.39812e-19)
(0.192312 -0.184996 2.74294e-19)
(1.00808 -0.00689064 0)
(1.00515 -0.00497675 0)
(0.658948 -0.113524 1.55377e-19)
(-0.00766455 0.375578 -9.48277e-20)
(0.164602 -0.120696 -8.77571e-20)
(2.02232 0.0459824 -3.34268e-21)
(1.01555 0.185577 0)
(1.70222 0.122393 -1.09932e-19)
(0.930832 -0.811308 -1.06051e-19)
(1.76513 -0.573812 -3.42035e-20)
(1.11472 0.843229 0)
(0.466078 -0.447636 0)
(0.61401 0.526976 -1.7802e-19)
(1.10354 0.286341 -4.08023e-19)
(2.27602 -0.316924 2.14344e-22)
(0.865305 0.16528 1.42103e-19)
(-0.0625263 -0.393653 -2.9302e-19)
(1.31234 -0.482132 1.33807e-20)
(-0.238684 -0.418872 0)
(-0.0775624 -0.143838 0)
(-0.386754 -0.317626 0)
(1.32971 -0.724707 -1.22106e-19)
(-0.157974 0.366193 -2.16659e-19)
(-0.0719042 0.132971 0)
(1.30573 0.983231 -3.13098e-20)
(1.11975 0.152446 -4.28634e-19)
(2.29925 0.571399 -6.21351e-20)
(1.09261 0.931844 7.97997e-20)
(-0.122745 0.426065 1.3505e-19)
(0.982432 -0.150456 0)
(-0.385683 -0.285317 -2.3404e-19)
(-0.191592 0.452553 2.55443e-19)
(0.777831 0.0372238 1.89651e-19)
(1.55505 0.949444 4.74905e-21)
(1.92686 0.670318 -4.67968e-21)
(-0.106897 0.254574 -9.43833e-22)
(0.737096 -0.673284 -4.22769e-20)
(1.12698 -0.0263247 0)
(1.67969 -0.0630099 0)
(1.02819 0.0526481 0)
(-1.33411 0.326979 -2.84839e-19)
(-0.380959 -0.358813 8.01259e-20)
(1.05557 0.850815 0)
(0.997227 -0.000225722 5.37303e-19)
(0.775156 0.61195 -2.28729e-19)
(-1.6369 0.433911 -2.43053e-19)
(0.864011 0.0227824 -4.27269e-20)
(0.708659 -0.646244 -2.441e-19)
(1.39966 0.709741 -3.05279e-20)
(0.557728 -0.444032 -3.08801e-19)
(1.13355 -0.000757769 -4.79495e-19)
(0.805921 0.0462899 4.80831e-20)
(1.53149 -0.186532 9.34257e-20)
(1.6274 -0.141177 -7.12319e-20)
(-0.03065 -0.0476803 9.74173e-23)
(1.08716 0.476101 -2.69023e-19)
(1.37855 0.62599 8.18923e-20)
(-0.0783483 -0.328729 0)
(-0.0654531 -0.40638 1.0933e-19)
(-0.112216 -0.0678117 9.80899e-20)
(-0.19215 -0.0628573 -7.99832e-20)
(0.485844 0.327836 0)
(1.13681 -0.447378 0)
(-0.0193124 0.0218675 -1.41415e-19)
(-0.252297 -0.439029 -4.27978e-20)
(1.04937 -0.0287167 1.90072e-19)
(-0.324097 0.322214 -4.26323e-20)
(1.09721 0.448985 -3.40574e-19)
(0.00512843 0.367554 0)
(0.825623 -0.732458 -3.4456e-19)
(1.32177 -0.152045 8.93154e-20)
(-0.227627 -0.599787 1.24023e-19)
(0.723647 0.167865 3.35261e-19)
(0.626799 0.14703 1.08332e-19)
(0.495046 -0.468373 2.17272e-19)
(-0.139097 -0.203763 -9.07321e-20)
(1.51487 0.629042 0)
(0.402731 0.358676 -1.96219e-19)
(1.02878 -0.0145146 -3.02837e-19)
(-0.521334 -0.316106 2.03442e-19)
(1.43434 0.478883 -1.1619e-19)
(-0.124739 -0.231893 -3.33344e-20)
(0.672904 -0.615046 -8.7749e-20)
(0.821617 0.191977 -2.10016e-19)
(0.983018 0.43188 2.30231e-20)
(1.14627 -0.134776 3.8006e-20)
(0.604775 -0.222848 -3.14239e-19)
(1.98952 -0.394242 -5.92109e-20)
(1.90615 -0.0516895 0)
(1.76342 0.436875 -3.75234e-20)
(2.1559 0.0493912 -1.00741e-20)
(0.70357 -0.319889 8.6208e-20)
(1.0555 0.351872 -1.95671e-19)
(1.12067 -0.361491 -1.00762e-20)
(0.428932 0.399325 -2.54042e-19)
(-0.244171 -0.086499 1.85973e-19)
(1.766 -0.294753 0)
(0.93499 0.00421453 0)
(0.862925 -0.763947 6.97846e-20)
(-0.101493 -0.411974 -2.12628e-19)
(-0.760346 -0.322426 -1.74342e-19)
(-0.0477473 -0.0796518 -1.41497e-19)
(-0.238068 0.138514 -1.42537e-19)
(-0.287624 -0.506655 0)
(-0.0609463 -0.10565 2.45459e-20)
(0.0859876 0.31348 -9.42809e-20)
(-0.145283 0.185965 -3.37922e-19)
(0.800967 -0.106739 0)
(1.65025 -0.470585 1.31708e-19)
(-0.122067 -0.101578 0)
(0.994119 0.02453 3.86445e-19)
(-0.105637 -0.48482 1.6386e-20)
(0.533619 -0.415597 4.13982e-19)
(-0.614167 -0.68617 3.46361e-19)
(-1.21425 0.224643 0)
(0.161313 0.308282 1.03856e-19)
(1.00414 0.0238464 -1.16451e-20)
(-0.180732 -0.111319 0)
(1.00475 -0.00775277 -5.98955e-20)
(0.854936 -0.721686 -3.22984e-19)
(1.22877 -0.19106 0)
(0.931407 -0.266328 2.23038e-19)
(0.05085 0.177686 1.977e-19)
(-0.00694325 -0.00167856 0)
(-0.189783 -0.395368 -4.0536e-21)
(0.720817 -0.628381 -4.60943e-19)
(0.949903 -0.0287593 -2.8523e-19)
(-0.112575 -0.430594 2.64645e-19)
(-0.17173 -0.325431 1.01453e-19)
(-0.265994 -0.447939 0)
(0.963702 0.480346 0)
(-0.220864 -0.631407 1.49283e-19)
(1.75362 -0.215108 -2.10194e-19)
(1.08552 0.904584 1.82058e-20)
(1.07355 0.216939 -1.2665e-19)
(1.14425 0.00674654 -2.417e-19)
(1.04334 -0.072158 -8.91573e-20)
(-0.108809 -0.44059 -2.46777e-19)
(1.903 0.0991153 3.70451e-19)
(0.679637 0.0319512 2.12064e-19)
(2.14907 -0.155391 1.38254e-19)
(1.05013 -0.147299 0)
(0.00584496 0.419013 5.46892e-19)
(1.13953 0.0264512 -5.23587e-19)
(1.76838 0.614706 4.39378e-21)
(0.737108 -0.450178 -1.71572e-19)
(-0.0682016 -0.0302368 1.29051e-19)
(0.790331 -0.69371 4.21959e-19)
(1.25106 0.200737 7.50622e-20)
(1.00664 -0.00741251 2.65227e-19)
(-0.0215096 -0.402291 -1.0929e-19)
(1.02633 0.0194563 0)
(1.86257 0.152567 -2.47577e-19)
(-0.0205366 -0.0078933 0)
(1.01406 0.0138981 -1.5743e-19)
(-1.34154 0.344534 -5.48829e-19)
(1.69272 0.284189 3.28146e-20)
(-0.232239 -0.100559 1.3149e-19)
(1.60592 0.00177061 -6.17612e-21)
(1.01362 -0.0179612 5.48558e-20)
(1.33035 -0.0840591 0)
(1.43489 -0.613472 -1.89026e-19)
(1.02427 0.0369555 -1.61419e-19)
(1.45811 0.792972 -5.09243e-20)
(1.38942 -0.0539137 0)
(0.780501 0.0958784 -2.08943e-20)
(-0.0241981 0.0244728 0)
(1.34406 0.0419622 0)
(-0.361857 -0.375881 0)
(1.24991 0.451649 0)
(1.90518 0.237727 4.81168e-20)
(0.749376 0.623844 4.00889e-19)
(0.286163 -0.287531 -2.57221e-19)
(-0.229489 -0.427994 -2.4388e-19)
(-0.0146334 -0.0256218 0)
(2.19889 -0.292087 1.28882e-19)
(1.41634 0.521139 0)
(1.47046 0.295609 0)
(-0.417585 -0.296412 1.03066e-19)
(0.818013 0.722572 1.2775e-19)
(1.68269 -0.0395265 0)
(-0.244679 -0.294853 5.89797e-20)
(0.915561 0.228588 1.9372e-19)
(2.12576 -0.287285 -6.53685e-20)
(1.25489 0.934454 4.36883e-20)
(0.90674 -0.816729 -4.91161e-20)
(1.70098 -0.120202 -2.27877e-20)
(0.804845 0.727173 1.3095e-19)
(1.19266 0.934159 0)
(2.46547 -0.0877698 1.88754e-19)
(0.939405 0.443618 0)
(1.53616 -0.51578 5.14988e-20)
(1.11645 0.0940424 2.12166e-19)
(1.00502 -0.0046288 0)
(0.194207 0.392466 5.14997e-19)
(0.88597 -0.165798 5.08416e-20)
(0.625621 -0.402027 0)
(0.665172 -0.374553 2.23634e-19)
(1.25052 0.563298 -3.33468e-20)
(0.485286 0.458198 2.78359e-19)
(-0.171698 0.248173 3.99071e-20)
(0.173831 -0.1051 1.03005e-19)
(0.74746 0.0685084 0)
(1.31037 -0.89581 -1.21518e-19)
(1.03249 -0.0426146 4.21536e-19)
(1.56922 0.331256 1.54926e-19)
(-0.269399 -0.303096 5.0862e-20)
(-0.652586 -0.640748 0)
(1.22349 -0.243941 -1.27084e-19)
(-0.00389715 -0.00270516 -1.1265e-19)
(0.26365 -0.283855 -6.23631e-20)
(-0.146991 0.0654841 -1.02272e-21)
(-0.217244 0.113342 3.23332e-19)
(1.44973 -0.456424 -1.47573e-20)
(2.45048 -0.151978 3.26351e-19)
(1.20296 0.463566 -2.9185e-19)
(0.865042 -0.054708 0)
(1.81942 -0.107912 1.96643e-19)
(1.90116 0.0915325 8.02337e-20)
(0.904145 -0.759826 1.60831e-19)
(1.13752 -0.961146 -6.71279e-20)
(0.489379 0.45465 1.86569e-19)
(1.36772 0.208779 0)
(1.78669 0.562312 3.39921e-20)
(-0.00915722 -0.0123103 -2.30013e-19)
(0.894467 0.780438 0)
(1.36288 0.543976 0)
(0.286853 -0.286561 -3.52167e-21)
(0.33602 0.319172 0)
(-0.6163 -0.568689 -3.4198e-19)
(-0.226517 0.37475 -1.17292e-19)
(1.69451 -0.43942 0)
(1.24829 0.105423 1.80559e-19)
(-0.577188 -0.35658 1.4482e-19)
(0.526788 -0.499707 -5.02818e-19)
(2.07522 -0.115272 -4.24356e-20)
(0.603944 -0.548049 0)
(1.04064 0.127126 0)
(1.3098 -0.249135 0)
(1.12465 0.232763 -2.38363e-19)
(1.35666 0.108459 3.38185e-19)
(-0.984058 0.00633753 0)
(0.885471 -0.0628345 0)
(2.04582 -0.0964328 -5.83347e-21)
(-0.085255 0.137768 1.06268e-19)
(2.39356 0.0455307 -2.32213e-19)
(1.02575 -0.500634 1.12879e-19)
(1.96126 0.0736662 -2.76165e-19)
(-0.712459 -0.381728 -1.1929e-19)
(1.89841 0.0798988 -1.6817e-19)
(1.01588 -0.0219612 4.36814e-19)
(1.53795 0.598684 0)
(-0.218642 0.431237 3.16627e-20)
(0.994207 -0.82246 2.05755e-19)
(0.857724 -0.00998318 4.99418e-20)
(0.628961 -0.425175 0)
(1.87531 -0.555214 -2.26069e-21)
(1.20187 -0.191047 1.69126e-19)
(1.77066 -0.443974 0)
(0.599409 -0.556382 5.04323e-19)
(0.805591 0.125167 -2.32405e-20)
(2.31664 0.0958676 3.41527e-19)
(-0.0994543 0.203846 -2.17107e-19)
(1.34827 0.624182 1.47033e-19)
(1.15894 0.413426 3.6923e-21)
(0.912912 0.381548 2.27705e-19)
(1.89823 -0.158468 -2.61618e-19)
(-0.131023 -0.438954 -3.15781e-21)
(0.640535 -0.294851 0)
(-0.156101 -0.0919173 2.13698e-19)
(1.06952 -0.932427 0)
(1.05575 -0.650215 2.46596e-20)
(1.15582 -0.366176 -6.18987e-19)
(1.32804 0.0269239 -3.73524e-20)
(-0.479771 -0.480397 -2.86829e-19)
(0.997215 0.490685 1.75953e-19)
(-0.239768 0.597642 3.14918e-19)
(0.695403 -0.0386203 0)
(2.03778 0.00268149 0)
(1.80917 0.153739 2.27009e-20)
(0.779618 -0.0145201 0)
(1.3628 -0.213988 -1.74028e-19)
(-0.750639 -0.48266 4.0271e-19)
(1.94516 0.487961 1.8076e-20)
(1.044 -0.0328569 0)
(0.545883 -0.340367 1.11257e-19)
(1.00899 0.0266146 2.07242e-19)
(0.357914 0.428479 -3.01466e-19)
(-0.236461 -0.0576467 0)
(1.10521 -0.479007 5.48737e-19)
(1.8738 -0.127631 -5.39689e-22)
(1.09338 -0.494031 -2.38621e-19)
(2.29036 0.215715 1.55084e-19)
(1.30191 0.798487 0)
(0.870296 0.0192353 0)
(-0.325317 -0.303343 -1.31831e-19)
(-0.0213855 0.0205646 1.59131e-19)
(0.957568 0.375494 -2.10288e-19)
(0.132779 -0.349943 -9.42081e-20)
(0.655354 0.418543 2.44641e-19)
(0.973148 0.125518 0)
(0.529741 -0.49259 0)
(0.537661 -0.200319 4.92513e-21)
(1.22202 -0.507343 -1.14316e-19)
(0.559957 0.000988486 7.14359e-21)
(0.732592 -0.146049 1.23564e-19)
(-0.0758058 0.0877034 -2.82692e-19)
(1.00947 -0.0451918 1.59114e-19)
(0.672459 0.627433 0)
(1.28505 0.700958 0)
(1.63069 0.262559 0)
(-0.36334 -0.417027 -1.15893e-19)
(1.31361 0.575017 2.21657e-19)
(2.10898 0.0213254 4.13813e-20)
(0.936688 -0.0102936 0)
(2.12828 -0.498149 0)
(2.06548 -0.0660616 -2.81087e-19)
(0.603116 0.529778 3.50795e-19)
(1.00468 0.00546595 -2.06958e-19)
(1.50164 0.476535 0)
(-0.206269 0.0964385 0)
(1.25845 0.32454 2.90976e-19)
(1.03216 0.534882 -1.3052e-19)
(1.07269 0.0250292 0)
(1.68779 -0.0312248 0)
(2.0518 0.660506 -3.21399e-19)
(-0.091317 0.333109 -3.45262e-22)
(0.997019 0.0132699 0)
(0.71674 0.482762 -3.3615e-20)
(0.922472 -0.814055 0)
(1.00195 0.0159497 4.82003e-20)
(0.198392 -0.334809 -1.30905e-20)
(0.899217 -0.318007 3.29654e-19)
(0.607973 -0.436413 -6.69611e-20)
(2.20415 -0.193788 2.22236e-19)
(1.5263 0.149827 1.08745e-19)
(0.790192 -0.0274241 0)
(1.01236 0.00981692 0)
(-0.443691 -0.665449 0)
(0.677103 0.648585 -1.88247e-19)
(-0.0523915 0.0582955 1.90497e-19)
(1.17736 0.355437 -4.66929e-19)
(-0.367226 0.101742 0)
(0.837387 0.651323 1.68467e-19)
(1.00165 -0.329095 0)
(1.00544 0.000370454 1.21006e-19)
(0.502641 -0.0656073 7.7671e-20)
(1.04301 0.412923 2.58788e-19)
(1.21537 0.131931 0)
(2.09605 0.114885 -6.67247e-20)
(0.825898 -0.10434 -3.80647e-19)
(-0.852422 -0.54113 -4.96937e-19)
(1.13495 0.229612 0)
(0.885415 0.249912 1.78398e-19)
(1.9548 -0.290313 0)
(0.783757 0.530162 3.64575e-19)
(-0.898471 -0.464452 1.87945e-19)
(-0.0562134 0.0871289 0)
(0.602054 0.573245 -7.08654e-20)
(1.01977 -0.637486 -1.72235e-19)
(0.471563 -0.233666 -1.26903e-19)
(1.0199 -0.0130727 0)
(-0.295163 -0.144398 -1.48134e-19)
(0.631139 -0.56167 8.73498e-20)
(0.914565 0.297376 0)
(1.66433 -0.368401 1.65006e-19)
(0.994343 0.846638 2.40983e-20)
(0.861387 -0.467897 3.71422e-21)
(0.165354 -0.226415 -1.4305e-19)
(0.22423 -0.00850256 -5.67317e-19)
(-0.0909769 -0.183367 6.11731e-21)
(0.82451 0.365067 2.49393e-19)
(-0.172684 0.397972 -5.31235e-21)
(1.40018 -0.649565 3.29605e-21)
(1.02179 0.0105784 -3.6087e-19)
(-0.4149 -0.492925 0)
(1.03474 0.0359917 -4.20998e-19)
(2.27369 0.0356827 2.17515e-19)
(0.895442 0.697858 2.8189e-19)
(1.12943 -0.0691312 1.70728e-19)
(1.00315 -0.0260102 1.66983e-19)
(1.31038 0.0461781 3.38427e-20)
(-0.202758 -0.213223 3.2713e-22)
(1.69641 -0.869392 1.42584e-20)
(1.13715 -0.133471 -8.83605e-20)
(0.786011 0.0508111 1.01983e-19)
(0.906549 -0.288986 9.54721e-20)
(1.17637 0.243456 0)
(0.97044 0.742239 0)
(0.791218 0.0625409 -9.257e-20)
(2.06479 0.166543 -2.23943e-20)
(-0.686951 -0.629043 1.51768e-19)
(1.02292 -0.535229 -5.71647e-19)
(0.61005 -0.526591 4.1569e-19)
(1.30796 0.12735 -1.10152e-19)
(0.200593 -0.369115 1.08563e-20)
(1.50862 -0.536996 0)
(0.756585 0.123307 -6.92497e-21)
(1.6017 -0.505942 -9.05145e-20)
(1.04881 0.768573 0)
(1.21865 -0.528598 0)
(-0.139602 0.0213582 0)
(-0.150638 -0.240281 -4.03483e-20)
(-0.0586624 0.153238 0)
(1.88405 0.615074 4.29778e-19)
(1.23269 0.185345 6.51523e-21)
(-0.992233 0.2027 2.27083e-19)
(2.04477 0.718085 1.67922e-20)
(1.85797 0.43348 -7.38661e-20)
(2.13924 -0.363712 -2.25499e-20)
(-0.187568 0.0297104 -2.275e-19)
(-0.198446 -0.429758 3.02096e-21)
(1.18276 0.135111 0)
(0.679631 -0.0337311 0)
(1.00138 0.0015525 2.13334e-22)
(-0.379978 -0.445277 0)
(1.55434 -0.0063675 -4.36251e-20)
(0.680648 -0.0304052 0)
(1.05535 0.0114919 1.3694e-19)
(0.98972 0.0160894 -4.71197e-20)
(0.927896 0.226983 8.95816e-20)
(1.06832 -0.0170028 -9.62951e-22)
(0.945182 -0.186006 -5.74385e-20)
(1.02079 -0.0289997 3.89149e-19)
(0.664428 -0.602276 1.98608e-19)
(-1.01249 0.420895 -2.88343e-19)
(1.19198 0.460683 1.70397e-20)
(-0.0251966 0.0271201 0)
(1.13649 0.801828 0)
(1.02689 -0.00218948 0)
(0.995187 -0.769218 -1.21931e-19)
(1.02145 -0.877618 7.22797e-20)
(0.993083 0.278619 -1.9052e-20)
(0.161856 0.130682 -1.07327e-18)
(1.13131 -0.442199 1.69623e-20)
(0.577872 -0.372626 -6.64086e-19)
(1.42661 0.443722 -4.72179e-20)
(0.556081 -0.213278 -1.10255e-19)
(2.03956 -0.365967 5.08431e-20)
(0.516155 0.0816765 -1.80338e-20)
(-0.235275 -0.314343 -8.66819e-20)
(1.12306 0.560058 1.97388e-19)
(-0.0910208 -0.297679 0)
(0.0875179 -0.452843 2.46957e-19)
(-0.0754923 -0.0943036 1.14038e-22)
(1.02674 -0.0428395 3.45776e-19)
(1.02182 0.00477033 -8.95012e-21)
(1.113 -0.010469 -9.56713e-20)
(1.46463 0.0617137 2.36507e-20)
(1.64234 0.319511 5.74003e-20)
(0.391099 -0.365992 -3.32398e-19)
(0.741503 0.221012 3.40486e-20)
(1.03206 0.00406999 -2.56526e-19)
(1.24062 0.350718 -1.75432e-20)
(1.48487 0.164296 0)
(1.11984 0.59859 -3.69745e-19)
(1.00315 -0.00255321 9.87979e-20)
(0.685751 0.614337 2.59853e-19)
(1.38721 -0.511103 -1.88553e-21)
(1.07344 -0.00821625 -3.12874e-20)
(1.13271 0.014159 8.89506e-22)
(2.3104 0.0659471 1.31962e-20)
(0.507889 0.139849 0)
(1.0441 -0.0392707 0)
(1.04962 -0.0340086 6.06337e-19)
(1.00219 -0.0023718 0)
(-0.0364397 -0.0554044 0)
(0.919856 -0.56147 0)
(1.00033 0.000103745 -5.74605e-19)
(1.14723 -0.679259 1.00816e-19)
(1.02257 -0.00358118 1.21016e-20)
(1.36065 0.962385 -2.45323e-20)
(1.54972 1.01103 -1.94376e-20)
(1.05315 -0.350227 -2.88298e-20)
(1.59508 0.048546 2.67494e-19)
(1.61822 0.261782 0)
(0.0118576 0.348797 0)
(2.08537 -0.211493 4.52686e-19)
(1.06318 -0.554755 0)
(1.00004 -0.00500062 -1.77552e-19)
(1.01047 -0.000700501 3.45142e-19)
(1.45845 0.14305 -7.03901e-20)
(-0.00256618 -0.124599 1.6791e-19)
(0.973589 -0.00096484 1.87422e-19)
(0.110655 0.0342368 1.79986e-20)
(0.40162 -0.115335 2.22935e-20)
(1.5937 0.0996762 1.03596e-22)
(0.925802 0.0179012 -1.90153e-19)
(1.00357 0.0040668 2.23439e-19)
(1.00021 -0.000653627 1.31873e-20)
(0.79106 -0.0124741 0)
(0.730064 -0.0260773 0)
(0.725776 -0.0262751 7.99192e-22)
(0.702042 -0.0285461 0)
(1.40923 -0.16713 0)
(0.76395 -0.172964 0)
(0.110114 -0.111984 -2.15181e-21)
(0.166607 -0.102807 6.01414e-21)
(1.28475 -0.213706 0)
(1.38448 -0.192822 1.7133e-20)
(1.56148 0.0537997 0)
(-0.00582947 0.107582 0)
(0.0311341 0.00348401 0)
(0.246665 0.0655471 -3.00672e-21)
(0.849113 0.168593 4.03505e-20)
(0.781634 0.023153 0)
(0.789381 0.0206241 0)
(0.963564 0.0201042 -2.34207e-19)
(0.817093 0.00842356 4.35896e-19)
(1.00733 -0.00122178 0)
(0.999792 -0.000245218 4.12628e-19)
(1.00001 -0.000502613 -2.86088e-22)
(0.788896 0.0222578 3.71964e-19)
(0.993314 -0.00730937 -2.15224e-19)
(0.0163041 0.103709 0)
(0.373228 -0.0871021 -2.23076e-20)
(1.00105 -0.00131939 -2.08355e-19)
(1.00075 0.000935849 -3.57906e-19)
(1.3432 0.0638894 0)
(0.998657 0.00215295 0)
(0.999584 0.000638553 0)
(1.67943 -0.602178 -1.05782e-20)
(0.476191 -0.126375 3.74386e-20)
(0.892321 0.331618 0)
(-0.316857 0.343586 2.00168e-19)
(-0.516445 0.350155 -5.0342e-19)
(1.02003 -0.0140819 -2.77879e-19)
(-0.310765 -0.411799 -7.96319e-20)
(1.017 0.00481143 -2.24116e-19)
(1.16343 -0.216571 -1.22202e-19)
(0.79371 -0.466666 3.25396e-19)
(-0.0350377 -0.0569823 -5.68132e-20)
(1.0293 0.0125646 0)
(1.05794 -0.011984 -6.00849e-20)
(0.851573 0.0264291 0)
(-0.0756653 0.0707172 2.80789e-19)
(0.827837 -0.456758 0)
(-0.414624 -0.373356 -2.1074e-19)
(0.249944 0.0800815 -1.34174e-20)
(1.68155 0.678596 6.4631e-21)
(-0.069941 -0.0031807 0)
(1.05347 -0.0372328 1.87484e-19)
(0.993738 -0.356007 4.25612e-21)
(0.92887 -0.00452158 2.93524e-19)
(1.01298 -0.0060484 -1.89087e-19)
(1.70233 0.861178 4.53675e-20)
(0.53352 0.50175 0)
(0.457335 0.41505 2.05024e-19)
(1.97977 -0.519616 -5.66958e-22)
(1.16093 0.129392 1.98028e-19)
(1.07828 -0.707535 0)
(1.02236 0.00446015 0)
(0.999281 -0.0174087 -4.35313e-19)
(1.01729 0.0170669 -4.25685e-19)
(-0.137053 -0.290393 0)
(1.23475 0.828476 -1.26792e-19)
(1.55602 -0.56083 2.00774e-21)
(1.01535 0.00716355 1.63594e-19)
(1.01132 0.0141969 -2.05394e-19)
(-0.471904 -0.347025 -2.14529e-20)
(1.02506 -0.254667 -1.16732e-19)
(1.01904 -0.0135287 6.97175e-19)
(1.36006 -0.445967 0)
(1.8938 0.636414 -5.3915e-20)
(1.01599 -0.010395 -2.17341e-19)
(2.1328 0.0634974 -1.25175e-19)
(1.06461 0.00785743 -4.99283e-22)
(1.00959 -0.00940146 4.34173e-20)
(2.05126 -0.329331 -1.97862e-19)
(1.01516 0.00751757 2.11215e-19)
(0.905636 0.411558 1.70923e-21)
(1.01715 0.00501888 0)
(0.940493 0.156624 5.08464e-20)
(-1.00384 -0.117136 6.03502e-21)
(0.996608 0.0222809 2.09896e-19)
(1.03854 0.0210136 -5.65688e-22)
(1.33181 -0.46641 -1.31277e-20)
(1.26779 0.322454 4.15355e-19)
(0.99742 0.0176023 1.44523e-19)
(1.01731 -0.0122838 5.03553e-22)
(1.74643 0.243245 -2.17067e-20)
(1.83124 0.957165 -1.13025e-19)
(0.764275 -0.686308 6.68044e-20)
(0.440891 -0.310178 -3.19601e-19)
(1.00816 -0.00969209 0)
(1.01909 0.0041096 5.24467e-20)
(1.01187 -0.00798375 1.10396e-19)
(0.821432 0.0915093 6.34039e-21)
(1.0141 0.00771473 -2.19893e-19)
(1.02449 -0.0225061 2.52791e-19)
(1.00878 -0.00638212 -2.06392e-19)
(1.01418 0.00652633 -5.2311e-22)
(1.01326 0.00497489 -3.85528e-22)
(1.02372 0.0163869 2.10663e-19)
(0.906306 0.094952 5.25773e-19)
(1.80885 0.702193 0)
(0.693869 -0.604601 2.92446e-19)
(1.01162 -0.00287577 0)
(1.02256 -0.0185322 -6.09325e-20)
(1.55695 0.441148 -7.93849e-20)
(2.08984 -0.0769437 0)
(2.33363 -0.188251 -1.34624e-19)
(1.27398 0.476052 -7.0912e-20)
(0.759909 -0.0153749 0)
(1.83319 -0.278143 0)
(0.267986 0.395596 -2.80581e-19)
(1.23063 -0.110227 -3.31242e-20)
(1.01709 -0.00161241 -2.21372e-19)
(1.10964 -0.561533 -6.8161e-20)
(1.26802 -0.363938 -4.18103e-20)
(1.2527 0.52218 0)
(1.52166 -0.542074 0)
(2.01955 0.484787 0)
(0.0433381 0.196651 8.89209e-20)
(0.879699 0.235409 1.26921e-19)
(-0.502839 0.107653 0)
(-0.0224248 0.0708629 -2.17675e-19)
(1.7281 0.971913 -6.66492e-20)
(1.00754 -0.00145716 -4.32867e-19)
(0.867802 0.0142792 3.74427e-20)
(1.02142 0.010382 2.86773e-19)
(0.688276 -0.0411635 0)
(-0.121716 -0.267745 -1.70822e-20)
(0.623082 0.444481 -3.4487e-19)
(1.80834 0.590055 1.37637e-19)
(0.122806 0.203893 0)
(0.776304 0.0773365 8.74089e-20)
(0.531042 0.508449 5.19823e-20)
(1.19967 0.892877 -3.40396e-20)
(-0.0307993 -0.0141084 8.24354e-20)
(1.02076 0.0158075 0)
(1.07362 0.374866 5.53597e-20)
(1.0118 -0.00133121 1.62402e-19)
(2.27243 0.107145 0)
(1.01108 0.00879673 2.72534e-19)
(0.109053 -0.448928 -1.1623e-19)
(1.01912 0.0141481 -1.6864e-19)
(1.32818 0.39432 0)
(2.27921 -0.159108 5.83697e-22)
(1.00899 0.00554285 -1.13136e-19)
(0.99478 -0.0246089 2.9841e-19)
(1.10059 0.099149 -3.34957e-21)
(1.09386 0.581629 -2.47495e-20)
(-0.149649 -0.0597038 2.15141e-19)
(2.04061 0.215108 1.66728e-19)
(0.297362 0.206639 2.68459e-20)
(0.802771 0.0150643 -4.0908e-19)
(0.810109 0.0267138 0)
(0.221538 0.0542121 5.88878e-20)
(1.0227 -0.0141204 -3.2727e-20)
(0.973663 0.0303267 0)
(1.0531 0.00164959 -2.07205e-19)
(-0.245749 -0.114723 -2.06914e-21)
(-0.890892 -0.298125 2.35871e-19)
(2.11686 -0.609196 0)
(-1.00185 0.17159 -5.85294e-19)
(1.50154 -0.347408 0)
(1.04184 -0.0171699 6.087e-20)
(1.14729 0.0681001 1.15914e-21)
(1.01286 0.000375031 1.75856e-19)
(-0.827759 -0.33966 3.22795e-19)
(1.01901 0.00478331 0)
(0.993548 0.00389783 -4.21571e-19)
(1.00771 0.00963258 2.23492e-19)
(0.749592 -0.0802915 0)
(0.743355 -0.00382392 -8.90396e-21)
(0.957438 -0.000932843 -1.9105e-19)
(-0.252679 -0.429026 2.65267e-19)