/*--------------------------------*- C++ -*----------------------------------*\
| =========                 |                                                 |
| \\      /  F ield         | OpenFOAM: The Open Source CFD Toolbox           |
|  \\    /   O peration     | Version:  2306                                  |
|   \\  /    A nd           | Website:  www.openfoam.com                      |
|    \\/     M anipulation  |                                                 |
\*---------------------------------------------------------------------------*/
FoamFile
{
    version     2.0;
    format      ascii;
    arch        "LSB;label=32;scalar=64";
    class       surfaceScalarField;
    location    "19.2";
    object      phi;
}
// * * * * * * * * * * * * * * * * * * * * * * * * * * * * * * * * * * * * * //

dimensions      [0 3 -1 0 0 0 0];

oriented        oriented;

internalField   nonuniform List<scalar> 
3181
(
-1.04892
0.407492
0.641428
-0.3908
0.368661
0.022139
0.526842
-0.361299
-0.165543
0.123927
-0.204342
0.0804152
-0.0597758
0.0729637
-0.0131879
0.697484
0.836532
-1.53402
0.150152
-0.143735
-0.00641703
0.0751813
0.00156727
-0.0767486
0.593286
-0.76616
0.172874
-0.0746639
0.139153
-0.0644891
-0.0103661
-0.0504292
0.0607954
0.116124
0.0526517
-0.168775
-0.00678675
-0.0613733
0.06816
-1.09693
0.149883
0.947043
-0.331502
0.702209
-0.370707
-1.1209
0.636883
0.484018
0.0844104
-0.932291
0.847881
-0.261338
0.206901
0.0544363
-0.940571
-0.427989
0.00427104
0.0438908
-0.0481618
0.0333693
-0.0836061
0.0502368
-0.0622654
0.0543194
0.00794592
1.0644
-1.03924
-0.0251559
0.0204967
0.0370475
-0.0575442
-0.955085
0.32487
0.630216
-0.108994
0.232921
0.308192
-0.242641
-0.0655517
0.0300398
0.0629616
-0.0930014
-0.406609
0.334611
0.0719982
-0.0325272
-0.0145105
0.0142774
0.000233094
-0.0353772
-0.919708
0.0515217
-0.0445354
-0.00698634
0.170692
1.5024
-1.67309
-0.0517966
0.0522367
-0.000440064
0.177904
0.2724
-0.450304
1.69693
-1.52624
0.070327
-0.0369577
1.51989
-0.793525
-0.726366
-0.414264
1.11175
-0.124751
0.117964
-0.0618563
-0.000409097
-0.41081
0.0793084
-0.130232
0.0683755
-0.630007
0.130074
0.499933
-0.151032
0.0763679
-0.169881
0.174194
-0.00431209
-0.273942
-0.0767321
0.350674
0.210014
1.27888
-1.48889
0.0605678
0.142781
-0.203349
-0.0102394
-0.0989613
0.104987
-0.0060258
0.522428
0.179781
-0.0958829
0.137544
-0.041661
0.086341
-0.0348192
-0.17328
0.199973
-0.0266935
0.165163
0.0555845
-0.220747
0.110275
-0.116252
0.00597756
1.23553
0.28436
-0.860302
-0.188618
0.0256136
-1.73963
1.71402
0.54674
0.228913
-0.775653
-0.441569
-0.203573
0.645142
-0.86998
0.455716
-0.270309
0.81705
-0.327001
-0.102165
0.429165
-0.205559
-0.201051
-0.191841
0.165151
0.0266901
0.130276
0.285414
-0.415691
-0.167638
0.760923
-0.0160382
0.0912195
-2.08834
2.11396
0.190547
0.117645
-0.181874
-0.111251
0.293125
-0.268457
0.352472
-0.0840148
-0.0822275
0.0903549
-0.00812743
-1.87833
-0.918685
0.00948104
0.909204
-0.0540907
0.00229403
-1.05701
0.786378
0.27063
0.435314
-0.263225
-0.17209
-0.794309
-0.0756716
1.1043
-0.954415
-0.711878
1.14713
-0.200087
1.06892
0.164405
-0.17454
0.0101357
1.54741
-0.710874
0.886382
-0.886382
-0.0074935
-0.000479756
0.00797326
-0.215515
-0.0528723
0.268387
0.0862623
-0.0606233
-0.025639
-0.451192
0.837073
-0.38588
-0.0153059
-0.24031
0.255616
-1.0831
0.0438589
0.343244
0.0558471
-0.399091
0.136042
-0.851559
1.08047
0.0689631
0.0701032
-0.139066
-0.0174065
-0.155873
-0.269375
-0.000956937
0.270332
-0.181521
-0.0878538
0.119116
-0.970675
0.333734
-0.784927
0.923525
-0.839114
-0.0127248
0.157815
-0.14509
0.0809113
0.0514106
-0.132322
-1.40694
-0.0959026
1.50284
-0.249086
0.413155
-0.164069
-1.08056
0.643739
0.43682
-0.465495
-0.591513
0.132291
-0.071723
-0.154252
0.148637
0.00561485
-0.0770451
-0.0122152
0.0892603
-0.5378
-0.228359
-0.109238
0.0457027
0.0635358
-1.14591
-0.238205
1.38411
1.72393
-0.445049
-0.0129791
0.00548564
0.0413856
0.149162
-0.198304
0.376208
0.0167265
0.191721
-0.208448
0.136642
0.0675843
-0.204227
0.257347
-0.0491637
-0.208183
-0.594619
-0.526281
-1.19192
0.046015
-0.0458426
0.114806
-0.107983
0.186242
-0.0782591
-0.00399113
0.0251789
0.124973
-0.0571363
0.0718999
-0.0147637
-0.0969047
-0.0222084
0.119113
0.0750097
-0.0750097
-0.18658
0.211759
0.253793
0.159508
0.106266
0.0937076
-1.27907
1.11143
-1.55755
0.117223
1.44033
0.0287328
-0.024343
-0.00438979
-0.0263481
-0.0508782
0.0772263
0.543723
-0.0253678
-0.518355
-0.0384017
0.0397342
-0.00133249
-0.202138
0.0155574
0.160782
0.67629
-0.369356
0.530139
-0.170605
-1.23633
-0.0902914
0.0305155
0.4896
-0.308273
-0.181327
0.10432
-0.0891836
-0.0151363
0.048062
-0.322004
0.023526
-0.942211
0.0495436
-0.157526
-0.290868
-0.403733
0.0685218
1.37646
-0.926172
-0.450287
1.07703
0.29943
0.0666173
0.284057
0.028854
-0.000121169
-0.0847827
0.158492
-0.0737097
-0.254861
-0.583544
0.838406
-0.360337
0.606835
0.898811
-1.3268
0.13662
0.0396136
-0.056756
0.0171423
-1.81633
0.419179
1.39715
-0.272832
-1.54349
-0.303888
0.647132
-0.908765
-0.0181005
0.00448875
-0.264368
0.259879
1.44472
-1.55971
0.114991
-0.0938908
0.00359944
0.569055
-0.823916
0.108202
-0.397145
0.288943
-0.29466
-0.116871
0.411531
0.176234
-1.0077
-0.0754047
-0.00760672
-0.0405551
-0.552652
0.349079
-0.244048
0.0184296
0.225619
-0.0234158
-0.070475
0.0344754
-0.0344754
-0.117812
0.129107
-0.0112952
-0.295232
-1.26232
0.0887177
0.0296463
-0.118364
-0.140863
0.0211349
0.119728
-0.219862
0.0280213
1.47358
-0.431251
-1.04233
-0.195509
0.452262
-0.256753
0.00809675
-0.0077103
-0.000386447
-0.492046
-0.588513
-0.184167
-0.00468977
0.188857
-0.175434
0.305711
-0.100496
0.0988143
0.00168155
0.0743904
0.0131007
-0.0874911
-0.136831
0.170045
-0.0332139
-0.899621
1.1079
-0.20828
-0.22046
-0.0515161
0.271976
-0.696137
0.66182
0.0343173
-0.00296401
0.0400115
0.0272377
-0.027373
0.000135271
-0.00585462
-0.0516896
1.00592
0.718011
0.175723
-0.886829
0.711105
0.0150552
2.01897
-2.03403
0.387435
0.514146
0.372236
0.0604988
0.201884
-0.0652421
-0.0706213
-0.02834
0.240253
0.154626
-0.0737151
0.736065
-0.411195
0.0609616
0.207425
0.0472151
-0.162364
0.115149
-0.787148
-0.146582
0.933729
-0.0399639
0.0399639
-0.0572602
-0.265525
0.537925
0.013292
-0.233751
0.105912
0.100989
0.0316187
-0.0774613
0.133865
-0.144231
-0.345619
0.330313
0.0409374
0.063123
-0.10406
0.385453
-0.332801
0.999376
-0.615172
-0.384204
-0.208409
0.275027
0.186474
-0.494747
-0.208782
0.616274
0.167227
-0.0337687
0.0337687
-0.332871
0.373931
-0.0410609
0.387746
0.0254092
-0.0286897
0.0342492
-0.00555949
-0.133246
-0.0633399
-0.0458986
-0.0489423
0.182808
-0.178339
0.238949
-0.0606094
0.126683
0.0279429
-0.392718
0.150077
0.187989
-0.0613052
-0.0453872
-0.0551086
-0.0776102
0.0700647
0.0075455
0.148917
-0.105653
-0.0432638
-0.0140002
0.392682
-0.378682
-0.131082
0.115043
0.103294
-0.107592
0.00429801
0.0235452
0.596864
0.402512
-0.0944726
-0.0113263
0.105799
-0.0903633
-0.0040325
0.0943958
-0.0898694
0.0978046
-0.720354
0.622549
-0.036033
-1.52328
-0.470371
1.99365
0.485294
1.21861
-1.70391
0.0835814
-0.245862
0.196698
0.275588
0.249759
-0.525347
-0.207115
0.25433
0.146457
-0.894193
0.747736
0.033542
-0.123905
-0.0165275
0.00892073
-0.99171
0.444567
0.547143
0.926172
-0.807056
-1.71957
1.62367
-1.44472
1.56194
0.0404119
-0.0820729
0.00820639
0.0190314
0.0136093
0.805623
-0.659165
0.123832
-0.0742883
0.412567
0.734563
-0.108551
-1.7698
1.78486
-0.672579
-0.60649
-0.241248
-0.388759
-0.0131177
-0.1673
0.215362
-0.579143
-0.377918
0.182409
0.776443
-0.23272
-0.912171
-0.807399
0.744778
0.175007
-0.141465
0.288193
0.0383447
-0.0383447
0.6699
0.149557
-0.819458
-0.22585
0.895751
0.473278
-1.09623
0.622949
0.194002
-0.0344944
0.00786473
0.00470777
-0.0125725
-1.73963
-1.02796
0.582914
1.04682
0.426765
-0.0347348
-0.135147
-0.236705
0.759133
-0.195517
-0.048531
-0.00310069
-0.0791268
-0.0521935
0.103604
0.375484
-0.245409
-0.843184
-0.282457
-0.116036
-0.0567601
0.172796
-0.652962
1.16711
-0.155613
0.137753
0.0178598
0.0312799
-0.00242592
-0.12183
0.0637739
0.0580561
0.00842694
0.420738
0.0750086
0.0293113
0.0137898
0.00721552
-0.0210053
-0.0162464
-0.167921
-0.721432
0.368303
0.353128
0.667928
-1.72085
1.05293
0.137044
-0.158043
0.020999
-0.00617646
0.138467
0.169984
-1.05637
-0.118082
-0.00374805
-0.105328
0.0336054
0.143047
-0.341351
-1.65977
0.6922
0.967569
0.0290021
0.0936762
0.0552407
-0.787148
-0.236802
-0.662819
0.133782
-0.0700079
0.0434314
-0.638542
-0.0575953
0.0605111
0.127478
0.615856
0.0457626
-0.461453
0.123747
0.344935
-0.289088
-0.11921
0.0223058
0.224332
0.837283
-1.06162
0.103566
-0.715801
0.612235
-0.956622
0.81004
-1.51363
0.184437
1.3292
-0.0107914
0.011583
-0.000791529
0.167306
-0.461966
0.208673
-0.12251
-0.0861624
0.0510596
-0.0550921
-0.0124869
-0.103549
-0.00548845
0.0217007
-0.0275553
0.0210003
0.0751389
-0.0961392
0.958572
0.000555286
-0.000384759
-0.000170528
0.112381
0.00266249
0.861215
0.0460939
-0.0424945
-0.411726
-0.616237
0.173146
0.0208566
0.00786951
0.0858067
-1.3292
1.05637
0.191637
-0.215013
0.0233755
-0.249717
0.0751768
0.119031
-0.108895
-0.00147537
0.0918303
-0.0368344
-1.5658
-0.0939658
-0.0410284
0.0620287
0.739354
-0.255336
-0.224776
0.0839129
0.341254
0.0112461
-0.0399357
-0.00769437
0.082704
0.146412
0.206059
0.156605
-0.329881
0.173276
0.112566
0.563724
-0.042304
-0.108728
0.941471
-0.264897
-0.676574
-1.51363
-0.4834
1.15133
1.69693
-0.09353
0.341786
-0.248256
0.360732
-0.0704526
-0.290279
0.00508857
-0.799397
-0.0713076
0.0720115
-0.000703899
-0.0152576
-0.134086
0.149344
0.495583
-0.955498
0.459916
0.0412057
0.657149
-0.698355
-0.0444595
-0.109793
-0.00691918
-0.0875534
0.142102
-0.474972
-0.0118972
0.00110581
0.117793
0.0108813
-0.128674
0.0535369
-0.13832
0.00332461
0.0279553
0.045026
0.112789
-0.0238525
-0.00352054
0.194285
-0.434595
-0.368658
1.58727
0.0276539
0.01231
-0.989953
-0.0177442
0.146006
-0.0733968
-0.0458137
-0.126681
0.234883
0.754326
-0.990689
0.236363
0.133476
0.0396693
-0.940484
-0.0139308
-0.0158186
-0.648364
0.746169
-0.0180943
0.185321
-0.126934
-0.969293
0.18263
-0.446374
0.263744
-0.000276361
0.191997
0.00297787
-0.00320425
0.000226381
-0.0342038
-0.102627
-0.0213031
-0.13457
0.746432
-0.642865
-0.130825
0.0813108
-0.102076
0.310002
-0.153396
0.117928
1.2261
-0.345049
-0.881052
-0.119553
0.137982
-0.506194
-0.215237
-0.560459
0.612399
-0.596841
-0.0155586
-0.0918865
-0.038938
-1.7698
0.542123
-0.542123
-1.87699
1.87699
0.805623
0.0619377
-0.265609
0.203671
-0.897282
-0.0926718
0.62556
-0.364298
-0.261261
0.16597
-0.244229
-0.0105929
-0.00238628
-0.889839
-0.080836
-0.933187
0.212833
0.0318935
-0.0886536
0.697442
-0.110793
-0.586649
1.2473
0.449627
-0.00152828
0.00450616
-0.96564
0.34695
-0.962123
-0.0754999
-0.599177
0.674677
-0.0688283
-0.863517
-0.696191
0.217883
-0.812502
-0.933729
1.38847
-0.454745
-0.137484
0.280009
-0.142525
-0.0251088
0.722551
-0.105369
-1.03442
1.03442
-0.888768
0.499431
0.389337
0.000436534
0.000118752
0.0977488
-0.436291
0.817499
-0.0311207
-0.0837202
-0.0352441
0.119927
0.00474121
0.00335554
1.91215
-1.72772
-0.331088
0.405478
-0.630185
1.00513
-0.374943
-0.0555829
-0.0624991
0.122899
-0.0553142
0.354056
0.00607832
-0.0674516
0.354495
0.0381864
0.042423
-0.245511
0.203088
0.140019
0.034175
0.0965504
0.179467
1.75866
0.355301
0.234959
0.551978
-0.786937
-1.15874
1.57792
0.215349
-0.146973
0.0767073
-0.766579
0.689872
0.296897
0.133026
-0.478646
-0.0742878
0.135221
-0.0609328
0.134402
-0.208689
-0.446547
-0.106105
-0.0709715
0.0740334
-0.00306183
-0.00125852
-0.022594
-0.0134631
-0.0213561
0.659165
-0.612235
-0.0469307
-0.292484
0.305776
0.878488
0.612469
-0.251737
-0.032739
0.0623853
-0.398498
0.0013524
0.175128
-0.584445
0.409317
-0.00313773
-6.65283e-05
0.221971
-0.00417482
-0.217796
0.00533993
-0.0113356
0.00599567
-0.023736
0.0159911
0.0077449
-1.37717
0.666299
-0.1306
-1.39268
-0.196787
-0.807056
1.56194
1.62367
-0.194268
-0.173599
0.122083
-0.0627382
0.0683977
-0.00565953
-0.233798
0.987281
-0.753483
0.547815
0.0777449
0.000572373
-0.0037101
0.120096
-0.499723
0.0352441
-0.0457288
0.00470046
-0.561244
0.162747
-0.0442235
0.0758421
-0.225313
0.610766
1.07703
-0.10376
-0.0618376
0.00139581
0.0604418
2.00759
-0.383926
-0.0614951
-0.0547573
-0.968139
0.161083
0.374898
-0.198664
-0.47724
-0.127055
0.604296
0.817874
-0.364485
-0.453388
-0.0135113
0.767837
-1.78486
0.0452257
-0.00736462
-0.0248534
0.032218
0.185869
1.8331
-0.168891
0.176756
0.165749
2.21763
-0.655689
-0.67964
0.0565241
0.623116
0.381607
0.0094772
-0.346956
0.539738
0.816555
0.42853
0.0767381
-0.0214974
-0.746979
0.202413
0.544566
1.23268
0.0504924
-0.0367026
-0.0500121
-0.358041
0.103695
-0.31081
0.776108
0.449993
-0.120066
0.0281797
0.29696
-0.39049
-0.0215007
0.0185367
0.111259
-0.147935
0.0366752
-0.300708
0.315254
-0.0145462
0.421068
-0.766117
-1.37303
0.0754328
1.2976
0.0964308
-0.201427
0.104996
0.269611
0.0403901
-0.528418
0.291616
-0.656411
0.656411
1.71402
1.2473
-0.715801
0.334286
0.482269
-0.406256
0.365196
0.911275
-0.36346
0.00802533
-0.87474
0.866715
0.13433
0.00482344
0.026243
-0.591917
0.0634988
0.0906544
-0.166565
-0.122804
0.289369
0.200385
-0.515759
0.349193
-1.08876
-0.284599
-0.648385
-0.0603079
-0.000446394
6.16346e-05
-0.226187
0.10718
0.065616
0.0344822
-0.143348
0.108866
-0.486866
-0.401902
-0.00571872
0.0686804
-0.800042
0.550442
0.2496
-0.570142
0.388815
-0.0848707
0.147994
0.235671
-0.00284881
-0.0136786
-0.815936
0.384686
0.0339763
0.0693182
-0.154519
0.0524431
0.199883
0.0087898
-0.426016
1.56713
0.447824
-0.0399392
0.867194
-0.790487
0.783361
-0.442107
-0.609464
0.173173
0.152741
-0.793463
0.765463
0.0279996
1.17379
-0.397683
-0.200222
-0.130866
-0.0808837
0.0202605
0.954059
-0.840423
-0.113636
-0.179874
0.106159
0.0277825
0.120855
0.878654
0.394051
-0.629234
0.235183
-0.326235
-0.0516823
-0.0170459
-0.782996
0.118528
1.38431
1.23038
0.0169255
0.168658
0.553407
-0.722065
0.0739302
0.0496729
-0.00575546
0.00290665
-0.51003
-0.0994337
0.118242
-0.141657
-0.184656
0.135714
-0.536147
0.279393
-0.992429
-0.499407
-0.288691
-0.562144
1.52239
-0.0820583
-0.284517
-0.451615
-0.109629
0.200344
0.298448
0.0560471
1.33325
-0.83767
-0.187132
0.125826
-0.259334
-0.426662
0.685997
-0.010995
0.00363041
0.048385
-0.0595649
-0.241143
-0.121625
0.697375
-0.419452
-0.277923
0.062612
0.135557
-0.097604
-0.0379534
0.242609
0.0558395
-0.231326
-1.47258
-0.0951509
0.138582
0.820937
-0.426886
0.018207
0.0761888
-0.0207669
0.0203195
0.000447422
0.011012
-0.035355
-0.239955
0.0775916
-0.0555782
-0.558426
0.420942
0.0177349
0.102466
-0.00603481
-0.694337
1.6789
-1.22891
0.0157826
-0.190623
0.17484
-0.139042
-0.538971
0.678014
0.0765841
-0.715126
-1.11609
-0.256939
-0.0654395
-0.000794346
0.0662338
-0.245647
-0.612399
-0.174748
-0.143606
-0.746979
-0.228448
0.163206
-0.277436
-1.14733
-0.442487
0.391
0.0514868
0.264942
0.115704
0.480072
0.178768
-0.65884
0.110787
0.0642195
0.797817
0.448959
-1.24678
-0.221696
0.476196
1.10172
-0.239079
0.17847
-0.661
1.1372
-0.0648926
0.0639357
-0.027614
0.0412232
-0.0161331
1.14468
-1.18462
0.728756
0.0891177
-1.43165
-0.134153
0.238638
0.672638
0.918156
0.0233148
-0.0183961
-1.23038
-0.648385
-0.713507
0.722988
-0.0520535
-0.912171
0.657149
0.607389
-0.933095
0.655018
-0.00593408
-0.787529
-0.313348
0.635833
-0.772988
0.137155
0.0814024
0.0541549
-0.346267
-0.22503
1.24235
-1.01732
-1.24838e-05
-0.00043391
-0.260793
0.212262
0.712417
0.224009
-0.208451
-0.181294
0.680841
-0.919046
0.0987731
0.104898
0.293007
0.904203
-1.19721
-0.949058
1.15147
0.786536
-0.236093
0.074972
0.319536
-0.544566
-0.00858858
0.214743
-0.0530008
0.0865635
0.059442
0.00367322
-0.0294482
0.025775
-1.02568
-0.0359343
0.316613
-0.807798
-0.74649
1.68625
-0.939759
0.370508
0.634619
-0.0500398
0.0535321
-0.0034923
-0.0984792
0.77932
-0.716464
0.742625
0.564743
-1.31123
0.311663
-0.0969199
-0.585434
-0.406995
-1.05844
1.35145
-0.0584526
-0.880674
-1.85986
-0.174164
0.319536
0.0494196
-0.857218
0.83208
-0.646337
-0.185743
-0.982256
0.396822
0.00806583
0.113307
-0.000695836
-0.112611
-0.971287
0.564292
-0.217259
0.910624
-0.924555
0.190169
-0.206416
-0.0948065
0.237853
1.1538
0.420308
-0.124233
-1.43865
0.557598
1.21688
-0.788352
-0.552855
-0.518146
1.071
0.447145
0.0164871
-0.0117794
-0.734289
0.698355
0.0446366
-0.143116
-0.372236
0.104262
0.267973
1.05203
0.634222
0.77923
-0.811757
-0.492721
-0.44949
-0.471688
-0.499598
0.80334
-0.80334
0.68487
-0.68487
-0.734289
-0.0285904
0.0285904
-0.104262
-0.629144
-0.40481
-0.5217
-0.0266034
0.0266034
0.0446366
-0.143116
0.77923
0.767898
-0.767898
0.811757
0.759399
-0.759399
0.507279
0.528312
0.481854
0.0180332
-0.500402
-0.55051
1.07882
-0.650223
-1.56693
0.508491
0.34208
0.444456
-0.17642
-0.00812155
0.0542155
-0.886126
0.0949609
0.791165
-0.131738
0.118621
-0.995982
0.584787
0.935002
-0.600716
-0.124898
0.00719317
-0.00908446
-0.808262
-0.0785669
-0.547143
-0.00362106
0.0125418
0.555882
-0.151897
0.0818891
0.173627
0.00181999
-0.010069
0.00824897
-0.812802
0.067273
0.745529
0.743327
0.410476
-0.532793
0.410593
0.122199
0.917291
-0.742255
-0.175035
0.0802536
0.295954
-0.0137347
-0.0572369
-0.0567796
-0.014528
0.769116
-1.42208
-0.841725
0.0979951
-0.740764
0.795955
-0.0551915
0.122438
-0.899664
0.777225
-0.802178
0.904415
-0.102237
-0.0674925
0.0785045
0.0198921
-0.28426
0.384753
0.966697
-0.0960452
-0.79008
0.915813
-0.0918227
-0.823991
0.074656
-0.130239
1.08541
0.821245
-1.14926
0.456983
-0.379239
0.103858
-0.893938
1.52624
0.350753
-0.791191
0.00366229
1.01816
-0.895726
1.22996
0.958943
-0.712044
-0.246899
-0.879702
-0.116281
-0.40909
0.0304084
-0.468923
0.705286
-0.785642
0.785642
-0.60248
-0.0869857
-0.864603
0.122348
-0.93405
0.85855
0.0739542
-0.196464
-0.057928
0.0607986
0.0111013
0.189161
0.829003
0.817429
0.771591
0.13859
-0.91018
-0.529197
0.973653
-0.781114
-0.107672
0.888786
0.173837
-0.890302
-0.675442
0.88945
-0.785592
-0.107125
0.457891
-0.0258245
-0.432067
-0.000362938
1.36339
-1.36303
0.254051
-0.420738
0.166687
-0.888239
-0.829161
0.0883975
0.523054
0.260307
-1.95904
1.14432
-0.572229
0.572229
-0.862881
-0.57577
-0.121987
0.185486
-0.990342
1.06577
0.781778
-0.205377
1.19428
-0.527979
0.905808
-1.08723
0.181417
-0.104602
-1.61625
0.178502
0.429746
-0.529646
-0.133173
0.149068
0.300798
-0.220545
0.780334
-0.882571
0.565437
0.408216
-0.151837
0.736624
0.577844
-0.577844
-0.0693358
0.0669099
0.108783
-0.0743011
1.21804
0.145355
0.231667
0.000159245
0.00405128
-0.00421052
-0.666489
0.694937
-0.0284488
0.298364
-1.01041
0.107905
-0.893497
-1.06975
1.41204
-0.342286
0.193744
0.876738
-1.195
1.49337
-0.754907
0.601448
-0.659043
-0.657017
0.150822
-0.1046
0.0271863
0.0911327
-0.390137
0.285537
0.00561467
-0.482992
0.0709884
0.724967
0.694191
-0.0927435
0.0766023
0.784613
0.0739774
0.214501
-0.288478
-0.71095
0.53382
0.583353
-0.96038
0.740384
0.219996
-0.684815
-0.127687
1.06417
-0.234488
-0.240484
-0.0379964
0.486041
0.513959
-0.770284
-0.112287
-0.482605
-0.304756
-0.413951
-0.285145
0.401487
0.598513
-0.134196
0.136858
-0.862107
-0.0693102
-0.589733
-0.152674
-0.249718
0.402392
-0.032792
-0.00404246
0.111253
0.0715545
-0.12841
-0.111545
0.760458
-0.642051
0.718653
0.156847
-0.546984
-0.230824
0.0106394
0.220185
-0.744225
-0.193969
0.938194
-0.243144
0.231944
-0.0245189
-0.0785267
0.00805167
0.0121202
0.703997
-0.131768
0.125425
0.110246
-0.735872
0.069383
1.02233
-0.197455
-0.615724
0.23152
-0.34416
-0.28716
1.02172
-0.00657859
0.305735
-0.139986
-0.00783147
-0.045482
-0.109571
0.00659149
1.01574
0.297848
-0.383933
0.0860851
0.848855
-0.0253349
0.000548967
0.0247859
0.127036
-0.0112242
-0.000673022
0.217692
-0.106432
0.132522
-1.12286
0.654967
-0.357119
0.00876406
0.290027
-0.373294
-0.950417
1.26396
-0.313548
-0.781761
0.838288
-0.0565269
0.521794
0.220066
-0.284959
-0.0682009
1.22463
-0.454252
-0.078541
0.277498
0.45567
0.196368
-0.652039
0.412102
0.0418641
0.653073
-0.573496
0.561953
0.0115429
1.34885
-1.14851
-0.0263667
0.03339
-0.00702326
0.697018
-0.00894665
-0.082849
0.0192786
1.36122
0.737169
-0.215375
0.0688322
-0.0808095
-0.120617
0.113667
0.0432386
-0.156906
0.0123114
-0.0086382
1.15927
-0.710311
0.176403
0.222998
-0.0258515
-0.0920099
0.221589
0.0973032
0.00568565
0.0813916
0.768006
0.30351
-0.163939
-0.139571
0.499941
0.245761
-0.745702
0.644319
0.122248
-0.0611622
0.00753367
0.0536285
-0.66115
0.000714024
-1.08794
-0.00343889
0.748217
0.71672
0.164227
0.486131
-0.832398
0.818156
0.135876
-0.0179483
-0.879404
0.0993257
-0.272402
-0.129593
-0.17099
0.692265
0.0757414
0.0132891
0.429402
-0.209336
-0.27974
0.161874
0.0287031
-0.112309
0.422636
-0.0571784
0.528889
-0.0722482
0.166201
0.073352
0.426589
-0.15302
0.0176756
-0.0508599
-0.109828
0.0167837
-0.000651806
-0.0161319
-1.51258
0.364073
-0.0109048
0.866698
-0.227566
-0.616228
0.639386
-0.0231582
0.445682
0.761648
0.513315
-0.29313
0.0781451
-0.172952
0.632082
0.129565
0.531424
0.635684
-0.264873
0.721857
0.187964
0.827778
-0.602771
0.349373
0.253398
0.156196
-0.0710085
0.041275
0.0629238
-0.0467971
1.15347
0.737256
0.0809003
0.619667
0.218739
-0.87191
-0.0809726
-0.674176
0.677838
-0.0235386
-0.584788
0.432113
0.874411
0.673947
0.140408
0.00969079
-0.163239
-0.315407
1.09227
0.586631
0.331846
0.0185394
0.8394
-0.0116222
0.697558
0.686555
-0.0771908
0.54627
-0.739954
0.929636
-0.189682
-0.411922
-0.190849
-0.041503
-0.194575
-0.203056
0.764431
0.0103667
-0.00315121
0.627965
0.175827
0.055693
0.604636
-0.132322
0.23994
0.74725
0.239003
-0.986254
0.277115
-0.923452
0.206269
-1.43518
-0.180942
0.771008
-0.590067
-0.666338
-0.105389
0.0268626
-0.0549089
-1.14418
0.0231935
-0.0439604
0.758742
0.109937
-0.321313
0.211376
-0.0339895
-0.579143
0.114838
0.190897
-1.46763
-0.00192939
0.00374939
0.116471
-0.0536081
-0.591664
0.0181677
0.568096
0.306315
1.11607
0.877579
-0.246845
-0.385128
0.631973
0.0733687
-0.617597
0.617597
-0.232443
-0.911641
1.14408
0.029955
-0.149508
0.685198
-0.117102
-0.220949
-0.412693
0.172208
0.660965
0.7759
-0.0379407
0.173329
-0.104807
-0.468833
0.483912
0.0780407
0.0557273
0.0145997
-1.59933
-0.00664109
-0.172909
0.694022
0.305978
-0.00664109
0.694022
0.00821842
-0.139013
0.00821842
-0.696041
0.696041
0.303959
-0.0142919
0.195318
-0.0758733
0.193993
0.103973
-0.465095
0.640937
-0.0363007
0.658767
-0.504257
-0.15451
-0.0583897
0.0579966
0.000393021
-0.0113321
0.0114913
-0.0474678
0.0188101
-0.077241
-0.434914
-0.351576
0.12539
0.0444771
0.832547
-0.27914
-0.526655
0.417027
-0.00149294
-0.144354
-0.0100975
0.681661
0.0665559
0.475881
-0.0196426
-0.00136271
0.0138183
0.0852136
0.563596
-0.475122
-0.088474
2.08903
0.548193
-0.266505
0.893562
0.0111847
-0.0620629
0.105531
0.20227
0.134332
1.12312
-0.375872
0.0138529
-0.0741607
0.675119
-0.396098
0.0222807
-0.0222807
0.0199252
-0.0199252
-0.0150294
0.0150294
0.0276539
0.365315
0.458701
-0.0279902
-0.72031
0.48759
0.189035
0.0286569
-0.0823228
-0.482926
0.756876
0.111689
-0.796504
-1.08065
0.111361
0.100343
0.0186428
-0.00265167
-0.019707
0.019707
0.181106
-0.0189126
0.0189126
0.701317
0.0904802
-0.013947
-0.00569558
0.00667253
-0.0685102
-0.0226069
0.0226069
-0.0101203
0.0101203
-0.0220175
0.0220175
-0.0143925
0.0143925
0.118202
-0.295737
-0.0827982
0.220309
-0.0133586
0.0133586
-0.372747
0.513521
-0.140774
0.502699
-0.22269
-0.462606
-0.0640495
0.559736
-0.120979
0.075265
0.564121
0.565909
-0.00666397
0.00666397
0.190922
0.0244703
-0.0244703
-0.0120389
0.0120389
0.756926
-1.14899
0.0364181
-0.171568
0.167393
0.00328795
-0.00328795
0.0123742
-0.0123742
0.0181465
-0.0181465
0.0234116
-0.0234116
-0.0232006
0.0232006
0.034705
-0.034705
0.481195
-0.0314356
0.0314356
-0.00261492
0.00261492
0.023806
-0.023806
-0.00539506
0.00539506
0.00799647
-0.00799647
-0.0621507
-0.0251742
0.0251742
0.362644
0.015575
-0.039003
0.039003
0.00525979
-0.00525979
0.01471
-0.01471
0.0331171
-0.0331171
0.0258079
-0.0258079
0.00393975
-0.00393975
-0.00220327
0.00220327
-0.557427
-0.221771
-0.00878034
0.00878034
-0.0018234
0.0018234
-0.0376999
0.0376999
-0.02805
0.02805
0.000420724
-0.000420724
-0.410058
0.648695
0.256064
-0.0316741
0.0316741
-0.0413805
-0.0133237
0.0133237
-0.00118508
0.00118508
0.03747
-0.03747
-0.220579
0.202631
0.00322275
-0.00322275
-0.0232071
0.0232071
-0.504709
0.0448249
-0.0532954
-0.0314924
0.0314924
-0.447756
0.0343019
0.0192301
-0.0311001
-1.40055
-0.0362671
0.0362671
-0.196879
0.139701
-0.0408346
-0.000798638
0.000798638
0.00433033
0.0459064
0.262617
-0.324136
-0.283446
0.607582
0.198114
-0.00429683
0.00429683
-0.198589
0.439716
-0.241126
0.775414
-0.400308
-0.375105
-0.457475
-0.659054
0.0822719
0.334755
-0.24268
-0.468269
-0.573689
0.00916868
0.190969
-1.18191
0.0152247
-0.0152247
-0.000444072
0.000444072
0.0304687
-0.0304687
0.0262504
-0.0262504
0.000201559
-0.000201559
-0.000377545
0.000377545
-0.0161668
-0.247058
0.177928
-0.302826
-7.33933e-05
7.33933e-05
-0.0450605
0.0450605
-0.0398115
0.0398115
0.192469
0.0205193
-0.212989
-0.00173109
0.319836
-0.547402
-0.000144295
0.000144295
-0.0103679
0.0103679
-0.0928952
0.134507
-0.0522346
-0.000603923
0.000603923
0.103644
0.0138683
1.00039
-0.484264
-0.0777396
0.562004
-0.629632
0.0727946
-0.541718
-0.0386435
0.0386435
-0.681743
0.278213
0.0488756
-0.0488756
-0.641914
0.380652
0.265662
0.123014
0.000275959
-0.000275959
-0.823956
0.000214322
-0.000214322
0.313213
0.409338
0.0475415
-0.0527884
0.0527884
-0.000899554
0.000899554
-0.041811
0.041811
-0.0538238
0.0538238
0.000384852
-0.000384852
-0.0594387
0.0594387
0.000213659
-0.000213659
-0.0450715
0.0450715
-0.00363355
-0.0451467
0.0451467
0.00256456
-0.00256456
0.0475434
-0.0475434
-0.000515413
0.000515413
0.0477479
-0.0477479
-0.146649
-0.00239118
0.00239118
-0.00426616
0.00426616
-0.0555836
0.082704
-0.0102618
0.0102618
0.00506775
-0.00506775
-0.0584886
0.0584886
0.294385
-0.0180067
0.0180067
-0.0568525
0.0568525
-0.00749571
0.00749571
-0.066222
0.066222
-0.0132683
0.0132683
-0.0792263
0.0792263
-0.0213115
0.0213115
-0.0935277
0.0935277
-0.690903
0.336107
-0.529015
0.505857
-0.863517
0.145053
-0.567959
0.396969
-0.0445296
0.107142
0.0034769
-0.0034769
0.264319
-0.724444
0.0421952
-0.0275956
-1.14874
1.59837
1.19353
0.252981
-0.0515866
-0.0242066
-0.396075
-0.577159
-0.0531105
0.390664
-1.21649
-0.0187583
0.0187583
-0.760254
0.0207125
-0.0207125
-0.00141679
0.00141679
0.311799
-0.39229
-0.00208481
0.00208481
0.0191354
0.0146333
0.595315
0.236144
-0.0107831
-0.00995754
-0.00843856
-0.0931198
0.490701
-0.397581
0.174744
0.00375811
0.011501
0.921679
-0.016422
0.0562561
-0.406708
0.437116
-0.484447
-1.01805
-0.218284
-0.0699695
0.0177761
-0.24158
-0.179158
0.0580126
-0.00353359
-0.0120516
0.783276
-0.555848
-0.0356172
0.0643203
-0.0351962
0.0579512
0.137367
0.426462
0.235358
-0.163846
0.211174
0.0171723
-0.00407164
-1.3034
0.0194429
-0.0446174
-0.276696
-0.0191146
-1.46682
-0.0710527
0.262107
-0.35067
0.388857
0.294814
-0.856958
0.0507068
-0.0268579
-0.103381
-0.344893
0.467092
-0.0837695
-0.0246281
0.108398
-0.0268678
0.0268678
0.175261
-0.426998
-0.0966019
0.117737
-0.0774905
0.0539519
-0.0656221
-0.00667766
0.0722997
-0.0345472
-0.151182
0.11166
-0.0729928
-0.289305
-0.362807
0.652112
0.0141356
0.0578759
0.152296
-0.026871
-0.122365
0.0660229
-0.15412
0.306861
-0.00187088
0.0266568
-0.0289092
0.181205
0.00332795
0.256551
0.000902416
-0.000902416
-0.310487
1.00804
0.0868225
-0.167795
-0.0507944
-0.0180339
0.832666
0.6607
-0.00774419
-0.0267313
-0.531951
0.0029362
0.132383
0.086446
-0.675037
0.311577
-0.0555232
0.386634
-0.67594
0.226575
0.513808
-0.0885481
0.0885481
-0.000695837
-1.26241
0.554534
0.707878
-0.208686
0.153777
0.189458
-0.198136
-0.567981
-0.129295
-0.0308061
0.0390125
0.929606
0.232349
-0.0919409
-0.0689853
-0.606143
-0.70509
-0.0783848
-0.262965
0.802702
0.583756
-0.26392
-0.257514
0.547542
-0.0450883
0.386875
-0.268009
0.103504
-0.468393
0.327619
0.122185
-0.122185
0.110627
-0.119274
0.00864604
0.00794695
0.000898482
0.0203195
-0.361582
-0.299568
0.231151
-0.186708
-0.0444437
0.547487
-1.07206
0.256209
-0.872446
0.69698
-0.123357
-0.179469
-0.0426054
-0.0790199
-0.482181
0.047267
-0.283374
0.00452008
-0.0191146
0.374752
-0.00524905
-0.000319413
0.00103392
0.0132106
-0.0110759
-0.00213469
-0.106913
-0.0173088
-0.164966
0.182275
-0.130405
-0.337988
0.0191354
0.346766
0.00170571
-0.370681
0.0819909
0.0024528
0.140359
-0.168349
-0.0118034
0.0118034
-0.000926468
0.00225392
-0.00941998
0.0013197
-0.0754225
0.00080475
-0.00118309
0.241596
-0.00671266
-0.000984044
0.000984044
0.117323
0.516015
0.00133998
-0.288197
0.464623
1.11988
-0.475298
0.339574
-0.43718
-0.231895
0.135294
0.234139
-0.233184
-0.0181121
0.0156501
-0.00352988
-0.00449753
-0.179144
-0.377638
0.865227
0.406074
-0.422241
0.219701
-0.0015879
0.190305
0.00343876
0.0009495
0.000805659
0.0148444
0.17022
0.00130315
-0.000204509
0.717531
-0.651508
-0.245292
0.103343
0.940289
0.000638308
0.00101948
-0.0408346
-0.00568449
0.817918
-0.430442
0.508482
-0.477666
0.904492
-0.424158
0.582093
-0.185124
0.693413
0.00109823
0.00330481
0.015338
-0.115199
0.139119
-0.243678
0.00957375
0.00103919
0.0633549
-0.0483957
-0.0149592
0.00107408
0.0447652
0.0162874
-0.0610526
-0.090343
0.00396679
8.44865e-05
0.00158052
0.469582
-0.427505
-0.0043421
0.00027643
1.1967
-0.642165
0.389024
-0.00579832
0.000354562
0.203832
-0.0274285
-0.03963
-0.120137
-0.0183109
-0.00354443
0.116781
0.045036
-0.00156819
0.418247
0.000786483
-0.00313409
0.00313409
0.00282691
-0.0127844
0.000128169
-0.321709
-0.00366721
0.071428
-0.107299
0.0348218
0.0219493
-0.0653775
0.000217688
0.00187497
0.472968
7.43993e-05
-0.00355546
-0.0379476
-0.00199953
0.000481692
0.0687286
0.162938
-0.710619
0.486217
-0.863854
-0.0446519
-0.000295631
-0.575482
0.064948
0.0841197
0.602262
-0.0151803
0.01602
-0.00391277
-0.00133214
-0.552178
-0.0032605
-0.000171191
-0.0436397
0.93339
-0.521288
-0.00247192
-0.000729071
-0.0057002
-0.00187577
0.069017
-0.0223313
0.0223313
-0.0289745
0.0312284
-0.00242795
-0.00773345
0.0334184
-0.0337378
-0.161212
0.0902035
-0.00577263
-0.0130043
0.043233
-0.0160176
0.0609041
-0.043128
-0.625216
0.570025
0.0201296
-0.00159085
0.3203
-0.154099
-0.0714435
-0.689833
-0.0778016
-0.121324
-0.0928283
0.0908287
0.683316
0.00051437
0.0116444
-0.010625
0.243473
0.0560531