/*--------------------------------*- C++ -*----------------------------------*\
| =========                 |                                                 |
| \\      /  F ield         | OpenFOAM: The Open Source CFD Toolbox           |
|  \\    /   O peration     | Version:  2306                                  |
|   \\  /    A nd           | Website:  www.openfoam.com                      |
|    \\/     M anipulation  |                                                 |
\*---------------------------------------------------------------------------*/
FoamFile
{
    version     2.0;
    format      ascii;
    arch        "LSB;label=32;scalar=64";
    class       volVectorField;
    location    "19.2";
    object      U;
}
// * * * * * * * * * * * * * * * * * * * * * * * * * * * * * * * * * * * * * //

dimensions      [0 1 -1 0 0 0 0];

internalField   nonuniform List<vector> 
2186
(
(1.33729 -0.0740871 2.23555e-19)
(1.62907 -0.960231 -5.7276e-20)
(1.47633 -0.935726 4.12149e-21)
(0.761173 -0.604507 -1.45774e-19)
(-0.331927 0.388769 -1.57977e-19)
(1.42225 -0.248372 0)
(0.739018 -0.683413 0)
(-0.293629 -0.45809 1.01911e-19)
(1.45114 -0.288875 1.68426e-19)
(0.569874 -0.339653 -2.32288e-21)
(0.662046 0.595642 0)
(0.77541 -0.283393 -1.14069e-19)
(-0.356714 -0.53968 -4.14024e-20)
(1.20063 0.0219844 -3.70945e-19)
(1.81526 -0.710331 -6.62992e-20)
(1.01211 -0.00519449 1.74607e-19)
(0.984733 0.0126614 0)
(-0.536481 0.315133 0)
(1.36312 -0.0509301 0)
(-0.0763718 0.20201 -5.86023e-20)
(0.48081 0.0564113 -1.13932e-19)
(-0.186189 0.153334 7.99576e-20)
(1.18758 0.0265241 3.06108e-19)
(-0.214329 -0.0101412 6.04994e-21)
(1.03134 0.00387912 -2.41002e-19)
(0.812211 -0.580502 0)
(0.763442 -0.0500072 1.44259e-19)
(0.627258 -0.606901 -1.69251e-19)
(1.19158 0.698184 0)
(0.96547 0.0228658 -3.28715e-19)
(-0.0353343 0.0510565 0)
(1.02475 -0.0157551 1.1389e-20)
(-0.0636003 0.174382 0)
(2.68859 0.140635 2.48908e-19)
(-0.125497 -0.192009 3.31088e-21)
(1.51266 0.762098 8.1962e-20)
(1.9401 0.122263 1.53063e-19)
(0.503808 0.105094 -3.39855e-19)
(1.86414 0.289126 -2.65986e-19)
(1.11881 -0.116767 1.50033e-20)
(-0.409493 -0.58658 0)
(-0.140092 0.111263 0)
(1.89084 -0.907275 7.64277e-20)
(-0.376442 0.12054 0)
(1.09778 0.265959 1.54027e-19)
(0.612219 -0.320756 2.79456e-19)
(0.938132 -0.801369 0)
(1.20906 -0.809663 1.11835e-19)
(2.32564 -0.105348 0)
(-0.275874 0.497812 1.64358e-19)
(-0.0250465 0.0984595 8.66044e-20)
(0.616945 0.568906 8.12485e-20)
(2.09049 -0.797823 8.59099e-20)
(0.582197 0.243217 -2.73953e-19)
(-0.243598 -0.00115281 3.03478e-20)
(0.78424 -0.670628 0)
(1.67172 -0.987471 1.80724e-20)
(0.597275 -0.557378 0)
(2.25284 0.267934 8.4855e-20)
(1.14918 -0.175064 -3.61716e-19)
(2.03923 -0.121086 1.71569e-19)
(1.3353 0.299889 -1.80468e-19)
(1.32356 0.52387 0)
(0.775481 -0.0939205 -1.64331e-20)
(1.34118 0.3824 -1.10625e-19)
(1.27126 -0.7527 -1.5679e-19)
(1.1508 0.648625 5.36304e-20)
(0.675206 0.0481386 -5.52935e-19)
(0.81785 0.038604 0)
(2.11691 -0.263689 -6.14767e-20)
(-0.289576 -0.518183 -1.1859e-19)
(2.1591 -0.107719 -1.73108e-19)
(0.727541 -0.0618223 -2.43347e-19)
(0.895526 -0.539667 0)
(0.817233 0.162553 -9.01279e-20)
(0.566036 -0.528109 -2.94379e-19)
(2.6074 -0.119857 0)
(1.00658 0.00747361 3.59857e-19)
(-0.119645 -0.261257 0)
(1.94797 0.388084 0)
(0.683425 0.315958 1.00925e-19)
(0.923416 -0.174335 -2.43628e-20)
(1.02669 0.00412473 4.0015e-20)
(1.30344 0.414989 2.78386e-20)
(0.970604 0.0217419 4.19632e-19)
(1.04332 0.026876 -9.94985e-21)
(0.659654 0.150436 -3.30331e-19)
(1.35129 -0.119077 2.10551e-22)
(0.961669 -0.191741 0)
(-0.0643273 -0.0406797 8.33528e-20)
(0.882988 -0.64465 -1.63315e-19)
(-0.0724669 0.318017 -1.23128e-21)
(1.12497 -0.0829998 2.46798e-19)
(0.829092 -0.202855 0)
(0.975539 0.0221524 4.00519e-20)
(1.34497 0.635987 0)
(1.64542 -0.97682 0)
(1.28507 0.217395 0)
(-0.345551 0.48083 0)
(0.814192 -0.688224 2.88939e-19)
(0.169152 0.279557 -2.85115e-19)
(0.603356 0.167707 1.8715e-19)
(1.54244 0.193487 0)
(1.15628 -0.110278 -2.25613e-19)
(1.11805 0.0235395 1.78065e-19)
(-0.030056 0.414766 1.06747e-19)
(0.61795 0.48119 0)
(2.23646 -0.198068 -1.23858e-19)
(0.983169 -0.498401 8.11396e-20)
(-1.30963 0.459603 2.77865e-19)
(1.7057 0.305129 1.03166e-19)
(-0.203522 0.510438 -2.38657e-19)
(0.833387 -0.75846 0)
(0.547806 0.318267 1.66257e-19)
(1.66721 -0.287069 -4.8219e-19)
(-0.463227 -0.40384 -3.96544e-19)
(1.31222 0.292747 9.54889e-21)
(1.88912 -0.136475 0)
(-0.0863361 -0.0500859 -2.49689e-19)
(0.713134 -0.0967579 7.69173e-20)
(1.53347 0.865941 0)
(-0.226405 0.545862 -2.50495e-19)
(0.867451 0.744117 -2.73311e-19)
(-0.703207 0.152262 3.76088e-19)
(1.02862 -0.0244616 0)
(1.52973 0.355562 -1.20326e-20)
(-0.281995 0.467626 0)
(0.719126 -0.519368 -1.05669e-19)
(-0.65019 0.246461 -2.02529e-19)
(0.806892 -0.737054 0)
(0.453774 -0.31189 4.05925e-19)
(0.562048 -0.480632 2.74881e-19)
(0.419269 -0.379784 0)
(1.00531 -0.802209 -1.27508e-19)
(0.570959 0.268885 0)
(-0.111683 0.567978 -1.28878e-19)
(0.832959 -0.718907 1.3867e-19)
(2.47141 -0.289869 2.75726e-19)
(2.26697 0.189157 0)
(-0.0941375 -0.169322 0)
(0.670902 0.623359 -3.41323e-19)
(1.80328 -0.650355 -2.5374e-22)
(-0.18003 -0.240175 0)
(1.00695 -0.82819 -1.37952e-20)
(1.15974 -0.106822 0)
(1.0953 -0.130991 3.91156e-19)
(2.17086 -0.208701 -1.11341e-19)
(-0.364081 0.392126 0)
(1.24511 -0.572716 -5.50105e-20)
(-0.254704 0.26974 -3.7877e-20)
(-0.181021 0.392426 0)
(1.11588 -0.834994 1.22404e-20)
(1.00642 0.004539 -6.01111e-19)
(0.672204 -0.504837 -1.037e-20)
(0.838674 -0.539286 0)
(1.22263 -0.750908 -9.40004e-20)
(0.64406 0.210596 2.56746e-19)
(1.21115 0.115747 0)
(1.47356 0.0910431 -2.52682e-19)
(1.21917 -0.876766 -2.05127e-19)
(-0.085157 -0.150543 -9.35625e-20)
(-0.163772 -0.400939 -1.76285e-19)
(1.06424 0.00409288 2.254e-19)
(0.938053 -0.485343 -1.02032e-19)
(1.44293 -0.117607 -1.94935e-22)
(1.30027 -0.107347 -1.54459e-20)
(0.689393 -0.106047 1.0059e-19)
(-0.189121 -0.0728485 -2.2248e-19)
(1.74163 -0.458983 0)
(1.85397 -0.484037 6.62254e-20)
(1.42501 0.640782 1.39959e-19)
(0.831391 -0.637185 -2.10773e-19)
(0.994221 0.00832507 1.23164e-20)
(0.743182 -0.555024 2.90483e-19)
(1.27967 0.785573 1.27942e-19)
(1.81965 0.106974 1.48918e-20)
(-0.402307 0.310311 0)
(1.07898 0.0486115 -2.33562e-19)
(-0.733588 -0.35865 -2.5208e-19)
(1.05757 0.479116 7.92083e-20)
(0.0229957 -0.1148 1.34472e-19)
(1.15581 0.0277869 -4.26852e-20)
(-0.145657 0.143565 -1.41929e-19)
(1.27622 0.575611 -7.78388e-20)
(1.11501 0.868712 0)
(-0.452102 0.309649 -8.33894e-20)
(-0.201339 -0.183103 0)
(0.635518 0.542449 -2.74626e-19)
(2.00641 0.222916 -1.88777e-20)
(-0.448568 -0.552638 1.40165e-19)
(-0.740627 0.0877159 -5.58941e-19)
(0.722004 0.0511119 2.42901e-19)
(2.01174 0.145003 -4.82324e-20)
(0.999518 -0.365174 -2.98807e-20)
(-0.0338905 -0.0482041 0)
(-0.875338 0.435061 4.20406e-19)
(1.30315 0.953742 -2.34978e-20)
(0.835106 0.0563206 -1.33229e-19)
(0.542062 0.507747 1.91239e-19)
(0.443302 0.189143 0)
(-0.116283 -0.541609 -2.03312e-19)
(-0.617903 0.605748 2.55074e-19)
(1.31689 -0.976908 4.47941e-22)
(0.991213 -0.0435625 -1.87015e-19)
(-0.18992 -0.140576 7.29607e-21)
(-0.132179 0.170297 1.31656e-19)
(-0.286965 -0.15479 -1.61562e-19)
(1.93082 -0.226499 0)
(1.13036 0.0393838 -3.13709e-19)
(2.23223 0.146327 2.2884e-19)
(1.29697 -0.639869 1.00864e-19)
(0.491641 -0.133696 1.50865e-21)
(0.577242 0.298446 0)
(0.922711 0.731739 -1.61904e-20)
(0.668876 0.614489 1.82688e-19)
(0.919266 -0.586121 1.47626e-19)
(0.664972 0.476407 0)
(1.0222 -0.00224364 8.02674e-21)
(0.905084 -0.686092 2.1025e-19)
(0.821273 0.401785 -4.50366e-19)
(1.26077 -0.117527 0)
(-0.196493 -0.216622 -2.6899e-19)
(0.0142267 0.278866 -8.64712e-20)
(1.56196 0.710682 0)
(1.37275 -0.960388 -3.83389e-22)
(-0.529613 0.347295 0)
(-0.304916 0.434773 1.00063e-19)
(0.717103 0.633303 -9.69078e-20)
(0.862132 -0.237696 0)
(-0.211306 -0.186513 0)
(1.58445 -0.483071 0)
(-1.27157 0.00719887 5.36192e-19)
(1.23574 -0.90516 1.34248e-19)
(1.19855 -0.624685 6.10842e-20)
(1.06891 -0.174383 -1.64541e-19)
(0.902287 -0.715954 -1.6606e-19)
(0.191318 -0.195748 0)
(-0.937891 -0.0784629 0)
(1.02325 -0.532087 1.74504e-19)
(-0.13964 -0.241865 0)
(-0.268314 0.505472 0)
(-0.445183 -0.373116 3.38541e-19)
(0.772355 0.650652 8.40708e-20)
(0.990997 0.775791 0)
(0.676337 0.529806 -8.37489e-20)
(0.833777 -0.0619805 -2.19528e-19)
(0.725424 0.5392 -2.24057e-19)
(0.576208 0.534512 -1.64712e-19)
(-0.249495 -0.517322 2.03756e-21)
(0.737038 -0.662246 0)
(0.892898 0.157234 -3.16867e-19)
(-0.347972 -0.599362 5.43058e-20)
(0.589525 0.545867 3.71663e-19)
(0.935792 0.778677 0)
(-1.21035 0.108717 3.80981e-19)
(-0.102475 -0.40919 2.81325e-19)
(-0.0148653 -0.303929 -1.45591e-19)
(0.644553 0.547775 -1.45535e-20)
(0.968766 -0.00854397 5.8188e-20)
(-0.423817 -0.579253 0)
(2.43842 -0.0797774 -3.14861e-19)
(1.87584 -0.492843 -2.78802e-19)
(0.669844 -0.621149 -7.44666e-20)
(-0.458011 0.147329 1.24887e-20)
(1.17678 0.453134 1.78997e-19)
(0.872628 0.393694 0)
(1.06406 -0.185874 1.90846e-19)
(0.0875584 -0.473759 -6.55032e-21)
(-0.0697018 0.0889943 3.29283e-19)
(0.927618 0.0170408 -5.19383e-20)
(1.11025 0.141929 0)
(2.00357 -0.0703416 -2.764e-19)
(1.88048 0.12197 0)
(0.533229 0.222877 -4.49892e-19)
(-0.142662 0.200886 0)
(-0.267362 -0.467681 2.32592e-19)
(0.701923 0.105278 0)
(0.642246 -0.538416 -1.78394e-19)
(1.13673 0.0182432 2.06043e-19)
(-0.384808 0.424506 3.7033e-20)
(2.17792 -0.0850775 4.3078e-21)
(2.13587 -0.299164 -1.20186e-19)
(1.10236 0.216963 -2.14997e-19)
(-0.364235 -0.615435 -1.07332e-19)
(1.0976 -0.872049 0)
(0.811955 0.0172752 -1.49927e-19)
(0.944744 -0.396392 -2.84756e-19)
(1.75148 -0.599053 -3.79189e-21)
(1.78312 0.030681 2.33891e-19)
(1.0776 -0.00754335 3.75705e-19)
(0.105569 -0.457822 -1.44059e-19)
(1.01446 -0.45766 -1.24735e-19)
(0.20184 -0.194422 2.51491e-19)
(1.00718 -0.00738509 0)
(1.00481 -0.0056843 0)
(0.978623 -0.36543 1.3576e-19)
(-0.0425975 0.536477 -8.72491e-20)
(0.165365 -0.122158 -1.22309e-19)
(2.05734 -0.0274741 2.73396e-21)
(1.09669 -0.0467544 0)
(1.85236 0.13613 -1.44079e-19)
(0.961035 -0.838322 -8.14954e-20)
(1.8112 -0.588319 -6.48924e-20)
(1.08202 0.818488 0)
(0.487568 -0.470385 0)
(0.585769 0.495206 -1.74223e-19)
(1.08345 0.268831 -3.96378e-19)
(2.32128 -0.288925 3.73915e-22)
(0.851802 0.143831 1.36039e-19)
(0.0436393 -0.480912 -4.33769e-19)
(1.12958 -0.452239 -6.091e-21)
(-0.252151 -0.426862 0)
(-0.106412 -0.182292 0)
(-0.499825 -0.491486 0)
(1.36231 -0.744499 -8.81875e-20)
(-0.180164 0.398559 -1.91737e-19)
(-0.0640806 0.142314 0)
(1.26391 0.955753 -3.50733e-20)
(1.10326 0.138379 -4.12601e-19)
(2.06232 0.544108 -4.52416e-20)
(1.05738 0.903229 8.43228e-20)
(-0.172999 0.509582 1.22513e-19)
(0.753651 -0.183909 0)
(-0.501313 -0.427238 -2.9223e-19)
(-0.237776 0.493468 2.31047e-19)
(0.774173 0.0129771 1.79622e-19)
(1.50547 0.928626 -8.90922e-21)
(1.78603 0.54823 9.59278e-21)
(-0.0992645 0.293659 -2.09116e-21)
(0.763059 -0.697253 -3.6611e-20)
(1.10229 -0.0152705 0)
(1.69779 -0.0842685 0)
(1.05005 0.0510685 0)
(-1.19395 0.606953 -2.52022e-19)
(-0.454874 -0.489876 1.07009e-19)
(1.0239 0.824712 0)
(1.00104 -0.00964346 5.02326e-19)
(0.747103 0.581761 -2.24681e-19)
(-1.61222 0.485202 -2.51633e-19)
(0.859202 0.00161389 -4.03407e-20)
(0.733004 -0.669791 -2.15442e-19)
(1.36047 0.693972 -3.24983e-20)
(0.583812 -0.477428 -2.85232e-19)
(1.13033 -0.00138475 -4.51776e-19)
(0.815935 0.0425306 4.42693e-20)
(1.56409 -0.195064 6.81687e-20)
(1.51491 -0.147081 -6.07665e-20)
(-0.0543457 -0.0751518 1.85314e-24)
(1.06642 0.454865 -2.6354e-19)
(1.30415 0.59975 6.69956e-20)
(-0.0922748 -0.354741 0)
(-0.0122984 -0.427993 1.60943e-19)
(-0.279015 -0.302448 1.12982e-19)
(-0.187129 -0.0932511 -1.15536e-19)
(0.457739 0.282056 0)
(1.32604 -0.507216 0)
(-0.000332739 0.00297758 -1.20015e-19)
(-0.29225 -0.630194 -6.11951e-20)
(1.04659 -0.0315062 1.79019e-19)
(-0.349001 0.298076 -3.82277e-20)
(1.37525 0.107699 -4.83767e-19)
(-0.0556947 0.551361 0)
(0.852714 -0.757167 -2.96935e-19)
(1.14705 -0.171427 7.1388e-20)
(-0.422038 -0.357144 1.5447e-19)
(0.710837 0.137149 3.21863e-19)
(0.61568 0.10779 1.04105e-19)
(0.51682 -0.49049 1.98159e-19)
(-0.202527 -0.301239 -1.23924e-19)
(1.44492 0.489671 0)
(0.37488 0.315059 -1.91063e-19)
(1.02607 -0.0164619 -2.84968e-19)
(-0.798779 0.0728495 2.17906e-19)
(1.39705 0.478401 -1.19739e-19)
(-0.163841 -0.307542 -4.65621e-20)
(0.697652 -0.637793 -5.44194e-20)
(0.803462 0.168047 -2.02311e-19)
(0.965793 0.410369 2.24867e-20)
(1.16106 -0.147222 3.431e-20)
(0.619423 -0.258165 -2.93261e-19)
(2.04347 -0.391836 -1.35829e-19)
(1.77766 -0.112228 0)
(1.60317 0.429554 -3.07411e-20)
(1.9798 0.0776222 -1.72698e-20)
(0.826936 -0.282531 1.23537e-19)
(0.935683 0.337831 -1.64096e-19)
(0.969062 -0.246812 3.7296e-20)
(0.402584 0.367356 -2.47824e-19)
(-0.181403 0.221364 2.24494e-19)
(1.94839 -0.237389 0)
(0.930449 0.0030413 0)
(0.891337 -0.789719 5.80175e-20)
(-0.0971597 -0.485341 -3.07733e-19)
(-0.803568 -0.0647995 -2.40954e-19)
(-0.0756743 -0.114362 -1.99868e-19)
(-0.360203 0.504088 -1.51646e-19)
(-0.31519 -0.372193 0)
(-0.0885845 -0.140242 3.51982e-20)
(0.176641 0.418224 -8.16341e-20)
(-0.149218 0.189388 -3.00356e-19)
(0.810789 -0.131516 0)
(1.66281 -0.562199 1.16558e-19)
(-0.253364 -0.302687 0)
(0.995777 0.023724 3.62151e-19)
(-0.10267 -0.45173 1.93884e-20)
(0.559339 -0.449371 3.8231e-19)
(-0.794196 -0.323165 4.17522e-19)
(-1.50723 0.0868128 0)
(0.207963 0.493641 9.56306e-20)
(1.00819 0.0219986 -1.08968e-20)
(-0.15148 -0.151759 0)
(1.0051 -0.00912791 -5.63135e-20)
(0.882047 -0.746571 -2.82639e-19)
(1.43732 -0.368586 0)
(0.948695 -0.288154 2.03831e-19)
(0.074578 0.513654 2.09128e-19)
(-0.02223 -0.0193359 0)
(-0.16631 -0.491399 -5.88384e-21)
(0.746495 -0.653706 -4.15308e-19)
(0.964969 -0.0298848 -2.62559e-19)
(-0.0837233 -0.533127 3.85153e-19)
(-0.213215 -0.432596 1.42228e-19)
(-0.294244 -0.417946 0)
(0.944758 0.458453 0)
(-0.353781 -0.471395 1.95558e-19)
(1.86387 -0.0535403 -2.46937e-19)
(1.05238 0.87746 1.8641e-20)
(1.06093 0.202011 -1.21175e-19)
(1.15718 0.00593724 -2.19066e-19)
(1.07128 -0.0670771 -7.82768e-20)
(-0.0774541 -0.560673 -3.5544e-19)
(1.99208 0.113755 4.44167e-19)
(0.66832 0.0283263 2.03527e-19)
(2.08213 -0.107211 1.59959e-19)
(1.07174 -0.162721 0)
(-0.0360766 0.52478 5.67119e-19)
(1.13737 0.0247222 -4.90699e-19)
(1.71937 0.609632 1.28843e-20)
(0.761118 -0.478292 -1.57436e-19)
(-0.0732535 -0.0458494 1.86685e-19)
(0.816794 -0.7182 3.70992e-19)
(1.22536 0.1908 7.29293e-20)
(1.00683 -0.00832712 2.49408e-19)
(0.0917428 -0.503435 -1.59323e-19)
(1.02031 0.0124309 0)
(1.7168 0.148419 -2.36347e-19)
(-0.0372504 -0.0290766 0)
(1.0179 0.0127837 -1.47302e-19)
(-1.53171 0.217302 -6.13181e-19)
(1.66475 0.305725 3.57187e-20)
(-0.404164 -0.329193 1.4246e-19)
(1.59506 -0.0059517 -4.08812e-21)
(1.01242 -0.019288 5.16627e-20)
(1.36197 -0.0925717 0)
(1.46684 -0.627981 -1.39556e-19)
(1.01952 0.0289488 -1.5267e-19)
(1.41619 0.774028 -5.99705e-20)
(1.42153 -0.0627728 0)
(0.746682 0.0529403 -1.33595e-20)
(-0.00276434 0.00332209 0)
(1.38527 0.0479383 0)
(-0.439537 -0.540781 0)
(1.22366 0.432967 0)
(1.82615 0.293165 4.28628e-20)
(0.721339 0.595281 3.93838e-19)
(0.299331 -0.301164 -2.34544e-19)
(-0.266674 -0.59211 -3.4237e-19)
(-0.0376468 -0.0509025 0)
(1.98957 -0.361735 1.16858e-19)
(1.32334 0.50646 0)
(1.43172 0.294978 0)
(-0.528342 -0.387788 1.29159e-19)
(0.7906 0.697677 1.27239e-19)
(1.73036 -0.0304412 0)
(-0.36055 -0.482376 7.91412e-20)
(0.901423 0.204688 1.85978e-19)
(2.08225 -0.376527 -5.50355e-20)
(1.21733 0.909167 4.55646e-20)
(0.937414 -0.84457 -3.53181e-20)
(1.52445 -0.164138 -1.4511e-20)
(0.777371 0.702021 1.30797e-19)
(1.15562 0.908146 0)
(2.51272 -0.20079 1.92206e-19)
(0.951756 0.695037 0)
(1.49127 -0.630384 3.91945e-20)
(0.964394 0.0933005 1.68911e-19)
(1.00596 -0.00511693 0)
(0.234734 0.547255 5.07806e-19)
(0.898477 -0.18905 4.6997e-20)
(0.649283 -0.433675 0)
(0.686927 -0.406292 2.06993e-19)
(1.22155 0.547497 -3.3263e-20)
(0.462135 0.434677 2.72777e-19)
(-0.175704 0.248291 3.55349e-20)
(0.0425913 -0.0462875 8.41844e-20)
(0.760757 0.0669416 0)
(1.34375 -0.920371 -7.75061e-20)
(1.02971 -0.0437138 3.97471e-19)
(1.47865 0.327222 1.30039e-19)
(-0.394471 -0.517074 6.85445e-20)
(-0.880641 -0.414859 0)
(1.24585 -0.252656 -1.11869e-19)
(-0.0206791 -0.0208541 -1.61808e-19)
(0.0741109 -0.161082 -6.34977e-20)
(-0.128554 0.0462064 -7.23174e-22)
(-0.19804 0.0918555 2.7151e-19)
(1.4336 -0.254507 -8.59648e-21)
(2.44746 -0.0847243 4.21567e-19)
(1.17723 0.454255 -2.88645e-19)
(0.847047 -0.0512557 0)
(1.89237 -0.136946 2.25187e-19)
(1.90855 0.105764 1.18096e-19)
(0.932146 -0.784721 1.38758e-19)
(1.17283 -0.991588 -4.04682e-20)
(0.466964 0.432559 1.83097e-19)
(1.44531 0.398565 0)
(1.73053 0.565649 2.39824e-20)
(-0.0285982 -0.0351485 -3.30007e-19)
(0.866177 0.755103 0)
(1.3644 0.420017 0)
(0.30077 -0.30075 -3.75511e-21)
(0.308608 0.277084 0)
(-1.06363 -0.329615 -3.97352e-19)
(-0.241394 0.371679 -1.04911e-19)
(1.74171 -0.449555 0)
(1.23263 0.104076 1.82212e-19)
(-0.545899 0.00941272 2.01039e-19)
(0.548456 -0.521217 -4.53803e-19)
(2.05384 -0.0970953 -5.3917e-20)
(0.627275 -0.570488 0)
(1.02355 0.121474 0)
(1.34491 -0.267546 0)
(1.106 0.21581 -2.2963e-19)
(1.33457 0.104338 3.25561e-19)
(-1.22347 -0.0625558 0)
(0.894137 -0.0630871 0)
(2.14723 -0.126376 -5.82836e-21)
(-0.0678883 0.143729 9.10647e-20)
(2.57323 0.0145753 -2.99742e-19)
(1.06108 -0.521058 1.66085e-19)
(2.02203 0.0379816 -3.21982e-19)
(-0.892156 0.037666 -1.64262e-19)
(1.95467 0.125532 -1.91159e-19)
(1.01687 -0.0283501 4.08406e-19)
(1.49555 0.594194 0)
(-0.269385 0.460078 2.81603e-20)
(1.02439 -0.847938 1.7171e-19)
(0.860006 -0.0319217 4.71536e-20)
(0.653871 -0.456172 0)
(1.92393 -0.562014 4.05038e-21)
(1.22474 -0.194769 1.46703e-19)
(1.77622 -0.559443 0)
(0.621615 -0.577751 4.3668e-19)
(0.696058 0.0893863 -2.0392e-20)
(2.36975 0.0168209 4.93863e-19)
(-0.0952183 0.227324 -1.88142e-19)
(1.31421 0.609122 1.49329e-19)
(1.13421 0.395894 3.62586e-21)
(0.89657 0.35722 2.21151e-19)
(1.96677 0.00190796 -2.76698e-19)
(-0.094019 -0.578059 -5.28333e-21)
(0.766826 -0.226356 0)
(-0.155422 -0.0988415 3.0694e-19)
(1.10478 -0.963523 0)
(1.08429 -0.672272 2.13048e-20)
(1.20733 -0.160978 -7.22205e-19)
(1.4179 0.066789 -2.01691e-20)
(-0.602553 -0.257573 -3.65864e-19)
(0.975785 0.468853 1.72761e-19)
(-0.216495 0.777256 2.78708e-19)
(0.690271 -0.0382086 0)
(1.96561 -0.0707417 0)
(1.6277 0.164601 2.53529e-20)
(0.782399 -0.0124215 0)
(1.38775 -0.220372 -1.50954e-19)
(-1.33691 -0.14064 5.03758e-19)
(1.89751 0.490847 4.97676e-21)
(1.04019 -0.0324519 0)
(0.56975 -0.376338 1.02202e-19)
(1.01037 0.0263275 1.94262e-19)
(0.185472 0.625636 -2.38664e-19)
(-0.365071 0.444221 0)
(1.1295 -0.495469 4.79692e-19)
(1.82209 -0.133966 -5.17947e-22)
(1.11877 -0.515181 -2.08806e-19)
(2.29388 0.262547 1.50696e-19)
(1.26638 0.775926 0)
(0.860985 0.0180459 0)
(-0.453995 -0.522433 -1.72962e-19)
(-0.00157742 0.00266035 1.35027e-19)
(0.94019 0.353616 -2.04447e-19)
(0.255215 -0.415479 -1.42174e-19)
(0.630436 0.383705 2.38236e-19)
(0.970393 0.0664831 0)
(0.551007 -0.512574 0)
(0.743179 -0.288678 5.6577e-21)
(1.25172 -0.52657 -9.74013e-20)
(0.629396 -0.0536823 1.16826e-20)
(0.738657 -0.176455 1.15807e-19)
(-0.0524572 0.0807528 -2.41353e-19)
(1.09905 0.133048 2.34192e-19)
(0.646936 0.602502 0)
(1.25034 0.682585 0)
(1.59302 0.260751 0)
(-0.406432 -0.383469 -1.59793e-19)
(1.24123 0.546567 1.84932e-19)
(2.07767 0.0564729 5.25826e-20)
(0.919494 -0.00902117 0)
(1.80337 -0.517068 0)
(2.17844 -0.0869173 -3.37931e-19)
(0.517197 0.528095 2.74734e-19)
(1.00608 0.00251208 -1.94205e-19)
(1.46881 0.463474 0)
(-0.273931 0.474444 0)
(1.23051 0.313053 2.8431e-19)
(1.00989 0.514251 -1.28401e-19)
(1.06827 0.0212797 0)
(1.72963 0.126203 0)
(1.95451 0.658313 -2.69006e-19)
(-0.0813127 0.392011 -1.78041e-21)
(0.996928 0.0132214 0)
(0.690327 0.449546 -3.28261e-20)
(0.952779 -0.841236 0)
(1.00482 0.0150226 4.51339e-20)
(0.682364 -0.539639 6.77043e-21)
(0.918032 -0.339129 2.99996e-19)
(0.851308 -0.459695 -7.17213e-20)
(2.24813 -0.162371 3.40852e-19)
(1.37145 0.140223 9.78005e-20)
(0.795235 -0.0277268 0)
(1.01811 0.0093289 0)
(-0.628954 -0.420285 0)
(0.652303 0.6243 -1.86914e-19)
(-0.0297843 0.0458994 1.62819e-19)
(1.15399 0.336565 -4.55695e-19)
(-0.499707 0.321349 0)
(0.809374 0.622374 1.65725e-19)
(1.02302 -0.350354 0)
(1.0057 -0.000778338 1.13646e-19)
(0.502369 0.0570263 7.89547e-20)
(1.02246 0.393316 2.53573e-19)
(1.27882 0.184203 0)
(2.12376 0.18124 -7.68696e-20)
(0.831125 -0.12858 -3.56389e-19)
(-1.10799 -0.359392 -5.74925e-19)
(1.17651 0.266446 0)
(0.871063 0.225374 1.72136e-19)
(2.05305 -0.206699 0)
(0.757475 0.499496 3.5702e-19)
(-1.35005 -0.249368 2.24896e-19)
(-0.0395494 0.0840752 0)
(0.577656 0.548651 -6.97296e-20)
(1.04675 -0.660405 -1.4935e-19)
(0.494257 -0.278314 -1.18877e-19)
(1.02038 -0.0177145 0)
(-0.33999 0.162628 -2.00106e-19)
(0.65584 -0.586764 7.94501e-20)
(0.900343 0.274284 0)
(1.69844 -0.470291 1.47246e-19)
(0.963578 0.820457 2.41812e-20)
(0.958618 -0.586622 -8.97227e-21)
(0.19678 -0.217916 -2.27429e-19)
(0.240418 -0.0861887 -5.38607e-19)
(-0.123249 -0.234481 8.64054e-21)
(0.802346 0.337839 2.42748e-19)
(-0.199246 0.423753 -4.75034e-21)
(1.43311 -0.667987 3.53936e-21)
(1.02435 0.00554082 -3.37382e-19)
(-0.480912 -0.336358 0)
(1.0292 0.0286236 -3.97949e-19)
(2.22179 0.181651 2.30051e-19)
(0.867258 0.670074 2.78505e-19)
(1.13811 -0.0735347 1.57177e-19)
(1.00545 -0.0335884 1.5616e-19)
(1.46626 0.0861931 1.81672e-20)
(-0.345233 -0.40476 -4.28562e-22)
(1.7427 -0.892612 1.50638e-20)
(1.16023 -0.139959 -7.54809e-20)
(0.804926 0.0520465 8.66886e-20)
(0.922239 -0.308821 8.79025e-20)
(1.0023 0.228216 0)
(0.941229 0.715125 0)
(0.849856 0.118092 -9.41082e-20)
(2.07071 0.184552 -2.26331e-20)
(-1.00798 -0.262508 1.8449e-19)
(1.04714 -0.557309 -5.05102e-19)
(0.635009 -0.553502 3.80628e-19)
(1.16344 0.215067 -1.24676e-19)
(0.275897 -0.441103 1.63363e-20)
(1.45808 -0.599203 0)
(0.747793 0.0954197 -6.60806e-21)
(1.55687 -0.592902 -6.77839e-20)
(1.01857 0.742825 0)
(1.2657 -0.676869 0)
(0.280926 0.0827511 0)
(-0.2 -0.336988 -5.63704e-20)
(-0.0961148 0.157311 0)
(1.68833 0.613927 3.46767e-19)
(1.21287 0.177077 6.28432e-21)
(-1.13138 0.181693 2.45519e-19)
(1.88425 0.617562 1.15139e-20)
(1.79663 0.453156 -5.65696e-20)
(2.1808 -0.352566 -3.52279e-20)
(-0.169939 0.0143213 -1.90385e-19)
(-0.176564 -0.468876 4.38575e-21)
(1.03929 0.109731 0)
(0.673878 -0.0338977 0)
(1.00186 0.000257365 2.00369e-22)
(-0.441324 -0.364992 0)
(1.57613 -0.00327849 -1.01207e-19)
(0.677114 -0.0310935 0)
(1.06406 0.00464717 1.2603e-19)
(0.992689 0.0156489 -4.41751e-20)
(1.00235 0.225371 1.42661e-19)
(1.06232 -0.0182815 -9.09438e-22)
(0.960557 -0.204835 -5.30943e-20)
(1.02472 -0.0363453 3.62637e-19)
(0.689627 -0.6284 1.79675e-19)
(-1.01886 0.273418 -2.73034e-19)
(1.14722 0.401311 1.45971e-20)
(-0.00280699 0.009136 0)
(1.10413 0.776876 0)
(1.02973 -0.00980928 0)
(1.02273 -0.793535 -1.03605e-19)
(1.0543 -0.90522 4.35823e-20)
(0.961534 0.239973 -1.96008e-20)
(0.134961 0.245088 -1.11235e-18)
(1.26246 -0.532815 2.13092e-20)
(0.602932 -0.408383 -6.15667e-19)
(1.29885 0.40607 -3.79626e-20)
(0.836557 -0.228234 -1.08273e-19)
(2.10276 -0.357001 9.96652e-20)
(0.447927 0.0818017 -1.54038e-20)
(-0.327905 -0.486753 -1.18526e-19)
(1.09991 0.540261 1.95392e-19)
(-0.0987891 -0.344202 0)
(0.180977 -0.433353 3.59881e-19)
(-0.0988871 -0.13073 4.0458e-23)
(1.02739 -0.0430765 3.25699e-19)
(1.025 -0.0013526 -8.37402e-21)
(1.10942 -0.0121882 -9.00561e-20)
(1.4744 0.0964869 1.22993e-20)
(1.60334 0.31733 5.92298e-20)
(0.412315 -0.387824 -3.06085e-19)
(0.819304 0.177252 3.51812e-20)
(1.03657 -0.0032803 -2.39114e-19)
(1.13651 0.285525 -1.5027e-20)
(1.44789 0.159653 0)
(1.09328 0.578711 -3.66547e-19)
(1.00267 -0.00479554 9.27749e-20)
(0.658144 0.585871 2.55046e-19)
(1.31534 -0.444193 -8.42919e-22)
(1.06538 -0.0110489 -2.96084e-20)
(1.12943 0.0112918 8.40075e-22)
(2.47225 0.0919724 1.80071e-20)
(0.41334 0.121949 0)
(1.046 -0.0403739 0)
(1.05266 -0.0350579 5.70556e-19)
(1.0029 -0.00407382 0)
(-0.0623365 -0.0860697 0)
(0.950525 -0.585207 0)
(1.001 -0.00115508 -5.39476e-19)
(1.17609 -0.701156 8.3047e-20)
(1.02227 -0.00370746 1.13239e-20)
(1.31898 0.938395 -2.8021e-20)
(1.50044 0.986543 1.5e-20)
(1.13869 -0.336486 -3.23322e-20)
(1.59286 0.137202 2.57649e-19)
(1.44043 0.263973 0)
(0.0221179 0.456355 0)
(2.19487 -0.116274 5.32724e-19)
(1.22637 -0.694792 0)
(0.999822 -0.00517594 -1.67075e-19)
(1.01024 -0.000464113 3.24625e-19)
(1.43105 0.139834 -6.8389e-20)
(-0.0074306 -0.12276 2.38243e-19)
(0.969717 -0.00191499 1.76522e-19)
(0.144269 0.0127931 2.04567e-20)
(0.237401 -0.0871825 -1.30618e-20)
(1.57272 0.128283 3.90316e-23)
(0.92689 0.0159426 -1.77675e-19)
(1.00226 0.00389879 2.09667e-19)
(1.00001 0.000144548 1.23823e-20)
(0.790437 -0.0130963 0)
(0.728927 -0.026479 0)
(0.724151 -0.0266168 7.08257e-22)
(0.699866 -0.0282101 0)
(1.19952 -0.170765 0)
(0.476345 -0.109349 0)
(-0.0626858 -0.093211 4.55976e-20)
(0.172432 0.017816 -2.38318e-20)
(1.2339 0.00928825 0)
(1.30017 -0.0404566 8.36277e-21)
(1.56942 0.0865167 0)
(0.00298435 0.0785836 0)
(-0.0391942 -0.00414084 0)
(0.150934 0.0445798 -3.28513e-21)
(0.714124 0.1412 3.495e-20)
(0.788535 0.0233498 0)
(0.792846 0.020477 0)
(0.964444 0.0200361 -2.19014e-19)
(0.817212 0.00877097 4.08835e-19)
(1.00709 -0.00143516 0)
(0.999922 -0.00043078 3.87367e-19)
(1.0001 -0.000625492 -3.54622e-22)
(0.794037 0.0224057 3.47678e-19)
(0.990728 -0.00762387 -2.02659e-19)
(0.110656 0.057114 0)
(0.0621675 -0.0115905 1.30707e-20)
(1.00113 -0.00096703 -1.95791e-19)
(1.00032 0.00124102 -3.35995e-19)
(1.28397 0.0484159 0)
(0.999304 0.00176487 0)
(0.999441 0.0003899 0)
(1.53137 -0.568158 5.24331e-21)
(0.736956 -0.178211 3.16783e-20)
(0.949126 0.295501 0)
(-0.314487 0.300519 1.78602e-19)
(-0.488096 0.554088 -4.95056e-19)
(1.01939 -0.0178091 -2.60925e-19)
(-0.361707 -0.583237 -1.10896e-19)
(1.01918 -0.000464248 -2.10039e-19)
(1.18814 -0.222563 -9.98069e-20)
(0.816718 -0.493092 2.96347e-19)
(-0.0603316 -0.0867711 -8.06923e-20)
(1.02899 0.0111446 0)
(1.05107 -0.0117624 -5.69837e-20)
(0.859584 0.0236447 0)
(-0.0446331 0.0491927 2.38295e-19)
(1.11739 -0.570887 0)
(-0.483799 -0.427751 -2.79912e-19)
(0.232697 0.0591943 -1.54047e-20)
(1.63038 0.671417 -1.59154e-20)
(-0.0595868 -0.0193036 0)
(1.05582 -0.0370223 1.76414e-19)
(1.17941 -0.331859 4.12357e-21)
(0.925365 -0.0226073 2.76699e-19)
(1.01256 -0.00866083 -1.77744e-19)
(1.64786 0.846444 3.04249e-20)
(0.508281 0.475236 0)
(0.429168 0.37701 1.9977e-19)
(1.71797 -0.512194 -1.46186e-21)
(1.14566 0.121975 1.90765e-19)
(1.1067 -0.730731 0)
(1.02038 0.00229903 0)
(0.999166 -0.0185165 -4.09544e-19)
(1.01883 0.0142473 -3.98928e-19)
(-0.168202 -0.363791 0)
(1.19969 0.804677 -1.30613e-19)
(1.48325 -0.42972 8.975e-22)
(1.01559 0.00277928 1.53596e-19)
(1.01102 0.0142976 -1.92641e-19)
(-0.563346 -0.358711 -2.74947e-20)
(1.16202 -0.185604 -9.44599e-20)
(1.01788 -0.0167795 6.55312e-19)
(1.26226 -0.292519 0)
(1.82844 0.638368 -3.80368e-20)
(1.01584 -0.0144281 -2.04125e-19)
(2.06269 0.0868654 -1.45461e-19)
(1.06056 0.0061962 -4.70849e-22)
(1.00983 -0.0103841 4.08337e-20)
(2.12199 -0.284135 -2.89676e-19)
(1.01576 0.00564223 1.97965e-19)
(0.983846 0.21333 1.8144e-21)
(1.01848 0.00138961 0)
(0.92724 0.137759 4.86775e-20)
(-1.12259 -0.0974355 6.70234e-21)
(0.998039 0.0210924 1.96685e-19)
(1.03963 0.0198993 -6.04128e-22)
(1.30203 -0.294723 -7.48188e-21)
(1.23857 0.308587 4.07779e-19)
(0.999804 0.014199 1.35178e-19)
(1.01688 -0.0156918 4.7404e-22)
(1.70865 0.257834 -2.36294e-20)
(1.74684 0.922914 -9.61779e-20)
(0.790303 -0.710236 5.74119e-20)
(0.466459 -0.351965 -2.97664e-19)
(1.00792 -0.0118842 0)
(1.01967 0.00135608 4.91878e-20)
(1.01056 -0.00973455 1.03716e-19)
(1.00514 0.0104825 6.21271e-21)
(1.01332 0.00490474 -2.06155e-19)
(1.02929 -0.0278866 2.3594e-19)
(1.00929 -0.00792752 -1.93944e-19)
(1.01503 0.00409476 -4.97892e-22)
(1.01304 0.0021172 -3.49069e-22)
(1.02443 0.0134645 1.9732e-19)
(0.894716 0.0732062 5.00063e-19)
(1.74356 0.673286 0)
(0.608035 -0.273584 2.96666e-19)
(1.01037 -0.00406321 0)
(1.02077 -0.0193885 -5.72135e-20)
(1.51855 0.445146 -8.22652e-20)
(1.96693 -0.0242181 0)
(2.32732 -0.283949 -1.22063e-19)
(1.21262 0.540969 -5.61525e-20)
(0.749937 -0.0139393 0)
(1.93337 -0.159112 0)
(0.0400536 0.346897 -1.917e-19)
(1.3083 -0.0229419 -2.01463e-20)
(1.01917 -0.00712571 -2.07721e-19)
(1.13609 -0.581557 -5.92023e-20)
(1.25974 -0.168341 -2.89966e-20)
(1.33712 0.436685 0)
(1.39776 -0.560673 0)
(1.89393 0.496293 0)
(0.11423 0.406509 8.04516e-20)
(1.07228 0.12434 9.89585e-20)
(-0.316696 0.401751 0)
(-0.0540425 0.404423 -2.63065e-19)
(1.67217 0.951203 -4.47059e-20)
(1.00861 -0.00334769 -4.05961e-19)
(1.0542 -0.00533494 2.49363e-20)
(1.02049 0.00476935 2.6876e-19)
(0.684049 -0.039801 0)
(-0.148859 -0.318819 -2.4539e-20)
(0.59679 0.408927 -3.35866e-19)
(1.78404 0.611439 9.18854e-20)
(0.082118 0.496909 0)
(0.797779 0.0830313 7.67512e-20)
(0.507366 0.483806 5.09987e-20)
(1.16454 0.868223 -3.55065e-20)
(-0.042185 -0.0317482 1.18955e-19)
(1.01828 0.00859648 0)
(1.20428 0.253918 5.46504e-20)
(1.01161 -0.00183407 1.52414e-19)
(2.36642 0.17087 0)
(1.00987 0.00782943 2.55577e-19)
(0.276525 -0.458854 -1.70486e-19)
(1.0211 0.00955138 -1.58229e-19)
(1.2956 0.257972 0)
(2.11417 -0.260827 5.60188e-22)
(1.00926 0.00525587 -1.06149e-19)
(0.995124 -0.035408 2.80167e-19)
(1.08861 0.0896751 -2.69712e-21)
(1.06451 0.363804 -4.49422e-20)
(-0.144534 -0.0785315 3.10732e-19)
(1.9507 0.297339 1.57885e-19)
(0.502501 0.125297 5.17579e-20)
(0.803636 0.01497 -3.83389e-19)
(0.796672 0.0240733 0)
(0.544216 -0.0523151 5.74334e-20)
(1.02153 -0.0184756 -3.07422e-20)
(0.973484 0.0180114 0)
(1.04964 -0.00188943 -1.95156e-19)
(0.131713 -0.467715 -3.33469e-20)
(-1.35579 -0.259067 2.65497e-19)
(2.17661 -0.618782 0)
(-1.20592 -0.0333974 -6.94907e-19)
(1.53682 -0.36105 0)
(1.03899 -0.0183545 5.72679e-20)
(1.12288 0.073611 1.19097e-21)
(1.01475 -0.00253438 1.64869e-19)
(-0.940335 -0.1389 4.18698e-19)
(1.01733 0.00408949 0)
(0.992407 0.00403983 -3.96824e-19)
(1.00828 0.00691489 2.09625e-19)
(0.804155 0.0709116 0)
(0.7139 -0.0293029 -7.49596e-21)
(0.957403 -0.00157954 -1.79269e-19)
(-0.274161 -0.59651 3.76117e-19)
(1.00531 -0.00249288 -2.04468e-19)