/*--------------------------------*- C++ -*----------------------------------*\
| =========                 |                                                 |
| \\      /  F ield         | OpenFOAM: The Open Source CFD Toolbox           |
|  \\    /   O peration     | Version:  2306                                  |
|   \\  /    A nd           | Website:  www.openfoam.com                      |
|    \\/     M anipulation  |                                                 |
\*---------------------------------------------------------------------------*/
FoamFile
{
    version     2.0;
    format      ascii;
    arch        "LSB;label=32;scalar=64";
    class       volVectorField;
    location    "43.4";
    object      U;
}
// * * * * * * * * * * * * * * * * * * * * * * * * * * * * * * * * * * * * * //

dimensions      [0 1 -1 0 0 0 0];

internalField   nonuniform List<vector> 
2186
(
(1.33514 -0.0651004 1.76663e-19)
(1.76739 -0.989886 -1.94004e-19)
(1.57945 -0.965505 -5.56896e-21)
(0.792769 -0.632701 -1.21113e-19)
(0.125447 0.0184866 -1.28502e-19)
(0.185028 0.537653 0)
(0.791771 -0.730173 0)
(-0.216341 -0.292609 1.77666e-19)
(2.03802 0.179499 2.79908e-19)
(0.596523 -0.373466 -3.04555e-21)
(0.633541 0.569515 0)
(1.22265 -0.255412 -2.29499e-19)
(-0.232434 -0.29363 -6.88997e-20)
(1.21385 0.0219915 -3.45741e-19)
(1.97174 -0.669553 -1.91014e-19)
(1.00833 -0.00492377 1.68517e-19)
(0.979563 0.010398 0)
(-0.218114 0.84186 0)
(0.846029 1.22973 0)
(-0.171355 0.0605944 -2.86184e-20)
(0.477634 0.00909289 -1.11537e-19)
(-0.212533 0.16269 4.02319e-20)
(1.19972 0.0249995 2.87022e-19)
(-0.230244 -0.149281 5.93414e-21)
(1.03717 0.00388015 -2.257e-19)
(0.844642 -0.603922 0)
(0.76849 -0.0776441 1.35095e-19)
(0.671253 -0.64956 -1.30596e-19)
(1.16113 0.679172 0)
(0.97096 0.0237398 -3.08274e-19)
(-0.086068 0.0237623 0)
(1.02982 -0.0151337 1.06826e-20)
(-0.282543 -0.0654971 0)
(1.31166 0.134465 -2.52216e-20)
(-0.106032 -0.187355 2.08429e-21)
(1.47433 0.746292 1.48656e-19)
(1.19934 0.01337 -1.77878e-20)
(0.496037 0.0594455 -3.35359e-19)
(1.77724 0.27998 -2.72286e-20)
(0.398992 0.37786 -3.65099e-20)
(-0.24486 -0.299056 0)
(-0.16144 0.0743538 0)
(2.10488 -0.883679 1.51102e-19)
(-0.410742 -0.0109039 0)
(1.07553 0.260924 1.67862e-19)
(0.634696 -0.353345 2.55818e-19)
(1.01489 -0.85741 0)
(1.26699 -0.828247 5.95866e-20)
(2.47582 -0.395729 0)
(-0.10295 0.473089 1.00841e-19)
(-0.0906405 0.0201355 4.22649e-20)
(0.584793 0.539658 9.23885e-20)
(2.26772 -0.69303 1.92324e-19)
(0.569447 0.209993 -2.74551e-19)
(-0.387069 -0.243875 1.62179e-20)
(0.823751 -0.702265 0)
(1.89707 -1.03299 2.5173e-20)
(0.638872 -0.596227 0)
(2.21602 0.222442 1.54184e-20)
(1.16504 -0.179792 -2.86653e-19)
(1.56754 -0.236849 3.27857e-20)
(1.30805 0.284342 -2.17037e-19)
(1.30018 0.51231 0)
(0.630231 0.486143 4.00164e-20)
(1.32322 0.372446 -1.43418e-19)
(1.331 -0.772924 -7.11576e-20)
(1.12334 0.631005 6.41054e-20)
(0.680384 0.0192924 -5.36384e-19)
(0.814178 0.017021 0)
(2.38845 0.255528 -7.99787e-20)
(-0.202759 -0.292118 -2.12766e-19)
(2.0041 -0.378515 -5.22989e-20)
(0.734889 -0.0899626 -2.32478e-19)
(0.927616 -0.561174 0)
(0.81195 0.137903 -8.94641e-20)
(0.601952 -0.562345 -2.53342e-19)
(2.45455 -0.426508 0)
(1.00702 0.0066617 3.41571e-19)
(-0.08746 -0.237039 0)
(1.91183 0.366943 0)
(0.591486 0.649625 3.73878e-20)
(0.522352 0.144498 4.3829e-20)
(1.02555 0.00402942 3.74403e-20)
(1.26918 0.395611 3.48584e-20)
(0.978564 0.0213119 3.90929e-19)
(1.04546 0.0249398 -9.33262e-21)
(0.652704 0.121244 -3.27518e-19)
(0.59605 0.552926 -3.33884e-21)
(0.152891 0.0118415 0)
(-0.0741881 -0.0831695 1.69753e-19)
(0.918544 -0.669299 -1.2697e-19)
(-0.0850701 -0.08962 -3.85711e-21)
(1.13762 -0.0879699 2.14473e-19)
(0.844541 -0.22679 0)
(0.978154 0.0225521 3.76819e-20)
(1.31347 0.619106 0)
(1.7578 -0.986224 0)
(1.25864 0.214713 0)
(0.00628003 0.304693 0)
(0.850261 -0.719201 2.32834e-19)
(0.795595 0.604683 -2.10016e-19)
(0.743006 0.773984 1.09474e-19)
(1.5274 0.18583 0)
(1.16704 -0.109352 -1.96059e-19)
(1.12663 0.0224885 1.68693e-19)
(-0.294976 0.163504 5.09847e-20)
(0.593727 0.455315 0)
(1.99964 0.0701685 -1.1427e-19)
(1.01814 -0.520119 6.54013e-20)
(-0.662351 0.298966 1.60385e-19)
(1.67719 0.301828 4.84941e-20)
(-0.0512328 0.26936 -1.72002e-19)
(0.893438 -0.809865 0)
(0.527401 0.288747 1.68872e-19)
(2.04735 0.0663148 -8.38856e-19)
(-0.276559 -0.20665 -5.76861e-19)
(1.96826 0.740136 1.86631e-19)
(2.22327 -0.553137 0)
(-0.100473 -0.121645 -5.07207e-19)
(0.724993 -0.128133 7.24249e-20)
(1.49382 0.846283 0)
(-0.19396 0.69607 -1.14636e-19)
(0.838885 0.718 -3.06871e-19)
(-0.351244 0.979816 2.51513e-19)
(1.02634 -0.027414 0)
(1.84304 0.324382 -2.35144e-19)
(0.0911176 0.110499 0)
(0.747024 -0.544294 -9.01687e-20)
(-0.248424 0.887096 -1.29209e-19)
(0.860673 -0.784827 0)
(0.480795 -0.35273 3.74772e-19)
(0.595624 -0.512309 2.41963e-19)
(0.466717 -0.422459 0)
(1.0609 -0.836598 -7.48182e-20)
(0.642673 0.53574 0)
(-0.174927 0.598637 -7.91177e-20)
(0.874567 -0.753687 1.06759e-19)
(2.16267 0.10837 3.11186e-19)
(2.1863 0.140428 0)
(-0.156233 -0.199059 0)
(0.639927 0.592913 -3.93114e-19)
(1.90608 -0.588502 5.181e-20)
(-0.191264 -0.215127 0)
(1.0556 -0.862292 -8.73299e-21)
(1.17036 -0.103252 0)
(1.1023 -0.133171 3.38436e-19)
(2.03833 0.00255541 -1.3903e-19)
(0.0761721 0.147398 0)
(1.29064 -0.578921 -3.41802e-20)
(-0.424636 0.095438 -2.02349e-20)
(0.137742 -0.111996 0)
(1.17123 -0.867763 1.51093e-20)
(1.00768 0.00282238 -5.70606e-19)
(0.703415 -0.533994 -8.99101e-21)
(0.871361 -0.564808 0)
(1.28018 -0.771262 -5.23254e-20)
(0.62921 0.180576 2.57362e-19)
(1.18402 0.100695 0)
(1.43747 0.101901 -4.05266e-19)
(1.28411 -0.910919 -6.66566e-20)
(-0.150794 -0.194924 -1.82675e-19)
(-0.194359 0.0287378 -2.85577e-19)
(1.06204 -0.00369372 2.2281e-19)
(0.971846 -0.504672 -8.22359e-20)
(0.540192 1.1358 3.09179e-21)
(0.785066 1.29786 6.52998e-20)
(1.05814 -0.14313 2.10198e-19)
(0.0604682 -0.00506898 -4.65938e-19)
(1.10935 -0.120767 0)
(1.56711 -0.471688 6.56206e-20)
(1.39273 0.623201 1.97907e-19)
(0.86482 -0.663365 -1.69866e-19)
(0.99563 0.00718362 1.16848e-20)
(0.776211 -0.579997 2.47713e-19)
(1.24963 0.767227 1.7179e-19)
(1.82257 0.092876 -8.61911e-21)
(0.0156434 0.196624 0)
(1.07521 0.0492269 -2.33935e-19)
(-0.689893 0.782846 -2.77657e-19)
(1.0309 0.460469 8.85212e-20)
(0.529254 -0.101494 2.81072e-19)
(1.16717 0.0258272 -4.0273e-20)
(-0.216063 -0.111245 -7.33084e-20)
(1.2432 0.5535 -1.01364e-19)
(1.08441 0.844019 0)
(-0.0427721 0.287781 -7.6243e-20)
(-0.13633 -0.173762 0)
(0.607701 0.518512 -2.91078e-19)
(2.00451 0.254819 -1.5855e-22)
(-0.265608 -0.283474 2.19015e-19)
(-0.351346 0.462688 -5.30581e-19)
(0.721123 0.0179685 2.35859e-19)
(2.02546 0.193376 -3.01602e-20)
(1.02727 -0.377915 -2.48644e-20)
(-0.1134 -0.128811 0)
(-0.267468 0.245857 3.3499e-19)
(1.26015 0.926181 -6.73673e-20)
(0.830567 0.0304435 -1.31116e-19)
(0.511835 0.479442 2.04282e-19)
(0.382184 0.191542 0)
(-0.143077 -0.261391 -3.50899e-19)
(0.130758 -0.808655 2.99992e-19)
(1.41158 -1.0247 -2.2985e-22)
(0.997733 -0.0527083 -1.75052e-19)
(-0.112848 -0.187319 4.96248e-21)
(0.191879 -0.179419 1.04223e-19)
(-0.220333 -0.264183 -3.30769e-19)
(2.25988 -0.64631 0)
(1.11909 0.0408618 -3.18457e-19)
(2.30268 0.13934 1.07278e-19)
(1.3521 -0.64213 4.80093e-20)
(0.719919 0.135273 -1.11198e-20)
(0.557521 0.265549 0)
(0.896453 0.709423 -1.84199e-20)
(0.637212 0.584955 2.03094e-19)
(0.954752 -0.608917 1.15754e-19)
(0.642694 0.453699 0)
(1.02573 -0.00342166 7.55953e-21)
(0.943725 -0.713076 1.6349e-19)
(0.804719 0.380871 -4.72286e-19)
(1.24491 -0.113483 0)
(-0.153505 -0.159311 -4.04397e-19)
(-0.239106 0.00362049 -5.23832e-20)
(1.52443 0.696589 0)
(1.46263 -0.989235 1.96792e-22)
(-0.181223 0.792887 0)
(0.167297 -0.0325922 8.02103e-20)
(0.691449 0.608746 -1.04963e-19)
(0.873883 -0.254362 0)
(-0.134753 -0.269139 0)
(1.99136 -0.391271 0)
(0.49114 0.060966 6.36747e-19)
(1.30931 -0.936114 4.42654e-20)
(1.24942 -0.637112 3.79475e-20)
(1.08065 -0.176932 -1.2563e-19)
(0.942111 -0.742696 -1.26663e-19)
(0.212031 -0.21649 0)
(-0.55151 1.08827 0)
(1.06074 -0.544873 1.29822e-19)
(-0.175336 -0.219009 0)
(-0.0539895 0.524679 0)
(-0.247068 -0.185703 4.94246e-19)
(0.74864 0.627822 9.10446e-20)
(0.964628 0.752587 0)
(0.654371 0.507516 -8.82893e-20)
(0.84042 -0.0845273 -2.07976e-19)
(0.70324 0.516992 -2.37309e-19)
(0.546545 0.505834 -1.76051e-19)
(-0.186527 -0.283746 -2.12311e-22)
(0.782516 -0.699727 0)
(0.884233 0.138884 -3.20557e-19)
(-0.215311 -0.307592 9.48155e-20)
(0.55709 0.516144 4.04655e-19)
(0.90907 0.754665 0)
(0.426174 0.539663 4.10504e-19)
(-0.178065 -0.236934 5.7218e-19)
(-0.122085 -0.0975481 -3.04616e-19)
(0.619675 0.523543 -1.53349e-20)
(0.969185 -0.0101628 5.58467e-20)
(-0.250116 -0.287252 0)
(1.74791 0.303248 -1.72855e-19)
(1.90527 -1.02521 -1.23142e-19)
(0.714299 -0.661719 -5.83002e-20)
(-0.0600796 0.999464 8.12632e-21)
(1.14971 0.432975 2.09378e-19)
(0.852355 0.374534 0)
(1.08007 -0.185968 1.60977e-19)
(-0.0936868 -0.233278 4.02227e-21)
(-0.117945 -0.113581 1.71531e-19)
(0.92998 0.0192296 -4.78254e-20)
(1.07777 0.126222 0)
(1.60263 0.104162 -2.38674e-19)
(1.89926 0.134275 0)
(0.523187 0.18472 -4.47681e-19)
(0.223555 -0.195904 0)
(-0.202494 -0.280983 4.18746e-19)
(0.722409 0.0974223 0)
(0.673526 -0.567659 -1.53928e-19)
(1.14919 0.0167229 1.90627e-19)
(-0.00427848 0.364433 2.80639e-20)
(1.99901 -0.168942 5.61365e-21)
(2.18172 0.0447588 -1.88737e-19)
(1.08221 0.20664 -2.29939e-19)
(-0.215184 -0.312974 -1.77566e-19)
(1.15605 -0.907816 0)
(0.817852 0.0160885 -1.38928e-19)
(0.972447 -0.415127 -2.42101e-19)
(1.82711 -0.551211 -1.77898e-20)
(1.60451 -0.0100531 2.62659e-19)
(1.06546 -0.0146747 3.77172e-19)
(-0.0602186 -0.140938 -2.70603e-19)
(1.0438 -0.472817 -9.81022e-20)
(0.22261 -0.214687 2.18702e-19)
(1.00745 -0.0111257 0)
(1.0049 -0.00961384 0)
(1.58335 -1.09528 1.02925e-19)
(-0.138532 0.487119 -5.40597e-20)
(0.282673 -0.107642 -2.42412e-19)
(1.91594 -0.112471 1.17216e-20)
(1.72344 -0.240322 0)
(2.05615 0.0890492 -7.33823e-20)
(1.03581 -0.895261 -2.69042e-20)
(1.96227 -0.507377 -1.45183e-19)
(1.05357 0.795032 0)
(0.522234 -0.504746 0)
(0.559952 0.469259 -1.81444e-19)
(1.06603 0.258342 -4.32356e-19)
(2.12126 0.0127428 5.52559e-22)
(0.851514 0.123385 1.36461e-19)
(-0.0510298 -0.176915 -7.50627e-19)
(0.882269 0.248252 3.04648e-20)
(-0.208536 -0.149236 0)
(-0.154975 -0.20584 0)
(-0.280438 -0.224721 0)
(1.43239 -0.751624 -1.17323e-20)
(0.106132 -0.106139 -1.40059e-19)
(0.157139 -0.229217 0)
(1.22455 0.927187 -5.86634e-20)
(1.07967 0.133913 -4.39051e-19)
(1.35404 -0.43195 6.99893e-20)
(1.02171 0.871076 1.20409e-19)
(-0.0633871 0.200034 8.61936e-20)
(0.616319 0.319017 0)
(-0.297207 -0.169951 -4.28555e-19)
(0.0795944 0.0847053 1.70978e-19)
(0.777897 -0.012751 1.72087e-19)
(1.46143 0.907809 -7.15914e-20)
(1.53011 -0.317508 -1.34154e-19)
(-0.149752 -0.119834 -4.84362e-21)
(0.814213 -0.740386 -2.57204e-20)
(1.09058 0.00491209 0)
(1.59534 -0.056196 0)
(1.04761 0.0506341 0)
(-0.079074 -0.527665 -1.75778e-19)
(-0.270362 -0.196885 1.59482e-19)
(0.995183 0.800484 0)
(1.0042 -0.019072 4.7004e-19)
(0.723691 0.560014 -2.3992e-19)
(0.197884 -0.128596 -1.37188e-19)
(0.862063 -0.0179318 -3.85098e-20)
(0.774268 -0.707519 -1.63617e-19)
(1.32933 0.679538 -4.96406e-20)
(0.615714 -0.510514 -2.54299e-19)
(1.12 0.00032901 -4.38431e-19)
(0.826798 0.0316785 3.95429e-20)
(1.55281 -0.143352 2.01787e-20)
(0.546342 -0.228764 -1.86575e-20)
(-0.125619 -0.143046 -7.4991e-22)
(1.03712 0.43433 -2.91213e-19)
(1.23044 0.58136 2.44092e-20)
(-0.110017 -0.19006 0)
(-0.0347631 -0.13047 2.75163e-19)
(-0.189571 -0.198334 1.6939e-19)
(-0.143226 -0.228122 -2.356e-19)
(0.432196 0.243977 0)
(1.6845 -1.12147 0)
(0.0126518 -0.0362325 -5.96599e-20)
(-0.184495 -0.309558 -9.55051e-20)
(1.04247 -0.0327493 1.73667e-19)
(0.0752676 0.0385026 -3.58219e-20)
(1.90025 -0.168424 -4.38324e-19)
(-0.293789 0.467301 0)
(0.902493 -0.79768 -2.04544e-19)
(0.439429 0.154453 9.14597e-20)
(-0.410663 0.391507 2.03107e-19)
(0.701632 0.106437 3.1949e-19)
(0.60984 0.0692578 1.0271e-19)
(0.553016 -0.524715 1.69252e-19)
(-0.205145 -0.242516 -2.16767e-19)
(1.38238 -0.652175 0)
(0.34876 0.274547 -1.92571e-19)
(1.02709 -0.0182864 -2.75036e-19)
(-0.37499 0.599274 2.09083e-19)
(1.3627 0.463687 -1.69301e-19)
(-0.180259 -0.241954 -8.66729e-20)
(0.77766 -0.705606 2.71162e-20)
(0.792022 0.14783 -2.04854e-19)
(0.941455 0.390876 2.43946e-20)
(1.18 -0.157424 2.84661e-20)
(0.638836 -0.290546 -2.68221e-19)
(2.10194 -0.18068 -2.7771e-19)
(0.938964 -0.298311 0)
(1.63868 -0.453477 5.17247e-20)
(0.895321 0.119872 -2.5146e-20)
(1.58586 0.524159 1.81773e-19)
(0.834231 0.35415 -8.67479e-20)
(0.517728 0.159588 -6.84419e-20)
(0.373739 0.335579 -2.528e-19)
(-0.0396999 0.810479 9.82703e-20)
(2.25263 0.450321 0)
(0.934586 0.00619927 0)
(0.952022 -0.839272 3.36195e-20)
(-0.162818 -0.253973 -6.27181e-19)
(-0.220529 1.09823 -1.83476e-19)
(-0.143017 -0.169937 -3.81888e-19)
(-0.190025 0.701679 -9.33092e-20)
(-0.23376 -0.0744003 0)
(-0.154975 -0.190118 7.00298e-20)
(-0.274871 0.24476 -4.03139e-20)
(0.186514 -0.168287 -2.38267e-19)
(0.827459 -0.153067 0)
(1.48182 -0.698802 4.15103e-20)
(-0.191871 -0.21642 0)
(0.997583 0.0229023 3.42053e-19)
(-0.0602672 -0.082975 2.49946e-20)
(0.591487 -0.48336 3.40703e-19)
(-0.604352 0.700833 4.6152e-19)
(-0.295812 0.965774 0)
(-0.108784 0.422436 3.1882e-20)
(1.00755 0.0205628 -1.02652e-20)
(0.113667 -0.080676 0)
(1.00385 -0.0108854 -5.40182e-20)
(0.92311 -0.780227 -2.07614e-19)
(1.93554 -1.20157 0)
(0.969459 -0.306602 1.74389e-19)
(-0.0507524 0.637005 9.57485e-20)
(-0.0881555 -0.0934925 0)
(-0.134603 -0.259804 -9.77452e-21)
(0.782298 -0.685824 -3.40589e-19)
(0.965784 -0.0224086 -2.33621e-19)
(-0.153653 -0.251923 7.59716e-19)
(-0.18311 -0.265252 2.64235e-19)
(-0.221092 -0.133691 0)
(0.923446 0.439698 0)
(-0.160549 0.145427 2.8793e-19)
(1.65421 0.487172 -8.82159e-20)
(1.02124 0.849237 2.3958e-20)
(1.05335 0.191787 -1.2566e-19)
(1.15239 0.0014349 -1.8478e-19)
(1.07807 -0.070101 -5.92675e-20)
(-0.150908 -0.259739 -6.81322e-19)
(1.99147 0.102951 1.20729e-19)
(0.648655 0.0377587 2.19352e-19)
(1.26465 0.151882 4.313e-20)
(1.06894 -0.158467 0)
(-0.257234 0.847742 1.68192e-19)
(1.14733 0.0241549 -4.63629e-19)
(1.68468 0.601553 6.05015e-20)
(0.791003 -0.503653 -1.36754e-19)
(-0.110774 -0.123184 3.7921e-19)
(0.862052 -0.755248 2.77612e-19)
(1.1956 0.18622 8.44446e-20)
(1.00631 -0.00927394 2.39379e-19)
(0.00566209 -0.198115 -2.86464e-19)
(1.01793 0.00832918 0)
(1.13858 -0.120556 9.82456e-20)
(-0.109484 -0.11275 0)
(1.01615 0.0108309 -1.3885e-19)
(0.310885 0.327704 -7.08458e-19)
(1.68268 0.317241 7.41936e-20)
(-0.22726 -0.194794 1.99196e-19)
(1.5277 0.0128365 4.39263e-20)
(1.01214 -0.0201906 4.996e-20)
(1.30198 -0.105109 0)
(1.53625 -0.614131 -3.02103e-20)
(1.01765 0.0235731 -1.50401e-19)
(1.38054 0.757031 -1.18333e-19)
(1.26425 -0.0439809 0)
(1.87429 0.837986 -4.68956e-20)
(-0.000834828 -0.0353526 0)
(1.34803 0.0796604 0)
(-0.268378 -0.261203 0)
(1.20291 0.421798 0)
(1.75634 0.248697 4.13045e-21)
(0.696866 0.573081 4.21019e-19)
(0.327472 -0.33008 -2.00266e-19)
(-0.186762 -0.297722 -6.16827e-19)
(-0.119007 -0.137736 0)
(1.63723 -0.817474 6.17517e-20)
(1.24041 0.508765 0)
(1.40864 0.286234 0)
(-0.287349 -0.116032 1.8725e-19)
(0.760482 0.670638 1.45591e-19)
(1.65629 0.0456633 0)
(-0.247632 -0.299426 1.32205e-19)
(0.885144 0.184241 1.88283e-19)
(1.52148 -0.758429 -6.14564e-20)
(1.18405 0.884372 6.28531e-20)
(1.01681 -0.910518 -3.20183e-21)
(0.189277 -0.112397 -7.57867e-20)
(0.745536 0.672532 1.5164e-19)
(1.12089 0.880474 0)
(2.24157 -0.597392 5.80922e-20)
(-0.122606 0.83469 0)
(1.21395 -0.489643 -5.69251e-21)
(0.958564 0.0763266 8.0763e-20)
(1.0055 -0.00894555 0)
(-0.501348 0.658587 1.10937e-19)
(0.918317 -0.209156 4.17376e-20)
(0.676377 -0.461526 0)
(0.714078 -0.435478 1.84809e-19)
(1.19066 0.529569 -3.98864e-20)
(0.432458 0.406163 2.85562e-19)
(0.203073 -0.166891 2.90812e-20)
(-0.248626 -0.111195 3.44519e-20)
(0.77534 0.0522768 0)
(1.42457 -0.951762 2.62834e-20)
(1.02979 -0.0461069 3.87218e-19)
(1.44665 0.32943 6.87714e-20)
(-0.254713 -0.277695 1.12822e-19)
(-0.679678 1.0087 0)
(1.26845 -0.242311 -8.45746e-20)
(-0.0916355 -0.0969891 -3.22415e-19)
(-0.163288 0.816391 -2.2765e-20)
(-0.121874 0.0440887 -6.06707e-22)
(-0.188844 0.0848384 1.41773e-19)
(0.398751 0.676429 3.23256e-20)
(1.8971 0.194616 2.31642e-19)
(1.1485 0.438805 -3.37624e-19)
(0.85138 -0.044883 0)
(1.76224 -0.116305 3.44271e-20)
(1.49735 0.090649 8.8792e-20)
(0.979118 -0.820938 9.60451e-20)
(1.27411 -1.06005 2.46226e-20)
(0.437199 0.40467 1.93942e-19)
(0.959148 0.701325 0)
(1.68938 0.563695 -2.24082e-20)
(-0.105718 -0.120548 -6.55781e-19)
(0.837112 0.728169 0)
(1.78272 0.0130213 0)
(0.329738 -0.32895 -4.66578e-21)
(0.279783 0.234748 0)
(-0.792784 1.04029 -3.57018e-19)
(0.22778 -0.151149 -8.18155e-20)
(1.95583 -0.341629 0)
(1.23648 0.0539723 3.06975e-19)
(-0.200871 1.00238 1.51028e-19)
(0.586932 -0.558627 -3.74303e-19)
(1.44827 0.0814811 -2.50954e-20)
(0.669027 -0.607775 0)
(0.989448 0.118686 0)
(1.59121 -0.202295 0)
(1.09116 0.206728 -2.48228e-19)
(1.32682 0.102652 3.54215e-19)
(-0.316859 0.776319 0)
(0.889458 -0.0531354 0)
(1.8738 -0.202006 5.09649e-21)
(0.0404538 -0.202439 5.3228e-20)
(2.5003 -0.147413 -1.46897e-19)
(1.29418 -0.576875 3.37974e-19)
(2.01491 0.00398379 -9.67299e-20)
(-0.337894 1.01985 -1.02167e-19)
(1.98346 0.15862 -2.15971e-20)
(1.02088 -0.0310512 3.84175e-19)
(1.45766 0.579984 0)
(0.0991023 0.0665973 2.17201e-20)
(1.08153 -0.887355 1.01751e-19)
(0.863685 -0.052679 4.5014e-20)
(0.683967 -0.483535 0)
(2.02601 -0.451817 1.90034e-20)
(1.24579 -0.204939 1.06871e-19)
(1.60369 -0.639592 0)
(0.666921 -0.619861 3.06626e-19)
(1.90354 -0.0193877 5.98453e-20)
(2.45099 -0.0697482 3.09449e-19)
(0.0921624 -0.213408 -1.26506e-19)
(1.28015 0.591972 1.94429e-19)
(1.10853 0.381792 4.07921e-21)
(0.87258 0.335491 2.31603e-19)
(1.40355 0.535895 -2.48851e-20)
(-0.136976 -0.274272 -2.2325e-21)
(1.48483 0.48201 0)
(-0.115333 -0.100037 6.18798e-19)
(1.21951 -1.04946 0)
(1.13378 -0.691598 1.48415e-20)
(1.23438 0.865674 -2.55051e-19)
(1.37339 1.37966 6.30796e-20)
(-0.43237 0.18683 -4.73534e-19)
(0.947537 0.452029 1.8912e-19)
(-0.118738 -0.792693 1.94005e-19)
(0.690803 -0.0425514 0)
(1.59489 -0.175121 0)
(0.87831 -0.0613926 1.46425e-20)
(0.785359 -0.00646615 0)
(1.39202 -0.204123 -1.09969e-19)
(-0.577814 1.05423 4.16983e-19)
(1.86877 0.487097 -7.13794e-20)
(1.03693 -0.0358479 0)
(0.59933 -0.408404 8.93592e-20)
(1.01031 0.0252729 1.83712e-19)
(0.171374 -0.248142 1.97608e-20)
(-0.221124 0.832683 0)
(1.16231 -0.493613 3.49874e-19)
(1.12143 -0.327073 -4.87804e-23)
(1.15553 -0.529299 -1.52889e-19)
(2.28142 0.219954 1.03498e-20)
(1.23727 0.754551 0)
(0.861173 0.0195532 0)
(-0.272296 -0.261199 -2.70656e-19)
(0.0162211 -0.0522593 6.71046e-20)
(0.918728 0.334818 -2.17186e-19)
(0.18489 -0.12728 -2.65737e-19)
(0.610881 0.356582 2.44022e-19)
(1.60978 0.940004 0)
(0.5945 -0.5523 0)
(0.327453 -0.233024 -1.33177e-20)
(1.29675 -0.526978 -6.45165e-20)
(1.09758 -0.0767882 2.69275e-20)
(0.745589 -0.206265 1.07132e-19)
(-0.0274864 -0.159056 -1.28314e-19)
(1.23913 0.296137 1.58569e-19)
(0.614293 0.570877 0)
(1.22005 0.664529 0)
(1.57366 0.246843 0)
(-0.325911 -0.106895 -2.40637e-19)
(1.1708 0.527617 8.77701e-20)
(1.49081 0.191086 2.45102e-20)
(0.918691 -0.0107898 0)
(1.15169 0.0279472 0)
(2.04247 -0.112877 -9.00952e-20)
(-0.195977 -0.537818 -1.82162e-20)
(1.00554 -0.000345277 -1.8503e-19)
(1.45089 0.459251 0)
(-0.126066 0.71954 0)
(1.20198 0.298754 3.25404e-19)
(0.983937 0.494789 -1.43521e-19)
(1.06194 0.0220884 0)
(1.38592 0.620398 0)
(1.89362 0.65999 -1.1587e-19)
(-0.0867272 -0.0296663 -2.71683e-21)
(0.997493 0.0104191 0)
(0.669192 0.425223 -3.42855e-20)
(1.02134 -0.895072 0)
(1.00295 0.0138746 4.25835e-20)
(0.744169 -0.992602 -3.64484e-20)
(0.943939 -0.356541 2.52858e-19)
(0.351029 -0.920324 2.16287e-19)
(1.95529 0.105143 3.56387e-19)
(1.36029 -0.185351 -7.73265e-20)
(0.793593 -0.0159708 0)
(1.02546 0.00696727 0)
(-0.430404 0.571274 0)
(0.618925 0.591151 -2.10472e-19)
(0.0125679 -0.159835 8.77383e-20)
(1.13558 0.32822 -5.18093e-19)
(-0.103448 0.43123 0)
(0.786461 0.601712 1.79183e-19)
(1.04953 -0.364809 0)
(1.00513 -0.00431635 1.08533e-19)
(0.0826029 1.29369 1.57127e-20)
(0.999173 0.374816 2.80501e-19)
(1.27339 0.445113 0)
(2.11139 0.208102 -1.86167e-20)
(0.836147 -0.152702 -3.29899e-19)
(-0.851745 1.2882 -4.55144e-19)
(-0.0919201 0.714841 0)
(0.856502 0.207393 1.75768e-19)
(1.97757 0.386005 0)
(0.736303 0.478096 3.77895e-19)
(-0.708353 1.15688 1.8119e-19)
(0.0859071 -0.207052 0)
(0.546219 0.517233 -7.51441e-20)
(1.09106 -0.68158 -1.05475e-19)
(0.522952 -0.319956 -1.10346e-19)
(1.02061 -0.0210998 0)
(-0.142512 0.900274 -1.00315e-19)
(0.691415 -0.619139 6.72322e-20)
(0.878758 0.255171 0)
(1.82957 -0.807585 7.47267e-20)
(0.933486 0.792836 2.86809e-20)
(0.470005 -1.01607 3.82644e-20)
(0.709503 0.0258329 -5.00502e-19)
(0.258052 -0.169307 -5.13519e-19)
(-0.163419 -0.2232 1.65274e-20)
(0.781561 0.318227 2.53716e-19)
(0.147765 -0.082014 -3.59464e-21)
(1.49959 -0.666074 3.22486e-21)
(1.02632 0.00244672 -3.17486e-19)
(-0.348962 0.0507975 0)
(1.02308 0.0250642 -3.92718e-19)
(1.33833 0.357329 2.06942e-20)
(0.844621 0.6492 3.08502e-19)
(1.14527 -0.0729988 1.39397e-19)
(1.01023 -0.038423 1.46817e-19)
(1.33415 1.22223 -5.74205e-20)
(-0.253311 -0.257447 -1.0401e-21)
(1.92125 -0.900239 2.00856e-20)
(1.16513 -0.129483 -5.22013e-20)
(0.821525 0.0425424 5.89481e-20)
(0.940911 -0.322158 7.69496e-20)
(1.70713 -0.153744 0)
(0.916733 0.693818 0)
(0.37323 0.88094 -1.8748e-20)
(1.98444 0.164475 1.30997e-20)
(-0.795763 0.939045 1.62167e-19)
(1.08637 -0.577982 -3.83861e-19)
(0.668249 -0.584212 3.29406e-19)
(1.09229 0.191948 -2.00052e-20)
(0.354481 -0.00167473 3.05434e-20)
(0.548488 -0.429569 0)
(0.743977 0.0660025 -6.4621e-21)
(1.23577 -0.299557 1.73774e-20)
(0.992871 0.722337 0)
(0.845911 -0.535324 0)
(0.765252 0.732332 0)
(-0.191167 -0.252066 -1.02864e-19)
(-0.147496 0.184741 0)
(0.0742085 0.0524171 -1.75791e-19)
(1.19273 0.169303 6.91892e-21)
(-0.185221 0.407366 2.66495e-19)
(1.43279 -0.509329 7.09208e-22)
(1.7537 0.456251 2.23215e-20)
(2.08092 -0.142481 -4.61126e-20)
(-0.161729 0.0159139 -9.56198e-20)
(-0.116721 -0.223028 7.28629e-21)
(1.58848 -0.120903 0)
(0.671894 -0.0365018 0)
(1.00088 -0.00250544 2.6547e-22)
(-0.369747 -0.0119351 0)
(1.28875 0.0744883 -1.28809e-19)
(0.672366 -0.0326926 0)
(1.06875 -0.00403038 1.12293e-19)
(0.989766 0.0130594 -4.17729e-20)
(1.34592 0.44445 1.25136e-19)
(1.05451 -0.0217901 -8.95505e-22)
(0.976252 -0.218287 -4.71519e-20)
(1.03037 -0.0406263 3.36458e-19)
(0.725916 -0.663171 1.49273e-19)
(0.375293 -0.261336 -3.1412e-19)
(1.9033 -0.158089 3.6958e-21)
(0.0159003 -0.0790531 0)
(1.07562 0.755365 0)
(1.03587 -0.0162351 0)
(1.06859 -0.822939 -6.70429e-20)
(1.14446 -0.969486 -2.6524e-20)
(2.48272 0.386419 -4.32138e-21)
(-0.918315 0.933889 -3.18873e-19)
(0.186664 -0.28208 -5.41518e-20)
(0.635167 -0.442256 -5.5397e-19)
(1.84369 -0.406986 7.22476e-20)
(0.551792 -0.274343 3.53953e-19)
(2.15747 -0.0821247 1.77918e-19)
(2.07768 0.0599747 4.0516e-20)
(-0.239644 -0.285638 -2.0591e-19)
(1.07083 0.519709 2.25994e-19)
(-0.112624 -0.317412 0)
(0.0935134 -0.0256906 6.04895e-19)
(-0.162681 -0.191433 -1.89581e-22)
(1.02411 -0.0470095 3.1576e-19)
(1.02746 -0.00472388 -7.88658e-21)
(1.10172 -0.0117751 -8.68978e-20)
(1.43948 0.873997 -8.2915e-20)
(1.58372 0.302993 9.46189e-20)
(0.446477 -0.420622 -2.69918e-19)
(1.81489 0.766622 1.42524e-20)
(1.04107 -0.00521458 -2.22152e-19)
(2.45466 0.0750775 -3.80709e-21)
(1.79308 1.06982 0)
(1.06552 0.558614 -4.26155e-19)
(1.00274 -0.00718638 8.84483e-20)
(0.630218 0.559314 2.70262e-19)
(0.168178 -0.304954 2.63552e-21)
(1.0565 -0.0161513 -2.94592e-20)
(1.11772 0.0132328 8.27204e-22)
(2.42445 0.0300854 8.70777e-21)
(2.03756 0.0055002 0)
(1.04051 -0.0419099 0)
(1.04785 -0.0362078 5.48573e-19)
(1.00251 -0.00479635 0)
(-0.138142 -0.162982 0)
(1.14632 -0.682877 0)
(1.00063 -0.00305891 -5.14325e-19)
(1.22986 -0.720526 4.6232e-20)
(1.02676 -0.00582412 1.06676e-20)
(1.28312 0.914862 -4.97162e-20)
(1.45813 0.961543 1.70557e-19)
(0.205067 -0.311785 7.99385e-20)
(1.00817 0.520727 -3.4184e-20)
(1.29125 -0.177863 0)
(-0.256952 0.238336 0)
(1.62585 0.635098 1.86818e-19)
(1.2627 -0.992183 0)
(0.999326 -0.00639261 -1.60216e-19)
(1.0108 -0.00163517 3.11016e-19)
(1.42255 0.136815 -7.91861e-20)
(0.0478233 -0.108398 4.78625e-19)
(0.974785 0.00103776 1.70951e-19)
(1.52377 0.364291 -6.99743e-20)
(0.770226 0.12318 4.81166e-20)
(1.58005 1.02499 -5.08541e-22)
(0.933965 0.016384 -1.66508e-19)
(1.0037 0.0026678 1.99062e-19)
(1.00044 -0.00178077 1.18076e-20)
(0.788405 -0.0138801 0)
(0.723912 -0.0272791 0)
(0.718167 -0.0278296 3.44695e-22)
(0.693235 -0.0305405 0)
(-0.148787 -0.0858512 0)
(0.42957 0.0200916 0)
(0.879877 -0.0130793 -1.24272e-19)
(0.954014 0.192207 6.2389e-20)
(0.705439 1.01836 0)
(0.897251 1.0198 -3.77125e-20)
(1.09235 0.614578 0)
(0.514443 0.303944 0)
(1.1296 0.405148 0)
(1.80224 0.109053 2.01131e-20)
(1.96618 -0.110748 -9.71835e-20)
(0.780352 0.0241703 0)
(0.789134 0.0202024 0)
(0.970302 0.0194085 -2.05796e-19)
(0.815048 0.00760449 3.86982e-19)
(1.00836 -0.0013686 0)
(1.00006 -0.00103713 3.68766e-19)
(1.0004 -0.00112231 -5.1413e-22)
(0.788765 0.0226547 3.2621e-19)
(0.994364 -0.00576275 -1.95901e-19)
(0.791822 0.250406 0)
(0.67088 0.0522125 -4.81644e-20)
(1.00075 -0.00259158 -1.87233e-19)
(0.999684 -0.000660092 -3.19861e-19)
(1.32506 0.297813 0)
(0.999039 0.000933658 0)
(0.999606 -0.00036102 0)
(0.249433 -0.203013 -2.04265e-20)
(0.603532 0.487432 -1.2614e-19)
(2.06888 0.259901 0)
(0.118819 -0.0466529 1.63768e-19)
(-0.348782 0.842439 -1.11904e-19)
(1.01789 -0.0182929 -2.49667e-19)
(-0.229457 -0.298194 -1.74005e-19)
(1.02077 -0.000809853 -1.99134e-19)
(1.20596 -0.222736 -6.0106e-20)
(0.846387 -0.517465 2.5104e-19)
(-0.132941 -0.158545 -1.56299e-19)
(1.03315 0.00873554 0)
(1.04617 -0.015358 -5.74018e-20)
(0.864162 0.0173673 0)
(-0.0758962 -0.0671753 1.19743e-19)
(1.11886 -0.809675 0)
(-0.310623 -0.148418 -4.0832e-19)
(1.9511 0.19418 4.44758e-20)
(1.59086 0.661696 -1.34888e-19)
(-0.0728864 -0.00938656 0)
(1.05063 -0.0392744 1.69799e-19)
(0.354606 0.260683 -1.18828e-20)
(0.927456 -0.034699 2.64985e-19)
(1.01072 -0.0117643 -1.70784e-19)
(1.60307 0.832245 -3.01792e-20)
(0.4788 0.446031 0)
(0.401198 0.342147 2.02156e-19)
(0.723874 0.0528259 3.93535e-21)
(1.11962 0.113477 2.06209e-19)
(1.15645 -0.755326 0)
(1.02164 -0.000777279 0)
(0.999385 -0.020423 -3.93535e-19)
(1.01997 0.0126119 -3.77762e-19)
(-0.173989 -0.246383 0)
(1.16914 0.783789 -1.75389e-19)
(0.161932 0.17938 -2.80618e-21)
(1.01499 0.000310815 1.46955e-19)
(1.0126 0.0108073 -1.82674e-19)
(-0.311879 -0.0750992 -3.84713e-20)
(0.600174 0.353512 3.30755e-19)
(1.01649 -0.0164569 6.29169e-19)
(0.260959 0.0668504 0)
(1.78594 0.632465 3.5539e-20)
(1.0148 -0.0145864 -1.9514e-19)
(1.32219 0.0789731 -4.28406e-20)
(1.05401 0.00567871 -4.59936e-22)
(1.00724 -0.0127322 3.92021e-20)
(1.97417 0.232518 -2.98012e-19)
(1.01826 0.00389999 1.87543e-19)
(1.05077 0.0181179 4.34218e-21)
(1.019 -6.21987e-05 0)
(0.916412 0.123529 4.93006e-20)
(-0.850447 1.08586 4.46581e-21)
(1.00133 0.0212225 1.85694e-19)
(1.04121 0.0204115 -7.47532e-22)
(0.286865 0.134132 2.33362e-20)
(1.21978 0.301484 4.8382e-19)
(0.999193 0.0134291 1.27283e-19)
(1.01545 -0.0169218 2.97271e-22)
(1.70252 0.253095 -4.90825e-20)
(1.66884 0.894451 -5.42589e-20)
(0.842293 -0.753896 3.91228e-20)
(0.497914 -0.391171 -2.71912e-19)
(1.00596 -0.0128272 0)
(1.02333 0.00017042 4.6609e-20)
(1.01088 -0.0123459 9.93051e-20)
(1.0366 0.654441 -3.83316e-21)
(1.01617 0.00256527 -1.95451e-19)
(1.03458 -0.0291341 2.20196e-19)
(1.00717 -0.011556 -1.85823e-19)
(1.01391 0.00236919 -4.48256e-22)
(1.01199 -0.00109266 -2.422e-22)
(1.02713 0.010639 1.86619e-19)
(0.892459 0.0523735 4.92036e-19)
(0.379911 -0.705654 0)
(0.510834 0.937823 1.07518e-19)
(1.01238 -0.00643213 0)
(1.01879 -0.0209109 -5.47329e-20)
(1.48133 0.429807 -1.34351e-19)
(0.95236 0.117309 0)
(1.92078 -0.794297 -6.4497e-20)
(0.394915 -0.55159 2.38046e-20)
(0.752592 -0.0207666 0)
(1.79317 0.488094 0)
(-0.0361904 -0.620615 2.77232e-21)
(1.02949 1.19008 6.40223e-20)
(1.01784 -0.00786409 -1.97853e-19)
(1.1791 -0.595543 -4.21248e-20)
(0.640804 0.882696 1.07181e-19)
(0.775183 -0.732852 0)
(0.527729 -0.112062 0)
(1.07179 -0.450714 0)
(-0.289726 0.275683 6.63454e-21)
(1.10487 0.540374 -4.05286e-19)
(-0.0559284 -1.04516 0)
(-0.0497256 0.785892 -1.15379e-19)
(1.62798 0.930073 4.43531e-20)
(1.00869 -0.00638933 -3.85488e-19)
(1.01355 1.04964 -8.87157e-20)
(1.0223 0.00329163 2.54807e-19)
(0.687937 -0.0453984 0)
(-0.171331 -0.233841 -4.89353e-20)
(0.576723 0.382696 -3.4491e-19)
(0.679186 -0.596774 -8.1765e-20)
(-0.123201 0.57159 0)
(0.817784 0.0784229 5.81166e-20)
(0.477437 0.454209 5.37778e-20)
(1.13458 0.843743 -4.89849e-20)
(-0.102241 -0.110128 2.39821e-19)
(1.01948 0.00494979 0)
(1.00945 -0.062942 -2.2246e-19)
(1.01205 -0.00558322 1.45238e-19)
(2.34608 0.162192 0)
(1.01382 0.0039705 2.42722e-19)
(0.264566 0.0549162 -2.91164e-19)
(1.01863 0.00730114 -1.50697e-19)
(1.82825 0.542897 0)
(1.75107 -0.679393 5.27613e-23)
(1.00965 -7.75955e-05 -1.00937e-19)
(0.996333 -0.0448801 2.66405e-19)
(1.0682 0.0840564 -7.38882e-22)
(0.948794 -0.662637 1.88663e-19)
(-0.0962348 -0.16356 6.32713e-19)
(1.88778 0.24835 1.9037e-20)
(0.590505 -0.923995 -2.053e-19)
(0.801312 0.0145223 -3.622e-19)
(0.787503 0.028114 0)
(0.611631 -0.209207 -1.57253e-19)
(1.01822 -0.0197224 -2.94714e-20)
(0.971743 0.0101913 0)
(1.04509 0.00020388 -1.89322e-19)
(0.546811 -1.56921 9.22053e-20)
(-0.73313 1.12506 2.03361e-19)
(2.31015 -0.45358 0)
(-0.047412 0.759328 -7.57782e-19)
(1.56849 -0.336193 0)
(1.03735 -0.0198977 5.5138e-20)
(1.53146 0.597145 2.08759e-21)
(1.01539 -0.00496945 1.56309e-19)
(-0.386163 1.03597 3.62826e-19)
(1.01791 -0.00144776 0)
(0.994169 0.00348801 -3.81016e-19)
(1.01001 0.00393935 1.99079e-19)
(0.964806 0.690869 0)
(1.05702 -0.00987553 -2.06867e-20)
(0.955741 -0.00169654 -1.70077e-19)
(-0.183691 -0.30125 6.42942e-19)
(1.00462 -0.00503257 -1.94292e-19)
(1.00063 0.0151258 -4.5657e-19)
(1.74651 -0.577519 1.5978e-20)
(-0.198522 -0.223874 -1.56223e-19)