/*--------------------------------*- C++ -*----------------------------------*\
| =========                 |                                                 |
| \\      /  F ield         | OpenFOAM: The Open Source CFD Toolbox           |
|  \\    /   O peration     | Version:  2306                                  |
|   \\  /    A nd           | Website:  www.openfoam.com                      |
|    \\/     M anipulation  |                                                 |
\*---------------------------------------------------------------------------*/
FoamFile
{
    version     2.0;
    format      ascii;
    arch        "LSB;label=32;scalar=64";
    class       volScalarField;
    location    "41.6";
    object      p;
}
// * * * * * * * * * * * * * * * * * * * * * * * * * * * * * * * * * * * * * //

dimensions      [0 2 -2 0 0 0 0];

internalField   nonuniform List<scalar> 
2186
(
1.0155
-0.172877
0.152369
1.33735
-1.01138
0.340428
0.90986
-0.753386
-0.624796
1.60695
1.32423
-0.826155
-0.735794
1.28739
-0.400024
1.30275
1.32038
-1.06642
0.0612884
-0.645326
1.68449
-0.614332
1.29786
-0.923841
1.28962
1.3092
1.51444
1.15242
0.878028
1.2886
-0.622382
1.29001
-0.570259
0.266953
-0.858083
0.384562
0.209648
1.67005
-0.46997
0.346074
-0.739831
-0.583152
-0.538923
-0.7484
1.20189
1.58641
0.559513
0.736593
-0.735797
-0.833548
-0.630906
1.17392
-0.510679
1.60191
-0.603129
1.20587
-0.600064
1.23587
-0.563965
1.05467
0.00318403
0.940256
0.845341
0.395734
0.875341
0.676876
0.95583
1.57918
1.47648
-0.564333
-0.757898
-0.232543
1.54924
1.25798
1.46922
1.43439
-0.427947
1.31556
-0.870968
-0.535386
-1.09461
0.491506
1.2841
0.92008
1.27527
1.28495
1.58273
0.111823
0.700822
-0.867463
1.20506
-0.675605
1.18706
1.44367
1.29936
0.706975
0.0210135
0.898824
-0.94744
1.25058
-1.5197
-1.40918
0.957788
1.20064
1.322
-0.602821
1.48947
-0.220833
1.184
-1.30334
-0.508569
-0.841768
0.765267
1.59288
-0.710786
-0.760146
-0.128514
-0.813484
-0.867164
1.55098
0.240474
-0.85007
1.13557
-1.26853
1.30747
-0.261964
-0.943198
1.42187
-1.13858
0.889192
1.68871
1.52917
0.438652
0.880083
-1.231
-0.787446
1.17374
-0.409988
-0.247961
-0.811208
1.07906
-0.0247274
-0.758263
0.935097
1.17101
1.20883
-0.261758
-1.01652
0.837808
-0.696573
-0.820272
0.803656
1.31859
1.46541
1.30929
0.749516
1.57631
0.756058
0.659193
0.636766
-0.819407
-0.793411
1.28443
1.24566
-0.000548622
0.0309632
-0.803635
-0.868318
0.583018
0.357384
0.649245
1.25516
1.32135
1.38439
0.707567
-0.00215976
-1.04257
1.28775
-0.923931
1.15432
-0.828259
1.30493
-0.64504
0.835585
0.809033
-1.02903
-0.874275
1.41365
-0.230385
-0.728213
-0.96752
1.54817
-1.18409
1.23431
-0.823297
-1.36195
0.345581
1.47204
1.35221
-0.616617
-0.796506
-0.913466
0.276867
1.31743
-0.843435
-0.922845
-0.885102
-0.614575
1.25489
-0.486778
0.740995
0.615647
1.58368
1.10901
1.20226
1.20565
1.46493
1.29377
1.14902
1.39345
0.611211
-0.77043
-0.611606
0.376503
0.391223
-1.02893
-0.96619
1.32248
1.41109
-0.970614
-0.765171
-1.98172
0.584065
0.883738
1.02525
1.151
1.39826
-1.54378
1.13358
-0.788797
-0.895119
-0.779244
1.28421
1.01178
1.43421
1.46762
1.39658
1.37232
-0.778958
1.07316
1.41219
-0.75923
1.27031
1.0586
-2.09612
-0.854309
-0.907882
1.43398
1.323
-0.731863
-0.0474289
0.184962
1.2158
-1.30501
1.04863
1.36443
1.11847
-0.84771
-0.642713
1.26257
0.94318
-0.0980037
-0.201679
1.62675
-0.909781
-0.770993
1.09841
1.47031
1.27641
-0.991104
-0.340068
-0.429088
1.22243
-0.749857
0.771144
1.25955
1.28354
-0.00797659
-0.0568723
1.27431
-0.865919
1.18134
1.4824
1.31799
1.31499
-0.026075
-0.729262
-0.942331
-0.0761155
-1.19226
-1.14826
0.59435
-0.381514
0.890031
1.45693
1.48483
1.2236
-0.351508
1.44295
-0.833364
0.727449
-0.783546
-0.824167
-0.731899
0.563777
-0.809721
-0.743303
0.432265
1.2352
-0.0484022
0.658003
-0.783697
0.459841
-0.738176
-0.858377
1.51127
0.246371
-0.717963
-0.655401
1.03446
0.873337
-0.11851
0.758844
-0.696021
-0.733955
0.942976
1.31624
1.36049
-1.28487
1.44441
1.1446
0.662141
1.54036
1.29959
1.21276
0.601954
-0.0790355
-0.803511
1.16868
-0.725921
-0.924859
-0.803591
-0.811798
-0.877196
1.63657
0.0640373
-0.641625
-0.771461
1.29891
-1.05865
-1.44419
-0.678036
1.00332
0.216536
-0.813451
1.54894
1.6055
1.40816
-0.752871
-0.834639
1.64753
1.30206
-1.00514
0.745372
-0.783601
0.370806
1.47565
1.28546
1.13438
1.59806
-0.277512
-0.0993592
-0.0108159
0.265105
-0.613587
-0.587834
0.534548
1.58058
-1.04797
-0.343214
1.29208
0.812487
-0.846272
-1.63837
-0.796693
-0.948781
-0.789906
-0.833377
-0.584174
-0.941497
1.47794
0.307729
-0.747473
1.30736
-0.801704
1.56097
-0.949149
-1.84866
-0.649146
1.28902
-0.838776
1.32125
1.09905
-0.196602
1.30993
-0.806019
-0.846518
-0.791356
1.28146
1.21668
-0.846343
-0.787912
-0.781562
1.28262
-0.799109
0.0779517
0.790637
1.25802
1.14602
0.950332
-0.827883
-0.351211
1.14542
0.00173203
1.05949
-0.174578
1.31342
0.23826
1.41139
-0.864722
1.10502
1.02139
1.32857
-0.824265
1.29936
0.310478
-0.848276
1.29235
-1.80543
0.436408
-0.816297
0.162961
1.30413
0.359426
0.499367
1.30767
0.520573
0.159439
0.0641227
-0.638254
0.486451
-0.736835
1.0105
-0.439964
1.35815
1.41788
-0.781459
-0.828108
-0.14862
-0.608098
0.726509
-0.747142
1.12066
0.239442
-0.733042
1.4011
0.253606
0.650889
0.50638
0.0936832
1.08328
0.621437
-0.26792
0.182571
0.547952
-0.534343
1.31193
-0.284039
1.38531
1.5206
1.50449
0.949029
1.44827
-0.958736
-0.517849
1.16414
0.424359
1.29306
-0.603383
-0.720722
-0.952288
1.03672
-0.838297
-0.324771
-0.636182
-0.678162
0.0411636
-0.0647469
1.0382
1.02478
-0.27628
-0.0798322
0.993957
0.27062
1.4206
0.413115
0.0923848
-0.835785
1.04725
-0.426949
1.46159
1.65975
-1.17596
-0.951991
-0.709661
0.599662
-1.51726
1.31226
-0.04547
1.26268
1.07452
-0.923276
1.18309
1.14554
-1.90194
1.139
-0.233635
-0.689387
-0.570214
-0.819973
-0.28072
-1.33405
-0.363127
1.29151
0.5014
-0.891908
0.821886
1.44041
1.50586
-0.160946
0.996662
0.461564
1.02349
0.130628
-0.856365
-0.731933
0.788661
1.11869
1.36231
0.255702
-0.819981
-0.585365
-0.869907
0.0676883
0.972389
0.168476
0.233033
-0.811985
1.24229
-0.610128
1.26265
-0.000394971
0.307089
1.22689
0.903977
-1.51067
0.105665
1.27017
1.59455
1.31584
-0.0557218
-1.03234
1.04343
0.027705
1.03021
-0.300185
0.733233
1.26791
-0.723796
-0.642479
1.3238
-0.81427
1.52753
0.0535715
1.13323
-0.453711
0.858509
-0.897453
1.52734
-0.66056
-1.2635
1.25072
0.812965
0.81263
-0.767328
-0.622355
-0.0152882
1.09444
0.640602
-0.389604
0.110657
1.31223
0.694066
-0.918787
1.05867
1.19542
1.28964
0.295874
-0.530695
-0.698792
1.30729
1.46384
0.716716
1.30278
-0.389856
1.32464
-0.55706
-0.249553
0.195939
1.19358
1.24891
-0.835578
1.14038
-0.665098
1.11982
-1.0087
1.29303
1.21306
1.3135
0.0350994
1.22871
-1.17575
-0.406456
1.45519
-1.24026
0.460669
1.41804
-0.325877
1.39796
-1.66144
-0.6952
1.33359
1.02668
1.66728
1.29162
-1.16976
1.36358
1.38999
0.130268
0.924822
-0.314707
-0.862788
1.7893
-0.803026
1.43215
-0.850465
0.516947
1.29208
-0.793888
1.29493
0.36
1.21872
1.22143
1.30412
0.24347
-0.726307
-0.462248
0.818801
0.906678
1.33766
0.101117
1.12272
0.00659147
-0.0566818
-1.15789
1.08215
1.43309
-0.696567
-0.86004
0.441053
1.53363
0.552397
1.02933
0.312533
-1.70926
-0.76806
-0.629191
0.330498
1.12164
-1.76875
-0.655459
-0.0331426
-0.263134
-0.655219
-0.792314
0.14037
1.27585
1.31432
-0.772546
-0.0171598
1.28699
1.20758
1.31272
-1.41734
1.28623
1.32929
1.28261
1.3374
-1.66837
0.0305075
-0.645171
0.912241
1.28826
0.948156
0.356497
-0.3975
-0.523483
0.0151259
1.55997
-0.002706
-0.552286
-0.37125
0.160963
-0.744847
1.0919
-0.937989
-0.786623
-0.847532
1.30155
1.29293
1.31125
0.13072
0.641111
1.53602
-0.424522
1.28623
0.0537524
0.104207
1.06461
1.31542
1.38124
0.221782
1.28539
1.28058
-0.609105
0.30512
1.31139
1.32238
1.31734
-0.830259
-0.91708
1.31659
0.844702
1.29467
0.488947
0.136291
-0.161532
0.579214
0.239012
-0.641767
0.0689657
0.329589
1.32358
1.3282
1.07713
-0.885209
1.30152
-0.0414526
0.684703
0.116567
1.28984
1.31964
1.31737
1.33247
1.31059
1.30493
1.29698
0.484486
0.77214
0.530314
0.596371
0.0668354
-0.0415065
0.032538
-0.0589796
-0.278516
0.193326
0.137755
1.28337
1.30647
1.30071
1.32523
1.3237
1.31698
1.32169
1.29472
1.3088
-0.345139
0.716604
1.31872
1.31622
0.0535558
1.31827
1.31809
0.413765
-0.386559
-0.114103
-1.05983
-0.411611
1.30158
-0.753834
1.29459
0.876377
1.35432
-0.807473
1.29364
1.25351
1.23032
-0.639319
0.12423
-0.744745
0.259907
0.236352
-0.623628
1.31631
-0.213481
1.38766
1.306
0.0895936
1.46392
1.60197
0.73002
1.19568
0.904872
1.2989
1.31643
1.30472
-0.807557
0.777169
0.158417
1.30427
1.31045
-0.757671
-0.224732
1.30657
0.385913
-0.0750979
1.30464
0.0927924
1.29154
1.31821
-0.290067
1.30707
-0.69697
1.29786
1.38742
-1.32674
1.31176
1.31996
0.0593882
1.01032
1.29765
1.30777
0.451563
-0.524617
0.963088
1.66219
1.31449
1.30044
1.30813
-0.349498
1.30163
1.28186
1.31066
1.30304
1.30672
1.2995
1.41378
-0.0886452
-0.129366
1.3029
1.30043
0.597028
0.158447
-0.106305
-0.00876861
1.1936
-0.148443
-0.271406
0.172653
1.29953
0.970672
-0.0382908
-1.04018
0.431357
0.0858991
-0.551878
-0.366029
-0.751195
-0.935834
-0.0794714
1.30653
-0.0999621
1.29379
1.23728
-0.828652
1.5368
-0.392105
-0.714445
1.00565
1.42712
0.749159
-0.857285
1.30424
-0.797701
1.3054
-0.653998
1.30504
-0.8283
1.29777
-0.670706
-0.247715
1.30814
1.31977
1.26986
-1.06845
-0.868333
-0.474044
-1.15959
1.31754
1.22257
-0.743419
1.30052
1.33986
1.29749
-0.902404
-1.5073
-0.488284
-2.09433
0.566292
1.30756
-0.00312128
1.29977
-1.82724
1.30171
1.34039
1.30881
0.0484704
-0.0645182
1.33421
-0.77535
1.31069
1.314
0.219456
-0.745393
1.24681
1.44688
1.29534
1.29823
-1.1986
-1.03618
1.26083
0.637962
1.30999
1.10098
-1.02249
-0.764662
1.17177
1.54154
1.3036
0.562835
-0.246142
-0.96782
-1.83159
-0.598324
1.27707
-0.436392
1.29273
-1.21498
-0.817921
-0.976194
0.779294
-0.838211
-0.675019
-0.644207
1.29729
-0.86044
1.22028
-0.791969
0.0107918
-1.0944
0.117887
-0.704803
1.28085
-0.902542
-0.831526
-0.665656
-0.697452
1.2807
-0.760151
0.0387045
-1.81316
1.39715
-0.638701
-0.798035
1.36929
1.27963
1.2679
0.721457
-0.79174
1.30948
1.33787
0.559769
-0.816539
1.29639
1.04923
1.54917
1.32027
-0.396941
-0.632096
-0.787928
-0.831195
-1.00562
-0.844718
0.163858
-0.90657
1.05319
0.173513
1.3029
1.51516
1.30017
-0.866129
-0.805481
1.29942
-0.726929
-0.19811
1.2685
0.0678174
-1.06358
-1.83873
-1.1685
1.26842
1.24303
0.493508
1.09877
0.999463
-1.28848
1.27374
-0.779147
1.14459
-0.548249
1.25347
-1.46276
0.649275
1.29974
1.39562
-1.72355
-1.28387
1.15963
1.66947
1.32111
1.32777
-0.809692
1.54847
-0.870101
-0.236165
-0.69
0.700973
-1.72942
1.41158
1.44757
-0.782391
0.545311
1.29954
-0.473784
1.10595
1.33108
1.28527
-1.48335
1.30128
-0.0673078
1.32532
0.110218
-1.02876
0.13851
1.30344
0.69101
-0.207539
-0.916624
1.27945
-0.964254
1.49223
0.479031
1.60956
1.29586
-0.576131
1.2679
-0.709632
1.28748
1.28291
-0.19898
-0.823352
1.432
1.29625
1.51861
1.26925
0.295665
1.27592
1.27474
1.19552
1.309
-0.88782
-0.984096
-0.958742
1.38342
0.448913
-0.364786
-0.672194
0.443998
-1.12045
-0.000709515
1.18244
-1.22282
1.23847
1.2903
-0.844216
-0.513877
-0.59292
-0.183351
-0.695393
-0.722244
1.31065
-1.80287
1.31789
1.53115
1.35393
0.134259
1.32572
1.25158
0.279299
1.24096
1.29391
-0.98557
1.29086
1.25843
0.470784
-0.588627
1.76478
-1.25958
-1.03178
-0.747624
0.450793
1.26818
-1.11331
0.114989
-0.622639
1.44468
-0.393741
1.1744
1.32225
1.2687
0.0514591
1.24494
-1.95081
1.31618
1.33035
-0.097806
1.3195
0.82156
1.27495
0.957286
-1.91378
0.121587
0.152709
0.0161907
1.54224
-0.389621
1.33988
1.68253
0.280664
0.12359
1.3633
0.235186
1.36048
-0.00487397
-0.021222
1.36498
1.36968
0.654141
-0.785344
1.08721
-0.515699
-0.748361
-0.434187
1.32616
1.27983
1.74375
-0.859498
-0.357046
0.99273
-0.752962
1.38769
1.31478
1.26969
1.2979
1.24177
-1.06026
-0.842906
-0.796214
1.151
1.24663
-2.06361
-0.766048
-0.799491
1.31361
1.31972
0.459685
-1.49943
1.33963
-0.69679
0.562521
1.09464
1.23972
-0.136776
-0.754142
0.11935
-0.726636
-0.57387
0.0704822
-1.01214
1.69509
1.63973
-1.08963
-0.734332
1.31489
1.28987
-1.01457
0.150506
-0.190604
0.981808
1.40245
-0.430068
1.31073
-0.223709
-0.755243
-0.627451
-1.05211
-0.717089
1.26631
-0.721953
-0.294882
1.65069
-0.719072
1.31187
1.53185
-0.776636
1.32868
1.56009
-0.990527
1.53472
-0.722709
-0.769814
1.34519
-1.23759
1.29359
1.31195
-0.729511
1.34467
0.359542
-1.05442
1.34849
1.31479
-0.789735
-0.816756
1.27151
1.30468
-0.759438
-1.96213
1.5699
-0.737992
1.2376
-0.631807
1.22015
-0.870287
-0.592319
-0.787282
-1.01747
1.40064
1.31774
1.60279
1.50327
1.29507
1.36642
1.37641
-0.797136
1.43804
1.43844
-0.892458
-0.747306
-0.987349
1.6062
-0.906832
-0.773489
-0.413532
1.25753
-0.930069
-1.14274
1.33601
1.30298
-0.777597
-0.7903
-0.768316
-0.0519526
-2.0641
-0.961659
-0.806743
1.21253
1.16358
-0.710238
-0.153866
-0.743646
1.16539
-0.741692
-1.05137
-0.815928
1.21907
-0.756128
-0.822333
1.64783
1.17184
0.639941
1.49688
-0.655431
1.25928
1.32003
1.4119
1.51139
-0.666794
1.01215
1.32836
0.484284
-0.824712
1.72047
1.2368
1.17609
1.34617
-0.857442
-0.511618
1.11872
1.14318
1.25254
-0.853875
-1.63332
1.28265
-0.82045
1.08357
-1.06144
1.68688
-0.833287
1.06492
0.996633
-0.660648
-0.841113
-0.856507
1.34206
-0.674057
-0.859082
0.952763
0.950094
-0.905757
1.37651
1.09672
-0.690256
-1.27651
1.2835
-0.611871
-0.848859
-0.790184
-0.622044
-0.178828
1.30572
1.29804
-1.32175
0.868071
1.30528
1.64096
0.500367
0.621358
0.365175
1.14986
-0.276984
-0.650482
-0.54982
-0.297948
-0.64174
1.3077
-0.656261
0.50917
-0.854694
0.882702
0.81256
-0.634532
0.883961
0.182657
0.734608
-0.628738
0.80793
-0.651884
0.624327
-0.864699
0.723537
-0.624229
1.08029
-0.775378
-0.6234
-0.62949
-0.852521
1.31898
0.297391
-0.658904
-0.876845
0.372399
0.47573
-0.643841
-0.844158
-0.703272
0.0791587
-0.893794
0.203504
-0.931736
-0.0109341
-0.783265
-0.112005
1.22587
0.686381
-0.828288
1.30347
0.283086
0.653477
0.685071
1.26086
-1.21075
-1.38491
-0.871336
-1.03274
1.16005
1.70242
0.436414
-0.898274
0.235163
-0.725605
-0.0151472
-0.171221
1.2982
-1.04199
1.23763
-0.974736
1.75337
0.704429
1.7465
-0.760644
1.49139
-0.251196
1.28848
-0.174352
-0.868638
1.36604
1.28456
-1.76722
-0.85591
-0.626676
1.30255
-0.54022
1.29708
-0.743748
-0.799265
-0.785036
1.60696
1.35851
1.403
1.33645
1.31579
-1.03734
-0.172095
1.50405
-0.232422
-0.742794
1.69182
-0.735771
1.24233
1.225
1.67402
1.74161
-0.685909
-0.707574
1.3302
0.452374
-0.289703
-0.573502
0.335088
-0.636954
-0.798596
0.803873
-1.09271
1.50324
0.194744
1.363
1.44774
1.36124
-1.0622
-0.870479
-0.783462
1.38713
-0.792673
1.47553
-0.457627
-0.918916
1.53427
1.61894
-0.884743
0.418379
1.23069
-0.856479
-1.02255
0.908669
1.56411
1.51746
-0.932057
1.21138
1.17609
-0.865913
1.53193
0.61919
-0.733861
-0.214804
0.126527
0.586906
1.43028
-0.852752
0.594647
-0.380689
0.10942
-1.03586
-0.882152
1.30961
-1.57074
1.34612
0.243211
0.298443
0.940238
0.500196
-0.87186
-0.340095
-1.1129
-0.0541669
-0.0902158
-0.903664
1.25801
-0.74692
-0.034251
1.33768
-0.768839
-0.907066
1.31546
-0.889043
1.29271
0.0380708
-0.82341
-0.12223
1.04384
-0.710655
-0.509005
1.15136
-0.794409
1.36366
-0.439729
-0.835309
-0.724436
-0.863974
1.81033
-1.98032
1.41046
-0.312989
1.25264
1.4949
0.971213
1.30615
1.46228
0.202562
-1.30278
1.25409
1.37737
1.67031
-0.718403
1.36339
1.00619
-0.719022
1.04201
1.51396
-0.30572
1.6234
0.483875
-1.12996
1.09429
-0.724999
-0.626891
1.21947
-0.190929
1.35033
1.34322
1.28852
-1.07527
1.23856
1.55162
-1.02499
0.00996271
-2.06878
-0.967063
-0.800577
-0.849558
1.67302
1.00227
-1.00579
1.18094
-0.733228
-0.824785
1.58283
1.51984
-1.41537
-0.902468
-0.861009
-0.803253
1.25211
-0.977596
0.295176
-0.557006
-0.0849222
1.3605
-0.751819
1.66386
1.36029
1.14033
1.34157
1.58758
-0.898295
-0.74112
1.29378
1.43254
-1.15189
1.29742
-1.85018
-0.790735
-0.766924
1.39382
1.41892
-0.780857
-0.980396
0.788422
0.148702
-0.829459
1.29975
1.27862
-1.04237
1.31636
1.35676
-0.792407
-0.910853
-1.03584
-0.801131
-0.772398
1.62348
0.247183
1.23398
-0.946401
1.62521
1.21553
1.18697
1.27545
-0.760426
0.564623
-0.810807
0.858029
-0.805297
1.18967
0.516684
-0.251372
1.20143
1.28379
1.3437
1.32471
0.125827
1.33967
0.065573
0.645057
1.14276
-0.294968
-0.874397
-0.724299
-0.440972
1.31367
1.24208
1.31259
-0.537238
-0.693747
-0.819962
-0.550262
1.3147
1.57906
1.32748
-0.839377
-0.948308
-0.949047
-0.276441
-0.857969
-0.863406
0.0888073
1.31274
-1.18323
-0.699183
0.0114336
0.104013
1.04302
-1.06925
-0.829129
-0.822858
1.27047
1.73171
0.0439174
1.39448
1.77228
0.982816
1.51382
-0.931508
-0.809604
1.72081
-0.837078
0.534619
-0.774584
-0.767241
-0.622076
-0.666738
1.25248
0.983613
1.48986
1.45506
0.00383786
1.0351
0.371954
0.0205248
-0.844945
1.40746
1.04463
1.32178
1.33866
-0.144105
0.397124
1.33075
0.102606
-0.86959
-0.680926
-0.63317
0.83006
-0.65451
1.25062
0.915945
-0.83817
1.53768
-0.864742
-0.0503455
1.27703
-0.925688
-0.768558
-0.359707
0.918709
-0.720743
-0.739213
1.22937
1.33004
0.582993
0.277036
-0.468223
-0.851889
-0.0280907
-0.951294
0.0266156
0.84251
-0.857075
-0.645764
1.5551
0.570805
0.675651
-0.637757
-0.761621
1.30235
1.32808
0.847379
0.771931
-0.63091
-0.726765
-0.616254
0.769361
0.675698
-0.626209
1.17891
0.449122
-0.621057
1.71578
-0.623055
-0.312864
-0.772252
-0.560633
1.10604
-0.639023
-0.998844
-0.881685
0.205999
-0.677579
0.298243
-1.0837
-0.211667
1.48467
-0.735864
0.0077143
-0.913751
0.110159
1.62177
1.71351
1.52369
1.3103
1.50219
-0.458373
1.29978
-0.879898
1.32334
-0.873159
-0.859408
1.57114
-0.288586
0.718619
-1.05534
1.70847
0.281353
1.64096
0.916766
1.11219
-0.746021
-0.807887
-0.868068
-0.676605
1.61168
1.50088
1.30025
0.872308
1.29635
1.13249
1.12688
-0.620989
-0.816666
0.570592
-0.139808
1.10166
1.31488
0.167358
-0.750032
-0.61702
-0.809211
-0.869869
-0.917088
1.66076
1.33296
1.31012
-0.0277636
0.315384
1.32704
0.424691
-0.852959
-0.199535
-0.726203
1.09228
-0.70084
-0.633371
-0.129097
1.32184
-0.683506
-0.774581
1.29699
0.851392
0.965312
1.30091
-0.858393
1.18408
1.47625
1.09781
-0.862357
1.28518
0.581376
0.768687
-0.86301
-0.667466
1.73049
0.4871
-0.74597
0.272066
1.22185
1.29276
-0.736519
-0.845696
0.0125784
-0.53313
-0.794889
-1.01334
-0.0815471
1.29738
-0.971062
1.30919
1.57529
1.3781
1.31249
1.3962
1.45327
1.30347
-0.951249
-0.524347
-0.148663
-0.964558
-0.665366
-0.630981
1.45772
1.3618
-0.737001
1.23452
-1.07751
-0.707202
-0.625589
-0.255181
0.774686
-0.783642
1.29537
1.21338
-0.805043
-0.24521
1.63505
-0.693521
-0.135245
-0.806438
-1.02663
-0.589237
1.33101
1.08952
1.37409
-0.791816
0.359193
-0.833694
-0.087348
-0.731986
0.115794
-1.09761
-0.616671
1.22358
-0.604126
1.77545
-0.875824
-0.386268
-0.898957
-0.627164
1.19623
-0.902041
-0.801165
-0.853492
-0.0516117
1.48631
1.51386
-0.494307
0.459031
1.13741
-0.891115
-0.733469
1.38494
-0.898264
-1.3853
-0.700665
1.06581
-0.230333
-0.727972
1.29762
0.343525
-0.635528
1.31481
-1.01211
-1.19667
-1.00907
-0.704662
0.168343
-0.728257
1.59939
-0.83136
0.390029
-0.87187
1.10545
-0.466897
-0.8634
0.957303
1.00832
1.35049
1.24138
1.48416
-0.636405
1.10719
0.790121
-1.05571
1.25882
-0.110953
-0.493564
-0.583087
1.4677
1.45166
-0.503881
-0.910315
-0.837484
1.31692
-1.00526
0.413228
-0.758452
-0.640682
1.57027
1.32473
-0.775678
-1.05649
-0.780515
-0.721378
1.23163
-0.920553
1.29091
0.53629
1.01673
1.1483
-0.60623
-0.932917
1.25387
-0.632814
0.0235495
1.579
-0.812885
-0.714771
1.12587
-1.05016
-1.02112
0.0441244
-0.738738
1.65455
-0.445852
0.38382
-0.791749
1.61747
-0.842703
-1.08031
0.952509
-0.724706
-0.872178
1.63839
0.982375
1.28533
-1.01798
1.51858
-0.361713
-0.568015
-0.989503
-0.998625
-0.862421
1.54781
0.884552
-0.777479
-0.826755
-0.723427
1.43676
-1.1455
1.58963
-0.870204
1.05338
-0.681557
0.677012
0.847308
0.812654
0.730387
0.394337
-1.10342
1.32243
-0.974935
-0.447874
-0.734503
0.497055
1.63459
-0.0572279
-1.02661
-0.893563
-0.690589
0.56763
-0.869687
-0.673368
1.10407
0.408313
-0.748107
1.70648
-0.72668
-1.28464
1.66132
-0.709468
0.449455
-1.09304
-0.628019
-0.660791
1.67752
-0.612773
1.57468
-0.654901
-0.97506
1.47858
0.0471294
-1.08334
0.874511
-0.729162
0.310944
-0.195416
-0.677881
1.05605
-0.822049
-0.681341
-0.631249
-0.628081
-0.878186
1.09704
0.130583
-0.1506
-0.760691
1.6042
-0.752884
-1.03871
-0.595256
0.019114
-0.759248
-0.609133
-0.73351
0.158664
1.53257
-0.881244
-0.863442
-1.00838
-0.506492
0.0464405
-0.884577
1.69626
1.62354
0.721691
-0.92591
-0.873457
0.634431
-0.871657
1.70436
0.509993
1.35739
1.0085
1.59343
0.387462
-0.764635
-0.898441
0.229295
-0.975181
0.228515
0.0790822
-0.657518
1.59837
0.0125485
0.522344
-0.0745318
-0.844544
-0.956107
)
;

boundaryField
{
    frontback
    {
        type            empty;
    }
    Top
    {
        type            zeroGradient;
    }
    outlet
    {
        type            fixedValue;
        value           uniform 0;
    }
    bottom
    {
        type            zeroGradient;
    }
    Inlet
    {
        type            zeroGradient;
    }
    rectangle
    {
        type            zeroGradient;
    }
}


// ************************************************************************* //
