/*--------------------------------*- C++ -*----------------------------------*\
| =========                 |                                                 |
| \\      /  F ield         | OpenFOAM: The Open Source CFD Toolbox           |
|  \\    /   O peration     | Version:  2306                                  |
|   \\  /    A nd           | Website:  www.openfoam.com                      |
|    \\/     M anipulation  |                                                 |
\*---------------------------------------------------------------------------*/
FoamFile
{
    version     2.0;
    format      ascii;
    arch        "LSB;label=32;scalar=64";
    class       volVectorField;
    location    "16.8";
    object      U;
}
// * * * * * * * * * * * * * * * * * * * * * * * * * * * * * * * * * * * * * //

dimensions      [0 1 -1 0 0 0 0];

internalField   nonuniform List<vector> 
2186
(
(1.33214 -0.0815313 1.92002e-19)
(1.63365 -0.956502 -9.88543e-20)
(1.47881 -0.933314 5.89955e-22)
(0.761541 -0.607545 -1.29783e-19)
(-0.378302 0.443016 -1.62183e-19)
(1.29564 -0.0231467 0)
(0.739114 -0.683947 0)
(-0.280683 -0.423774 1.23005e-19)
(1.45282 -0.279224 1.97369e-19)
(0.572657 -0.339116 -2.45369e-21)
(0.660084 0.595178 0)
(0.821755 -0.278745 -1.43034e-19)
(-0.329815 -0.492999 -4.95479e-20)
(1.19422 0.0217717 -3.34047e-19)
(1.82269 -0.698929 -1.05676e-19)
(1.01319 -0.00399149 1.58204e-19)
(0.985851 0.013219 0)
(-0.702362 0.486138 0)
(1.25999 0.0145444 0)
(-0.0821802 0.208934 -6.03431e-20)
(0.48375 0.0597066 -1.06065e-19)
(-0.220295 0.159868 8.22536e-20)
(1.18149 0.0262774 2.7635e-19)
(-0.209479 0.00235343 5.08262e-21)
(1.03395 0.00192602 -2.17308e-19)
(0.811603 -0.582736 0)
(0.765879 -0.0503604 1.31783e-19)
(0.628379 -0.609063 -1.47072e-19)
(1.18672 0.701883 0)
(0.965866 0.0225674 -2.9677e-19)
(-0.0330748 0.0456268 0)
(1.02555 -0.0124808 1.02718e-20)
(-0.0808508 0.20766 0)
(2.6137 0.164997 2.45055e-19)
(-0.101676 -0.197023 3.49963e-21)
(1.5045 0.765765 6.49085e-20)
(1.87925 0.137497 1.51404e-19)
(0.50738 0.108733 -3.1627e-19)
(1.87731 0.319486 -3.05465e-19)
(1.11539 0.0518317 1.58763e-20)
(-0.360508 -0.530728 0)
(-0.179508 0.125238 0)
(1.89969 -0.897299 9.5108e-20)
(-0.412362 0.146387 0)
(1.09661 0.271634 1.40889e-19)
(0.61419 -0.319046 2.56567e-19)
(0.938452 -0.800691 0)
(1.20781 -0.809175 8.78351e-20)
(2.39087 -0.219534 0)
(-0.337769 0.606865 1.72342e-19)
(-0.0226528 0.0947362 8.91867e-20)
(0.61291 0.565977 7.41846e-20)
(2.09359 -0.78046 1.17631e-19)
(0.585886 0.247876 -2.54642e-19)
(-0.274727 0.0334698 3.1075e-20)
(0.785141 -0.673572 0)
(1.68306 -0.984093 1.8668e-20)
(0.599639 -0.560603 0)
(2.28812 0.285448 9.85174e-20)
(1.15708 -0.183689 -3.11002e-19)
(1.97447 -0.113358 1.77925e-19)
(1.3392 0.302684 -1.62177e-19)
(1.31974 0.525116 0)
(0.789179 0.0909431 -1.7391e-20)
(1.34276 0.384627 -9.77452e-20)
(1.27288 -0.754171 -1.18714e-19)
(1.14682 0.653207 4.84852e-20)
(0.678458 0.0496544 -5.1084e-19)
(0.816649 0.0363977 0)
(2.11561 -0.257571 -7.21117e-20)
(-0.276809 -0.464982 -1.43527e-19)
(2.06947 -0.249039 -1.71387e-19)
(0.730533 -0.0605566 -2.24278e-19)
(0.894085 -0.541302 0)
(0.816831 0.157746 -8.30957e-20)
(0.569558 -0.532932 -2.65344e-19)
(2.61735 -0.223309 0)
(1.00474 0.00814651 3.25922e-19)
(-0.088848 -0.278421 0)
(1.93776 0.416241 0)
(0.795171 0.460032 1.24884e-19)
(0.84264 0.0387425 -2.97206e-20)
(1.03137 0.00520444 3.60502e-20)
(1.29995 0.418661 2.48408e-20)
(0.970571 0.0197516 3.7787e-19)
(1.04173 0.0248462 -8.97377e-21)
(0.662158 0.152435 -3.06092e-19)
(1.26622 0.0153592 -5.2568e-22)
(0.635328 -0.158161 0)
(-0.0681269 -0.0369701 1.0322e-19)
(0.882179 -0.647293 -1.42268e-19)
(-0.080774 0.350596 -9.27213e-22)
(1.12587 -0.0843754 2.1867e-19)
(0.829277 -0.201171 0)
(0.975384 0.0236452 3.61941e-20)
(1.33983 0.639682 0)
(1.64593 -0.971112 0)
(1.2869 0.221797 0)
(-0.40925 0.558254 0)
(0.814635 -0.691601 2.54626e-19)
(0.458807 0.304987 -3.95415e-19)
(0.748832 0.338926 2.47368e-19)
(1.53651 0.19733 0)
(1.15364 -0.110839 -1.999e-19)
(1.11542 0.023826 1.61404e-19)
(-0.0532295 0.506204 1.09688e-19)
(0.619954 0.484907 0)
(2.2274 -0.193825 -1.44065e-19)
(0.983449 -0.501166 7.13881e-20)
(-1.57931 0.0949279 2.3644e-19)
(1.69312 0.315859 1.08166e-19)
(-0.235432 0.629947 -2.46212e-19)
(0.833206 -0.758359 0)
(0.551089 0.323541 1.54808e-19)
(1.67097 -0.279466 -5.6896e-19)
(-0.452643 -0.419526 -4.66153e-19)
(1.29888 0.278933 4.16902e-20)
(2.00391 -0.347311 0)
(-0.0898031 -0.0403116 -3.09083e-19)
(0.716599 -0.0945079 7.08144e-20)
(1.52434 0.865511 0)
(-0.297465 0.688935 -2.75056e-19)
(0.86471 0.743608 -2.50144e-19)
(-0.942937 0.435736 4.25306e-19)
(1.02915 -0.0252129 0)
(1.42492 0.304528 -5.25333e-20)
(-0.324405 0.553198 0)
(0.71905 -0.520622 -9.49195e-20)
(-0.842243 0.444119 -2.25285e-19)
(0.806319 -0.737313 0)
(0.457188 -0.312399 3.75001e-19)
(0.56595 -0.484614 2.4981e-19)
(0.420832 -0.381152 0)
(1.00462 -0.801936 -1.02614e-19)
(0.774477 0.38028 0)
(-0.146036 0.707323 -1.35191e-19)
(0.833481 -0.721779 1.20409e-19)
(2.4606 -0.284791 3.19924e-19)
(2.2747 0.185124 0)
(-0.101373 -0.189049 0)
(0.666196 0.61949 -3.10704e-19)
(1.80647 -0.642235 1.77508e-20)
(-0.184328 -0.239982 0)
(1.00566 -0.828624 -1.13215e-20)
(1.15968 -0.106786 0)
(1.1002 -0.139351 3.47208e-19)
(2.15858 -0.195781 -1.38503e-19)
(-0.414817 0.434881 0)
(1.24638 -0.574552 -4.48619e-20)
(-0.269137 0.290126 -3.87861e-20)
(-0.187683 0.450399 0)
(1.11514 -0.835613 1.25774e-20)
(1.00569 0.00583562 -5.44444e-19)
(0.674088 -0.507209 -9.368e-21)
(0.837445 -0.540462 0)
(1.22244 -0.75201 -7.46245e-20)
(0.647197 0.214008 2.38619e-19)
(1.22158 0.112627 0)
(1.47556 0.100769 -2.09955e-19)
(1.21888 -0.876534 -1.46643e-19)
(-0.0873242 -0.16804 -1.14113e-19)
(-0.0762839 -0.471098 -2.09645e-19)
(1.06689 0.00212929 2.0465e-19)
(0.938198 -0.486457 -8.97697e-20)
(1.27536 -0.0135766 4.86703e-22)
(1.27938 -0.0131033 -6.12712e-21)
(0.728811 -0.102548 1.26731e-19)
(-0.185052 -0.0387965 -2.76735e-19)
(1.50077 -0.475816 0)
(1.51457 -0.536911 5.35863e-20)
(1.41974 0.642012 1.21417e-19)
(0.830719 -0.639732 -1.85747e-19)
(0.995472 0.00738616 1.11567e-20)
(0.743998 -0.557443 2.60906e-19)
(1.27465 0.788329 1.12221e-19)
(1.84426 0.113816 1.9286e-20)
(-0.461386 0.333376 0)
(1.0822 0.0494927 -2.12183e-19)
(-0.783683 -0.163948 -2.98151e-19)
(1.05101 0.479772 7.254e-20)
(0.0535044 -0.0905588 1.67214e-19)
(1.1509 0.0263465 -3.85928e-20)
(-0.156095 0.149034 -1.46135e-19)
(1.26938 0.578037 -6.90176e-20)
(1.10987 0.867402 0)
(-0.518045 0.32568 -8.78153e-20)
(-0.217706 -0.206301 0)
(0.635415 0.544095 -2.54228e-19)
(2.03395 0.251197 -2.22925e-20)
(-0.404997 -0.525514 1.66131e-19)
(-0.814891 0.125013 -6.18558e-19)
(0.723514 0.050677 2.24345e-19)
(2.10954 0.124472 -6.21865e-20)
(0.996776 -0.36285 -2.65019e-20)
(-0.0341849 -0.0536277 0)
(-1.0906 0.0209197 3.74805e-19)
(1.29146 0.948633 -1.38083e-20)
(0.833269 0.0513487 -1.22713e-19)
(0.53975 0.506285 1.76776e-19)
(0.412481 0.191017 0)
(-0.11827 -0.482736 -2.38279e-19)
(-0.63083 -0.0228072 2.14991e-19)
(1.31759 -0.975205 1.9474e-22)
(0.990062 -0.0450615 -1.69002e-19)
(-0.174603 -0.135777 7.61477e-21)
(-0.129513 0.171975 1.34165e-19)
(-0.309465 -0.129951 -2.008e-19)
(1.98907 -0.380264 0)
(1.12938 0.0438588 -2.85231e-19)
(2.28189 0.149133 2.68156e-19)
(1.29911 -0.641658 7.71342e-20)
(0.310965 -0.14382 1.33049e-20)
(0.580542 0.303223 0)
(0.921273 0.733599 -1.47786e-20)
(0.665115 0.611997 1.67583e-19)
(0.918202 -0.588211 1.28874e-19)
(0.66826 0.481961 0)
(1.02113 -0.0015859 7.24625e-21)
(0.904427 -0.688624 1.83154e-19)
(0.823907 0.404891 -4.16378e-19)
(1.25067 -0.116147 0)
(-0.20822 -0.232856 -3.16336e-19)
(-0.0220389 0.323032 -8.90323e-20)
(1.55569 0.714031 0)
(1.37222 -0.957061 -1.66676e-22)
(-0.708007 0.515986 0)
(-0.342156 0.502881 1.02445e-19)
(0.716485 0.634208 -8.93464e-20)
(0.861126 -0.235027 0)
(-0.175173 -0.176828 0)
(1.61758 -0.467777 0)
(-1.06453 -0.0838419 6.70457e-19)
(1.23453 -0.902909 9.62004e-20)
(1.20002 -0.628075 4.98146e-20)
(1.07235 -0.184627 -1.40509e-19)
(0.901742 -0.718127 -1.43772e-19)
(0.193836 -0.198419 0)
(-1.19935 0.278576 0)
(1.0228 -0.533611 1.49656e-19)
(-0.152522 -0.254108 0)
(-0.332402 0.606722 0)
(-0.432582 -0.397031 3.97852e-19)
(0.772357 0.65275 7.75121e-20)
(0.988601 0.776904 0)
(0.678624 0.534075 -7.75736e-20)
(0.83635 -0.0636345 -2.01122e-19)
(0.728176 0.544492 -2.07287e-19)
(0.574287 0.53354 -1.52261e-19)
(-0.246103 -0.465086 1.76613e-21)
(0.737421 -0.663326 0)
(0.893018 0.155177 -2.91612e-19)
(-0.310227 -0.522131 6.49386e-20)
(0.586258 0.543701 3.42395e-19)
(0.932931 0.778521 0)
(-0.857147 -0.0257489 4.6725e-19)
(-0.0801209 -0.410242 3.46964e-19)
(0.00324689 -0.314601 -1.7926e-19)
(0.645119 0.550042 -1.34859e-20)
(0.970098 -0.00946081 5.27234e-20)
(-0.36766 -0.539942 0)
(2.40785 -0.0434524 -3.43958e-19)
(1.80829 -0.681796 -2.29441e-19)
(0.671536 -0.624034 -6.50152e-20)
(-0.540413 0.378408 1.53435e-20)
(1.16963 0.453947 1.62478e-19)
(0.869032 0.39433 0)
(1.07177 -0.182591 1.67621e-19)
(0.0807524 -0.41741 -6.73627e-21)
(-0.0644805 0.0804595 3.39121e-19)
(0.929458 0.021523 -4.66474e-20)
(1.11213 0.137559 0)
(1.97649 -0.06566 -3.32757e-19)
(1.9112 0.133914 0)
(0.537132 0.22695 -4.18849e-19)
(-0.137989 0.203844 0)
(-0.26091 -0.428052 2.81625e-19)
(0.702902 0.106313 0)
(0.644808 -0.54222 -1.60934e-19)
(1.13081 0.0169029 1.85388e-19)
(-0.456152 0.479683 3.83389e-20)
(2.18609 -0.105525 4.79733e-21)
(2.12196 -0.288014 -1.4507e-19)
(1.10246 0.222286 -1.96555e-19)
(-0.317601 -0.540637 -1.26714e-19)
(1.09628 -0.871349 0)
(0.805882 0.0207318 -1.34978e-19)
(0.94573 -0.395727 -2.54233e-19)
(1.75602 -0.587752 -8.58841e-21)
(1.76208 0.0330084 3.01592e-19)
(1.07586 -0.00922042 3.41332e-19)
(0.0350327 -0.404173 -1.72827e-19)
(1.01241 -0.457601 -1.08735e-19)
(0.204867 -0.197665 2.27588e-19)
(1.00843 -0.0093878 0)
(1.00537 -0.00640062 0)
(1.07395 -0.61412 1.0204e-19)
(-0.0487754 0.675926 -9.1359e-20)
(0.179374 -0.121131 -1.4996e-19)
(2.01744 -0.0929823 1.13698e-20)
(1.2475 -0.151497 0)
(1.99592 0.100274 -1.78655e-19)
(0.961194 -0.83763 -5.85654e-20)
(1.81839 -0.570571 -8.88439e-20)
(1.07834 0.81898 0)
(0.491737 -0.475406 0)
(0.586618 0.497558 -1.61735e-19)
(1.08266 0.273487 -3.62606e-19)
(2.31058 -0.279358 4.69226e-22)
(0.851789 0.137474 1.2518e-19)
(-0.00363004 -0.445565 -5.0891e-19)
(1.05071 -0.336899 -3.31491e-20)
(-0.190449 -0.465701 0)
(-0.098176 -0.201299 0)
(-0.447888 -0.498105 0)
(1.36377 -0.743206 -5.69649e-20)
(-0.190277 0.454481 -1.96278e-19)
(-0.0483896 0.128916 0)
(1.25372 0.950847 -2.85313e-20)
(1.10134 0.14472 -3.76698e-19)
(1.86012 0.481315 -4.4712e-20)
(1.04931 0.897574 7.25192e-20)
(-0.198183 0.624051 1.26735e-19)
(0.572296 -0.159156 0)
(-0.458218 -0.451603 -3.44313e-19)
(-0.268094 0.592373 2.37481e-19)
(0.774906 0.0108096 1.65026e-19)
(1.49357 0.927946 3.49382e-21)
(1.69306 0.511966 -6.1481e-21)
(-0.115867 0.318379 -2.19134e-21)
(0.763739 -0.698613 -3.09245e-20)
(1.1089 -0.00138112 0)
(1.71489 -0.0854767 0)
(1.04603 0.0536557 0)
(-1.38424 0.457594 -2.35609e-19)
(-0.387367 -0.503892 1.2549e-19)
(1.01999 0.82414 0)
(1.00353 -0.00973141 4.54063e-19)
(0.748978 0.586242 -2.07698e-19)
(-1.78329 0.0569201 -2.04023e-19)
(0.858063 -0.00203833 -3.68805e-20)
(0.733545 -0.672142 -1.86244e-19)
(1.3549 0.698541 -2.74749e-20)
(0.587287 -0.480783 -2.6036e-19)
(1.12609 -0.00134377 -4.09496e-19)
(0.819186 0.0419466 3.94588e-20)
(1.56758 -0.184961 4.52319e-20)
(1.32561 -0.133347 -4.7399e-20)
(-0.0618231 -0.0858653 -7.51975e-23)
(1.05637 0.453517 -2.41453e-19)
(1.27654 0.596084 7.06538e-20)
(-0.0465767 -0.386197 0)
(0.0158134 -0.453729 1.88623e-19)
(-0.290514 -0.326925 1.32682e-19)
(-0.199134 -0.0743756 -1.43277e-19)
(0.459722 0.285229 0)
(1.39472 -0.68188 0)
(0.0121365 -0.00914826 -1.23478e-19)
(-0.264546 -0.529654 -7.02673e-20)
(1.04548 -0.0280947 1.62282e-19)
(-0.391981 0.319376 -3.96512e-20)
(1.58354 -0.128003 -6.16325e-19)
(-0.0668207 0.696087 0)
(0.852084 -0.757621 -2.49392e-19)
(0.945501 -0.138805 5.84994e-20)
(-0.357245 -0.341545 1.87407e-19)
(0.712298 0.137063 2.98163e-19)
(0.619184 0.110653 9.67498e-20)
(0.520588 -0.495066 1.78149e-19)
(-0.20665 -0.294577 -1.49717e-19)
(1.45153 0.479895 0)
(0.375804 0.316449 -1.78257e-19)
(1.02605 -0.0158711 -2.58202e-19)
(-0.885136 0.129357 2.40572e-19)
(1.39201 0.483871 -1.03876e-19)
(-0.175073 -0.310369 -5.66392e-20)
(0.699955 -0.639322 -2.4364e-20)
(0.803617 0.164162 -1.86719e-19)
(0.956537 0.407507 2.06618e-20)
(1.16522 -0.154623 2.9924e-20)
(0.621844 -0.255545 -2.6917e-19)
(2.03758 -0.377569 -1.88383e-19)
(1.53304 -0.166624 0)
(1.46627 0.402245 -2.9207e-20)
(1.83864 0.105391 -1.94778e-20)
(0.847688 -0.288889 1.45694e-19)
(0.89174 0.346141 -1.70023e-19)
(0.898601 -0.0276783 5.05675e-20)
(0.402502 0.367905 -2.30821e-19)
(-0.23331 0.382084 2.56165e-19)
(1.96178 -0.226872 0)
(0.928591 0.00407747 0)
(0.890715 -0.789396 4.65631e-20)
(-0.0897599 -0.451771 -3.79686e-19)
(-0.908504 0.222341 -3.0037e-19)
(-0.0853088 -0.127898 -2.43323e-19)
(-0.478542 0.624026 -1.62263e-19)
(-0.254739 -0.452462 0)
(-0.0796746 -0.155191 4.3087e-20)
(0.172479 0.465559 -8.37215e-20)
(-0.149001 0.195222 -3.0638e-19)
(0.812954 -0.129473 0)
(1.54109 -0.684152 9.12275e-20)
(-0.260168 -0.317733 0)
(0.99621 0.0232301 3.27466e-19)
(-0.0636218 -0.501811 2.33966e-20)
(0.562933 -0.452354 3.48928e-19)
(-0.835833 -0.191456 4.94146e-19)
(-1.56014 0.106387 0)
(0.23178 0.645739 1.01573e-19)
(1.00762 0.0239791 -9.84304e-21)
(-0.153507 -0.138962 0)
(1.0058 -0.0107975 -5.10756e-20)
(0.881396 -0.748576 -2.41861e-19)
(1.50874 -0.68813 0)
(0.945511 -0.284113 1.81638e-19)
(0.101247 0.662188 2.2975e-19)
(-0.015522 -0.0143759 0)
(-0.139522 -0.470665 -6.84848e-21)
(0.747588 -0.657488 -3.6818e-19)
(0.965673 -0.027344 -2.33771e-19)
(-0.0972929 -0.463402 4.70916e-19)
(-0.216837 -0.405173 1.72814e-19)
(-0.218914 -0.481793 0)
(0.938692 0.458631 0)
(-0.285108 -0.504768 2.3671e-19)
(1.8789 0.0285485 -2.53916e-19)
(1.04604 0.873823 1.65276e-20)
(1.06054 0.206489 -1.10683e-19)
(1.14934 0.00646237 -1.92407e-19)
(1.07508 -0.070126 -6.67173e-20)
(-0.0970533 -0.47182 -4.32126e-19)
(2.0166 0.100632 5.12881e-19)
(0.669165 0.0252085 1.84285e-19)
(2.02193 -0.102598 1.67823e-19)
(1.06601 -0.168159 0)
(-0.117958 0.405182 4.70328e-19)
(1.13368 0.0247023 -4.43834e-19)
(1.71493 0.614287 3.65782e-21)
(0.760257 -0.478281 -1.42127e-19)
(-0.0713948 -0.035232 2.31116e-19)
(0.816911 -0.719702 3.19267e-19)
(1.22461 0.192895 6.58791e-20)
(1.00481 -0.0082011 2.26304e-19)
(0.0417679 -0.452481 -1.88605e-19)
(1.02153 0.0128278 0)
(1.62817 0.145829 -2.29199e-19)
(-0.0270109 -0.0217116 0)
(1.02181 0.0128825 -1.33056e-19)
(-1.44805 -0.0893731 -7.37691e-19)
(1.67544 0.319376 2.62758e-20)
(-0.407103 -0.353727 1.65035e-19)
(1.60719 -0.00620226 -1.35204e-20)
(1.01133 -0.0197312 4.6845e-20)
(1.34902 -0.0947779 0)
(1.47189 -0.626436 -9.40473e-20)
(1.0184 0.0273666 -1.38793e-19)
(1.4099 0.776111 -4.57081e-20)
(1.40441 -0.0594594 0)
(0.670153 -0.0538369 -1.74633e-20)
(0.0107645 -0.0100839 0)
(1.37174 0.0507469 0)
(-0.371044 -0.521521 0)
(1.22167 0.433876 0)
(1.82727 0.308579 4.84259e-20)
(0.721973 0.598136 3.63974e-19)
(0.302624 -0.304942 -2.10852e-19)
(-0.251263 -0.505827 -4.12218e-19)
(-0.0340172 -0.0561953 0)
(1.72288 -0.500333 9.99546e-20)
(1.28917 0.509499 0)
(1.43298 0.301092 0)
(-0.486516 -0.420963 1.51904e-19)
(0.786822 0.695896 1.15983e-19)
(1.71578 -0.0268769 0)
(-0.336839 -0.453261 9.478e-20)
(0.896562 0.200732 1.71194e-19)
(1.85633 -0.458375 -4.51405e-20)
(1.21036 0.907085 3.96218e-20)
(0.93785 -0.844461 -2.26559e-20)
(1.18708 -0.194842 -1.42067e-20)
(0.772866 0.699035 1.18889e-19)
(1.1475 0.904042 0)
(2.43586 -0.328179 1.90325e-19)
(1.17519 0.688543 0)
(1.36425 -0.629176 2.67567e-20)
(0.904304 0.100532 1.72865e-19)
(1.00596 -0.00616537 0)
(-0.0350438 0.281968 4.64522e-19)
(0.898442 -0.187281 4.2302e-20)
(0.650309 -0.433792 0)
(0.687561 -0.405332 1.88591e-19)
(1.21402 0.548902 -3.00656e-20)
(0.460645 0.433771 2.53051e-19)
(-0.177903 0.264045 3.62882e-20)
(0.013428 -0.00949598 8.72264e-20)
(0.765395 0.0621232 0)
(1.3445 -0.918874 -3.78487e-20)
(1.03835 -0.0419437 3.60069e-19)
(1.45136 0.336065 1.34772e-19)
(-0.364591 -0.488663 8.20289e-20)
(-0.901542 -0.181566 0)
(1.24532 -0.249642 -9.54269e-20)
(-0.0147332 -0.0171722 -1.98693e-19)
(-0.0168078 0.172398 -5.76993e-20)
(-0.125569 0.0383271 -5.38436e-22)
(-0.197312 0.0869654 2.76523e-19)
(1.33197 -0.103983 -3.22705e-21)
(2.43173 -0.0669775 4.60548e-19)
(1.1707 0.456616 -2.62003e-19)
(0.858068 -0.0389702 0)
(1.91529 -0.140702 2.70063e-19)
(1.88313 0.12929 1.38496e-19)
(0.931354 -0.785989 1.16712e-19)
(1.17397 -0.990544 -1.65733e-20)
(0.46504 0.431283 1.69547e-19)
(1.48064 0.380815 0)
(1.7238 0.575074 3.10633e-20)
(-0.0213683 -0.0330888 -4.04742e-19)
(0.861911 0.7529 0)
(1.31881 0.412241 0)
(0.304587 -0.30483 -3.93675e-21)
(0.30876 0.277431 0)
(-1.22169 -0.00137016 -4.59569e-19)
(-0.259554 0.421469 -1.07046e-19)
(1.75888 -0.43018 0)
(1.25337 0.0990067 1.48561e-19)
(-0.703313 0.245242 2.51045e-19)
(0.551088 -0.525023 -4.03019e-19)
(2.01634 -0.09991 -5.92249e-20)
(0.62961 -0.573745 0)
(1.02059 0.116581 0)
(1.38216 -0.244578 0)
(1.10764 0.220294 -2.0922e-19)
(1.32767 0.105755 2.95228e-19)
(-1.35994 0.123895 0)
(0.889212 -0.0580823 0)
(2.13977 -0.128916 4.19214e-22)
(-0.0620279 0.135598 9.38719e-20)
(2.61733 -0.0608494 -3.54154e-19)
(1.07881 -0.521247 2.0865e-19)
(2.03854 -0.0030531 -3.65294e-19)
(-1.13543 0.299849 -1.893e-19)
(1.99164 0.14291 -2.29179e-19)
(1.01868 -0.0287964 3.68708e-19)
(1.49007 0.600149 0)
(-0.305388 0.549676 2.86427e-20)
(1.02338 -0.847729 1.38553e-19)
(0.860272 -0.0345334 4.31092e-20)
(0.655621 -0.457237 0)
(1.92608 -0.55273 9.17373e-21)
(1.22625 -0.196824 1.23321e-19)
(1.64559 -0.660632 0)
(0.622119 -0.578798 3.68708e-19)
(0.676384 0.0860438 -2.7184e-20)
(2.45822 -0.0299711 6.25642e-19)
(-0.090442 0.230268 -1.93111e-19)
(1.3073 0.61158 1.324e-19)
(1.12854 0.396771 3.31234e-21)
(0.889514 0.35444 2.04009e-19)
(1.96291 0.130696 -2.79373e-19)
(-0.111637 -0.479351 -4.51381e-21)
(0.83783 -0.218473 0)
(-0.155514 -0.0986032 3.82134e-19)
(1.10767 -0.964348 0)
(1.08406 -0.674159 1.79531e-20)
(1.17268 -0.113766 -7.74413e-19)
(1.44199 0.081378 -7.42946e-21)
(-0.565553 -0.286715 -4.32385e-19)
(0.969603 0.470487 1.58779e-19)
(-0.224572 0.472553 2.60613e-19)
(0.692979 -0.0369326 0)
(1.83599 -0.139537 0)
(1.49625 0.164283 2.48548e-20)
(0.775846 -0.0109451 0)
(1.38361 -0.213739 -1.26896e-19)
(-1.59254 0.222359 5.80766e-19)
(1.89715 0.494763 1.81216e-20)
(1.0426 -0.0331027 0)
(0.572798 -0.376608 9.25476e-20)
(1.00773 0.0266746 1.75808e-19)
(0.550994 0.834636 -2.26463e-19)
(-0.499484 0.643294 0)
(1.13042 -0.497528 4.09212e-19)
(1.69523 -0.119658 -4.71793e-22)
(1.11719 -0.516138 -1.78336e-19)
(2.32207 0.264466 1.75706e-19)
(1.26153 0.778149 0)
(0.861567 0.0180877 0)
(-0.410452 -0.513606 -2.05001e-19)
(0.0113018 -0.00920136 1.38909e-19)
(0.933258 0.351052 -1.88164e-19)
(0.202462 -0.383945 -1.69981e-19)
(0.634279 0.389011 2.21553e-19)
(0.86243 -0.016081 0)
(0.552414 -0.514449 0)
(0.915726 -0.217671 4.38985e-21)
(1.25191 -0.527226 -8.0641e-20)
(0.643734 -0.0198138 1.43577e-20)
(0.740396 -0.174161 1.06078e-19)
(-0.0426283 0.068545 -2.48624e-19)
(1.30718 0.202654 3.16094e-19)
(0.643555 0.600121 0)
(1.24535 0.68681 0)
(1.59053 0.264027 0)
(-0.339626 -0.437929 -1.8655e-19)
(1.21365 0.542365 1.89643e-19)
(2.03789 0.0814576 5.77653e-20)
(0.926367 -0.00523794 0)
(1.42657 -0.469006 0)
(2.20335 -0.104752 -3.92467e-19)
(0.588098 0.346964 2.59221e-19)
(1.00589 0.00513102 -1.75876e-19)
(1.46913 0.4653 0)
(-0.357737 0.617004 0)
(1.23141 0.317222 2.58098e-19)
(1.00315 0.515623 -1.17592e-19)
(1.06867 0.0244721 0)
(1.72895 0.192467 0)
(1.92866 0.664943 -2.81822e-19)
(-0.0871683 0.442392 -1.78689e-21)
(0.996892 0.0117288 0)
(0.694307 0.455621 -3.04292e-20)
(0.952263 -0.840547 0)
(1.00882 0.0173177 4.08068e-20)
(0.938333 -0.518622 2.78986e-20)
(0.917776 -0.336823 2.67087e-19)
(0.960376 -0.28641 -7.37792e-20)
(2.2302 -0.148314 4.05865e-19)
(1.29191 0.128669 9.32673e-20)
(0.786222 -0.0261429 0)
(1.0189 0.00730118 0)
(-0.598296 -0.339874 0)
(0.647806 0.620542 -1.70998e-19)
(-0.015822 0.0307544 1.67748e-19)
(1.15385 0.339755 -4.14099e-19)
(-0.591978 0.351527 0)
(0.811163 0.627189 1.52816e-19)
(1.01753 -0.345693 0)
(1.00523 -0.00298462 1.02972e-19)
(0.118536 0.0720295 6.87582e-20)
(1.016 0.39242 2.32288e-19)
(1.41586 0.249137 0)
(2.15994 0.204219 -9.20052e-20)
(0.831609 -0.129009 -3.24273e-19)
(-1.22363 0.0254364 -6.26794e-19)
(1.08659 0.272099 0)
(0.867542 0.22199 1.5879e-19)
(2.06123 -0.187346 0)
(0.7612 0.506071 3.30349e-19)
(-1.63207 0.198219 2.49357e-19)
(-0.0247115 0.0685518 0)
(0.575119 0.546808 -6.43461e-20)
(1.0451 -0.662056 -1.26338e-19)
(0.498117 -0.277685 -1.10138e-19)
(1.01966 -0.017267 0)
(-0.488098 0.388479 -2.45352e-19)
(0.658347 -0.591079 7.11821e-20)
(0.89212 0.269197 0)
(1.66222 -0.647539 1.26488e-19)
(0.958396 0.817681 2.18693e-20)
(1.02429 -0.479081 -2.39389e-20)
(0.242272 -0.242213 -2.77282e-19)
(0.243455 -0.0890108 -5.02534e-19)
(-0.130716 -0.253061 1.05146e-20)
(0.803649 0.339853 2.24476e-19)
(-0.21243 0.493954 -4.856e-21)
(1.4372 -0.668638 3.39372e-21)
(1.02595 0.00658241 -3.04536e-19)
(-0.429134 -0.408126 0)
(1.02889 0.029476 -3.61233e-19)
(2.19366 0.233303 2.32272e-19)
(0.868485 0.67458 2.5565e-19)
(1.13821 -0.0761207 1.39882e-19)
(1.00713 -0.0355619 1.41e-19)
(1.51157 0.107484 6.8515e-21)
(-0.334222 -0.396288 -6.07854e-22)
(1.75028 -0.886012 1.55138e-20)
(1.15976 -0.129469 -6.27771e-20)
(0.819528 0.0538152 7.16396e-20)
(0.921911 -0.305491 7.90456e-20)
(0.898247 0.186615 0)
(0.941472 0.719251 0)
(0.733615 0.307829 -8.1982e-20)
(2.06526 0.183199 -2.93121e-20)
(-1.13835 -0.019994 2.1208e-19)
(1.04743 -0.560859 -4.36249e-19)
(0.637842 -0.557745 3.43758e-19)
(1.1818 0.246743 -1.47663e-19)
(0.263053 -0.389944 1.95716e-20)
(1.44595 -0.476832 0)
(0.74821 0.0930094 -6.10054e-21)
(1.47098 -0.574884 -5.0851e-20)
(1.01757 0.74671 0)
(1.2963 -0.602794 0)
(0.546561 0.166634 0)
(-0.205846 -0.328045 -6.8385e-20)
(-0.143169 0.167511 0)
(1.51764 0.659929 2.92884e-19)
(1.21075 0.176557 5.70328e-21)
(-1.27294 0.150383 2.7203e-19)
(1.72358 0.570856 1.44763e-20)
(1.79199 0.46742 -6.7827e-20)
(2.17358 -0.336632 -4.21766e-20)
(-0.168829 0.00675923 -1.94651e-19)
(-0.147174 -0.495497 5.10291e-21)
(0.981007 0.098151 0)
(0.677254 -0.033655 0)
(1.00106 -0.00131095 1.79134e-22)
(-0.364915 -0.42907 0)
(1.55655 4.57322e-05 -1.36487e-19)
(0.678422 -0.0309711 0)
(1.06468 0.0037363 1.12199e-19)
(0.998797 0.0145983 -3.99511e-20)
(1.2008 0.215245 2.0018e-19)
(1.06049 -0.0182059 -8.249e-22)
(0.956624 -0.200282 -4.77901e-20)
(1.02661 -0.0370825 3.26457e-19)
(0.69185 -0.632993 1.59965e-19)
(-0.909566 -0.207077 -2.79953e-19)
(1.13803 0.406606 2.81425e-20)
(0.0110101 -0.00387313 0)
(1.1015 0.779952 0)
(1.02947 -0.0113912 0)
(1.02145 -0.794652 -8.54853e-20)
(1.05517 -0.904898 1.78482e-20)
(0.827477 0.17201 -3.51669e-20)
(-0.04687 0.20211 -9.24737e-19)
(1.29363 -0.373467 1.33702e-20)
(0.606311 -0.409541 -5.63375e-19)
(1.22516 0.413048 -4.2882e-20)
(0.948068 -0.0981465 -8.08354e-20)
(2.09319 -0.343737 1.31339e-19)
(0.405686 0.0949537 -2.36831e-20)
(-0.307453 -0.444217 -1.42948e-19)
(1.09113 0.540637 1.77905e-19)
(-0.0445745 -0.356897 0)
(0.176127 -0.481936 4.26482e-19)
(-0.0800518 -0.13325 -1.85504e-22)
(1.03174 -0.0447128 2.95289e-19)
(1.02237 -0.000259027 -7.55978e-21)
(1.10555 -0.0130983 -8.16419e-20)
(1.39186 0.0223242 -8.80603e-21)
(1.60458 0.320254 4.90043e-20)
(0.417306 -0.393004 -2.78419e-19)
(0.803008 0.0991681 6.52314e-20)
(1.03292 -0.00143021 -2.15306e-19)
(1.02873 0.275552 -2.89697e-20)
(1.34084 0.0489685 0)
(1.08715 0.58128 -3.33425e-19)
(1.00316 -0.00549257 8.39963e-20)
(0.657365 0.586443 2.36114e-19)
(1.30559 -0.231703 4.23603e-22)
(1.06674 -0.0107746 -2.68795e-20)
(1.12863 0.0114711 7.61985e-22)
(2.52976 0.0588835 2.21783e-20)
(0.265256 0.0768325 0)
(1.05096 -0.0402328 0)
(1.056 -0.0359756 5.17729e-19)
(1.00123 -0.00241649 0)
(-0.0542794 -0.0924245 0)
(0.965022 -0.588303 0)
(0.999917 -0.000869782 -4.88525e-19)
(1.17677 -0.703213 6.59286e-20)
(1.02293 -0.00566944 1.02289e-20)
(1.31006 0.93606 -2.22874e-20)
(1.48847 0.982996 -1.54105e-20)
(1.15563 -0.172048 -2.02442e-20)
(1.52883 0.291288 2.43678e-19)
(1.31447 0.257089 0)
(0.0236313 0.550157 0)
(2.20521 -0.0740491 5.61081e-19)
(1.25695 -0.769619 0)
(1.00155 -0.00330548 -1.51581e-19)
(1.00907 -0.00128526 2.94376e-19)
(1.42494 0.142737 -6.17778e-20)
(0.00181 -0.126304 2.95254e-19)
(0.968672 -0.00207358 1.60056e-19)
(0.216992 -0.0306044 3.91226e-20)
(0.221911 0.00661681 -4.04232e-20)
(1.44381 0.0420899 -1.37778e-22)
(0.927201 0.0169379 -1.604e-19)
(1.00217 0.00348208 1.89913e-19)
(1.0002 5.41348e-05 1.1215e-20)
(0.789497 -0.012352 0)
(0.727522 -0.0271232 0)
(0.724203 -0.0272941 6.82645e-22)
(0.699323 -0.0299792 0)
(0.824331 -0.178418 0)
(0.157838 -0.00593775 0)
(0.0362579 -0.0398702 4.63644e-20)
(0.274677 0.128511 -2.80208e-20)
(1.12727 0.0613425 0)
(1.31921 0.0319313 3.41865e-21)
(1.41305 0.0286831 0)
(0.0701464 0.0304164 0)
(-0.0540304 0.00318907 0)
(0.0293937 0.0357283 -1.8765e-21)
(0.602405 0.15233 4.9709e-20)
(0.791691 0.0235605 0)
(0.794224 0.0204302 0)
(0.966484 0.019068 -1.97865e-19)
(0.821967 0.00747595 3.70311e-19)
(1.00657 -0.000967614 0)
(1 -0.000905009 3.50786e-19)
(0.999204 -0.000989129 -3.29647e-22)
(0.795724 0.0224367 3.13979e-19)
(0.990838 -0.00753047 -1.83798e-19)
(0.232303 0.00131905 0)
(-0.0590408 -0.00700179 4.04564e-20)
(1.00119 -4.38631e-05 -1.77451e-19)
(1.00007 0.00107248 -3.04265e-19)
(1.15253 -0.0668458 0)
(0.99951 0.002298 0)
(0.999422 -0.000332841 0)
(1.42835 -0.36177 1.95202e-20)
(0.96725 -0.0732321 1.65787e-20)
(0.964729 0.26715 0)
(-0.353493 0.330791 1.85011e-19)
(-0.772381 0.474337 -4.5476e-19)
(1.0196 -0.0191157 -2.36199e-19)
(-0.304008 -0.531386 -1.29235e-19)
(1.02022 0.000983172 -1.89673e-19)
(1.19717 -0.219737 -7.85237e-20)
(0.815884 -0.49408 2.65162e-19)
(-0.0666953 -0.0985568 -9.83622e-20)
(1.02999 0.0117651 0)
(1.05281 -0.00885697 -5.16913e-20)
(0.861215 0.0207148 0)
(-0.0348714 0.0374563 2.45361e-19)
(1.22899 -0.648881 0)
(-0.411358 -0.459546 -3.27921e-19)
(0.259516 0.00656316 -3.41162e-20)
(1.62271 0.677247 6.57705e-21)
(-0.0556339 -0.0343838 0)
(1.06013 -0.0373472 1.59994e-19)
(1.20992 -0.185598 2.4357e-21)
(0.924701 -0.0229917 2.52008e-19)
(1.01411 -0.00755927 -1.61062e-19)
(1.63541 0.848835 4.01935e-20)
(0.507257 0.474893 0)
(0.429655 0.37831 1.86288e-19)
(1.40812 -0.40491 -4.20416e-21)
(1.13874 0.121786 1.7381e-19)
(1.10517 -0.732126 0)
(1.02113 0.00172589 0)
(0.998457 -0.0176656 -3.7129e-19)
(1.01653 0.0151405 -3.60773e-19)
(-0.172563 -0.362152 0)
(1.19525 0.806919 -1.14566e-19)
(1.4015 -0.207173 -4.50992e-22)
(1.01426 0.00340235 1.39038e-19)
(1.01002 0.0129473 -1.74295e-19)
(-0.517011 -0.396258 -3.22003e-20)
(1.15533 -0.0629611 -5.0902e-20)
(1.01751 -0.0155719 5.93628e-19)
(1.23964 -0.0836066 0)
(1.81892 0.644764 -4.92671e-20)
(1.0167 -0.00958007 -1.84809e-19)
(2.01556 0.121651 -1.52796e-19)
(1.05837 0.00688094 -4.27183e-22)
(1.00928 -0.00911438 3.7032e-20)
(2.10555 -0.275114 -3.36449e-19)
(1.01417 0.00856553 1.79064e-19)
(1.1808 0.187165 4.99279e-21)
(1.01673 0.00269843 0)
(0.927914 0.137299 4.46661e-20)
(-1.40867 0.151997 6.54317e-21)
(0.99907 0.0199524 1.77942e-19)
(1.03852 0.0204091 -5.89107e-22)
(1.28294 -0.110721 -1.58376e-21)
(1.24062 0.31253 3.67441e-19)
(0.998829 0.0146331 1.22085e-19)
(1.01533 -0.0145042 4.50395e-22)
(1.71364 0.262975 -1.7383e-20)
(1.71882 0.917039 -9.76976e-20)
(0.790125 -0.710666 4.80767e-20)
(0.470836 -0.353782 -2.74069e-19)
(1.00607 -0.0110066 0)
(1.01936 0.00154444 4.44623e-20)
(1.01045 -0.00988604 9.39425e-20)
(1.15785 0.0661326 3.0857e-21)
(1.01235 0.00432688 -1.86352e-19)
(1.02885 -0.0232617 2.12478e-19)
(1.00778 -0.00790621 -1.75691e-19)
(1.01531 0.00599643 -4.74401e-22)
(1.01119 0.00455874 -3.44035e-22)
(1.02264 0.0121139 1.78405e-19)
(0.895265 0.0691216 4.58385e-19)
(1.71267 0.599535 0)
(0.48142 -0.0376376 2.89818e-19)
(1.01283 -0.00437924 0)
(1.02154 -0.0200678 -5.17526e-20)
(1.51742 0.450576 -6.76909e-20)
(1.86919 -0.0109416 0)
(2.18069 -0.39645 -1.04404e-19)
(1.28675 0.579017 -4.79228e-20)
(0.76121 -0.0134149 0)
(1.96066 -0.111544 0)
(0.128715 0.282421 -1.56508e-19)
(1.33975 0.0606024 -4.77624e-21)
(1.01638 -0.00588887 -1.87909e-19)
(1.13683 -0.584424 -5.01561e-20)
(1.2344 -0.0438731 -1.44881e-20)
(1.46762 0.473431 0)
(1.31562 -0.38473 0)
(1.8285 0.460158 0)
(0.145014 0.530609 8.67601e-20)
(1.30632 0.157731 5.21841e-20)
(0.0262867 0.324957 0)
(-0.101458 0.590924 -3.00207e-19)
(1.65859 0.94892 -5.90636e-20)
(1.01 -0.00340342 -3.67278e-19)
(1.24811 0.0831698 1.19457e-20)
(1.02143 0.0044271 2.42701e-19)
(0.690454 -0.0386322 0)
(-0.142013 -0.334461 -3.00366e-20)
(0.60006 0.413983 -3.12153e-19)
(1.74792 0.626703 8.19223e-20)
(0.094502 0.640974 0)
(0.805989 0.0654854 6.54174e-20)
(0.505756 0.482807 4.72647e-20)
(1.1594 0.867553 -3.08761e-20)
(-0.0338624 -0.0223291 1.46727e-19)
(1.01868 0.0122603 0)
(1.3952 0.280119 3.21073e-20)
(1.0125 -0.00160008 1.37887e-19)
(2.41889 0.169358 0)
(1.01093 0.00662519 2.31239e-19)
(0.182945 -0.457428 -2.01642e-19)
(1.0205 0.00878507 -1.43015e-19)
(1.41048 0.269862 0)
(1.93326 -0.411523 5.1028e-22)
(1.0119 0.00124732 -9.60841e-20)
(0.995598 -0.0344245 2.53728e-19)
(1.08387 0.0923927 -2.36683e-21)
(1.19274 0.291869 -4.21428e-20)
(-0.155961 -0.0652387 3.85399e-19)
(1.95589 0.330032 1.81212e-19)
(0.708594 0.150359 4.89721e-20)
(0.805935 0.0156722 -3.46967e-19)
(0.801086 0.0251285 0)
(0.833367 0.0213852 4.74293e-20)
(1.02258 -0.0176694 -2.78388e-20)
(0.973104 0.0204083 0)
(1.04941 -0.00120517 -1.7691e-19)
(0.446663 -0.503458 -4.50002e-20)
(-1.51384 0.112753 2.83166e-19)
(2.17378 -0.598293 0)
(-1.00335 0.0677584 -8.59852e-19)
(1.54135 -0.355073 0)
(1.03847 -0.0183537 5.19069e-20)
(1.06442 -0.0239802 2.03454e-21)
(1.01553 -0.00387401 1.49033e-19)
(-1.08127 0.178503 5.15444e-19)
(1.01768 0.000946975 0)
(0.991027 0.00393746 -3.60311e-19)
(1.00646 0.00792701 1.89644e-19)
(0.870324 0.119249 0)
(0.751568 -0.133329 -9.33415e-21)
(0.959924 -0.0010283 -1.62546e-19)
(-0.24227 -0.516318 4.44185e-19)
(1.00296 -0.000241521 -1.85106e-19)