/*--------------------------------*- C++ -*----------------------------------*\
| =========                 |                                                 |
| \\      /  F ield         | OpenFOAM: The Open Source CFD Toolbox           |
|  \\    /   O peration     | Version:  2306                                  |
|   \\  /    A nd           | Website:  www.openfoam.com                      |
|    \\/     M anipulation  |                                                 |
\*---------------------------------------------------------------------------*/
FoamFile
{
    version     2.0;
    format      ascii;
    arch        "LSB;label=32;scalar=64";
    class       volScalarField;
    location    "33.8";
    object      p;
}
// * * * * * * * * * * * * * * * * * * * * * * * * * * * * * * * * * * * * * //

dimensions      [0 2 -2 0 0 0 0];

internalField   nonuniform List<scalar> 
2186
(
0.815841
-0.367733
-0.0490777
1.11038
-0.791124
-0.000939402
0.699185
-1.04846
-1.01418
1.36703
1.12777
-0.983052
-1.05267
1.07507
-0.602022
1.08443
1.10529
-0.835623
0.197174
-0.774149
1.48138
-0.774494
1.08478
-1.06493
1.07659
1.0849
1.29828
0.932084
0.667958
1.07578
-0.756167
1.07665
-0.718521
-1.10807
-0.997755
0.190529
-0.992541
1.47287
-0.49794
-0.0909507
-1.05267
-0.739339
-0.720133
-0.901729
0.973187
1.35139
0.354888
0.53465
-0.856695
-0.767282
-0.759708
0.973623
-0.715678
1.40998
-0.803268
0.98403
-0.773802
1.01203
-0.520248
0.855758
-0.833289
0.709859
0.628865
-0.118057
0.648505
0.474783
0.743217
1.36831
1.26377
-1.04266
-1.0492
-0.872263
1.33228
1.0407
1.25618
1.19827
-0.844447
1.10023
-1.00625
-0.630389
-0.685753
-0.254712
1.07139
0.695683
1.06372
1.07208
1.37913
0.290739
-0.451711
-1.0154
0.987385
-0.762035
0.981414
1.22625
1.08551
0.495232
-0.178616
0.660522
-0.781265
1.02709
-0.73626
-0.735623
0.713708
1.00733
1.10729
-0.74213
1.30419
-0.747146
0.974098
-1.99674
-0.633965
-0.766012
0.559194
1.41115
-0.996877
-1.02763
-0.575488
-0.887153
-1.01593
1.33261
0.0543946
-0.758604
0.933347
-0.89484
1.08897
-0.520108
-0.776239
1.19089
-0.869274
0.678987
1.43981
1.28525
0.241749
0.6708
-0.701116
-0.751188
0.954107
-1.04863
-0.410355
-1.02476
0.877049
-0.226771
-1.04172
0.725228
0.969507
1.01222
-0.698654
-0.800721
0.635723
-0.836792
-0.771177
0.599349
1.10319
1.23058
1.08745
0.545538
1.3784
0.52015
0.430282
0.434748
-1.02483
-1.18623
1.06031
1.03104
0.172352
-0.122886
-0.914666
-0.977037
-0.945794
-0.881439
0.436562
1.03367
1.10616
1.15455
0.502713
-0.154293
-0.809859
1.06075
-1.31267
0.936803
-0.972532
1.09107
-0.770337
0.620857
0.606586
-0.822843
-1.03647
1.22364
-0.360683
-1.05041
-0.93369
1.3375
-0.672454
1.02521
-1.02128
-2.13563
0.160514
1.25703
1.15747
-0.770672
-1.06551
-1.50435
0.0776176
1.1054
-1.00569
-0.781044
-1.01458
-0.886571
1.02769
-0.671175
0.540998
-0.314425
1.39648
0.905313
1.0025
0.989932
1.2754
1.08067
0.932837
1.18724
0.391837
-1.0324
-0.754353
0.178651
0.189781
-0.816492
-0.787478
1.12544
1.19682
-1.03029
-0.933643
-1.25826
0.380735
0.680703
0.829546
0.933644
1.16483
-1.0356
0.925286
-1.03231
-0.774449
-1.02144
1.08527
0.80658
1.24273
1.25243
1.20118
1.17974
-1.04075
0.857433
1.19614
-1.04917
1.07203
0.854219
-1.24474
-1.00848
-0.993084
1.24474
1.10567
-1.05411
-1.23724
-1.18456
0.992693
-0.873482
0.825529
1.15601
0.919628
-1.00798
-0.75159
1.05237
0.703094
-0.721612
-0.319928
1.43404
-0.779788
-1.04279
0.901905
1.23382
1.06579
-0.789885
-0.669102
-0.913668
0.992384
-1.05467
0.564922
1.04869
1.07187
-0.220927
-0.56316
1.0449
-1.04274
0.975258
1.24408
1.10102
1.09804
-1.15167
-0.740805
-1.07926
-0.776792
-0.893957
-0.702724
0.388593
-0.601399
0.68561
1.21881
1.30133
0.997659
-0.768788
1.22633
-1.09252
-0.411679
-1.10272
-1.02256
-1.04998
0.363537
-0.771406
-0.766574
0.242229
1.00707
-0.23426
0.459684
-0.764362
-0.499145
-1.04071
-0.771994
1.29834
0.0618199
0.0511735
-0.767285
0.820325
0.635823
-0.236185
0.552183
-1.25193
-1.05846
0.738794
1.10227
1.16417
-1.37018
1.23107
0.925262
0.453701
1.29678
1.08033
1.00741
0.385555
-0.858894
-1.02956
0.949696
-0.855681
-1.00927
-1.11876
-1.02006
-1.01762
1.46294
-1.2566
-0.758196
-1.04964
1.07954
-0.818853
-0.885637
-0.731528
0.790623
-0.713818
-1.25703
1.3412
1.40311
1.17387
-1.04511
0.0674452
1.47964
1.08385
-0.928449
0.528245
-1.03618
0.174019
1.26575
1.06882
0.933425
1.36694
-0.55881
-0.870006
-0.193143
-0.872573
-1.2846
-0.759763
-0.234163
1.40921
-0.781799
-1.19313
1.07189
0.605759
-1.01331
-1.00718
-1.03159
-0.784756
-1.17205
-1.01788
-0.755307
-0.783254
1.26102
-1.18812
-1.03937
1.09284
-1.16444
1.31568
-1.2536
-1.72852
-0.679977
1.07593
-0.964236
1.10398
0.883612
-1.10444
1.10245
-0.732209
-1.01898
-1.07413
1.05607
1.01263
-1.02342
-1.03626
-1.11503
1.06869
-1.26683
-1.7027
0.589614
1.02938
0.942256
0.756823
-1.03089
-0.638001
0.907687
-0.951213
0.861506
-2.39774
1.09906
0.0389325
1.18357
-1.01592
0.888492
0.778347
1.11122
-1.08149
1.07815
-0.782658
-1.01724
1.07922
-1.23968
0.232417
-1.0136
-0.0230677
1.08617
0.0930464
0.301851
1.08588
0.320054
-0.181048
-0.155904
-0.757909
0.244472
-1.05848
0.784361
-0.531612
1.1631
1.18255
-1.04285
-1.02164
-0.875759
-0.758258
0.510819
-1.03624
0.919561
-0.0660456
-1.05204
1.18528
-0.97492
0.451529
0.303872
-0.767968
0.881431
0.423823
-0.950697
-1.84745
-0.983854
-0.76857
1.09561
-2.38823
1.17496
1.28318
1.27125
0.730658
1.26291
-0.785592
-0.691081
0.963261
0.22321
1.07252
-0.781392
-1.05053
-1.40177
0.842565
-1.01665
-2.26652
-0.783903
-0.818723
-0.151891
-1.09455
0.816446
0.787726
-0.404501
-0.889559
0.781939
0.072296
1.23148
-2.1673
-0.102286
-1.0184
0.843929
-0.207194
1.22321
1.49475
-1.3861
-0.780653
-0.904872
0.387288
-0.94601
1.083
-0.92642
1.03727
0.839605
-1.05225
0.951904
0.913194
-1.4965
0.940625
-0.733409
-0.762839
-0.728701
-0.974112
-0.684002
-0.959288
-0.48121
1.07932
0.292954
-0.773725
0.614363
1.22596
1.26834
-0.381437
0.803365
-1.20277
0.809882
-0.154051
-0.742245
-0.767391
0.57681
0.895096
1.15047
-1.72872
-1.03826
-1.28575
-1.01652
-0.126302
0.763824
-1.80888
-0.296192
-1.11992
1.02966
-1.19773
1.03592
-0.848813
-0.679797
1.01923
0.704488
-1.12277
-0.0974697
1.04655
1.35134
1.10101
-1.07973
-0.799129
0.840565
-0.867941
0.827792
-0.410176
0.525375
1.04394
-1.04938
-0.754177
1.10806
-1.1041
1.3371
-0.288528
0.914595
-0.403021
0.656736
-0.913508
1.3078
-0.759869
-0.644543
1.05216
0.602921
0.577685
-1.10407
-0.766495
-0.959308
0.8567
-0.717059
-0.568738
-1.07584
1.09605
0.474668
-0.774494
0.828541
0.980881
1.06568
-2.0193
-0.68189
-0.76398
1.09282
1.271
0.510286
1.08875
-1.13092
1.11313
-0.667553
-0.863861
-0.56804
0.992835
1.0424
-1.3298
0.940002
-0.755854
0.891077
-0.816874
1.09284
1.00585
1.09689
-2.33199
1.01013
-0.638371
-0.477429
1.24163
-1.52296
-1.89832
1.20508
-1.19051
1.19993
-1.28293
-0.760457
1.13795
0.817443
1.42247
1.07851
-0.835654
1.13219
1.17472
-1.10919
0.721928
-0.776128
-0.955774
1.56893
-1.02969
1.22764
-0.769536
0.316817
1.07905
-1.14463
1.07146
-1.58137
1.01512
1.02194
1.09122
-0.494257
-1.04347
-0.644274
0.617253
0.716705
1.12819
-0.231873
0.917447
-2.30809
-0.23514
-1.19712
0.876195
1.19812
-0.622535
-1.04421
-0.714985
1.32271
-0.919608
0.822192
-0.94209
-0.755587
-1.04265
-0.788371
-0.96866
0.884223
-1.61645
0.190652
-0.232125
-0.594376
-0.800218
-1.10377
-0.320591
1.05254
1.09872
-1.11111
-0.463542
1.06591
1.00653
1.09799
-0.699285
1.06412
1.12151
1.07325
1.10766
-1.22271
-0.0286686
-0.7519
0.705187
1.07932
0.739831
0.157705
-0.273571
-2.41663
-0.395141
1.31762
-0.146431
-0.564198
-0.724598
-0.0412355
-1.04767
0.8738
-1.0211
-1.18834
-1.01319
1.08247
1.08033
1.09252
-0.509923
0.434388
1.29113
-0.241157
1.07472
-0.080245
-0.531639
0.849246
1.09884
1.18848
-0.679377
1.05916
1.05792
-0.6237
-0.071713
1.09298
1.10472
1.1006
-1.01968
-1.05713
1.10031
0.639205
1.08081
0.29458
-0.0404659
-0.447116
-1.9178
-0.439694
-0.751168
-1.48573
-1.3549
1.10675
1.11143
0.836509
-1.0229
1.0825
-0.101461
-0.208641
-0.28797
1.0767
1.10421
1.10114
1.11509
1.09276
1.08632
1.07749
-0.562999
-0.245184
-0.195327
-0.223054
-0.014296
-0.0174161
-0.149526
-0.0842073
-0.0487266
-0.0900716
-0.0860661
1.07096
1.09214
1.0866
1.11022
1.10869
1.10094
1.10487
1.08125
1.09052
0.00463287
-0.200711
1.10206
1.10038
-0.0951291
1.10254
1.10171
-0.405623
-0.477312
-0.116763
-0.807895
-1.61857
1.0845
-1.06005
1.08098
0.675905
1.13076
-1.02843
1.08012
1.028
1.0228
-0.754268
-1.28572
-1.06877
-0.0944441
0.0437495
-0.762305
1.09844
-0.572512
1.17231
1.0883
-0.0899194
1.28006
1.43084
-0.446385
0.962608
0.698019
1.08146
1.0994
1.0899
-1.02776
0.572153
-0.536062
1.0869
1.0954
-1.04906
-0.620645
1.08882
-0.163765
-0.246358
1.08787
-1.03842
1.07025
1.10068
-1.00901
1.09229
-0.798682
1.08367
1.16851
-2.04005
1.09712
1.10503
-0.73583
0.777821
1.08377
1.09062
0.256455
-0.667519
0.751378
1.41214
1.09694
1.08599
1.09164
-0.839092
1.08673
1.07085
1.09358
1.08747
1.08986
1.08501
1.19618
-0.129264
-2.01643
1.08789
1.08318
0.383227
-1.05675
-0.93122
-0.272366
0.961605
-1.3973
-0.914639
-0.184844
1.0845
0.768017
-0.178906
-0.241664
-0.600156
-0.41489
-0.696956
-0.842624
-0.977849
-0.756776
-0.250709
1.09125
-0.580155
1.079
1.00792
-1.01887
1.35077
-0.0606383
-0.724238
0.81002
1.23961
0.547129
-1.01603
1.08442
-0.723978
1.0899
-0.529992
1.08975
-1.15494
1.08222
-0.813081
-0.866852
1.09223
1.10694
1.03906
-0.376831
-1.01474
-0.542273
-0.484236
1.10275
0.992416
-0.708322
1.08343
1.12578
1.07718
-0.815932
-1.47231
-0.710215
-1.2869
0.348582
1.08994
-0.29777
1.08543
-1.05842
1.0844
1.12293
1.09343
-0.0373477
0.00955955
1.11855
-1.05546
1.09525
1.09957
0.0132187
-1.05034
1.04722
1.24011
1.07968
1.07836
-0.323577
-0.748969
1.05086
0.433157
1.09419
0.887372
-0.844283
-1.0434
0.939386
1.32007
1.08527
0.362484
-0.277293
-0.513103
-0.956705
-0.629388
1.0655
-0.720066
1.07177
-0.986014
-1.02323
-0.787069
0.557926
-1.0474
0.422911
-1.18557
1.08085
-1.01225
1.01825
-1.03365
-0.181306
-0.811057
-0.223814
-1.0192
1.05905
-0.785186
-0.908714
-1.22452
-0.581718
1.07007
-1.0043
0.219876
-0.738252
1.18489
-0.0649188
-1.03247
1.15332
1.06761
1.05696
0.516554
-0.970595
1.09
1.11849
-1.29963
-0.771329
1.07994
0.835728
1.35707
1.10227
-0.962746
-1.19694
-0.768506
-1.13453
-0.863561
-1.01673
-0.742553
-1.06962
0.840716
-0.0228205
1.08938
1.30776
1.08105
-1.01582
-1.06533
1.08262
-1.04452
-1.48219
1.05891
-0.320304
-0.839758
-1.19911
0.0905811
1.03948
1.01146
-1.01603
0.898278
0.783876
-0.999297
1.06476
-1.30662
0.909896
-0.767805
1.04649
-1.00264
0.450074
1.08338
1.20441
-0.812634
-1.26122
0.926738
1.45935
1.10422
1.12852
-1.01991
1.302
-0.987719
-1.46267
-0.865923
0.4953
-0.880119
1.19692
1.21975
-1.03812
-1.19482
1.08149
-0.492915
0.903286
1.11385
1.05794
-0.749881
1.08459
-0.0129542
1.11004
-0.120699
-0.518831
-0.0373979
1.08743
-0.404749
-0.37409
-0.0547548
1.07316
-0.621742
1.29856
0.276806
1.43244
1.09853
-0.511846
1.06098
-0.767284
1.06267
1.06093
-1.40318
-0.412115
1.2347
1.07469
1.33513
1.04437
0.0931682
1.0492
1.06787
0.966412
1.09218
-1.03258
-0.799255
-1.13539
1.17346
-1.45212
-1.43191
-0.761309
-1.48911
-0.141413
-0.72229
0.980833
-0.0893987
1.03236
1.08333
-0.773126
-1.156
-0.514223
-1.27534
-0.600475
-0.764703
1.09028
-0.958378
1.10157
1.2995
1.14053
-0.0660513
1.10824
1.02465
-1.47594
1.03468
1.07028
-0.860416
1.06959
1.0555
-0.283593
-0.539292
1.536
-0.949501
-1.02153
-1.06487
0.249723
1.05688
-0.943379
-0.207527
-0.760225
1.22735
-1.35815
0.968997
1.10286
1.06304
-1.2919
1.04372
-0.979109
1.09847
1.11283
-0.303803
1.10216
0.620297
1.06818
0.754983
-0.971053
-0.106729
-0.290834
-0.543691
1.34313
-0.220308
1.11944
1.49473
-0.594207
-0.140217
1.14862
-0.185683
1.14536
-0.0107833
0.019187
1.14774
1.15233
0.447694
-1.26124
0.879862
-0.675225
-0.760686
-0.592245
1.10888
1.07378
1.48828
-1.01558
-1.26864
0.780239
-1.06823
1.16844
1.09675
1.06512
1.0777
1.03621
-1.69706
-1.0153
-1.17449
0.921043
1.01667
-0.975221
-0.768258
-1.03247
1.09855
1.11195
-1.18371
-1.20263
1.12258
-1.00396
0.348964
0.893217
1.04072
-0.0843921
-1.08131
-0.0791616
-1.04528
-0.774344
-2.01779
-0.936758
1.43369
1.47907
-0.818316
-1.04329
1.09897
1.07549
-0.833167
-0.0636579
-0.376199
0.773163
1.18594
-1.31215
1.09323
-0.999177
-1.07674
-0.543761
-0.964812
-0.854584
1.06047
-1.04897
-1.42213
1.46732
-1.04957
1.09389
1.33514
-0.769227
1.09832
1.31082
-0.792499
1.36099
-1.05208
-1.08581
1.12662
-0.27962
1.06745
1.09494
-1.05221
1.13621
0.160152
-1.95174
1.13056
1.08581
-0.949246
-1.22121
1.0433
1.08655
-1.04427
-0.800294
1.40047
-1.05095
1.00801
-0.615635
1.01489
-0.991643
-2.20447
-1.03612
-0.799011
1.2122
1.10985
1.34919
1.3247
1.09818
1.14944
1.18284
-1.03256
1.25233
1.20163
-0.77889
-1.04956
-0.872236
1.44053
-0.92697
-1.07425
-0.865328
1.05845
-0.782944
-0.835081
1.14072
1.07459
-1.0399
-0.769898
-1.06275
-0.215157
-0.987802
-0.787307
-1.02885
1.01249
0.942683
-0.760716
-0.339689
-0.913596
0.964742
-1.05031
-0.807427
-1.02573
0.997111
-1.39023
-0.772684
1.39012
0.970201
0.428348
1.25664
-1.10386
1.03351
1.10135
1.20072
1.26947
0.393836
0.808728
1.12698
0.283395
-1.02247
1.51742
1.03765
0.974922
1.13822
-0.775726
-1.59455
0.919287
0.916759
1.04418
-1.67988
-1.65769
1.07095
-1.023
0.887056
0.294841
1.52807
-1.02026
0.862065
0.781484
-0.753835
-1.01856
-0.633218
1.12159
-0.755558
-1.01277
0.742991
0.747103
-1.0909
1.15892
0.89524
-0.757709
-0.861155
1.0545
-1.83487
-1.01723
-1.05498
-0.761175
-0.932028
1.08005
1.09008
-2.17828
0.657503
1.09062
1.4428
0.30157
0.425731
0.158348
0.937265
-0.469669
-0.753614
-0.999452
-0.436319
-0.753763
1.0847
-0.764209
0.31723
-1.01595
0.680447
0.60622
-0.75676
0.678682
-2.13321
0.529939
-0.759229
0.606933
-0.755089
0.41804
-1.01581
0.524483
-0.762111
0.867955
-1.40525
-0.76741
-0.777985
-1.01291
1.10215
0.101845
-0.805265
-1.02086
0.185471
0.268301
-0.76461
-1.01624
-0.845147
-0.117951
-1.03396
0.0236021
-1.06696
-0.182277
-0.920514
-0.296356
0.990999
-0.291228
-1.5345
1.07721
0.095343
-0.623907
0.486774
1.05161
-0.788919
-1.94097
-1.01746
-1.18921
0.958591
1.52242
-0.885227
0.198845
0.0314634
-1.0438
-0.195824
-0.377012
1.07132
-0.844919
1.03329
-0.627778
1.59122
0.495312
1.48409
-0.766952
1.25105
-0.420627
1.07291
-0.997831
-1.01608
1.13222
1.07691
-0.901212
-1.01443
-0.768974
1.07904
-0.624138
1.07491
-0.553432
-1.0446
-1.03678
1.40009
1.13831
1.17085
1.11542
1.10077
0.214081
-0.579227
1.32338
-1.85194
-1.03843
1.52617
-0.767096
1.00893
1.02077
1.45765
1.50093
-0.756145
-1.29762
1.11989
0.249365
-0.477026
-0.737239
-0.715381
-2.41563
-0.770493
0.600281
-1.06214
1.26225
-1.23034
1.16176
1.23801
1.14098
-0.612302
-1.00057
-1.04019
1.17319
-1.00332
1.29224
-0.614885
-0.962694
1.35466
1.36856
-1.00922
0.225269
1.02586
-1.09992
-0.888023
0.711919
1.38997
1.29738
-0.781355
0.980227
0.964715
-1.00951
1.3074
0.418516
-0.763839
-1.06366
-0.581001
-0.447904
1.22967
-0.977915
0.396016
-0.958751
-0.87873
-0.958781
-1.01121
1.08452
-0.854685
1.12468
0.0408087
0.0970819
0.743295
0.281376
-1.00393
-0.498013
-1.23558
-0.083321
-0.87382
-0.584921
1.05337
-1.52472
-1.6687
1.11662
-1.08805
-0.778361
1.09917
-1.01438
1.08874
-0.679693
-1.02224
-0.354965
0.845396
-0.889896
-1.41747
0.948183
-1.04062
1.15415
-0.605604
-0.997875
-1.04764
-1.0148
1.55443
-1.26108
1.19327
-0.996649
1.04272
1.28195
0.772545
1.09939
1.27713
0.0130559
-0.824406
1.05007
1.15681
1.43115
-1.04887
1.14327
0.795029
-1.05239
0.835772
1.26839
-0.466339
1.46001
0.273521
-0.825172
0.882221
-1.05217
-0.770661
1.02162
-0.353636
1.14067
1.11015
1.06226
-0.811998
1.01768
1.38037
-0.827503
-0.195656
-1.08302
-1.10273
-1.01302
-1.01543
1.41342
0.79245
-0.795461
0.959273
-1.05182
-0.978153
1.33103
1.34368
-0.80692
-1.20467
-1.01608
-1.03427
1.0487
-0.789795
0.0852069
-0.728506
-0.295957
1.14904
-1.04698
1.50411
1.1403
0.940503
1.12098
1.42049
-1
-1.05185
1.08727
1.20883
-0.919376
1.08887
-1.52463
-1.0345
-1.04117
1.20208
1.23205
-1.03844
-0.790183
0.588815
-0.0790591
-0.587093
1.07577
1.08061
-1.13127
1.12031
1.16249
-1.17509
-0.780985
-0.802826
-1.03118
-1.0422
1.37591
-1.33044
1.03463
-0.784875
1.36955
0.978448
0.986724
1.05522
-2.1483
-1.08206
-1.02758
0.650394
-0.771311
0.968003
0.311299
-0.408697
0.975912
1.05653
1.12657
1.10272
-0.131183
1.12453
0.00836551
0.446217
0.908402
-0.454972
-0.777312
-0.857186
-0.598333
1.09744
1.01828
1.09686
-1.46745
-0.845513
-1.02429
-0.715952
1.09671
1.39998
1.10994
-0.774248
-0.923444
-1.0337
-0.442233
-1.01497
-1.01662
-0.0926001
1.08883
-0.844636
-0.758896
-0.820162
-0.0990064
0.839778
-2.31808
-1.02233
-1.05706
1.04736
1.51437
-0.717703
1.1834
1.58003
0.779557
1.31024
-0.78077
-0.351117
1.45868
-1.01972
0.334434
-0.768435
-1.0434
-0.767375
-0.753796
1.04829
0.771616
1.30872
1.2708
-0.0481181
0.821111
0.164565
-0.631632
-1.01769
1.19439
0.841448
1.10457
1.1212
-0.00455558
-0.214518
1.11584
-1.13881
-1.01643
-0.755861
-0.777672
0.632113
-0.752118
1.04181
0.705725
-1.01891
1.29015
-0.774662
-0.219819
1.06489
-0.951408
-1.0194
-1.67996
0.71592
-0.762001
-0.688385
1.03034
1.11277
-0.746476
0.0400555
-1.78147
-1.01629
-1.60562
-0.742293
-0.214758
0.634234
-1.02159
-0.752853
1.37775
0.376688
0.47815
-0.755059
-1.04652
1.08703
1.09778
0.645659
0.566288
-0.757597
-1.04603
-0.830652
0.569079
0.469934
-0.760474
0.941757
0.259224
-0.763301
1.55291
-0.770336
-1.53703
-1.04047
-0.710776
0.886773
-0.787606
-0.794949
-1.02431
0.0093218
-0.821972
0.114254
-0.825935
-0.381565
1.28685
-0.875806
-0.184038
-1.05021
-0.0657023
1.45407
1.46071
1.345
1.09367
1.32201
-0.640048
1.08118
-0.777051
1.09582
-1.01837
-1.01534
1.3223
-1.07895
0.514055
-0.733566
1.47284
0.0774027
1.40807
0.714063
0.878606
-0.765349
-0.771115
-1.01687
-0.683931
1.39506
1.30172
1.08054
0.674539
1.08163
0.912512
0.927262
-0.759921
-1.0301
0.373833
-0.603519
0.90229
1.09759
-0.0306145
-0.767949
-0.761064
-1.24866
-1.01636
-0.819242
1.40437
1.11578
1.092
-0.0375131
-0.258388
1.11226
-0.888024
-1.01617
-2.11325
-1.04826
0.890539
-0.760668
-0.756518
-0.33137
1.09954
-1.44437
-1.0404
1.08178
0.643056
0.771856
1.08214
-1.01623
0.976906
1.25778
0.882572
-1.01486
1.07411
0.375682
0.56823
-0.968875
-0.756856
1.54153
0.265338
-0.606966
0.022978
1.01298
1.0692
-1.0407
-1.19205
-0.559733
-0.628406
-0.947837
-0.79613
-0.810547
1.07787
-0.795847
1.08363
1.3478
1.14542
1.0887
1.19205
1.2522
1.08566
-1.13701
-0.699159
-0.313513
-1.09257
-0.944491
-0.758954
1.25
1.15754
-1.05015
1.03204
-0.884941
-1.3442
-0.766179
-0.152775
0.574738
-1.15047
1.07576
1.01296
-0.681161
-0.423653
1.42436
-1.39345
-1.36951
-1.0711
-0.802195
-0.739553
1.12268
0.877085
1.15745
-1.08694
-0.763532
-0.98245
-0.258269
-1.05071
-1.41796
-0.906448
-1.61656
1.01674
-0.818868
1.51752
-1.00919
-0.624388
-1.04618
-0.759203
0.995733
-1.06546
-1.05953
-0.99992
-0.381246
1.30444
1.28661
-1.95538
-1.09368
0.926976
-1.03321
-0.952317
1.17139
-0.635299
-0.779026
-0.6205
0.854481
-0.471503
-1.05091
1.07844
0.156859
-0.671936
1.0932
-0.894837
-1.04707
-0.811191
-0.838409
-0.101799
-1.04868
1.42448
-1.02044
0.166059
-1.01842
0.896105
-0.681363
-0.958018
0.754278
0.813556
1.13906
1.03711
1.27944
-0.779321
0.907195
0.587823
-0.881805
1.03139
-0.27791
-0.692033
-1.55784
1.24439
1.23195
-0.6202
-0.927882
-1.05562
1.12086
-0.8713
0.214019
-1.18216
-0.763092
1.38808
1.1179
-0.76851
-0.811866
-0.769637
-0.762766
0.995046
-0.776283
1.08438
0.337536
0.813386
0.939239
-0.752812
-0.908989
1.04481
-0.760492
-0.816474
1.36408
-1.02622
-0.763035
0.925176
-0.847784
-0.802313
-0.225149
-1.03559
1.43394
-0.6873
0.142711
-0.769848
1.36338
-0.773814
-0.818673
0.749497
-1.15742
-1.01832
1.41021
0.779195
1.05774
-0.798194
1.3412
0.312772
-0.885058
-0.791904
-0.791431
-0.775387
1.37347
0.682338
-1.03943
-0.772701
-1.05019
1.22695
-0.843491
1.33928
-1.01789
0.817125
-0.757457
0.479226
0.645596
0.611388
0.530846
0.194313
-0.833546
1.11251
-0.789164
-0.595921
-1.10534
0.291718
1.38113
-0.353423
-0.807539
-0.775535
-0.759282
0.37342
-1.00246
-0.756233
0.887774
0.195468
-0.765895
1.4481
-1.05006
-1.10953
1.4358
-0.761431
0.259889
-0.8656
-0.761977
-0.755609
1.42245
-0.762586
1.34996
-0.754808
-0.878695
1.27514
-0.269606
-0.832105
0.672422
-1.04053
0.125996
-0.461945
-0.758268
0.860369
-1.04833
-0.76008
-0.760964
-0.764613
-1.02229
0.900604
-0.0466736
-0.513871
-0.76719
1.3797
-0.917861
-0.806062
-0.74278
-0.183255
-0.890862
-0.756734
-0.764382
-0.128651
1.35587
-0.775112
-1.01117
-0.802998
-0.803326
-0.12766
-1.02742
1.4673
1.40415
0.522129
-0.918037
-1.01981
0.437637
-1.01719
1.48318
0.317863
1.12538
0.805144
1.34503
0.200642
-0.902136
-0.952815
0.0472995
-0.788199
0.0483477
-0.124598
-0.757613
1.3778
-0.338052
0.329001
-0.470929
-1.00073
-0.906395
)
;

boundaryField
{
    frontback
    {
        type            empty;
    }
    Top
    {
        type            zeroGradient;
    }
    outlet
    {
        type            fixedValue;
        value           uniform 0;
    }
    bottom
    {
        type            zeroGradient;
    }
    Inlet
    {
        type            zeroGradient;
    }
    rectangle
    {
        type            zeroGradient;
    }
}


// ************************************************************************* //
