/*--------------------------------*- C++ -*----------------------------------*\
| =========                 |                                                 |
| \\      /  F ield         | OpenFOAM: The Open Source CFD Toolbox           |
|  \\    /   O peration     | Version:  2306                                  |
|   \\  /    A nd           | Website:  www.openfoam.com                      |
|    \\/     M anipulation  |                                                 |
\*---------------------------------------------------------------------------*/
FoamFile
{
    version     2.0;
    format      ascii;
    arch        "LSB;label=32;scalar=64";
    class       surfaceScalarField;
    location    "33.8";
    object      phi;
}
// * * * * * * * * * * * * * * * * * * * * * * * * * * * * * * * * * * * * * //

dimensions      [0 3 -1 0 0 0 0];

oriented        oriented;

internalField   nonuniform List<scalar> 
3181
(
-1.05922
0.41436
0.644858
-0.399007
0.375497
0.0235097
0.536181
-0.368199
-0.167982
0.126575
-0.20836
0.0817856
-0.00629118
0.00496493
0.00132625
0.828167
0.977596
-1.80576
0.153208
-0.146676
-0.00653149
0.0391811
0.00468092
-0.0438621
0.590046
-0.786253
0.196206
-0.0745588
0.142114
-0.0675555
-0.0103152
-0.0495471
0.0598623
0.127073
0.0500654
-0.177139
-0.00920354
-0.0324343
0.0416378
-1.10372
0.149343
0.954372
-0.336212
0.716388
-0.380176
-1.12088
0.635121
0.485756
0.0851548
-0.930917
0.845762
-0.140353
0.0868732
0.0534797
-0.78487
-0.201264
0.0202019
0.0149517
-0.0351536
0.0292417
-0.0812378
0.0519961
-0.0458304
0.047962
-0.00213152
1.07082
-1.04347
-0.0273494
0.0290245
0.0354572
-0.0644817
-0.957836
0.324143
0.633693
-0.110393
0.236968
0.310581
-0.239359
-0.071222
0.0306499
0.0643809
-0.0950307
-0.402262
0.330326
0.0719363
-0.0328941
-0.0284372
0.0257694
0.0026678
-0.0341255
-0.923711
-0.00548723
-0.0397844
0.0452716
0.10993
1.44217
-1.5521
-0.0506476
0.0530264
-0.00237874
0.177839
0.267994
-0.445833
1.55494
-1.44501
0.0690057
-0.039764
1.47498
-0.798274
-0.676702
-0.664528
1.4927
-0.0749577
0.0657542
-0.0377934
-0.00803703
-0.42017
0.0839582
-0.10838
0.0705866
-0.624871
0.130208
0.494663
-0.154209
0.0796499
-0.17361
0.178045
-0.00443523
-0.278312
-0.0784285
0.35674
0.390064
0.968959
-1.35902
0.0238135
0.0493826
-0.0731961
-0.00823532
-0.0974767
0.10338
-0.00590324
0.528166
0.188222
-0.096594
0.134636
-0.0380424
0.0934283
-0.0989155
-0.176451
0.203688
-0.0272369
0.168229
0.057943
-0.226172
0.112624
-0.118729
0.00610475
1.14957
0.325411
-0.866185
-0.193033
-0.112723
-1.69296
1.80569
0.542887
0.224595
-0.767482
-0.438957
-0.19898
0.637937
-1.56844
0.903916
-0.263531
0.806418
-0.332204
-0.104451
0.436655
-0.203955
-0.198307
-0.194836
0.164149
0.0306869
0.123717
0.28869
-0.412407
-0.20815
0.798196
-0.0197661
0.0589473
-2.16274
2.05002
0.195702
0.114879
-0.185429
-0.112472
0.297901
-0.270648
0.350245
-0.0795963
-0.0842767
0.0924216
-0.00814487
-1.77268
-0.919622
0.00923877
0.910383
-0.0514314
0.000783769
-1.06446
0.759325
0.305137
0.228503
-0.149822
-0.0786803
-1.37337
-0.195074
1.10206
-0.952717
-0.702488
1.1552
-0.200828
1.06793
0.161493
-0.176273
0.0147806
1.32948
-0.351882
1.71142
-1.71142
-0.00749145
-0.00160183
0.00909328
-0.219442
-0.0535165
0.272959
0.0158335
-0.0227192
0.0068857
-0.452618
0.843194
-0.390576
-0.0109528
-0.246398
0.257351
-1.0877
0.0442237
0.337322
0.0567415
-0.394063
0.137174
-0.84613
1.07073
0.0128879
0.0182171
-0.031105
-0.0175259
-0.158925
-0.165974
-0.0526273
0.218601
-0.0767344
-0.0892396
0.114632
-0.960763
0.335371
-0.787989
0.925703
-0.840548
0.0464921
0.0343786
-0.0808707
0.0788956
0.0507722
-0.129668
-1.3984
-0.113839
1.51224
-0.253749
0.419576
-0.165827
-0.883915
0.736139
0.147776
-0.456572
-0.60789
0.0416077
-0.0177941
-0.157445
0.151668
0.00577662
-0.0767392
-0.0107333
0.0874725
-0.56621
-0.220042
-0.0776115
0.0263052
0.0513063
-1.51405
0.0957782
1.41827
1.5013
-0.532345
-0.0181038
0.0106124
0.0463135
0.149388
-0.195739
0.373578
0.0316538
0.0563118
-0.0879656
0.134763
0.0667954
-0.201559
0.170415
-0.0491218
-0.121294
-0.595997
-0.524881
-0.978092
-0.53596
-0.00646193
0.0193499
-0.110803
0.189566
-0.0787633
0.0300625
0.0255896
0.127618
-0.0576594
0.0742594
-0.0166001
-0.0990994
-0.0230261
0.122125
0.07705
-0.07705
-0.189977
0.215566
0.151768
0.0810364
0.10822
0.0954678
-1.29312
1.08497
-1.47962
0.08445
1.39517
0.0341435
-0.0309058
-0.00323779
-0.0260414
-0.050081
0.0761224
0.549856
-0.0223631
-0.527493
-0.0277315
0.0278872
-0.000155684
-0.205699
0.0157229
0.159804
0.68339
-0.372963
0.532767
-0.148653
-1.24974
-0.00710394
0.000812764
0.496977
-0.31248
-0.184497
0.00732724
-0.00525824
-0.002069
0.0491261
-0.327438
0.0238469
-0.943469
0.0501769
-0.16098
-0.295822
-0.410633
0.0648987
1.34688
-0.90646
-0.440422
1.04515
0.301733
0.068158
0.288582
0.0314854
0.0026581
-0.125828
0.14663
-0.0208021
-0.257772
-0.580169
0.837941
-0.366221
0.544608
-0.0674669
-0.133797
0.156098
0.0365624
-0.0438976
0.00733521
-2.20579
0.179767
2.02602
-0.138964
-2.06682
-0.303033
0.640355
-0.90707
-0.0187944
0.00355466
-0.261384
0.257829
1.38769
-1.51158
0.123888
-0.0178211
0.0107172
0.564246
-0.822018
0.0340854
-0.221377
0.187291
-0.291287
-0.113727
0.405014
0.19266
-1.01096
-0.0767324
0.0182542
-0.0534078
-0.544902
0.345922
-0.241578
0.0185416
0.223036
-0.028743
0.0109219
0.0299017
-0.0299017
-0.115922
0.126908
-0.0109865
-0.254043
-1.22557
0.0550125
0.0177667
-0.0727793
-0.0973076
0.057496
0.0398116
-0.217468
0.0226327
1.3255
-0.378445
-0.94705
-0.199889
0.458666
-0.258777
0.0150584
-0.0148179
-0.000240498
-0.0468362
-0.837078
-0.182954
-0.0043867
0.187341
-0.180112
0.303829
-0.0987777
0.0971094
0.00166825
0.0748688
0.0160503
-0.0909191
-0.109773
0.111467
-0.00169374
-1.3073
1.00042
0.306877
-0.224823
-0.0522919
0.277115
-0.700559
0.661974
0.0385844
-0.00683429
0.0422915
-0.00481226
0.00528122
-0.000468953
-0.0177015
-0.0467802
1.10717
0.394129
0.176381
-0.880666
0.704285
0.0496785
1.87539
-1.92506
0.392526
0.671359
1.04006
0.0578972
0.19951
-0.0647472
-0.0694856
-0.027991
0.244384
0.152255
-0.0733593
0.737212
-0.413069
0.0619797
0.210979
0.0451114
-0.159685
0.114574
-0.795649
-0.139707
0.935356
-0.0235427
0.0235427
0.00670773
-0.265382
0.533376
0.0129814
-0.237804
0.0240905
0.0627827
-0.000833159
-0.00562877
0.131795
-0.14211
-0.346303
0.33535
0.0252675
0.0709492
-0.0962167
0.394369
-0.344303
1.03437
-0.916487
-0.117883
-0.21197
0.280128
0.189878
-0.502358
-0.2086
0.62296
0.1702
-0.0346391
0.0346391
-0.224373
0.234004
-0.00963093
0.393907
0.0256687
-0.0301459
0.0327076
-0.00256169
-0.054979
-0.0628082
-0.0148033
-0.0485387
0.180333
-0.176075
0.23633
-0.0602555
0.124392
0.0278625
-0.396205
0.156846
0.185373
-0.0609808
-0.0447112
-0.0540665
-0.0431074
0.0526711
-0.00956372
0.151887
-0.107697
-0.0441892
-0.00907615
0.387355
-0.378279
-0.0791014
0.0593352
0.101611
-0.10585
0.00423921
0.0234359
0.490475
0.543894
-0.0746768
0.00081472
0.0738621
-0.0586855
0.0215708
0.0371147
-0.0880591
0.0982485
-0.720535
0.622287
-0.0199452
-1.53044
-0.441917
1.97236
-0.00534575
1.5693
-1.56396
0.0853875
-0.247004
0.197883
0.269862
0.249038
-0.5189
-0.205187
0.250298
0.14666
-0.899382
0.752722
0.000251879
-0.0589374
-0.00277709
0.0210312
-0.995622
0.446006
0.549616
0.90646
-0.791828
-1.70421
1.59037
-1.38769
1.47214
0.0413471
-0.0793895
0.000398271
-0.00521053
0.0158399
0.815083
-0.668423
0.126505
-0.0763277
0.41774
0.737461
-0.0302923
-1.61586
1.66554
-0.693785
-0.599331
-0.239552
-0.385319
-0.0133472
-0.170183
0.219309
-0.577882
-0.38423
0.184341
0.789667
-0.239811
-0.896688
-0.807524
0.740627
0.101384
-0.101133
0.292839
0.0393893
-0.0393893
0.671399
0.147952
-0.819351
-0.224536
0.895935
0.850767
-0.916902
0.0661355
0.0783121
0.00272436
0.00732985
0.00558008
-0.0129099
-1.69296
-0.833628
0.301283
0.97978
0.345715
-0.0355541
-0.138056
-0.24611
0.774277
-0.193165
-0.048413
-0.00320866
-0.081068
-0.0508944
0.101667
0.371896
-0.241688
-0.842438
-0.279724
-0.107015
-0.00124642
0.108261
-1.16867
1.84002
-0.129431
0.125718
0.00371325
0.0410458
-0.00956039
-0.0917449
0.059561
0.0321839
0.0093096
0.427346
0.00885888
-0.00153164
-0.00244355
-0.00459123
0.00703478
-0.0167013
-0.166253
-0.715639
0.364797
0.350842
0.845917
-1.58909
0.743173
0.135443
-0.156346
0.0209026
0.00247448
0.0391332
-0.0576212
-1.6538
-0.0768714
-0.0148735
-0.0201412
0.00234707
0.142935
-0.338674
-0.933067
1.13001
-0.196946
0.0225412
0.0954687
0.0564179
-0.795649
-0.500105
-0.80719
0.091785
-0.032224
0.0431649
-0.638125
-0.0624336
0.059913
0.12546
0.953582
0.0520259
-0.464433
0.126118
0.342481
-0.285739
-0.122438
0.0233389
0.224441
0.834164
-1.0586
0.103123
-0.721544
0.61842
-0.963754
0.824047
-1.79494
0.00217888
1.79276
-0.0146436
0.0150382
-0.000394634
0.163482
-0.454769
0.20962
-0.123504
-0.086116
0.0507998
-0.029229
-0.0152784
-0.0917365
0.006359
0.0171324
-0.0348339
0.0213439
0.0721044
-0.0934483
0.845421
0.00447318
-0.00504704
0.000573862
0.0720054
-0.0126701
0.859562
0.0020585
0.00865868
-0.379979
-0.453649
0.0271795
0.0511326
0.00795042
0.0875182
-1.79276
1.6538
0.151625
-0.114064
-0.0375617
-0.246865
0.0705919
0.119153
-0.104373
-0.00154155
0.0939631
-0.0230506
-0.50832
-0.424746
-0.0384903
0.0598341
0.739333
-0.253577
-0.0908877
-0.00641989
0.334904
-0.000604068
-0.0295419
-0.00797113
0.0850212
0.148563
0.201682
0.155436
-0.324382
0.168946
0.113463
0.569926
-0.0454557
-0.108753
0.946038
-0.260096
-0.685941
-1.79494
-0.28744
1.13336
1.55494
-0.1001
0.278327
-0.178227
0.372888
-0.0752657
-0.297622
-0.0544841
-1.31889
-0.0693456
0.0698922
-0.000546598
0.0395462
-0.161244
0.121698
0.470198
-0.975887
0.505689
0.0415421
0.656136
-0.697678
-0.045383
-0.112062
-0.0221325
-0.0525443
0.172702
-0.397075
-0.0130344
-0.00160921
0.0243289
0.0253008
-0.0496297
0.0135155
-0.139344
0.00696034
0.0340855
-0.0786404
0.113019
0.00472642
0.000554793
0.192289
-0.438687
0.000940793
1.56836
0.0136749
0.00986774
-0.993289
-0.0176742
0.131352
-0.0749486
-0.0474897
-0.101075
0.135161
0.574496
-0.723206
0.14871
0.0490185
-0.021839
-0.936315
-0.0164024
-0.0186301
-0.648593
0.746842
-0.0184203
0.18862
-0.470168
-0.446734
0.182345
-0.451437
0.269091
-0.0578104
0.114122
0.00799562
-0.00840935
0.00041373
-0.0339811
-0.0757922
-0.0217846
-0.137141
0.751073
-0.64795
-0.0810699
0.0520671
-0.115915
0.305533
-0.150097
0.130823
1.2414
-0.316118
-0.925286
-0.118073
0.136614
-0.503718
-0.211921
-0.564011
0.625568
-0.606484
-0.0190844
-0.074131
-0.00693888
-1.61586
0.534643
-0.534643
-1.79285
1.79285
0.815083
0.160009
-0.358955
0.198946
-0.899604
-0.093685
0.621802
-0.358669
-0.263133
0.169752
-0.248515
-0.0128633
-0.00524048
-0.881813
-0.0789502
-0.933042
0.212507
0.043517
-0.0447634
0.697542
-0.113793
-0.583749
1.09016
0.464781
-0.001529
0.00952461
-0.963664
-0.0129323
-0.903555
-0.0904889
-0.588858
0.679347
-0.0564492
-0.837705
-0.673876
0.216639
-0.812636
-0.935356
1.38169
-0.446337
-0.140985
0.285087
-0.144102
-0.0215167
0.719059
-0.103353
-1.01954
1.01954
-1.89603
1.31922
0.57681
-0.00153034
0.00600352
0.0718398
-0.432627
0.821521
-0.0621953
-0.0821969
-0.0361806
0.0624417
0.00731608
0.00774228
2.06588
-2.0637
-0.334686
0.409555
-0.630303
0.997061
-0.366758
-0.0103553
-0.0665161
0.12126
-0.0544649
0.362157
0.00484965
-0.0372839
0.352371
0.0349839
0.0423852
-0.243284
0.200899
0.142971
0.0350743
0.0952189
0.177828
1.95555
0.0944693
0.517345
0.562131
-1.07948
-1.49797
1.67773
0.249258
-0.178671
0.0776535
-0.767398
0.689744
0.677354
0.137702
-0.484005
-0.0745433
0.137641
-0.0630975
0.13805
-0.212593
-0.441391
-0.103511
-0.0695865
0.0725599
-0.00297343
0.00158816
0.00313827
-0.0623482
-0.0365673
0.668423
-0.61842
-0.0500026
-0.297892
0.310873
0.875706
0.635243
-0.262355
-0.0176403
0.035407
-0.272221
0.0508441
0.177879
-0.590849
0.412971
-0.00793242
-0.00047693
0.235799
-0.0586264
-0.177173
0.00918369
-0.0147248
0.0055411
-0.0252123
0.0179128
0.00729944
-1.27309
0.921204
-0.158106
-1.37234
-0.192353
-0.791828
1.47214
1.59037
-0.197749
-0.177324
0.125032
-0.0615734
0.0670958
-0.00552244
-0.171386
1.09869
-0.927301
0.539153
0.0826488
0.000674769
-0.00860718
0.118655
0.151921
0.0361806
-0.0432722
0.00478199
-0.303458
0.031237
0.00128228
-0.00211544
-0.236242
0.630611
1.04515
-0.0743024
-0.0632833
0.0014842
0.0617991
1.95096
-0.360586
-0.0627478
-0.0559814
-0.953059
0.161232
0.406245
-0.213584
-0.473799
-0.125245
0.599044
0.809776
-0.35841
-0.451366
0.0127064
0.56179
-1.66554
-0.0274209
0.0061855
-0.00351011
-0.00267538
0.0752903
1.8001
-0.174974
0.182304
0.112711
2.05572
-0.583572
-0.682542
0.059139
0.623403
0.374972
-0.000791329
-0.344179
0.543557
0.822737
0.0703981
0.0784368
-0.0220188
-0.820259
-0.10904
0.929299
1.05507
-0.00337558
0.000932034
-0.0481414
-0.355417
0.100293
-0.30548
0.859287
0.382118
-0.0650429
-0.0090881
0.272625
-0.372725
-0.0240635
0.0172292
0.113654
-0.15148
0.0378255
-0.305765
0.320491
-0.0147259
0.415763
-0.731881
-0.839109
0.415283
0.423826
0.108019
-0.151069
0.0430498
0.265108
0.0404249
-0.65983
0.159725
-0.654007
0.654007
1.80569
1.09016
-0.721544
0.334578
0.488159
-0.202998
0.193367
0.907289
-0.368136
0.00660292
-0.868277
0.861674
0.138046
0.00406824
0.0260988
-0.897348
0.237518
0.0636367
-0.169017
-0.12467
0.293687
0.010744
-0.522826
0.353808
-1.05232
-0.282184
-0.647404
-0.0405954
-0.00552003
0.000472994
-0.224089
0.0478658
0.0603956
0.035058
-0.141118
0.10606
-1.43703
-0.458997
-0.00586617
0.070247
-0.302245
0.590469
-0.288224
-0.577752
0.393255
-0.109735
0.180684
0.238602
0.00895258
-0.0117297
-0.693393
0.314948
0.0333892
0.0682216
-0.134067
0.0181516
0.200326
0.00929435
-0.418417
1.9684
0.439852
-0.335216
0.867446
-0.789792
0.774564
-0.43966
-0.601806
0.169179
0.151381
-0.791212
0.76117
0.0300425
1.23806
-0.378775
-0.204744
-0.129942
-0.0105997
-0.0121195
0.952821
-0.838184
-0.114637
-0.177256
0.103896
0.0282148
0.123453
0.876088
0.276141
-0.775971
0.499829
-0.330084
-0.0541463
0.636924
-0.939169
0.14095
1.37129
1.1077
-0.0175365
0.171927
0.554686
-0.726613
0.0732276
0.048915
0.00443804
0.00451454
-0.505649
-0.0961573
0.0161357
-0.0448787
-0.182316
0.133777
-0.542721
0.283944
-0.991934
-0.530342
-0.285823
-0.541625
1.4372
-0.0420317
-0.281841
-0.359174
0.0557167
0.0192112
0.293342
0.0590294
1.33448
-0.86428
-0.18465
0.123669
-0.074633
-0.324752
0.399385
0.00631868
-0.000133185
0.0475623
-0.0605664
-0.245198
-0.125215
0.697534
-0.416409
-0.281125
0.0366385
0.138403
-0.0995654
-0.0388378
0.240447
0.0528943
0.0974127
-1.66137
-0.0938948
0.13706
0.644892
-0.36875
-0.0132456
0.0503603
-0.019399
0.0222981
-0.00289918
0.00019266
-0.0310984
-0.237452
0.0777668
-0.00291116
-0.567437
0.426452
0.0149923
0.0574772
0.0505423
-0.693962
1.67934
-1.29723
0.015827
-0.188367
0.17254
-0.13706
-0.542882
0.679942
0.0811671
-0.719292
-0.32488
-0.514228
-0.0361586
0.000110326
0.0360483
-0.251941
-0.625568
-0.170081
-0.147738
-0.820259
-0.225857
0.16111
-0.294543
-1.10168
-0.227625
0.234452
-0.00682694
0.269237
0.11836
0.410784
0.255034
-0.665818
0.0478591
0.0535254
1.08921
0.268818
-1.35803
-0.224232
0.266171
1.41156
-0.23649
0.176234
-0.713092
0.979263
-0.0753865
0.0227593
-0.0173431
0.033183
-0.0273038
0.975214
-1.31043
0.720581
0.0891949
-1.00296
0.494639
0.248355
0.658935
0.933861
0.012177
-0.0160286
-1.1077
-0.647404
-0.713084
0.722323
-0.0765899
-0.896688
0.656136
0.614014
-0.931869
0.533549
-0.00796995
-0.783242
-0.313735
0.636727
-0.776833
0.140106
0.0830482
0.055355
0.0500277
0.188574
1.5655
-1.75408
-0.00520965
-0.000310389
-0.258108
0.209695
0.717894
0.227702
-0.211979
-0.185295
1.7122
-1.61642
0.0158101
0.183136
0.309883
0.275171
-0.585054
-1.36848
1.25944
-0.256866
0.847335
0.0914224
1.11787
-0.929299
-0.00222426
0.212661
-0.0454169
0.0885743
0.0427777
0.00557827
-0.0392667
0.0336885
-1.02197
-0.0366304
0.320803
-0.805334
-1.15176
1.39817
-0.246411
0.368837
0.628224
-0.0513941
0.0550176
-0.00362354
-0.114164
1.82636
-0.717694
1.71742
0.288311
-1.44007
0.307466
-0.0948045
-0.585092
-0.406842
-1.23771
1.5476
-0.0608479
-0.876247
-1.75902
-0.166048
1.11787
0.0493822
-0.854717
0.830751
-0.645269
-0.185481
-0.981839
0.396747
0.0142764
0.117031
-0.000507888
-0.116523
-0.97154
0.564699
-0.220755
0.911341
-0.927743
0.188037
-0.204739
-0.0934111
0.236346
-0.0130532
0.310761
-0.0297381
-1.45442
0.529129
1.20332
-1.13292
-0.553169
-0.518029
1.0712
0.446831
0.0164723
-0.0108923
-0.734308
0.697678
1.10471
-1.21887
-1.04006
0.687138
0.352923
1.44515
-0.0469737
0.778711
-0.811605
-0.493426
-0.450043
-0.471408
-0.500132
0.803484
-0.803484
0.684926
-0.684926
-0.734308
-0.492064
0.492064
-0.687138
-0.80875
-0.738512
0.436484
-1.05323
1.05323
1.10471
-1.21887
0.778711
0.767381
-0.767381
0.811605
0.758957
-0.758957
0.506574
0.528592
0.481971
0.0514759
-0.499868
-0.549957
1.07855
-1.42907
-1.94248
0.704763
-0.451719
0.194853
0.101001
0.00416769
-0.00210919
-0.886711
0.0970608
0.78965
-0.0876205
0.0742733
-0.996879
0.58381
0.938454
-0.603876
-0.12607
0.0118004
-0.0123697
-0.800826
-0.0798399
-0.549616
0.00321532
0.0178159
0.490223
-0.117206
0.0849817
0.174707
-0.00679333
-0.00666704
0.0134604
-0.8108
0.0669232
0.743877
-0.0199649
0.00691167
-0.535009
0.408163
0.126846
0.917268
-0.741072
-0.176196
0.0815335
0.292044
-0.0136075
-0.055979
-0.0545594
-0.0147862
0.853268
-2.02193
-0.832209
0.0997359
-0.739241
0.796548
-0.0573075
0.123061
-0.899829
0.776767
-0.80258
0.905752
-0.103172
-0.0579542
0.0581469
0.0202475
-0.281631
0.281423
1.26617
-0.0970509
-0.78966
0.917217
-0.0929408
-0.824276
0.088876
-0.0992313
-0.471684
0.820217
-1.52434
0.456793
-0.374144
0.104292
-0.893952
1.44501
0.34784
-0.78974
0.00649801
1.01786
-0.894794
1.22592
-0.0060577
0.718202
-0.712145
-0.87783
-0.119049
-0.405021
0.0267419
-0.278834
0.427544
-0.785055
0.785055
-0.598303
-0.0875755
-0.864177
0.123105
-0.929957
0.839468
0.0720737
-0.195578
-0.0591579
0.0632582
0.0110013
0.190021
0.827834
0.818177
0.770847
0.140676
-0.911523
0.365401
-0.170548
-0.781094
-0.109106
0.890199
0.176064
-0.893758
-0.674156
0.888335
-0.784043
-0.109567
0.459836
-0.030658
-0.429178
0.0476899
0.951523
-0.999213
0.257555
-0.306585
0.0490297
-0.890661
-0.830927
0.0916868
0.513023
0.261542
-1.96629
1.0229
-0.56753
0.56753
-0.892561
-0.561855
-0.641859
0.879377
-0.173194
0.588477
0.779229
-0.208671
0.324067
0.597137
-0.576208
-0.248294
0.824503
-0.133602
-1.45549
-0.0296219
0.359343
-1.09194
0.284749
0.0638875
0.299861
-0.218327
0.779986
-0.883159
-0.142529
-0.0280185
-0.154375
0.738185
0.574167
-0.574167
-0.0653583
0.0557979
0.107119
-0.0720605
0.802909
0.148614
0.0922831
0.0024357
0.0069086
-0.00934429
-0.664737
0.695059
-0.0303218
0.702587
0.0156156
0.110674
-0.894717
-1.02007
1.31916
-0.299091
0.13644
0.87629
-0.0915969
0.794184
-0.75404
0.598802
-0.661236
-0.650597
0.146879
-0.560593
0.0277447
0.144818
0.151793
-0.712386
0.00663698
0.13519
0.0737121
0.722836
0.69614
-0.0973378
0.0780119
0.78155
0.626582
-0.0597283
-0.566853
-0.433807
0.538034
0.503182
-0.967969
0.742113
0.225855
-0.685878
-0.126758
1.60753
-0.170095
-0.22698
-0.0412775
0.486211
0.513789
-0.769753
-0.113405
-0.683946
-0.785981
-0.178466
-0.959731
0.400496
0.599504
-0.089547
0.0768768
-0.862694
-0.0734262
-0.58781
-0.158297
-0.252667
0.410964
-0.0211273
-0.00192331
0.109683
0.0706506
-0.128667
-0.108785
0.757241
-0.640281
0.718293
-0.351937
0.50373
-0.274644
-0.00580771
0.280452
-0.747199
-0.195922
0.943121
-0.247524
0.235834
-0.0248548
-0.00988266
0.0208046
0.0105441
0.696781
-0.12925
0.129049
0.109553
-0.736745
0.0720078
0.381045
-0.577196
-0.369024
0.251141
-0.212562
-0.290346
1.02781
-0.00819033
0.148049
-0.0353386
-0.0121598
0.00287043
-0.0576156
0.0440245
0.337021
-0.100935
-0.143268
0.244202
0.848928
-0.0313097
-0.00243594
0.0337457
0.12551
-0.0130426
8.21324e-06
0.222787
-0.109133
-0.19027
0.0170757
0.635308
-0.736242
0.00873151
0.29651
-0.149075
-0.941085
1.18319
-0.2421
-0.777588
0.838326
-0.060738
0.920057
0.206708
-0.282094
-0.0650324
0.846934
-0.452063
-0.0829462
0.280607
0.462092
0.195381
-0.657473
0.417027
0.0453306
0.649728
-0.574261
0.556913
0.0173484
1.28175
-1.26254
0.0064315
-0.00672587
0.000294374
0.694553
-0.00912896
-0.0832203
0.0199509
1.20164
0.485
0.435057
0.0113334
-0.103519
-0.0475499
0.00461433
0.0556246
-0.0602389
0.0205295
-0.0149512
0.879331
-0.610512
0.108255
0.226705
-0.0264478
-0.0958897
0.219155
0.099052
0.00368119
0.0667037
0.768265
-0.2751
0.0439483
0.231151
0.501847
-0.206882
-0.294965
0.642405
0.122847
-0.0123422
0.0162077
-0.00386548
-0.494847
-0.364215
0.11592
0.000233844
0.740393
0.710922
-0.0286802
0.566804
-0.516777
0.818468
0.119664
0.011159
-0.869782
0.0506708
-0.27363
0.19778
-0.174911
0.68923
0.0790348
0.0130293
0.32837
-0.121663
-0.196388
0.162138
0.0321742
-0.113412
0.422604
-0.0568557
0.791876
-0.0744202
0.167438
0.285748
0.216099
-0.156082
-0.0516089
-0.0562699
-0.110466
0.0156043
4.23459e-05
-0.0156466
-1.47973
0.217189
-0.0139086
0.853625
-0.229986
-0.615346
0.633248
-0.0179021
0.411887
0.761238
0.223128
0.0573241
0.0779655
-0.171377
0.628626
0.132612
0.965963
0.874061
-0.259798
0.716591
0.725677
-0.388656
-0.60832
0.34978
0.25854
-0.513114
-0.0711962
0.042324
0.0613711
-0.0459878
1.10753
0.735592
0.0828764
0.615112
0.222829
-0.867515
-0.0807536
-0.671622
0.67812
-0.0225493
-0.595087
0.436791
0.875698
0.673956
0.103886
-0.0141566
-0.169034
-0.314971
1.16897
0.510377
0.03732
-0.0144051
-0.19684
-0.191816
0.962788
0.455485
-0.0760488
-0.139516
-0.745042
0.932733
-0.187692
-0.412471
-0.195849
0.00436249
-0.177691
-0.166449
0.736195
-0.00612926
0.00153803
0.628211
0.252286
-0.00114436
0.60053
-0.132943
0.244077
0.726015
0.25158
-0.977594
0.277542
-0.922811
0.159308
-1.45654
-0.18332
0.774219
-0.5909
-0.663919
-0.0442598
0.0343771
-0.0545899
-1.57882
0.0267868
-0.0461857
0.553568
-0.00309874
-0.139476
0.142575
-0.0157807
-0.577882
0.0939865
0.0540629
-1.13281
-0.0107204
0.00392707
0.472377
-0.0533167
-0.586971
0.0127096
0.566602
0.309096
1.04495
0.927406
-0.251468
-0.383643
0.635111
-0.0527532
-0.618003
0.618003
-0.206632
-0.910514
1.11715
0.0296949
-0.147768
0.687755
-0.121153
-0.223943
-0.40708
0.1801
-0.150035
0.86031
0.294277
0.170802
-0.105903
-1.38556
0.484719
0.0721942
0.0521012
0.0169045
-1.47303
-0.303194
-0.306804
0.693332
0.306668
-0.303194
0.693332
-0.570193
-0.10012
-0.570193
-0.696285
0.696285
0.303715
-0.0146024
0.162442
-0.07538
0.21269
0.0418575
-0.464542
0.641771
-0.0412404
0.663939
-0.504436
-0.159503
-0.0611497
0.0615758
-0.000426187
-0.0165645
0.0190002
0.516325
0.0192788
-0.0283297
-0.435679
-0.346353
0.122264
0.0466705
0.835642
-0.280956
-0.244072
0.299788
-0.00518124
-0.0888016
-0.0109856
0.676836
0.0635573
0.491141
0.00767728
-0.000642507
-0.00588714
0.086107
0.568623
-0.475822
-0.0928006
1.95255
0.544433
-0.239017
0.88186
0.0110044
-0.0610854
0.10404
-0.23512
0.103133
1.09905
-0.373035
0.00707269
-0.047668
0.673318
-0.0412361
0.0232084
-0.0232084
0.0190912
-0.0190912
0.00357262
-0.00357262
0.0136749
0.365465
0.45706
-0.0402644
-0.732418
0.492607
0.193062
0.0297245
-0.0818735
-0.485448
0.778314
0.11084
-0.796718
-0.906462
0.459728
0.0873526
0.0189403
-0.00102744
-0.00952669
0.00952669
0.216459
-0.00963701
0.00963701
0.701077
0.0875815
0.00659181
0.00108547
0.00685047
-0.0701338
-0.0232655
0.0232655
0.00208078
-0.00208078
-0.0214879
0.0214879
-0.00777423
0.00777423
0.0910659
-0.293459
-0.0845324
0.221779
-0.00774281
0.00774281
-0.372773
0.517816
-0.145042
0.511005
-0.225918
-0.365828
0.121756
0.561781
-0.126363
0.0709102
0.562338
0.566641
-0.00558726
0.00558726
0.209047
0.0238194
-0.0238194
-0.00766626
0.00766626
0.747746
-0.627557
0.0343963
-0.0678882
0.0092618
0.00416821
-0.00416821
-0.00234324
0.00234324
0.0177899
-0.0177899
0.0241486
-0.0241486
-0.0226744
0.0226744
0.034062
-0.034062
0.478835
-0.0308192
0.0308192
-0.00417642
0.00417642
0.0233123
-0.0233123
0.00203879
-0.00203879
0.00574294
-0.00574294
0.0113648
-0.024366
0.024366
0.512332
0.0152737
-0.0383012
0.0383012
-0.00156983
0.00156983
-0.00554403
0.00554403
0.0324874
-0.0324874
0.0264812
-0.0264812
0.00412586
-0.00412586
0.00234955
-0.00234955
-0.125454
-0.198033
0.00212463
-0.00212463
-0.00378179
0.00378179
-0.0370372
0.0370372
-0.0287604
0.0287604
-0.00197044
0.00197044
-0.401514
0.649868
0.266262
-0.0311339
0.0311339
-0.0233515
0.00262252
-0.00262252
-0.00342245
0.00342245
0.0384036
-0.0384036
-0.150425
0.161584
-0.00234332
0.00234332
-0.0240126
0.0240126
-0.505877
0.0457978
-0.0670237
-0.0322989
0.0322989
-0.450875
0.0352703
0.0197473
-0.346292
-0.656667
-0.0356963
0.0356963
-0.194465
0.13761
-0.0419757
-0.00318195
0.00318195
0.0084199
0.0435762
0.262148
-0.32535
-0.288175
0.613525
0.202845
0.00222409
-0.00222409
-0.136023
0.315647
-0.179624
0.782084
-0.405191
-0.376893
-0.451575
-0.662165
0.133163
0.166626
-0.0617163
-0.372091
-0.572955
-0.00721145
0.191235
-0.308826
0.0143092
-0.0143092
-0.00231705
0.00231705
0.029968
-0.029968
0.0269332
-0.0269332
0.00030332
-0.00030332
-0.00184012
0.00184012
-0.0723525
-0.0774697
0.18188
-0.30795
-0.00100246
0.00100246
-0.0462121
0.0462121
-0.0392194
0.0392194
0.143754
-0.0374048
-0.106349
-0.00661295
0.323623
-0.553609
0.00161235
-0.00161235
0.0100197
-0.0100197
-0.0882588
0.136038
-0.00287502
-0.00225385
0.00225385
0.0751831
0.0177324
1.0107
-0.483121
-0.0739011
0.557022
-0.635325
0.052078
-0.330912
-0.0396806
0.0396806
-0.683699
0.283244
0.0483233
-0.0483233
-0.636514
0.373381
0.270053
0.123556
-0.000672994
0.000672994
-0.814523
-0.00114599
0.00114599
0.308836
0.410222
0.00813614
-0.0522528
0.0522528
-0.00243417
0.00243417
-0.0412206
0.0412206
-0.0552368
0.0552368
-0.00171985
0.00171985
-0.0610134
0.0610134
-0.00220331
0.00220331
-0.0444754
0.0444754
-0.00199432
-0.046411
0.046411
0.00410229
-0.00410229
0.0469573
-0.0469573
-0.00272761
0.00272761
0.0489521
-0.0489521
-0.0771978
-0.00391661
0.00391661
-0.00498412
0.00498412
-0.0566126
0.0850212
-0.0105252
0.0105252
0.00474237
-0.00474237
-0.0579787
0.0579787
0.293001
-0.0178247
0.0178247
-0.0585734
0.0585734
-0.00731219
0.00731219
-0.0657638
0.0657638
-0.0134178
0.0134178
-0.0788345
0.0788345
-0.0210749
0.0210749
-0.0963989
0.0963989
-0.68533
0.21747
-0.523357
0.505455
-0.837705
-0.053534
-0.576071
0.40116
-0.0393169
0.0759555
0.00351316
-0.00351316
0.133376
-0.730541
0.0406687
-0.0237642
-1.00659
1.47137
0.500642
0.258338
-0.0290859
-0.00263422
-0.402539
-0.57138
0.00846235
0.389851
-1.1131
-0.0169128
0.0169128
-0.768373
0.021872
-0.021872
0.00232684
-0.00232684
0.315077
-0.361636
-0.00250046
0.00250046
0.0196307
0.0150084
0.596741
0.202859
-0.0190005
-0.0121611
-0.00386746
-0.0904265
0.484927
-0.3945
0.0178765
-0.0474984
0.014201
0.884094
0.0101402
0.0597758
-0.406035
0.432777
-0.479936
-1.02351
-0.226238
-0.0683895
0.0174951
-0.13334
-0.173245
0.0361729
-0.00260356
0.000733664
0.774479
-0.561805
-0.0334813
0.0656554
-0.0343629
0.0566568
0.105785
0.429142
0.232832
-0.168635
0.216572
0.0251315
-0.00908122
-1.1615
-0.000134055
0.0117252
-0.151201
-0.019642
-1.39279
-0.0707962
0.260711
-0.348901
0.383885
0.229004
-0.770629
0.0446331
-0.0593512
-0.0398801
-0.342639
0.469485
-0.0281199
-0.0531995
0.0813194
-0.0262857
0.0262857
0.164654
-0.42701
0.00103452
0.0564615
-0.0754547
0.0529054
-0.0673264
-0.00722774
0.0745542
-0.0394449
-0.150636
0.0402345
-0.0666588
-0.292571
-0.365524
0.658095
0.0134579
0.0564343
0.153313
-0.0242643
-0.0296783
0.0624154
-0.151749
0.30313
0.00504869
0.028697
-0.0314939
0.184807
0.00383997
0.253989
-0.00226298
0.00226298
-0.440807
1.4036
0.0848769
-0.16563
-0.0123763
-0.0440729
0.161326
0.632858
-0.0310367
0.00113503
-0.531665
0.00830811
0.128557
0.0838754
-0.666383
0.298247
-0.0573255
0.38965
-0.682221
0.219778
0.522335
-0.0883754
0.0883754
-0.000507888
-0.520669
0.16777
0.352899
-0.206199
0.15161
0.140272
-0.182307
-0.549574
-0.10492
0.00376501
-0.00336674
0.930163
0.231085
-0.1272
-0.0685897
-0.944598
-0.495474
-0.0597558
-0.270723
0.81428
0.589467
-0.265844
-0.279451
0.57596
-0.0547878
0.333115
-0.269666
0.0725818
-0.470612
0.325569
0.126123
-0.126123
0.0874711
-0.044689
-0.0427821
0.00414826
0.00613691
0.0222981
-0.305149
-0.189699
0.235342
-0.187612
-0.0477302
0.552625
-1.04691
0.303953
-0.757602
0.698947
-0.126754
-0.181196
-0.0461205
-0.0790944
-0.478106
0.0424273
-0.280181
0.00186278
-0.019642
0.371934
-0.00527473
-0.00197141
3.14235e-05
0.0157923
-0.00806081
-0.00773149
-0.108048
-0.0180188
-0.163752
0.181771
-0.13427
-0.336342
0.0196307
0.345102
-0.000950096
-0.365502
0.0796789
0.00233142
0.0306819
-0.0709463
-0.0115478
0.0115478
-0.000804277
-0.000262456
-0.00964323
7.65552e-05
-0.0655758
0.000883062
-0.00118649
0.173913
-0.0387523
-0.00213194
0.00213194
0.0666947
0.520688
4.38414e-05
-0.295628
0.517827
1.11451
-0.476909
0.343859
-0.437509
-0.10517
0.106204
0.238891
-0.23722
-0.021017
0.0131379
-0.00259377
-0.000663846
-0.182816
-0.387333
0.87994
0.276534
-0.348887
0.145101
-0.00157453
0.12157
0.0148697
-0.000279282
0.00113237
0.0120055
-0.287496
0.00126401
-0.000135944
0.707644
-0.645229
-0.243239
0.131018
0.945963
0.000359341
6.23103e-06
-0.0419757
-0.00581773
0.817504
-0.43124
0.503434
-1.09279
0.906172
-1.05985
0.590898
-0.189738
0.688238
0.000185302
0.00325028
0.01569
-0.111932
0.140371
-0.190811
0.00960004
-0.00217225
0.0619968
-0.0465849
-0.0154119
0.000119224
0.0429379
-0.0302751
-0.0126628
-0.0926077
0.00721084
-0.000302237
0.00197035
0.466752
-0.422932
-0.00447564
-0.000358084
0.760639
-0.592869
0.395512
-0.00572831
0.000864907
0.152823
-0.0445681
-0.0377658
-0.125306
-0.019812
-0.00352311
0.113252
0.00164958
-0.0013364
0.422263
-2.27154e-05
-0.00299348
0.00299348
-0.00539956
-0.00676157
-0.000699132
-0.322914
-0.00361127
0.0703941
-0.1072
0.483041
0.18887
-0.0656244
-0.000609896
0.0010675
0.475278
-0.000976315
-0.00105717
0.00541966
-0.00200114
-0.000292537
0.0759761
0.016307
-0.710305
0.487492
-0.874826
-0.0372072
-0.00018032
-0.582461
0.00272486
0.0611627
0.609217
-0.0155562
0.0615154
-0.00392956
-0.00136602
-0.551087
-0.00325482
-0.000483454
-0.0249377
0.957412
-0.540386
-0.00248189
-0.000524304
-0.00572581
-0.001189
0.0703837
-0.0228942
0.0228942
0.00356581
-0.00382827
-0.00256982
-0.00778515
-0.0072816
0.00531019
-0.15906
0.0878637
-0.00610563
-0.0130707
0.0449758
-0.0154841
0.0595903
-0.0420951