/*--------------------------------*- C++ -*----------------------------------*\
| =========                 |                                                 |
| \\      /  F ield         | OpenFOAM: The Open Source CFD Toolbox           |
|  \\    /   O peration     | Version:  2306                                  |
|   \\  /    A nd           | Website:  www.openfoam.com                      |
|    \\/     M anipulation  |                                                 |
\*---------------------------------------------------------------------------*/
FoamFile
{
    version     2.0;
    format      ascii;
    arch        "LSB;label=32;scalar=64";
    class       volScalarField;
    location    "41";
    object      p;
}
// * * * * * * * * * * * * * * * * * * * * * * * * * * * * * * * * * * * * * //

dimensions      [0 2 -2 0 0 0 0];

internalField   nonuniform List<scalar> 
2186
(
1.161
0.0664975
0.369846
1.4827
-1.08012
0.195064
1.08276
-0.513167
-0.341821
1.73028
1.36572
-0.539313
-0.513438
1.39138
-0.14988
1.39538
1.42017
-1.1364
-0.00152606
-0.731026
1.77153
-0.693121
1.40026
-0.625427
1.39188
1.45606
1.61491
1.31087
0.891204
1.39197
-0.704212
1.3923
-0.656537
0.273383
-0.563907
0.36725
0.191299
1.75183
-0.563307
0.0940406
-0.517611
-0.660859
-0.274518
-0.831609
1.24913
1.7093
0.755311
0.919408
-0.564449
-0.883837
-0.714171
1.20506
-0.25324
1.67358
-0.684698
1.36051
-0.329919
1.38904
-0.658658
1.19525
0.0427401
0.963329
0.857996
0.147522
0.892561
0.862184
0.974366
1.67083
1.56773
-0.27973
-0.512638
-0.174243
1.6515
1.4059
1.54681
1.57448
-0.374712
1.41459
-0.571889
-0.621722
-1.19323
0.271369
1.387
0.94028
1.38067
1.38827
1.66202
0.0251544
0.837378
-0.57128
1.35854
-0.738262
1.31255
1.56294
1.40128
0.709589
0.246845
0.919465
-0.988296
1.40221
-1.58359
-1.48462
0.984288
1.32435
1.42202
-0.691908
1.54383
-0.00485796
1.33453
-1.11208
-0.583389
-0.867697
0.947541
1.65706
-0.417247
-0.637454
0.068647
-0.571511
-0.571206
1.65738
0.215486
-0.940458
1.16453
-1.31284
1.40079
-0.029099
-0.975022
1.56082
-1.18377
1.06373
1.80851
1.66292
0.641388
1.0551
-1.31904
-0.853209
1.33043
-0.164437
-0.274406
-0.528574
1.10421
0.203938
-0.51284
1.10647
1.30126
1.33632
-0.0305547
-1.08008
1.01144
-0.789221
-0.849956
0.982574
1.41774
1.60189
1.45462
0.931088
1.6496
0.765474
0.659296
0.825943
-0.533584
-0.54083
1.36698
1.39271
-0.170928
0.0530275
-0.508318
-0.579757
0.773088
0.620752
0.648113
1.40571
1.42088
1.52662
0.710179
-0.0351863
-1.11451
1.3696
-0.75732
1.18919
-0.547991
1.40623
-0.725452
0.847194
0.817181
-1.08148
-0.846408
1.4616
-0.271758
-0.533876
-0.956794
1.63792
-1.17184
1.37731
-0.535262
-1.27697
0.326077
1.55856
1.3957
-0.700717
-0.524015
-0.830595
0.488052
1.42312
-0.552185
-0.975262
-0.586485
-0.318068
1.33141
-0.466633
0.921322
0.739217
1.64982
1.13626
1.2356
1.3578
1.51796
1.39492
1.30659
1.44726
0.794145
-0.671741
-0.69068
0.358023
0.595472
-1.11958
-1.00621
1.36417
1.5332
-0.67409
-0.483723
-1.83743
0.776712
1.0554
1.17001
1.30901
1.54115
-1.54095
1.28849
-0.518887
-0.94373
-0.674572
1.32352
1.03281
1.4846
1.57156
1.4447
1.41738
-0.51699
1.23626
1.4861
-0.515091
1.30819
1.08255
-2.03074
-0.554369
-0.588452
1.48369
1.41837
-0.524093
0.128018
0.423643
1.37022
-1.37286
1.07726
1.41649
1.25185
-0.535354
-0.72172
1.37164
0.970916
0.0906855
-0.236344
1.7014
-0.957473
-0.515474
1.23185
1.60746
1.38248
-1.04138
-0.307374
-0.18205
1.27459
-0.516844
0.952675
1.36731
1.42393
0.21853
0.142953
1.35258
-0.548188
1.32961
1.61952
1.41412
1.41136
0.254647
-0.788178
-0.640141
-0.0423095
-0.960179
-1.11061
0.787304
-0.133101
0.903261
1.59541
1.53813
1.27205
-0.112124
1.52157
-0.527927
0.83461
-0.537813
-0.534628
-0.557156
0.756375
-0.837727
-0.796175
0.418475
1.2929
-0.170097
0.657426
-0.815408
0.657425
-0.581648
-0.883838
1.60561
0.221615
-0.459302
-0.720971
1.2003
0.893718
-0.15604
0.930801
-0.577545
-0.543132
0.959436
1.41956
1.40549
-1.12854
1.53949
1.30318
0.661903
1.67267
1.39065
1.33028
0.784929
0.160343
-0.525518
1.20607
-0.81347
-0.6139
-0.521297
-0.747148
-0.580582
1.70265
0.305962
-0.721824
-0.517833
1.39043
-1.15106
-1.26194
-0.75481
1.17101
0.464851
-0.59044
1.62879
1.68782
1.55018
-0.510745
-0.625925
1.71218
1.39525
-1.00218
0.751135
-0.515967
0.577531
1.54902
1.33286
1.2685
1.71639
-0.0384568
0.0556946
-0.0641636
0.226918
-0.271099
-0.667058
0.386948
1.63999
-1.15764
-0.110836
1.38128
0.991778
-0.548338
-1.6555
-0.51978
-1.01812
-0.561882
-0.542108
-0.683914
-0.993999
1.59121
0.485115
-0.628041
1.40833
-0.524313
1.6915
-0.829016
-1.70065
-0.75215
1.39087
-0.5518
1.41684
1.26011
0.0958629
1.44131
-0.910889
-0.551947
-0.526642
1.43089
1.33366
-0.54602
-0.51928
-0.547477
1.32796
-0.551183
0.236344
0.79753
1.31985
1.27468
1.1019
-0.537315
-0.32151
1.19888
0.113799
1.19966
-0.0359385
1.41393
0.21001
1.54948
-0.568737
1.26598
1.05471
1.42389
-0.527785
1.38677
0.215809
-0.552766
1.39405
-1.63708
0.423511
-0.743778
0.133591
1.39757
0.557189
0.695822
1.39489
0.511532
0.367106
0.122444
-0.719513
0.677208
-0.52936
1.03788
-0.53219
1.40235
1.55957
-0.518909
-0.538389
0.145321
-0.691651
0.731248
-0.60067
1.14844
0.442434
-0.519558
1.46952
0.483837
0.649647
0.705133
0.384287
1.10872
0.618704
-0.139616
0.0591374
0.706397
-0.629438
1.40907
-0.20521
1.50647
1.65236
1.63549
0.968748
1.49845
-1.01361
-0.606785
1.28824
0.626369
1.38264
-0.678941
-0.523312
-0.813892
1.18592
-0.545048
-0.0917797
-0.722749
-0.767785
0.0777374
0.113249
1.06509
1.06243
-0.29789
0.0825742
1.16185
0.483142
1.46837
0.350313
0.0554985
-0.542832
1.07036
-0.209574
1.60018
1.72512
-1.12968
-1.00559
-0.439212
0.592451
-1.59348
1.46036
0.103211
1.41396
1.11777
-0.631217
1.23463
1.19744
-1.77814
1.26767
-0.183528
-0.753232
-0.530446
-0.529409
-0.225113
-1.35508
-0.377275
1.3942
0.490547
-0.923016
1.00047
1.54113
1.63936
0.0744507
1.148
0.638267
1.18999
0.158056
-0.81409
-0.781768
0.796545
1.15365
1.41657
0.3899
-0.533403
-0.252423
-0.574934
0.292817
1.14037
0.210794
0.3594
-0.652974
1.28312
-0.501624
1.34242
0.0120439
0.185387
1.34187
1.06257
-1.5201
0.0692327
1.35324
1.72082
1.41617
-0.235597
-1.14576
1.20348
0.0550482
1.18981
-0.365035
0.737292
1.35031
-0.543053
-0.721851
1.3759
-0.485419
1.58809
0.0943305
1.29315
-0.230235
1.02928
-0.580369
1.63834
-0.733446
-1.30963
1.28724
0.821998
0.824438
-0.553823
-0.709443
0.113585
1.14377
0.809166
-0.375429
-0.0644733
1.40986
0.697156
-0.996608
1.09195
1.23253
1.37488
0.422995
-0.604049
-0.750498
1.40754
1.51821
0.901905
1.40359
-0.312495
1.46022
-0.396056
-0.0321434
0.0812323
1.31453
1.36092
-0.62895
1.16928
-0.739324
1.15892
-1.05421
1.33326
1.35464
1.4104
0.174585
1.27216
-1.2655
-0.441605
1.56459
-1.19297
0.272593
1.4845
-0.0945389
1.44733
-1.66682
-0.761471
1.37582
1.19074
1.78659
1.39242
-1.27671
1.50808
1.45131
0.412057
0.939975
-0.261562
-0.543561
1.88345
-0.523255
1.48963
-0.877044
0.711536
1.39312
-0.604269
1.38086
0.377654
1.25372
1.34007
1.40797
0.483175
-0.551144
-0.203185
0.984547
1.06191
1.46914
0.0603577
1.15118
0.150741
-0.0966748
-1.08663
1.24004
1.5729
-0.815195
-0.537106
0.549408
1.61832
0.722178
1.05173
0.392912
-1.76949
-0.511549
-0.707316
-0.0916008
1.16862
-1.53159
-0.572386
-0.0784776
-0.027584
-0.742913
-0.530136
0.0747926
1.36016
1.41295
-0.573595
0.187209
1.37477
1.32705
1.41289
-1.46772
1.37246
1.45508
1.38943
1.48366
-1.37207
0.0472502
-0.724782
0.927108
1.39464
1.11834
0.563829
-0.262643
-0.416361
0.165819
1.68935
0.0644804
-0.275355
-0.126521
0.293083
-0.514121
1.12184
-0.629851
-0.49323
-0.553221
1.39324
1.39463
1.40388
0.26557
0.637862
1.67006
-0.351215
1.391
-0.0689871
0.208324
1.0914
1.41242
1.42694
0.311798
1.36833
1.36595
-0.587801
0.349503
1.40441
1.41692
1.414
-0.538327
-0.621907
1.41407
1.02022
1.39562
0.478315
0.104769
0.00825201
0.528057
0.110521
-0.715762
0.190853
0.479486
1.41953
1.42389
1.11821
-0.588199
1.3929
-0.234309
0.641875
0.182678
1.39346
1.41861
1.41482
1.42716
1.4039
1.39702
1.38722
0.695045
0.806267
0.335998
0.423789
0.0184804
-0.126308
0.0675007
0.103469
-0.235296
-0.0220266
0.255913
1.38798
1.40816
1.4029
1.42549
1.42291
1.41486
1.41801
1.39766
1.4016
-0.19323
0.611472
1.41541
1.41446
0.0752934
1.41683
1.41514
0.446128
-0.0989006
-0.210687
-1.16248
-0.282252
1.39759
-0.520205
1.39408
1.03543
1.49571
-0.525515
1.39459
1.33158
1.34256
-0.720097
0.229506
-0.553556
0.188424
0.209236
-0.70608
1.41027
-0.070758
1.4847
1.40098
0.0563726
1.51524
1.66313
0.83037
1.25126
1.07704
1.39322
1.41124
1.40431
-0.526793
0.783784
0.178203
1.40011
1.40974
-0.604487
-0.0386952
1.40158
0.299212
-0.120759
1.40113
0.172291
1.37956
1.41344
-0.0668692
1.40678
-0.424708
1.39664
1.46257
-1.24809
1.41294
1.42045
0.117714
1.04003
1.39858
1.4034
0.430484
-0.597124
1.1329
1.78469
1.40971
1.40063
1.40501
-0.0545983
1.40037
1.38701
1.40628
1.40039
1.40302
1.39957
1.49784
-0.419703
0.0569583
1.40209
1.39589
0.594406
0.208355
0.173166
-0.372294
1.25943
0.0520209
-0.460812
0.159055
1.39718
1.13635
0.0537668
-0.813489
0.516329
-0.129525
-0.672857
-0.092094
-0.757983
-1.04516
-0.122957
1.40547
0.101855
1.39238
1.31148
-0.53876
1.59639
-0.584231
-0.819474
1.15171
1.47561
0.753739
-0.56124
1.39588
-0.4592
1.40331
-0.663363
1.40373
-0.490987
1.39476
-0.381601
-0.0920857
1.40578
1.41904
1.33467
-0.78119
-0.572523
-0.579177
-0.911246
1.41837
1.29382
-0.476968
1.39514
1.4367
1.3883
-0.816717
-1.51559
-0.233079
-2.03331
0.75269
1.40165
0.0864975
1.39908
-1.85282
1.39691
1.43568
1.40735
0.0053502
0.00907126
1.43396
-0.520172
1.40947
1.41191
0.432336
-0.511001
1.28332
1.50791
1.39271
1.38961
-1.05482
-1.08113
1.36894
0.827577
1.40794
1.26131
-1.06778
-0.512986
1.23426
1.65609
1.39698
0.756401
-0.578175
-0.715016
-1.59813
-0.693299
1.38353
-0.418608
1.38166
-1.21724
-0.531167
-1.03002
0.789455
-0.536979
-0.877599
-0.703356
1.39392
-0.564593
1.255
-0.518619
0.238786
-1.09262
0.203991
-0.7168
1.36718
-0.71879
-0.536526
-0.721753
-0.778872
1.38576
-0.788046
0.0892571
-1.87681
1.45648
-0.812233
-0.522426
1.46467
1.3846
1.37597
0.89748
-0.516848
1.4015
1.42536
0.270398
-0.856664
1.3936
1.21345
1.6134
1.41457
-0.150527
-0.516629
-0.823504
-0.688759
-1.03351
-0.550098
0.274215
-0.55539
1.21682
0.392108
1.40477
1.59002
1.39271
-0.571344
-0.525134
1.39557
-0.45924
-0.179194
1.37541
0.27379
-1.13957
-1.85863
-0.968041
1.34346
1.31513
0.0888611
1.23504
1.02152
-1.05602
1.38084
-0.508034
1.19777
-0.658168
1.38922
-1.2086
0.835238
1.39655
1.44206
-1.72588
-1.23957
1.21744
1.76195
1.41703
1.37078
-0.699862
1.68149
-0.544612
-0.229933
-0.414369
0.886863
-1.64228
1.50489
1.58162
-0.515734
0.32314
1.39267
-0.499914
1.25895
1.4265
1.35997
-1.47965
1.39675
-0.173451
1.42485
0.160487
-1.05839
0.107334
1.39963
0.724292
-0.26337
-1.07177
1.40111
-1.05741
1.55033
0.678083
1.67409
1.33558
-0.646868
1.37711
-0.764662
1.36808
1.36969
-0.111989
-1.00699
1.4847
1.38545
1.57545
1.35077
0.503815
1.35257
1.38411
1.24891
1.40332
-0.574939
-1.03066
-0.781638
1.49999
0.401337
-0.279005
-0.741384
0.343813
-1.18378
0.0688913
1.21485
-1.22424
1.35229
1.40822
-0.877318
-0.241126
-0.625064
0.0200988
-0.795166
-0.779556
1.40049
-1.60375
1.41296
1.6579
1.45214
0.0922243
1.42054
1.32899
0.332053
1.35885
1.38064
-1.01538
1.37929
1.29648
0.398022
-0.567142
1.86556
-1.01255
-0.993211
-0.525689
0.652187
1.37516
-1.12691
-0.2226
-0.704894
1.52838
-0.350076
1.20661
1.40945
1.38065
0.192873
1.36595
-1.81256
1.40996
1.42482
-0.146823
1.41516
0.830358
1.3864
1.12049
-1.94125
0.113174
0.225287
0.17982
1.61194
-0.0792831
1.42425
1.75926
0.0537826
0.0682973
1.46323
0.14005
1.46053
0.0419735
0.0694743
1.45988
1.46469
0.843009
-0.476319
1.11354
-0.623202
-0.792562
-0.500238
1.41907
1.39432
1.85854
-0.563385
-0.223188
1.16104
-0.579566
1.46781
1.3684
1.38759
1.38875
1.35374
-0.904645
-0.549231
-0.594221
1.19409
1.31776
-2.04571
-0.811812
-0.524224
1.41298
1.4306
0.35199
-1.48439
1.43336
-0.346459
0.558579
1.12084
1.2755
-0.100733
-0.544552
0.0760841
-0.558903
-0.653195
0.221346
-0.697843
1.81787
1.70194
-1.20549
-0.59756
1.41316
1.38907
-1.05789
0.366617
0.0512235
1.0013
1.49091
-0.157806
1.40477
0.0785474
-0.531725
-0.698697
-1.04305
-0.808636
1.38064
-0.559579
-0.0272695
1.72254
-0.535423
1.40645
1.59735
-0.821542
1.47573
1.69278
-1.06111
1.59038
-0.522342
-0.530582
1.40351
-1.11708
1.44282
1.40815
-0.514661
1.45821
0.564322
-0.868004
1.43948
1.46276
-0.504132
-0.627374
1.34227
1.39885
-0.509815
-1.99179
1.62775
-0.510508
1.30594
-0.368348
1.342
-0.576974
-0.398401
-0.515858
-1.10112
1.44713
1.43198
1.73256
1.55699
1.33451
1.45801
1.42153
-0.520598
1.4873
1.57859
-0.93939
-0.509234
-1.00706
1.66636
-0.608788
-0.524419
-0.296324
1.29431
-0.98257
-1.27348
1.37817
1.45178
-0.512854
-0.837475
-0.522188
0.0789899
-2.06984
-1.0234
-0.524524
1.24635
1.32145
-0.774171
-0.207881
-0.461779
1.19583
-0.512688
-1.15065
-0.529343
1.37341
-0.492733
-0.866997
1.77439
1.29556
0.821561
1.63263
-0.636322
1.41097
1.41002
1.52323
1.64684
-0.623009
1.03275
1.37229
0.684628
-0.534621
1.80848
1.36091
1.31503
1.46344
-0.901334
-0.244995
1.25887
1.18286
1.36373
-0.660799
-1.569
1.38612
-0.533782
1.22856
-0.901389
1.75165
-0.540717
1.08912
1.16483
-0.736912
-0.546603
-0.97839
1.48202
-0.747178
-0.562344
1.12354
0.966679
-0.814645
1.46449
1.24791
-0.75899
-1.4515
1.35253
-0.406424
-0.553403
-0.524296
-0.704419
0.020924
1.37546
1.40939
-1.11567
1.04405
1.40498
1.72122
0.696558
0.617994
0.34445
1.30522
-0.0312303
-0.728414
-0.245372
-0.357955
-0.722562
1.39236
-0.729514
0.49922
-0.55855
0.894993
0.9924
-0.716337
1.05775
0.31644
0.919298
-0.711355
0.815629
-0.729384
0.815421
-0.568432
0.726076
-0.707612
1.24316
-0.562522
-0.707912
-0.715642
-0.556949
1.41519
0.508886
-0.747138
-0.580587
0.354459
0.466704
-0.723192
-0.549843
-0.793157
0.303516
-0.596644
0.175786
-0.632098
-0.051084
-0.875508
0.125216
1.28676
0.63525
-0.683395
1.38044
0.260029
0.805284
0.867981
1.37068
-1.32096
-1.22978
-0.575262
-0.945382
1.29684
1.77702
0.279796
-0.895111
0.447654
-0.557613
-0.0623937
0.0641685
1.36955
-1.09929
1.35305
-0.978121
1.81981
0.879378
1.86385
-0.812758
1.62794
-0.311448
1.43126
0.0275049
-0.572279
1.51081
1.39327
-1.81441
-0.560064
-0.712114
1.36034
-0.670358
1.38567
-0.794087
-0.526116
-0.516506
1.69492
1.43021
1.54479
1.40934
1.41557
-0.994733
0.0505573
1.55845
-0.0596744
-0.613807
1.75974
-0.780338
1.31186
1.36011
1.77141
1.85011
-0.741177
-0.394431
1.4352
0.650268
-0.0416974
-0.658377
-0.00780765
-0.546102
-0.836578
0.969422
-1.05958
1.63943
0.258532
1.41025
1.51603
1.4267
-1.13473
-0.567719
-0.650099
1.48838
-0.689474
1.52738
-0.524592
-0.882984
1.59135
1.74607
-0.590432
0.403871
1.34474
-0.742126
-1.04389
1.07307
1.62248
1.63626
-0.988586
1.27496
1.21069
-0.571356
1.65271
0.616476
-0.791262
0.0396662
0.183479
0.582162
1.48448
-0.797859
0.590085
-0.20542
0.16432
-1.08104
-0.581756
1.39024
-1.62824
1.41336
0.213249
0.507669
1.10012
0.692109
-0.577517
-0.399146
-0.802818
0.0145167
0.193708
-0.946198
1.29674
-0.554309
0.143326
1.39822
-0.592046
-0.949309
1.41333
-0.53956
1.33444
0.208893
-0.534677
0.110199
1.19801
-0.428102
-0.240745
1.29675
-0.523665
1.47336
-0.178709
-0.749928
-0.573723
-0.568143
1.91903
-2.00603
1.53919
-0.0796608
1.36336
1.57846
1.13192
1.42768
1.51385
0.169801
-1.152
1.36854
1.51352
1.78569
-0.544044
1.44397
1.0278
-0.52644
1.20392
1.64962
-0.362376
1.68446
0.471657
-1.25898
1.25418
-0.517025
-0.711376
1.33903
-0.239481
1.45709
1.48969
1.35403
-1.1833
1.28523
1.60832
-1.07495
-0.0335914
-2.07448
-1.06359
-0.692137
-0.554606
1.79776
1.16897
-1.08436
1.33749
-0.511614
-0.750483
1.71414
1.57454
-1.50489
-0.771289
-0.564472
-0.526272
1.37673
-1.04307
0.50215
-0.657701
-0.135475
1.46393
-0.508483
1.72747
1.4446
1.28387
1.41852
1.64644
-0.835274
-0.508404
1.41963
1.56526
-1.26505
1.40579
-1.81156
-0.516508
-0.511905
1.43979
1.46685
-0.5134
-1.04292
0.963447
0.364039
-0.948767
1.38154
1.31675
-0.976691
1.35718
1.40041
-0.441568
-0.959141
-1.12733
-0.520987
-0.512613
1.74894
0.369044
1.26924
-1.00425
1.75349
1.27873
1.219
1.32651
-0.579462
0.34729
-0.525731
0.869624
-0.851329
1.34573
0.714746
-0.321372
1.24669
1.43395
1.43877
1.40605
0.0475378
1.43959
0.105138
0.829859
1.18874
-0.355041
-0.918464
-0.814712
-0.510743
1.41162
1.39509
1.41106
-0.244837
-0.416151
-0.531198
-0.63187
1.4083
1.64034
1.42167
-0.883096
-0.949815
-0.88397
-0.331449
-0.561901
-0.567262
0.0552432
1.39502
-1.32135
-0.765848
0.272394
0.325288
1.06563
-0.973788
-0.537273
-0.468242
1.32311
1.82728
0.345968
1.50227
1.85173
1.00144
1.58412
-0.97073
-0.573627
1.84137
-0.543211
0.727027
-0.823861
-0.510421
-0.706455
-0.741654
1.38219
1.1529
1.54259
1.50554
-0.00463488
1.20046
0.351414
0.246742
-0.549791
1.51082
1.06749
1.4168
1.4335
0.0071507
0.227139
1.43088
0.204442
-0.573696
-0.752447
-0.718528
1.00053
-0.732351
1.36068
1.08876
-0.544987
1.67181
-0.897881
-0.091942
1.38254
-0.910353
-0.648135
-0.115812
0.933251
-0.781951
-0.854575
1.26458
1.42505
0.70336
0.483346
-0.260181
-0.55583
0.00833665
-1.07565
0.248948
1.02064
-0.76963
-0.726969
1.61371
0.564427
0.67543
-0.71909
-0.509104
1.40082
1.47548
0.857444
0.954325
-0.713334
-0.571617
-0.347685
0.774661
0.863592
-0.709352
1.23718
0.43561
-0.705182
1.78289
-0.708233
-0.0853072
-0.51166
-0.641055
1.26749
-0.726041
-1.0728
-0.585261
0.422381
-0.766761
0.275966
-1.20155
-0.0503128
1.54415
-0.826738
0.237205
-0.615212
0.0769563
1.68409
1.83076
1.57939
1.40705
1.55611
-0.540873
1.39302
-0.922181
1.47026
-0.577062
-0.55632
1.70246
-0.0599941
0.895569
-1.16253
1.81803
0.252299
1.75514
0.931343
1.15258
-0.80076
-0.851385
-0.571601
-0.810892
1.71008
1.56391
1.39016
1.03671
1.3957
1.29222
1.15518
-0.703202
-0.53251
0.55988
0.000265808
1.12799
1.40922
0.384961
-0.793485
-0.70042
-0.446657
-0.573633
-0.827668
1.78544
1.42794
1.40473
0.0742306
0.16897
1.42706
0.129958
-0.5575
-0.0511215
-0.540065
1.11788
-0.765713
-0.714596
0.105521
1.39956
-0.410909
-0.512965
1.39508
1.02862
1.11612
1.3942
-0.561876
1.21743
1.59758
1.26001
-0.566
1.38892
0.775279
0.774214
-0.805231
-0.741127
1.81091
0.679461
-0.833849
0.478341
1.25931
1.35258
-0.590211
-0.691933
0.189289
-0.678735
-0.502923
-1.09377
-0.0116255
1.38913
-1.02155
1.38432
1.6929
1.52205
1.37692
1.44858
1.51072
1.39794
-0.855726
-0.259394
-0.196661
-0.663194
-0.383168
-0.712803
1.52377
1.4104
-0.515033
1.36305
-1.15269
-0.668691
-0.709389
-0.386827
0.947993
-0.454694
1.38549
1.24756
-0.935684
0.00163394
1.72774
-0.376264
0.0913591
-0.45737
-1.10205
-0.675308
1.43908
1.1174
1.50748
-0.635185
0.137133
-0.541192
-0.131717
-0.516009
0.236448
-1.12657
-0.405689
1.26019
-0.332231
1.88844
-0.971515
-0.137485
-0.601982
-0.709337
1.32816
-0.606672
-0.666783
-0.523829
0.169093
1.53914
1.63915
-0.329284
0.232874
1.16862
-0.593741
-0.450029
1.51255
-0.989794
-1.29003
-0.847652
1.09162
0.00831313
-0.519614
1.38936
0.317902
-0.759803
1.39991
-1.04841
-1.18128
-1.06647
-0.797914
0.381309
-0.523963
1.66159
-0.539968
0.589153
-0.576079
1.13346
-0.600089
-0.812722
0.974551
1.16194
1.4523
1.35829
1.55095
-0.724482
1.24591
0.96151
-1.08893
1.31662
-0.155181
-0.641487
-0.335761
1.59567
1.57803
-0.627096
-0.890425
-0.728176
1.358
-1.04271
0.399783
-0.408681
-0.719722
1.63208
1.37096
-0.823071
-1.16489
-0.819531
-0.781826
1.2981
-0.953419
1.33371
0.528522
1.03777
1.17947
-0.688442
-0.927302
1.29434
-0.714582
0.181904
1.67596
-0.52857
-0.773653
1.15369
-1.10002
-1.1102
0.263649
-0.593139
1.75655
-0.191752
0.582581
-0.84003
1.74559
-0.883611
-1.18942
0.96942
-0.395563
-0.576032
1.74858
1.0012
1.43509
-1.10325
1.57353
-0.410051
-0.294378
-1.06397
-1.06875
-0.903546
1.60477
0.897114
-0.515508
-0.869515
-0.529286
1.49915
-1.27909
1.71955
-0.574257
1.08805
-0.752511
0.677192
0.857626
0.820926
0.7337
0.597268
-1.22244
1.37023
-1.03984
-0.512669
-0.426981
0.690909
1.76105
0.166251
-1.11545
-0.924099
-0.760807
0.561389
-0.960599
-0.745554
1.26561
0.607217
-0.800021
1.82694
-0.524655
-1.26705
1.76746
-0.772037
0.436127
-1.18811
-0.710881
-0.73681
1.80024
-0.699409
1.68858
-0.731986
-0.994885
1.54227
0.266304
-1.18545
0.886444
-0.572765
0.289715
0.0396574
-0.746421
1.20689
-0.531566
-0.749626
-0.713328
-0.711343
-0.582014
1.24327
0.0991286
0.0738621
-0.809889
1.71424
-0.467455
-1.13565
-0.667491
0.245204
-0.851206
-0.691644
-0.792237
0.372131
1.58855
-0.917923
-0.56859
-1.07205
-0.241876
0.0109781
-0.587734
1.8019
1.72568
0.724579
-0.910608
-0.577815
0.632215
-0.575952
1.8041
0.500338
1.50281
1.0289
1.72247
0.370477
-0.854223
-0.859665
0.203605
-1.04181
0.202463
0.301009
-0.732663
1.70444
0.230431
0.513703
0.142998
-0.552095
-0.953042
)
;

boundaryField
{
    frontback
    {
        type            empty;
    }
    Top
    {
        type            zeroGradient;
    }
    outlet
    {
        type            fixedValue;
        value           uniform 0;
    }
    bottom
    {
        type            zeroGradient;
    }
    Inlet
    {
        type            zeroGradient;
    }
    rectangle
    {
        type            zeroGradient;
    }
}


// ************************************************************************* //
