/*--------------------------------*- C++ -*----------------------------------*\
| =========                 |                                                 |
| \\      /  F ield         | OpenFOAM: The Open Source CFD Toolbox           |
|  \\    /   O peration     | Version:  2306                                  |
|   \\  /    A nd           | Website:  www.openfoam.com                      |
|    \\/     M anipulation  |                                                 |
\*---------------------------------------------------------------------------*/
FoamFile
{
    version     2.0;
    format      ascii;
    arch        "LSB;label=32;scalar=64";
    class       surfaceScalarField;
    location    "41";
    object      phi;
}
// * * * * * * * * * * * * * * * * * * * * * * * * * * * * * * * * * * * * * //

dimensions      [0 3 -1 0 0 0 0];

oriented        oriented;

internalField   nonuniform List<scalar> 
3181
(
-0.985791
0.37426
0.611531
-0.376434
0.349786
0.0266473
0.497438
-0.344299
-0.153139
0.107195
-0.181332
0.074137
-0.048773
0.086766
-0.0379931
1.25576
-0.610365
-0.645395
0.139588
-0.133718
-0.0058698
-0.0223311
0.00167436
0.0206567
0.464463
-0.750566
0.286103
-0.0776091
0.12302
-0.0454106
-0.0107923
-0.0558173
0.0666096
0.153974
0.0285336
-0.182508
-0.00942396
0.0252658
-0.0158418
-1.09733
0.157033
0.940294
-0.303179
0.669242
-0.366063
-1.1247
0.645202
0.479496
0.0838129
-0.929805
0.845992
-0.202979
0.298634
-0.0956552
0.115651
-0.873364
0.00377884
0.0670112
-0.0707901
0.0622866
-0.1015
0.0392129
-0.0749067
0.0710952
0.00381144
1.06114
-1.04106
-0.020082
0.0389825
0.0200119
-0.0589944
-0.957903
0.335372
0.62253
-0.104206
0.211401
0.298241
-0.263956
-0.0342857
0.0274319
0.0582257
-0.0856576
-0.438746
0.362698
0.0760479
-0.0361847
-0.0223495
0.0245887
-0.00223919
-0.0463577
-0.911545
0.0716937
-0.0684623
-0.00323136
0.365123
1.02493
-1.39006
-0.0571041
0.0421974
0.0149066
0.190761
0.29449
-0.485252
1.61468
-1.24956
0.0805004
-0.0182138
1.67859
-0.915477
-0.763112
-0.0610226
1.31678
0.0251814
-0.0346054
-0.0655811
-0.00932556
-0.395233
0.0920535
-0.164515
0.0989339
-0.660837
0.124056
0.536781
-0.132449
0.0548396
-0.160117
0.163962
-0.00384441
-0.25352
-0.0755187
0.329039
-0.306673
1.57549
-1.26881
0.0851983
0.245867
-0.331065
-0.0185707
-0.108023
0.114614
-0.00659087
0.471896
0.197346
-0.092798
0.160668
-0.0678703
0.0975037
-0.0258101
-0.158442
0.182296
-0.0238539
0.152711
0.0599919
-0.212703
0.100856
-0.10646
0.00560432
1.30635
0.372236
-0.816589
-0.169202
0.328996
-1.06575
0.736756
0.581444
0.247317
-0.828762
-0.469638
-0.223083
0.692721
-1.52988
1.46885
-0.291602
0.873046
-0.301956
-0.103543
0.405499
-0.218889
-0.219857
-0.177297
0.175519
0.00177759
0.167459
0.271301
-0.43876
-0.292333
0.756796
-0.00886693
-0.0134641
-1.54518
1.87417
0.160995
0.137246
-0.159316
-0.110114
0.26943
-0.26548
0.374986
-0.109506
-0.07268
0.0814098
-0.00872977
-1.85185
-0.920207
0.0112623
0.908945
-0.0202147
-0.0368893
-1.17637
0.857288
0.319078
0.583712
-0.349885
-0.233827
-1.73853
0.208655
1.10059
-0.943557
-0.76124
1.14225
-0.201954
1.05423
0.187413
-0.167483
-0.0199296
0.699872
-1.31024
1.27119
-1.27119
-0.00734588
-0.00245256
0.00979844
-0.193023
-0.0533192
0.246342
0.0917812
-0.0868458
-0.00493544
-0.45776
0.810544
-0.352784
-0.043953
-0.204995
0.248948
-1.08213
0.041071
0.370421
0.0582336
-0.428655
0.121004
-0.901088
1.14841
0.0821254
0.167028
-0.249154
-0.0183778
-0.140064
-0.611091
0.340322
0.27077
-0.355558
-0.255533
0.124651
-1.02574
0.306919
-0.764679
0.925371
-0.841558
0.0286595
0.134584
-0.163244
0.0971408
0.0560651
-0.153206
-1.20164
-0.141378
1.34302
-0.221579
0.38519
-0.163611
-0.460126
-0.301137
0.761262
-0.512623
-0.663743
0.172796
-0.0875981
-0.144333
0.138918
0.00541502
-0.0802744
-0.0232105
0.103485
-0.592676
-0.15789
0.0853159
-0.0219547
-0.0633612
-1.05931
-0.547024
1.60633
1.63678
-0.0612916
-0.0201683
0.0128225
0.0103581
0.150637
-0.214193
0.404954
-0.0304842
0.300805
-0.270321
0.1502
0.0736091
-0.223809
-0.0205425
0.368168
-0.347626
-0.592357
-0.53234
-1.62045
0.561144
-0.0718303
0.153956
-0.0902746
0.168226
-0.077951
-0.223522
0.022867
0.116721
-0.0554889
0.0586818
-0.00319293
-0.0856014
-0.017478
0.103079
0.0712862
-0.0712862
-0.173976
0.196843
0.228154
0.215383
0.0957708
0.0865253
-1.13208
0.839744
-1.57111
0.0552943
1.51581
0.00432662
-0.00738813
0.00306151
-0.0287562
-0.0554088
0.0841649
0.493577
-0.00593645
-0.487641
0.0120069
-0.0128883
0.000881437
-0.186577
0.0126012
0.171729
0.638814
-0.344024
0.515754
-0.0749268
-1.12672
-0.18443
0.135657
0.458615
-0.2799
-0.178715
0.0894917
-0.0912682
0.00177653
0.0469236
-0.300443
0.0227877
-0.942995
0.0472852
-0.13756
-0.263522
-0.377475
0.0946149
1.45833
-0.9915
-0.466835
1.13193
0.326401
0.0650718
0.263967
-0.000526721
0.00485334
0.133748
-0.0206458
-0.113102
-0.243605
-0.606128
0.849733
-0.331694
0.815522
0.0860307
-0.959394
0.192957
0.00968457
-0.00770724
-0.00197733
-0.872237
-0.0980717
0.970309
0.249102
-1.12134
-0.32337
0.693791
-0.907017
-0.0131062
0.00617557
-0.286291
0.280116
1.51789
-1.65613
0.138231
-0.0923229
-0.0921068
0.58832
-0.831925
0.462461
-0.376863
-0.0855972
-0.309
-0.133306
0.442305
0.202641
-1.01046
-0.0716748
-0.00903456
-0.0617555
-0.595309
0.372226
-0.264503
0.019765
0.244738
0.132564
-0.224887
-0.0782515
0.0782515
-0.131199
0.144465
-0.0132662
-0.239062
-1.33205
-0.0435814
0.000409861
0.0431715
0.0897084
-0.173624
0.0839159
-0.237016
0.0597192
1.75985
-0.334192
-1.42566
-0.165996
0.420273
-0.254277
0.00533149
-0.00617151
0.000840027
-0.85669
0.396564
-0.198903
-0.0051088
0.204011
-0.153544
0.321003
-0.110694
0.10889
0.0018039
0.0827308
0.0119211
-0.0946519
-0.0177665
-0.0192822
0.0370487
1.13531
-0.114333
-1.02098
-0.209423
-0.0473863
0.256809
-0.674338
0.663008
0.0113296
-0.00885469
0.0288666
-0.007234
0.00813426
-0.000900262
-0.0233327
-0.0356617
0.623873
1.0129
0.167654
-0.903461
0.735807
-0.159274
1.98685
-1.82757
0.355072
-0.100825
1.37201
0.0803939
0.220166
-0.0699665
-0.0772055
-0.0308175
0.216111
0.173987
-0.0768462
0.733256
-0.397884
0.0579403
0.188402
0.0638464
-0.183577
0.119731
-0.714341
-0.120111
0.834453
0.049719
-0.049719
-0.0398028
-0.28378
0.57827
0.00945308
-0.218876
0.271764
0.0268709
0.0279084
-0.0997387
0.148987
-0.159779
-0.348352
0.304399
0.000798882
0.0542647
-0.0550635
0.366706
-0.338172
-0.433073
0.8269
-0.393827
-0.194003
0.259075
0.179689
-0.459588
-0.198047
0.572308
0.153711
-0.0311624
0.0311624
0.258091
0.120352
-0.378443
0.35491
0.0302805
0.000144548
-0.00316338
0.00301883
-0.164037
0.109959
-0.0246435
-0.0522899
0.201277
-0.19485
0.259725
-0.0648746
0.145473
0.0285144
-0.375101
0.111145
0.209406
-0.0639337
-0.049762
-0.0609323
0.0147967
0.000365721
-0.0151624
0.137973
-0.0980245
-0.0399481
-0.042333
0.42349
-0.381157
0.0129619
-0.0218288
0.113331
-0.117993
0.00466203
0.0253164
0.0576521
-0.490726
-0.0524018
0.0352203
0.0171815
-0.0287618
0.0747713
-0.0460095
-0.102685
0.0961529
-0.720026
0.623873
-0.0184
-1.22922
-0.304732
1.53395
0.549572
0.687067
-1.23664
0.0770023
0.0935776
0.274591
0.301986
0.262527
-0.564513
-0.214048
0.277895
0.127001
-0.846864
0.719863
-0.0729274
0.0441656
-0.0282447
0.0192102
-0.973917
0.44061
0.533306
0.9915
-0.866849
-1.45737
1.31599
-1.51789
1.57319
0.0346254
-0.102496
-0.00360994
-0.00362406
0.00133253
0.750618
-0.623617
0.109883
-0.0625975
0.407725
0.734522
-0.113497
-1.5808
1.42153
-0.655206
-0.476871
-0.244765
-0.416071
-0.0216435
-0.154947
0.20187
-0.566191
-0.344674
0.178678
0.732424
-0.238846
-0.773786
-0.683587
0.755973
-0.0610385
-0.0118889
0.256662
0.0347061
-0.0347061
0.668723
0.15089
-0.819612
-0.227182
0.895905
0.0349086
-0.703381
0.668472
0.232442
-0.017059
0.00202852
0.0130912
-0.0151197
-1.06575
-1.43531
1.37402
0.88423
0.875624
-0.0332713
-0.126846
-0.249186
0.721083
-0.212742
-0.0517611
-0.00244887
-0.0702312
-0.0611683
0.117233
0.393984
-0.269928
-0.730133
-0.307813
-0.00444684
0.0802532
-0.0758064
-0.993526
0.892701
-0.0242461
-0.0265712
0.0508173
0.019264
-0.0197907
0.0644905
-0.0663578
0.00186726
0.012806
0.392693
0.0511275
0.0383643
-0.000822125
0.0110375
-0.0102154
-0.0173059
-0.181597
-0.754627
0.394276
0.360351
1.24975
-2.14015
0.8904
0.148467
-0.171298
0.0228307
0.0256496
0.147147
-0.500694
-0.770495
0.022693
0.0417975
-0.138345
0.0507469
0.153733
-0.367925
-2.18531
0.672854
1.51245
0.0519784
0.0866072
0.0513654
-0.714341
1.23941
-0.104101
-0.0257939
-0.0405639
0.0469827
-0.642434
-0.0319041
0.065076
0.14433
-0.971022
0.01066
-0.44942
0.113957
0.370678
-0.312445
-0.101049
0.015448
0.216662
0.846428
-1.06309
0.107987
-0.693263
0.585276
-0.880395
0.760284
-0.435995
-0.0853978
0.521393
-2.95094e-05
-0.000813141
0.00084265
0.188199
-0.497199
0.225054
-0.13088
-0.0941738
0.0495005
0.0252708
-0.0714359
0.0669891
-0.0285325
0.0124004
-0.035733
0.0188786
0.0975879
-0.116467
0.584481
0.00371185
-0.003751
3.91412e-05
0.00246169
-0.0242905
0.861863
0.0312837
-0.123391
-0.161028
-1.27428
0.182217
0.0502249
0.00662072
0.0799865
-0.521393
0.770495
-0.0598695
-0.213069
0.272938
-0.271216
0.103733
0.120709
-0.140639
-0.00109481
0.0825046
0.0136812
-2.00546
-0.179848
-0.0572932
0.0761718
0.742659
-0.263163
-0.131726
0.221434
0.369351
-0.0084528
0.00859735
-0.00766041
0.0789467
0.138341
0.236645
0.158416
-0.355105
0.196688
0.0967261
0.542088
-0.0215332
-0.110915
0.83952
-0.200661
-0.638859
-0.435995
-0.328375
1.57812
1.61468
-0.245418
0.159404
0.0860142
0.399487
-0.0825158
-0.316972
-0.825398
-0.913132
-0.0839045
0.0855183
-0.00161383
-0.249284
0.0471633
0.20212
0.279148
-0.836552
0.557404
0.0373409
0.670711
-0.708052
-0.0418963
-0.102437
-0.0563467
0.00394488
0.220339
0.0377522
0.00277351
-0.00280302
0.247841
-0.0698374
-0.178003
0.0893981
0.0443499
0.00982
0.00944402
0.00508785
0.129496
0.00647856
0.00165571
0.209401
-0.414396
-0.0994929
0.78656
-0.0247294
-0.0249896
-0.990854
-0.019602
-0.0920818
-0.0652761
-0.0357734
0.200845
0.261616
-0.0060615
-0.286766
0.292827
0.135877
0.04634
-0.937015
-0.00654271
-0.00690836
-0.64949
0.745643
-0.0159326
0.169644
0.417161
-1.12054
0.191352
-0.419676
0.228324
0.0997906
0.201014
0.00716933
-0.0079913
0.000821971
-0.0404179
0.0226514
-0.018474
-0.12159
0.728025
-0.620039
-0.0121811
-0.00808708
0.065152
0.332787
-0.174371
-0.172972
0.782461
-0.0878925
-0.694569
-0.129778
0.149543
-0.514379
-0.240248
-0.539945
0.563869
-0.552571
-0.011298
-0.0406514
0.0284703
-1.5808
0.578811
-0.578811
-1.48608
1.48608
0.750618
-0.406343
0.490826
-0.0844836
-0.900443
-0.0904115
0.671634
-0.392066
-0.279568
0.141449
-0.2194
-0.0134487
-0.00671969
-0.933932
-0.0918064
-0.93308
0.213054
0.0383603
0.0418929
0.696035
-0.0921909
-0.603844
1.49289
0.121788
-0.00383428
0.0110036
-0.957097
0.587902
0.238998
-0.0904322
-0.644205
0.734637
0.0814269
-0.917575
-0.738551
0.224088
-0.816445
-0.834453
1.23221
-0.397756
-0.137861
0.266993
-0.129132
-0.0425853
0.73862
-0.114573
-0.893944
0.893944
-1.03727
0.275316
0.761958
0.000613109
0.00309875
-0.0441938
-0.459254
0.919632
-0.0623435
-0.0947032
-0.0322572
-0.0127007
0.000195091
0.0051364
1.22083
-1.30623
-0.360827
0.443558
-0.68157
1.08345
-0.401883
-0.0632872
0.0859802
0.133999
-0.0603894
0.338264
0.000190534
0.0250752
0.362228
0.0612628
0.0457574
-0.265446
0.219689
0.131514
0.0324474
0.105242
0.194225
1.24462
0.629552
-0.412257
0.0305866
0.381671
-0.4948
0.396728
0.262079
-0.163145
0.0729749
-0.76541
0.692435
-0.8186
0.102814
-0.451165
-0.0749706
0.122112
-0.0471412
0.110738
-0.185708
-0.477445
-0.117864
-0.0790914
0.0825741
-0.00348277
0.00314294
0.00333562
-0.0060592
-0.0197509
0.623617
-0.585276
-0.0383411
-0.276773
0.286226
0.883769
0.675768
-0.276281
0.0208149
-0.0204051
0.0487754
-0.425639
0.150212
-0.544422
0.39421
-0.00797482
-1.64766e-05
-0.197186
-0.106221
0.303406
0.00721518
-0.0140245
0.00680931
-0.0280459
0.0196135
0.00843244
-0.232062
-1.07817
-0.111163
-1.11806
-0.214918
-0.866849
1.57319
1.31599
-0.179957
-0.164053
0.116667
-0.0693079
0.0755174
-0.00620949
-0.210977
0.200188
0.0107893
0.588007
0.0836266
-0.00297849
-0.00499633
0.130559
-0.947599
0.0322572
-0.0613737
0.0040805
-0.473467
0.522242
-0.0206379
0.0485463
-0.24931
0.616016
1.13193
0.313916
-0.0562541
0.000810468
0.0554437
1.59725
-0.281254
-0.0563827
-0.0500778
-1.03068
0.163832
0.449204
-0.246562
-0.491413
-0.14951
0.640923
0.856186
-0.388432
-0.467753
-0.198324
0.192262
-1.42153
0.355778
0.00104192
-0.0426296
0.0415877
0.490775
1.49607
-0.17106
0.173088
-0.227274
2.13606
-0.562871
-0.665645
0.0364212
0.629224
0.410011
0.0156107
-0.364441
0.483237
0.761743
0.291761
0.0712867
-0.0199213
-1.57227
0.184627
1.38765
1.37501
0.047565
-0.0483871
-0.0564285
-0.376314
0.12385
-0.337898
0.38238
0.400081
0.00843071
-0.0490821
0.0866857
-0.332104
-0.0227279
0.0138732
0.105146
-0.1409
0.0357537
-0.281198
0.29162
-0.0104222
0.0982674
-0.18616
-0.809488
0.411542
0.397946
-0.0764274
-0.0344109
0.110838
0.294365
0.038422
0.817379
0.422036
-0.680791
0.680791
0.736756
1.49289
-0.693263
0.299785
0.461958
-0.32034
-0.058103
0.98045
-0.392443
0.0132284
-0.890758
0.877529
0.112417
0.0106025
0.0249282
0.722573
0.0948061
0.0224797
-0.165827
-0.107049
0.272876
0.300761
-0.481968
0.316141
-1.15454
-0.306269
-0.667563
0.0450388
-0.00383648
8.54868e-05
-0.231255
-0.0585886
-0.0172178
0.0303642
-0.162229
0.131865
-0.669685
-0.367589
-0.00532199
0.0635477
-0.219455
-0.623233
0.842687
-0.533994
0.355279
-0.183173
0.237438
0.219759
0.000334408
-0.0285792
-1.1222
0.788004
0.037586
0.0757451
0.00182673
0.0633252
0.217446
0.00760809
-0.45187
0.469615
0.555255
0.753159
0.864829
-0.791854
0.840514
-0.471163
-0.651349
0.192095
0.16106
-0.798308
0.78236
0.0159477
0.47892
-0.0965403
-0.215719
-0.145109
-0.0697768
-0.017069
0.948498
-0.838683
-0.109815
-0.202453
0.125606
0.0254044
0.113514
0.876823
0.0586925
-0.0678852
0.00919275
-0.309976
-0.0346973
-0.852022
0.632567
0.195439
1.14758
1.90065
-0.407753
0.159956
0.547953
-0.707909
-0.298666
0.0542246
-0.00825677
0.00859118
-0.535317
-0.116032
0.245668
-0.113104
-0.204138
0.151848
-0.501444
0.247166
-0.992592
0.279849
-0.300511
-0.894042
1.54794
-0.0321238
-0.303251
-0.0501561
-0.423311
0.581858
0.323957
0.0382706
1.0626
-0.783456
-0.208701
0.144768
-0.302404
0.121406
0.180998
-0.00861489
0.00965681
0.053073
-0.061148
-0.22005
-0.100899
0.697984
-0.432017
-0.265967
0.321754
0.1215
-0.0880467
-0.033453
0.248384
0.0755724
-0.239152
-0.997487
-0.103477
0.15046
-0.0829511
0.141644
-0.0899618
0.0439523
-0.0298232
0.00885861
0.0209646
-0.0133545
0.0059664
-0.260473
0.0768956
-0.0405214
-0.525322
0.387461
0.0323386
0.0803019
-0.156729
-0.698318
1.18029
-0.780213
0.0157637
-0.209234
0.19347
-0.149739
-0.521069
0.670809
0.0566873
-0.699121
-0.531291
-0.278197
0.0332275
0.00267148
-0.035899
-0.242521
-0.563869
-0.150472
-0.118625
-1.57227
-0.249648
0.179681
0.0826636
-1.19381
-0.3829
0.0691352
0.313765
0.247861
0.101153
0.520141
0.301718
-0.821858
-0.0469172
-0.0141214
0.454304
-0.48843
0.0341258
-0.211497
0.119364
0.277364
-0.26014
0.195266
0.156552
-0.0371882
0.620705
-0.280383
0.00906284
-0.00773031
-0.0114205
0.835753
-0.0825936
0.7701
0.0860856
-1.90579
-0.0996699
0.265538
0.714912
0.862146
-0.0226258
-0.0208307
-1.90065
-0.667563
-0.712273
0.723535
0.0821286
-0.773786
0.670711
0.578286
-0.929094
1.05877
0.00306364
-0.801372
-0.316862
0.640336
-0.757318
0.116982
0.0740462
0.0474534
-0.732025
-0.47114
2.18171
-1.71057
-0.00180506
-0.00203142
-0.282713
0.230952
0.697023
0.206609
-0.194008
-0.171713
1.22294
-1.76996
0.368136
-0.452619
0.752195
-0.586554
-0.165641
-1.62561
1.81024
0.609777
-1.23301
0.132013
0.916505
-1.38765
0.00481492
0.227387
-0.00556298
-0.0191768
-0.072905
0.0122337
-0.0313727
0.019139
-1.03018
-0.0329126
0.301239
-0.80609
-0.271291
0.794902
-0.523611
0.396197
0.687257
-0.0440914
0.0470551
-0.0029638
-0.224134
1.44707
-0.720897
1.23411
0.658475
-0.929766
0.336753
-0.109366
-0.583861
-0.408731
0.576236
0.175959
-0.0495647
-0.887694
-1.89599
0.06842
0.916505
0.0522654
-0.858356
0.830746
-0.64647
-0.184276
-0.981876
0.398014
0.0100151
0.111068
0.00215998
-0.113228
-0.971484
0.562753
-0.197786
0.914124
-0.920666
0.205357
-0.222663
-0.102561
0.256294
0.256134
0.48971
-0.113019
-1.09436
0.399792
0.309901
-0.0181405
-0.552788
-0.5183
1.07109
0.447212
0.0224742
-0.009383
-0.740964
0.708052
0.156523
-0.380657
-1.37201
1.59586
-0.223842
0.0805455
0.714357
0.768145
-0.804329
-0.493493
-0.449502
-0.47166
-0.499824
0.804187
-0.804187
0.688699
-0.688699
-0.740964
-1.80451
1.80451
-1.59586
-0.398748
-0.258313
-0.144354
-0.451493
0.451493
0.156523
-0.380657
0.768145
0.763258
-0.763258
0.804329
0.757932
-0.757932
0.506507
0.52834
0.4817
-0.29497
-0.500176
-0.550498
1.07884
-0.000168635
-0.241882
0.818118
1.16461
-0.554831
-0.535848
-0.0234725
0.0547563
-0.883169
0.0848576
0.798311
0.00602475
-0.0276682
-0.992537
0.594654
0.860795
-0.561009
-0.122073
0.00224837
0.00257857
-0.827965
-0.0754962
-0.533306
-0.0069961
0.0262063
0.466454
0.0231406
-0.0637045
0.186205
-0.00191528
-0.00874192
0.0106572
-0.813125
0.0687882
0.744337
-0.696916
0.95305
-0.522336
0.432058
0.0902778
0.914613
-0.747161
-0.167452
0.0853565
0.319597
-0.0145488
-0.0645425
-0.0711211
-0.0127834
-0.212422
-0.781104
-0.879845
0.093834
-0.750402
0.79381
-0.043408
0.119431
-0.900402
0.780972
-0.804856
0.901228
-0.0963722
-0.0109952
-0.00235934
0.020708
-0.307
0.896947
-0.720988
-0.0875504
-0.795618
0.914671
-0.0888285
-0.825843
-0.0979875
0.0347003
0.467692
0.827063
0.251552
0.492902
-0.409275
0.0953372
-0.890956
1.24956
0.236526
-0.795101
-0.00627094
1.01596
-0.896533
1.03518
1.06984
-1.55848
0.488632
-0.886684
-0.105854
-0.436178
0.0550206
-0.123816
0.416643
-0.78286
0.78286
-0.636667
-0.0802736
-0.862976
0.115815
-1.01366
0.923225
0.0823882
-0.213269
-0.0537316
0.0461781
0.0125037
0.1843
0.831663
0.820955
0.775141
0.134524
-0.909665
-1.47081
0.91598
-0.785879
-0.0982262
0.884105
0.157541
-0.878438
-0.678676
0.884898
-0.789561
-0.0997114
0.461357
0.00163936
-0.462997
-0.786378
1.55447
-0.768091
-0.0843907
0.167828
-0.0834376
-0.88559
-0.827615
0.0772136
0.561652
0.278862
-1.54538
0.0493746
-0.607132
0.607132
-0.757871
-0.33649
0.870562
-0.775756
0.00104336
0.410499
0.786672
-0.186713
-0.0414873
-1.03669
1.52702
-1.39475
-0.132267
-0.705817
-1.43433
0.140965
-0.400968
1.0826
-1.1867
0.301911
0.323408
-0.238051
0.783399
-0.879772
1.56883
-0.652854
-0.138171
0.732825
0.605295
-0.605295
-0.0267139
0.00692314
0.122207
-0.0918433
0.854384
0.700085
0.247354
0.00204999
0.00855037
-0.0106004
-0.68037
0.690838
-0.0104679
-0.345801
-1.21267
0.102191
-0.891752
-1.11557
1.34074
-0.225173
-0.0777654
0.87153
-1.94133
1.59553
-0.757228
0.615999
-0.647904
-0.686214
0.171835
0.314347
0.0252228
0.15652
-0.855923
1.17027
-0.00183736
-0.744377
0.0570279
0.736782
0.684204
-0.068205
0.0659859
0.795878
-0.401298
0.426129
-0.0248303
-0.35256
0.471772
-0.140672
-0.893863
0.678243
0.21562
-0.684574
-0.131871
0.933791
-0.181398
0.21915
-0.0293043
0.485868
0.514132
-0.772171
-0.107601
-0.918034
-1.02391
-0.933622
-0.156569
0.40051
0.59949
-0.00725212
-0.0170384
-0.860999
-0.0484052
-0.599498
-0.15889
-0.227017
0.385908
0.0115283
0.00215294
0.123097
0.0781798
-0.128211
-0.132261
0.765676
-0.653235
0.719221
0.00611929
-0.862042
0.395179
-0.387609
-0.00757018
-0.743571
-0.179524
0.923095
-0.227275
0.214743
-0.0263415
-0.11546
-0.109428
-0.00382548
0.749357
-0.142225
0.102941
0.116818
-0.733661
0.0532906
0.919936
0.425893
0.694068
-1.08789
0.30684
-0.276348
1.01087
0.000776993
0.123518
-0.350792
-0.00131817
-0.0174949
0.0264714
0.676551
0.243385
0.672683
-0.0208507
-0.651832
0.842889
-0.0340456
0.00293179
0.0311138
0.138861
0.00199136
0.000782152
0.208817
-0.10367
1.00088
-0.999838
-0.0531681
0.725851
0.00314795
0.266031
-0.408459
-1.14373
1.39013
-0.246397
-0.777884
0.823216
-0.0453318
-1.23986
0.248535
0.37217
-0.089514
1.53094
-0.472151
-0.050185
0.267299
0.432619
0.170072
-0.602692
0.369454
0.0227618
0.668076
-0.571386
0.582285
-0.0108992
0.844824
-0.262965
-0.0186016
0.0167092
0.00189239
0.704718
-0.0103128
-0.0818356
0.017621
1.25342
-0.290766
-0.949099
0.076777
0.158678
-0.193089
0.240235
-0.158967
-0.0812679
0.0192703
-0.00703659
-0.383974
-0.104455
-0.0641349
0.20443
-0.0242335
-0.0698972
0.242074
0.0894239
0.00249495
0.0226107
0.761746
0.784368
0.391647
-1.17602
0.0255286
0.635746
-0.661274
0.643692
0.120158
-0.0221135
-0.0807865
0.1029
-0.0599923
-0.0375919
-1.35716
-0.0175496
0.773523
0.73397
0.76223
-1.2594
0.527378
0.801233
-0.0331837
-0.139788
-0.919623
0.123437
-0.27312
-0.565334
-0.17025
0.702389
0.0593567
0.0145851
1.01484
-0.766309
0.139342
0.170546
0.00628861
-0.107788
0.421598
-0.059808
-1.31175
-0.0615694
0.147476
-0.398568
0.424097
-0.140827
0.853816
-0.0173618
-0.108662
-0.00501019
0.000542574
0.00446762
-0.970528
0.707562
0.00312136
0.985065
-0.225306
-0.625903
0.665441
-0.0395375
0.292465
0.75568
-0.333941
0.326371
0.0842605
-0.186822
0.644838
0.110842
1.13697
-0.244272
-0.286604
0.779506
-0.698749
0.942134
-0.577551
0.353292
0.224258
0.391909
-0.0705873
0.0401991
0.0743774
-0.0513835
1.27423
0.73543
0.0658026
0.643453
0.20628
-0.884546
-0.0830949
-0.685754
0.679483
-0.0309985
-0.553235
0.394345
0.852412
0.6676
0.029831
0.132171
-0.12582
-0.325346
0.480818
0.699477
-0.0160863
0.0130085
0.573263
0.368871
0.482333
1.124
-0.0849483
0.899634
-0.722511
0.916812
-0.194301
-0.415141
-0.162409
-0.0168251
-0.0797567
-0.1305
0.892377
0.0103125
0.000724966
0.625491
-0.19813
-0.889765
0.619195
-0.130869
0.212053
0.800427
0.264717
-1.06514
0.276529
-0.922999
0.259424
-1.03964
-0.158744
0.744749
-0.586005
-0.682371
-0.0125818
-0.102878
-0.0573855
-0.573846
0.000783572
-0.0306068
1.17589
0.312923
-0.195613
-0.11731
-0.0381691
-0.566191
-0.181197
0.304716
-1.47391
-0.00596286
0.00404758
-0.965185
-0.0561775
-0.610089
0.0387026
0.56828
0.284133
0.894106
0.639845
-0.22089
-0.391965
0.612855
-0.0359495
-0.619911
0.619911
-0.231607
-0.979629
1.21124
0.0325733
-0.162352
0.66463
-0.0963506
-0.217853
0.306292
-0.0871423
0.152186
0.253592
-0.549616
0.194729
-0.100114
-0.964655
0.481724
0.100561
0.0818412
-0.00134081
-1.84208
-1.61996
-0.629484
0.692778
0.307222
-1.61996
0.692778
-0.49572
-0.561161
-0.49572
-0.696406
0.696406
0.303594
-0.0133325
-0.106089
-0.0804591
0.242328
0.130088
-0.502323
0.634597
-0.015402
0.636032
-0.505886
-0.130145
-0.0427568
0.0370951
0.0056617
-0.0183678
0.0204178
-0.573538
0.0175551
-0.0748469
-0.434539
-0.378821
0.147566
0.0334668
0.81434
-0.266387
-0.459943
0.0366322
-0.0219287
-0.112379
0.00146397
0.696196
0.0773272
-0.526675
-0.0120124
0.00179701
-0.0190823
0.083102
0.543756
-0.481857
-0.0618996
1.72441
0.566392
-0.758855
0.957849
0.0122774
-0.0676861
0.115766
-0.047494
-0.000379258
1.19946
-0.399034
0.00194909
0.0430897
0.0138767
-1.32419
0.0178534
-0.0178534
0.0238211
-0.0238211
0.00487462
-0.00487462
-0.0247294
0.366565
0.466858
0.127131
-0.678528
0.439682
0.179233
0.029584
-0.087447
-0.480359
0.64409
0.114019
-0.798593
-0.864604
-0.255938
-0.0385484
0.0230239
-0.00341044
0.0149711
-0.0149711
0.3076
0.0122996
-0.0122996
0.699792
0.112893
-0.0136866
0.00167422
0.00612599
-0.0623801
-0.020364
0.020364
0.0066049
-0.0066049
-0.0241588
0.0241588
0.008586
-0.008586
0.012269
-0.303248
-0.0748567
0.217229
0.00722283
-0.00722283
-0.381347
0.491276
-0.109929
0.472481
-0.205488
-0.207469
-0.252474
0.555492
0.160559
0.0918199
0.573621
0.563899
0.0031454
-0.0031454
-0.154505
0.027258
-0.027258
0.00617977
-0.00617977
0.788016
-1.38018
0.0352891
-0.552962
0.446742
-0.00109364
0.00109364
-0.00636234
0.00636234
0.0196104
-0.0196104
0.020634
-0.020634
-0.0253387
0.0253387
0.0376889
-0.0376889
0.505307
-0.0341955
0.0341955
0.00031149
-0.00031149
0.0258199
-0.0258199
0.00651213
-0.00651213
-0.00402684
0.00402684
-0.171549
-0.0288718
0.0288718
-0.148301
0.0349203
-0.0423509
0.0423509
-0.00561186
0.00561186
-0.000489692
0.000489692
0.0359994
-0.0359994
0.0239599
-0.0239599
-0.00163622
0.00163622
0.00345432
-0.00345432
0.568996
0.151787
0.00726757
-0.00726757
-0.000531165
0.000531165
-0.0408905
0.0408905
-0.0262748
0.0262748
-0.00141956
0.00141956
-0.441269
0.706807
0.265142
-0.0342996
0.0342996
0.0163432
0.00601434
-0.00601434
-0.00146136
0.00146136
0.0349302
-0.0349302
0.0273188
-0.167107
-0.004485
0.004485
-0.0198335
0.0198335
-0.461244
0.0404819
-0.0156376
-0.0293258
0.0293258
-0.42907
0.0297492
0.0173059
-0.362796
-1.54299
-0.0394842
0.0394842
-0.217737
0.157929
-0.0388388
-0.00230139
0.00230139
-0.0222776
0.0614905
0.268831
-0.322126
-0.252256
0.574382
0.16593
0.00555393
-0.00555393
-0.0272269
-0.131945
0.159171
0.736588
-0.363702
-0.372886
-0.492346
-0.656708
-0.371401
0.408033
-0.209174
-0.143386
-0.577199
-0.0290732
0.192166
-1.53701
0.0197406
-0.0197406
-0.00244146
0.00244146
0.0331155
-0.0331155
0.0246312
-0.0246312
0.000268906
-0.000268906
-0.00242499
0.00242499
-0.0949859
-0.254899
0.153016
-0.275088
-0.000585739
0.000585739
-0.0421863
0.0421863
-0.0433476
0.0433476
-0.027449
0.235773
-0.208324
0.0249488
0.287518
-0.512824
0.000977913
-0.000977913
-0.0161034
0.0161034
-0.112593
0.0428353
-0.414236
-0.00324696
0.00324696
0.0200103
0.0152631
0.866328
-0.490727
-0.100732
0.591459
-0.612002
0.184827
-0.308643
-0.0363165
0.0363165
-0.669396
0.263561
0.0533716
-0.0533716
-0.688874
0.409305
0.246391
0.107265
-9.27013e-06
9.27014e-06
-0.89535
-9.47582e-05
9.47582e-05
0.331706
0.406914
0.0649869
-0.057702
0.057702
-0.0036502
0.0036502
-0.0455589
0.0455589
-0.0506007
0.0506007
-0.000133901
0.000133901
-0.0560158
0.0560158
-0.000436245
0.000436245
-0.0491369
0.0491369
-0.00880116
-0.0426833
0.0426833
0.00548087
-0.00548087
0.0518834
-0.0518834
-0.00110605
0.00110605
0.0445525
-0.0445525
-0.271347
-0.00304651
0.00304651
-0.00505641
0.00505641
-0.0421434
0.0789467
-0.0118657
0.0118657
0.00498265
-0.00498265
-0.0640001
0.0640001
0.313643
-0.0202982
0.0202982
-0.0547132
0.0547132
-0.00748684
0.00748684
-0.0724323
0.0724323
-0.0129597
0.0129597
-0.0865443
0.0865443
-0.0237644
0.0237644
-0.0904669
0.0904669
-0.708011
-0.0176055
-0.551401
0.511863
-0.917575
-0.311489
-0.53365
0.3634
0.309142
0.0126117
0.00386456
-0.00386456
0.26998
-0.685828
0.0520666
-0.0534074
-1.29274
1.41453
1.16814
0.245463
0.0351766
0.00564671
-0.371999
-0.60332
-0.131541
0.395743
-1.35724
-0.0290477
0.0290477
-0.710322
0.0145203
-0.0145203
0.00261948
-0.00261948
0.338237
-0.251727
-0.00302831
0.00302831
0.017834
0.0133285
0.600672
-0.367526
-0.015436
-0.0120809
-0.00874985
-0.11485
0.521235
-0.406385
0.160469
-0.0195045
-0.00288734
1.16495
0.028441
0.0348799
-0.412709
0.467729
-0.513441
-0.889669
-0.237046
-0.0806383
0.01947
-0.0305632
0.198391
-0.0469443
-0.00930705
0.00700026
0.811297
-0.525375
-0.0508235
0.0571121
-0.0419732
-0.0706401
-0.0354485
0.409716
0.253292
-0.165774
0.20588
0.0142656
-0.00234441
-0.711678
0.00302263
-0.290742
0.0951295
-0.0174002
-1.13063
-0.0729696
0.274916
-0.356835
0.418098
0.192289
-1.08633
0.0424523
0.117606
-0.0829053
-0.361441
0.451719
-0.0518456
0.113182
-0.0613367
-0.0293026
0.0293026
0.188543
-0.464824
-0.202265
0.0286407
-0.0921181
0.0611196
-0.0567806
-0.0030373
0.0598179
-0.037639
-0.162568
0.131229
0.140166
-0.282527
-0.329873
0.6124
0.0188824
0.0666359
0.147962
-0.0450211
-0.233874
0.0800049
-0.170659
0.331718
0.00234995
0.0287639
-0.0116534
0.159615
0.002974
0.277142
-0.00194868
0.00194868
-0.482415
0.964747
0.102996
-0.186091
-0.0251802
0.106607
1.65024
-0.0547102
0.0914369
-0.0131855
-0.537986
-0.0134142
-0.0536093
0.110894
-0.722949
0.330506
-0.0580731
0.352366
-0.634893
0.190124
0.488119
-0.0964078
0.0964078
0.00215998
-1.24927
0.0651241
1.18415
-0.229057
0.171671
-0.288953
0.162508
-0.348668
0.00728172
-0.0178804
0.0142704
0.929318
0.252284
-0.222453
-0.0711276
-0.597159
-0.332607
-0.0251283
-0.271613
0.754851
0.547725
-0.260207
-0.316945
0.582975
0.118337
0.0410672
-0.265658
0.0157403
-0.451721
0.341792
0.120051
-0.120051
-0.06576
-0.082641
0.148401
-0.0097583
0.00696915
0.00885861
-0.0111154
-0.0488769
0.208537
-0.185774
-0.0227627
0.519222
-1.13758
-0.106193
-1.16809
0.679876
-0.101249
-0.173839
-0.0202465
-0.080653
-0.506673
0.0721344
-0.307304
-0.00371363
-0.0174002
0.405796
-0.00505069
0.00438493
-0.00136317
0.0160344
-0.011754
-0.0042804
-0.0938707
-0.0182427
-0.178681
0.196924
-0.103904
-0.347817
0.017834
0.351211
0.00113972
-0.398872
0.0983617
0.00309917
0.252836
-0.125705
-0.0141109
0.0141109
-0.00198002
0.000242562
-0.00865532
-0.00104306
0.0880021
0.000270019
-0.00117994
0.0325295
0.229086
-0.00317604
0.00317604
-0.00334197
0.493089
0.000662676
-0.284183
0.561406
1.21688
-0.465345
0.308724
-0.441307
-0.118463
-0.0838023
0.20236
-0.209911
0.0753335
-0.00548127
0.00165579
-0.0129727
-0.178371
-0.369528
0.80921
0.440351
-0.535337
-0.0207621
-0.00168949
-0.0153741
-0.0623913
0.000347995
-0.000146608
-0.00533466
0.56634
0.00146043
-0.000800557
0.749077
-0.669073
-0.251306
0.194268
0.431665
-0.000930196
-0.00103068
-0.0388388
-0.00536589
0.817725
-0.432202
0.532763
-1.6534
0.906712
-0.717731
0.547817
-0.184417
0.727009
-0.000958194
0.00346624
0.0195577
-0.126587
0.137464
0.0911098
0.00682317
0.00284501
0.0732356
-0.061594
-0.0116416
-0.00106894
-0.0934217
0.134349
-0.0409278
-0.0965267
0.00902452
-0.000474154
0.00230483
0.505802
-0.445616
0.0165931
-0.000441644
0.801808
-0.736684
0.366468
-0.00636878
-0.000140067
0.0738182
-0.137953
-0.0528844
-0.087278
-0.0080831
-0.00386333
0.141959
0.0306659
-0.00333313
0.382043
-0.000834834
0.00148961
-0.00148961
0.00109679
-0.0131777
-0.000316833
-0.323015
-0.0039639
0.0777962
-0.10778
-0.0442271
0.184546
-0.0651539
-0.000392171
0.00200991
0.434029
-0.000278173
0.00320059
-0.0200257
-0.00221136
-0.000529124
0.0731506
0.174204
-0.709945
0.432071
-0.801599
0.241227
-0.000403243
-0.0949339
0.221216
0.0806956
0.537596
-0.0142842
-0.166443
-0.00433045
-0.00148815
-0.558554
-0.00357801
-0.000302342
0.0254183
0.90437
-0.534916
-0.00274652
-0.00066981
-0.0062981
-0.00194045
0.0723374
-0.0209529
0.0209529
0.00097283
-0.000730268
-0.0025042
-0.00843213
0.0314484
-0.0270635
-0.179782
0.109195
-0.0054729
-0.014112
0.0339022
-0.0195187
0.0685064
-0.0490364
-0.624019
0.580611
-0.00458225
-0.00111809
0.380343
-0.232867
-0.0612994