/*--------------------------------*- C++ -*----------------------------------*\
| =========                 |                                                 |
| \\      /  F ield         | OpenFOAM: The Open Source CFD Toolbox           |
|  \\    /   O peration     | Version:  2306                                  |
|   \\  /    A nd           | Website:  www.openfoam.com                      |
|    \\/     M anipulation  |                                                 |
\*---------------------------------------------------------------------------*/
FoamFile
{
    version     2.0;
    format      ascii;
    arch        "LSB;label=32;scalar=64";
    class       volVectorField;
    location    "41";
    object      U;
}
// * * * * * * * * * * * * * * * * * * * * * * * * * * * * * * * * * * * * * //

dimensions      [0 1 -1 0 0 0 0];

internalField   nonuniform List<vector> 
2186
(
(1.26043 -0.0587828 2.7704e-19)
(1.57325 -0.888229 3.73242e-21)
(1.41369 -0.868066 9.66016e-21)
(0.694 -0.529254 -1.7686e-19)
(-0.326495 0.738727 -2.18949e-19)
(0.65793 0.791175 0)
(0.689884 -0.635728 0)
(0.0464768 0.130042 6.2228e-20)
(1.54113 0.0151117 7.47196e-20)
(0.514376 -0.238474 -2.26083e-21)
(0.729007 0.660872 0)
(0.93936 -0.243967 -8.03161e-20)
(0.0658444 0.182984 -2.50324e-20)
(1.20158 0.029218 -4.42957e-19)
(1.75754 -0.622898 -6.12511e-21)
(1.0182 0.0035589 2.08469e-19)
(0.978608 0.0127425 0)
(-0.14984 0.885903 0)
(0.744787 0.338683 0)
(-0.103576 0.299966 -5.83148e-20)
(0.498423 0.191604 -1.28743e-19)
(-0.192824 0.243106 7.84148e-20)
(1.1924 0.0319651 3.65175e-19)
(-0.147519 -0.0875969 5.12625e-21)
(1.02686 0.0173997 -2.8748e-19)
(0.744667 -0.505327 0)
(0.757437 0.0265076 1.68945e-19)
(0.579847 -0.559256 -2.10005e-19)
(1.28197 0.76513 0)
(0.959943 0.0270914 -3.92139e-19)
(-0.0379893 0.106043 0)
(1.02286 -0.00175936 1.35981e-20)
(-0.132587 0.219522 0)
(2.13808 -0.135407 -6.35369e-20)
(-0.19932 -0.104939 -1.53442e-21)
(1.6259 0.825498 1.21491e-19)
(1.79947 -0.0269193 -3.15989e-20)
(0.530737 0.238644 -3.83686e-19)
(2.04888 0.217154 -2.36916e-19)
(1.31324 0.41373 -1.62802e-20)
(0.0341048 0.179981 0)
(-0.142909 0.215599 0)
(1.8463 -0.806497 5.2796e-20)
(-0.489843 0.252348 0)
(1.15697 0.316211 1.85188e-19)
(0.564361 -0.221563 3.27937e-19)
(0.885551 -0.750284 0)
(1.13471 -0.742644 1.51331e-19)
(2.09896 -0.621064 0)
(-0.309891 0.848134 1.66471e-19)
(-0.0304969 0.167881 8.62133e-20)
(0.673303 0.621992 9.55463e-20)
(2.01088 -0.664948 3.64904e-20)
(0.627935 0.355469 -3.09606e-19)
(-0.345722 0.0172478 3.08233e-20)
(0.720671 -0.606755 0)
(1.64818 -0.911602 1.89931e-20)
(0.550021 -0.510139 0)
(2.49947 0.122913 8.05248e-20)
(1.09662 -0.14842 -4.47911e-19)
(1.09083 -0.210205 -9.58349e-23)
(1.41606 0.324542 -2.27628e-19)
(1.42222 0.582799 0)
(2.00856 0.374809 1.78489e-20)
(1.44371 0.416981 -1.43891e-19)
(1.20147 -0.686191 -2.19257e-19)
(1.23906 0.710408 6.52729e-20)
(0.688337 0.137429 -6.35812e-19)
(0.824769 0.109138 0)
(2.00615 -0.00134968 -1.54659e-20)
(0.0167917 0.121705 -7.2144e-20)
(1.98676 -0.579953 -2.55504e-20)
(0.721447 0.0286772 -2.81441e-19)
(0.831442 -0.469569 0)
(0.848332 0.234116 -1.04466e-19)
(0.509713 -0.465694 -3.5381e-19)
(2.00261 -0.529478 0)
(1.00653 0.0106431 4.2832e-19)
(-0.193474 -0.0981673 0)
(2.17503 0.404045 0)
(0.922769 0.310061 9.45677e-20)
(1.54568 0.434339 4.95999e-20)
(1.01932 0.011669 4.77613e-20)
(1.38466 0.445088 3.55427e-20)
(0.964612 0.0275754 5.01123e-19)
(1.03428 0.0354979 -1.18797e-20)
(0.688003 0.250891 -3.77564e-19)
(0.638719 1.00688 -2.20474e-21)
(0.95005 0.212192 0)
(-0.072119 -0.0729423 6.0328e-20)
(0.815592 -0.574871 -2.01675e-19)
(-0.209823 0.279145 -2.7039e-21)
(1.08705 -0.0556097 2.97198e-19)
(0.793475 -0.131545 0)
(0.970022 0.0247598 4.7772e-20)
(1.44417 0.686672 0)
(1.56869 -0.894895 0)
(1.36498 0.242894 0)
(-0.423956 0.944032 0)
(0.743639 -0.616022 3.5373e-19)
(0.974036 -0.0544822 -3.24541e-19)
(1.01062 0.295169 2.0512e-19)
(1.6315 0.19818 0)
(1.1259 -0.0842499 -2.71695e-19)
(1.12637 0.0248211 2.11728e-19)
(-0.133921 0.394101 1.031e-19)
(0.693956 0.57369 0)
(1.91663 -0.0846411 -3.09584e-21)
(0.9253 -0.432748 9.89234e-20)
(-0.886271 -0.750199 1.39922e-19)
(1.89268 0.289754 1.00898e-19)
(-0.313971 0.685349 -2.58846e-19)
(0.78209 -0.708488 0)
(0.61585 0.430776 1.85996e-19)
(1.68248 -0.0320926 -2.36756e-19)
(0.199273 0.513293 -3.23895e-19)
(1.56804 0.690834 -4.6155e-21)
(1.89377 -0.768881 0)
(-0.0942648 -0.0994214 -1.8003e-19)
(0.699752 -0.00828536 8.92617e-20)
(1.652 0.936137 0)
(-0.02089 0.780298 -2.32844e-19)
(0.947355 0.816886 -3.20148e-19)
(-0.181379 0.848217 3.83609e-19)
(1.03117 -0.0200757 0)
(1.64794 0.901344 5.81809e-21)
(-0.350901 0.712315 0)
(0.653296 -0.438282 -1.27113e-19)
(-0.157336 0.890405 -2.04427e-19)
(0.753105 -0.685734 0)
(0.390512 -0.184839 4.75913e-19)
(0.496041 -0.397876 3.28366e-19)
(0.400556 -0.361931 0)
(0.938744 -0.739032 -1.693e-19)
(0.961566 0.108131 0)
(-0.154375 0.827084 -1.30601e-19)
(0.766418 -0.652504 1.71949e-19)
(2.07917 -0.0644581 4.60221e-20)
(2.23579 0.0862619 0)
(-0.0523221 0.0108375 0)
(0.732285 0.679884 -4.04202e-19)
(1.71335 -0.555928 -2.85974e-20)
(0.0565978 0.0836885 0)
(0.936685 -0.761522 -1.8009e-20)
(1.11479 -0.0824674 0)
(1.05828 -0.100209 4.6933e-19)
(1.91989 -0.0756943 -3.42931e-21)
(-0.391376 0.954854 0)
(1.17131 -0.513672 -7.21512e-20)
(-0.219508 0.344635 -3.84556e-20)
(-0.257043 0.296744 0)
(1.04985 -0.769339 1.22578e-20)
(1.007 0.00502591 -7.15418e-19)
(0.606797 -0.422294 -1.24241e-20)
(0.774863 -0.46474 0)
(1.15107 -0.685588 -1.26424e-19)
(0.688179 0.309432 2.905e-19)
(1.26497 0.119884 0)
(1.58871 0.0822134 -3.63196e-19)
(1.1527 -0.810677 -2.99431e-19)
(-0.0674195 -0.00306655 -6.15943e-20)
(-0.28764 0.252592 -8.4739e-20)
(1.08814 0.0167274 2.70222e-19)
(0.877339 -0.417085 -1.24414e-19)
(0.738141 0.663086 2.04161e-21)
(0.717363 0.688478 3.16437e-21)
(0.832025 -0.117023 7.45037e-20)
(-0.0167969 -0.0473958 -1.6992e-19)
(0.857187 0.0914896 0)
(1.38532 0.156809 -8.80141e-20)
(1.52363 0.694683 1.86304e-19)
(0.763496 -0.565267 -2.57956e-19)
(0.995132 0.00958482 1.46543e-20)
(0.675342 -0.47783 3.49495e-19)
(1.3816 0.851895 1.63637e-19)
(1.92878 0.000687192 3.78477e-21)
(-0.34498 0.973237 0)
(1.09858 0.0703621 -2.81118e-19)
(-0.66025 0.650525 -1.53661e-19)
(1.13015 0.531469 9.42345e-20)
(0.286277 -0.116508 1.02636e-19)
(1.16313 0.0314198 -5.08732e-20)
(-0.229731 0.200599 -1.42441e-19)
(1.36698 0.621229 -9.90569e-20)
(1.20838 0.942722 0)
(-0.335829 1.12211 -1.14239e-19)
(0.303458 0.506764 0)
(0.706601 0.616398 -3.12423e-19)
(2.18172 0.176753 -1.2526e-20)
(0.0886572 0.260145 8.81933e-20)
(-0.329602 0.934169 -5.80519e-19)
(0.73338 0.141059 2.79521e-19)
(2.25961 -0.24716 -4.28917e-20)
(0.942951 -0.305401 -3.60701e-20)
(-0.0418244 -0.0198511 0)
(-0.540944 -1.29546 2.93721e-19)
(1.40841 1.03219 -4.35925e-20)
(0.849536 0.129214 -1.54662e-19)
(0.595792 0.560719 2.18723e-19)
(0.453485 0.203891 0)
(-0.170471 0.0846826 -1.13385e-19)
(-0.188282 -1.61701 1.61963e-19)
(1.25319 -0.915134 8.44886e-22)
(0.982388 -0.0037834 -2.23016e-19)
(-0.0981777 -0.151091 4.28379e-21)
(0.0366298 -0.0581425 1.73165e-19)
(-0.184652 -0.208745 -1.2048e-19)
(1.76001 -0.789813 0)
(1.15319 0.0549022 -3.79112e-19)
(2.25191 -0.218325 9.83584e-20)
(1.22364 -0.573391 1.39902e-19)
(1.45156 0.205803 -4.98253e-20)
(0.634548 0.409219 0)
(1.00541 0.803511 -1.90942e-20)
(0.729844 0.673368 2.12664e-19)
(0.854249 -0.516351 1.81656e-19)
(0.740339 0.5653 0)
(1.0196 0.010829 9.57477e-21)
(0.837214 -0.617186 2.59539e-19)
(0.886703 0.47794 -5.18537e-19)
(1.14235 -0.0966289 0)
(0.19949 0.294052 -2.49729e-19)
(-0.108874 0.261902 -8.69911e-20)
(1.6771 0.769432 0)
(1.30075 -0.889603 -7.22945e-22)
(-0.155159 0.832436 0)
(-0.301381 0.518181 1.32083e-19)
(0.791427 0.706235 -1.11605e-19)
(0.827912 -0.166878 0)
(-0.103813 -0.0381651 0)
(1.65526 -0.394041 0)
(0.428909 -1.18536 5.98524e-19)
(1.16351 -0.838165 1.95827e-19)
(1.1296 -0.560308 8.01516e-20)
(1.00704 -0.152883 -2.05784e-19)
(0.82996 -0.646021 -2.06366e-19)
(0.177314 -0.179783 0)
(-0.283432 0.809501 0)
(0.958021 -0.466904 2.1725e-19)
(-0.00459469 0.0499613 0)
(-0.29169 0.895068 0)
(0.137769 0.599874 2.83966e-19)
(0.849802 0.724336 9.6871e-20)
(1.07629 0.846986 0)
(0.753112 0.615517 -9.53165e-20)
(0.825659 0.0101808 -2.56046e-19)
(0.800978 0.620308 -2.56423e-19)
(0.634713 0.593146 -1.88187e-19)
(-0.0364381 0.0795429 -5.18679e-23)
(0.684121 -0.610562 0)
(0.924185 0.221228 -3.69979e-19)
(-0.0187693 0.119849 3.20733e-20)
(0.644094 0.598886 4.28411e-19)
(1.02001 0.851936 0)
(0.43733 -0.466641 4.92551e-19)
(-0.236228 -0.0143084 1.95708e-19)
(-0.17182 0.12542 -1.03538e-19)
(0.719617 0.629386 -1.6503e-20)
(0.969453 -0.00647388 6.93488e-20)
(0.0156227 0.233119 0)
(1.9172 -0.0177831 3.38716e-20)
(0.953565 -0.605361 1.51276e-19)
(0.616563 -0.567854 -9.2036e-20)
(0.155053 0.762092 1.38454e-20)
(1.25471 0.496348 2.18961e-19)
(0.934078 0.466769 0)
(1.01527 -0.14629 2.32733e-19)
(-0.253841 -0.00356947 3.81663e-21)
(-0.137978 0.146721 3.31173e-19)
(0.906128 0.0229963 -6.21888e-20)
(1.15863 0.153366 0)
(1.61563 0.0148899 4.58739e-20)
(1.97564 0.0385548 0)
(0.578398 0.337414 -5.05733e-19)
(-0.0124865 -0.0357677 0)
(0.0113194 0.0966691 1.4114e-19)
(0.66701 0.0898175 0)
(0.573591 -0.456742 -2.14069e-19)
(1.13157 0.0236638 2.46389e-19)
(-0.366305 0.947778 4.58179e-20)
(1.83485 -0.137047 -8.57986e-21)
(1.92851 -0.0981653 -4.02362e-20)
(1.15516 0.256876 -2.58528e-19)
(-0.025817 0.14829 -6.1579e-20)
(1.02823 -0.806502 0)
(0.802274 0.0165607 -1.79208e-19)
(0.890814 -0.331219 -3.41371e-19)
(1.65538 -0.519789 4.12821e-21)
(1.55581 -0.001937 -7.14604e-20)
(1.09807 0.000203046 4.52503e-19)
(-0.191683 0.0681247 -8.7662e-20)
(0.955202 -0.394229 -1.529e-19)
(0.1847 -0.177126 3.01317e-19)
(1.00819 -0.0056216 0)
(1.00485 -0.00402278 0)
(0.570389 -0.936773 -1.98015e-20)
(-0.0917249 0.667076 -8.53928e-20)
(0.239811 -0.101417 -9.30011e-20)
(1.2099 -0.267921 1.88002e-20)
(1.56865 -0.809427 0)
(2.33509 -0.344116 -7.56869e-20)
(0.907601 -0.78413 -1.19003e-19)
(1.73972 -0.495538 -2.75444e-20)
(1.17172 0.890004 0)
(0.437772 -0.41558 0)
(0.659774 0.579842 -1.96123e-19)
(1.14615 0.310757 -4.76422e-19)
(2.05635 -0.134795 5.10747e-23)
(0.885204 0.203757 1.58769e-19)
(-0.214548 0.15677 -2.23732e-19)
(1.09662 0.425727 1.1518e-19)
(-0.201087 0.168205 0)
(-0.106299 -0.0122025 0)
(-0.0027529 0.352496 0)
(1.28906 -0.675705 -1.37798e-19)
(-0.26511 0.304665 -2.11547e-19)
(-0.102416 0.0795414 0)
(1.36509 1.03327 -4.91175e-20)
(1.14915 0.175637 -4.97507e-19)
(2.48191 0.0509362 -3.28604e-20)
(1.14627 0.978467 1.09737e-19)
(-0.31211 0.598582 1.2984e-19)
(1.20441 0.22517 0)
(0.0133379 0.427001 -2.04416e-19)
(-0.373933 0.609913 2.57576e-19)
(0.785834 0.085605 2.0865e-19)
(1.62033 1.00223 -3.45174e-20)
(1.93374 0.869634 -9.14343e-20)
(-0.22435 0.264803 -3.79349e-21)
(0.709631 -0.644999 -4.65305e-20)
(1.22005 -0.0206791 0)
(1.76397 0.0349584 0)
(0.948146 0.0471121 0)
(-0.244629 -1.41811 -1.12763e-19)
(-0.0753893 0.305889 6.33928e-20)
(1.11211 0.898556 0)
(0.991751 0.018884 5.97762e-19)
(0.824266 0.663411 -2.56959e-19)
(-0.119424 -1.25995 -1.47552e-19)
(0.870137 0.0629438 -4.72146e-20)
(0.677106 -0.614359 -2.68347e-19)
(1.46209 0.755052 -4.43961e-20)
(0.515803 -0.385447 -3.39613e-19)
(1.13356 0.00686431 -5.39893e-19)
(0.790681 0.0451478 5.32991e-20)
(1.44335 -0.15397 1.0893e-19)
(0.802496 0.161463 4.24384e-20)
(-0.00981992 0.00991762 -1.03171e-22)
(1.13281 0.515249 -3.1385e-19)
(1.40706 0.66734 6.34218e-20)
(-0.222579 0.0826656 0)
(-0.199701 0.116586 8.33603e-20)
(0.265681 0.642007 1.09015e-19)
(-0.143173 -0.163531 -8.41975e-20)
(0.530571 0.410676 0)
(0.952756 -0.509686 0)
(-0.0207477 0.0201566 -1.20186e-19)
(-0.0716193 0.091335 -3.22657e-20)
(1.05124 -0.0259265 2.14037e-19)
(-0.300283 0.891518 -6.00939e-20)
(2.0997 -0.795362 -4.03784e-19)
(-0.105832 0.624608 0)
(0.792289 -0.699125 -3.79553e-19)
(0.916105 0.228287 -1.25369e-19)
(-0.462524 0.470145 8.77343e-20)
(0.741135 0.225155 3.68258e-19)
(0.642683 0.221097 1.17952e-19)
(0.467374 -0.437796 2.38604e-19)
(0.0621588 0.104891 -7.52079e-20)
(2.24514 0.795785 0)
(0.446569 0.430261 -2.10914e-19)
(1.0319 -0.00927059 -3.40247e-19)
(-0.314169 0.928157 2.31015e-19)
(1.49456 0.51209 -1.59433e-19)
(-0.00609097 0.0630358 -2.90269e-20)
(0.666526 -0.605722 -1.00586e-19)
(0.845647 0.239696 -2.33709e-19)
(1.02586 0.47235 2.6553e-20)
(1.11974 -0.115926 4.19035e-20)
(0.580405 -0.157963 -3.44222e-19)
(1.89996 -0.23459 -1.64389e-20)
(0.24634 -0.0695724 0)
(2.1982 0.050618 -8.78833e-21)
(1.76806 -0.115145 -1.84137e-21)
(0.42209 0.345549 3.65426e-20)
(1.01441 0.398673 -1.58242e-19)
(1.58102 0.513306 -9.15661e-20)
(0.465335 0.447294 -2.75532e-19)
(0.167988 0.73996 2.12163e-19)
(1.7655 0.0961975 0)
(0.950153 0.00994725 0)
(0.834384 -0.735232 7.72117e-20)
(-0.234981 0.0148216 -2.14993e-19)
(0.131154 0.584189 -2.85917e-19)
(-0.00597487 0.0235937 -1.27351e-19)
(-0.219513 0.879869 -1.56706e-19)
(-0.290004 0.280224 0)
(-0.107365 -0.036843 2.39931e-20)
(0.0876599 0.367272 -7.91137e-20)
(0.0576618 -0.0529353 -3.9656e-19)
(0.786407 -0.0552961 0)
(1.15796 -0.201412 -6.9336e-20)
(0.216803 0.387524 0)
(0.992367 0.0246614 4.31266e-19)
(-0.206065 0.189424 1.39621e-20)
(0.493125 -0.357065 4.55358e-19)
(-0.705419 0.728768 2.55384e-19)
(-0.533144 -0.453288 0)
(0.147844 0.510971 8.75438e-20)
(0.99934 0.0295331 -1.30048e-20)
(0.0334135 -0.0741188 0)
(1.00418 -0.00800351 -6.70489e-20)
(0.81409 -0.68222 -3.55249e-19)
(0.94736 -0.786562 0)
(0.905838 -0.227178 2.44163e-19)
(0.202783 0.651913 1.94552e-19)
(-0.0593381 -0.0517109 0)
(-0.164437 0.0957399 -3.1265e-21)
(0.681301 -0.587357 -5.06619e-19)
(0.932732 -0.0193735 -3.1574e-19)
(-0.24828 0.0365991 2.5342e-19)
(-0.0362049 0.0603373 8.83458e-20)
(-0.243077 0.217139 0)
(1.00996 0.523517 0)
(-0.348379 0.350126 9.16526e-20)
(1.31468 0.0164617 3.36768e-20)
(1.1409 0.953048 2.31856e-20)
(1.1059 0.240133 -1.45713e-19)
(1.10479 0.00995655 -2.67163e-19)
(0.989696 -0.0580984 -9.84426e-20)
(-0.204116 0.0332284 -2.26927e-19)
(1.77917 -0.0266715 1.64993e-19)
(0.709326 0.0445584 2.50332e-19)
(1.56709 -0.0303311 -2.2346e-20)
(0.994086 -0.128548 0)
(-0.45293 -0.432067 7.40658e-20)
(1.14561 0.0281714 -5.84286e-19)
(1.8433 0.660273 3.53359e-20)
(0.697455 -0.398383 -1.88063e-19)
(-0.0971413 -0.0977472 1.34653e-19)
(0.75574 -0.658171 4.63976e-19)
(1.28685 0.215508 9.18838e-20)
(1.00692 -0.0080827 2.96831e-19)
(-0.227797 0.111587 -9.26596e-20)
(1.03588 0.0317128 0)
(1.87283 -0.0420411 5.81867e-20)
(-0.0807776 -0.0630185 0)
(1.01201 0.0174498 -1.75734e-19)
(0.0522202 -0.850016 -6.46351e-19)
(1.85234 0.340886 5.81549e-20)
(0.207304 0.69278 1.55186e-19)
(1.68094 0.0619035 1.97746e-20)
(1.0171 -0.0144002 6.16457e-20)
(1.20855 -0.0860279 0)
(1.38769 -0.562849 -2.12574e-19)
(1.03294 0.054642 -1.82437e-19)
(1.5227 0.839874 -9.27636e-20)
(1.20326 -0.0503728 0)
(0.999895 -0.260604 1.62318e-20)
(-0.0309101 0.0259649 0)
(1.23336 0.0547338 0)
(-0.0372149 0.232081 0)
(1.30616 0.487719 0)
(2.02091 0.256589 3.69706e-20)
(0.79798 0.671646 4.50766e-19)
(0.275184 -0.275818 -2.82556e-19)
(-0.072388 0.0733165 -2.06475e-19)
(-0.0554753 -0.025456 0)
(1.76003 -0.0750947 -2.637e-20)
(1.42843 0.563013 0)
(1.55104 0.310178 0)
(-0.0593776 0.478266 8.90183e-20)
(0.862232 0.762703 1.50267e-19)
(1.53921 0.00504938 0)
(0.094278 0.193644 4.84997e-20)
(0.94031 0.268887 2.1697e-19)
(1.12396 -0.115653 7.97314e-20)
(1.31578 0.983699 5.86673e-20)
(0.885872 -0.794074 -5.54708e-20)
(0.305151 -0.0458427 8.76019e-20)
(0.847748 0.766012 1.55398e-19)
(1.25004 0.981982 0)
(1.75935 -0.586589 2.83792e-20)
(-0.00365642 -0.729239 0)
(0.67414 0.0285322 -1.21537e-19)
(1.13966 0.122275 1.65645e-19)
(1.00598 -0.00210706 0)
(-0.686271 -0.838332 6.27365e-20)
(0.868878 -0.123267 5.57031e-20)
(0.585328 -0.343571 0)
(0.629295 -0.316775 2.45138e-19)
(1.30607 0.599398 -4.08044e-20)
(0.513475 0.487575 3.07561e-19)
(0.0404478 -0.000233317 4.87475e-20)
(0.219522 -0.036841 8.24564e-20)
(0.730991 0.0571086 0)
(1.27719 -0.853159 -1.40163e-19)
(1.042 -0.0422324 4.75515e-19)
(1.61905 0.357034 1.25276e-19)
(0.111725 0.252099 4.10181e-20)
(-0.849133 0.680113 0)
(1.18108 -0.211442 -1.39217e-19)
(-0.0565105 -0.0438029 -1.10025e-19)
(-0.753787 -0.00431329 -7.07054e-21)
(-0.150948 0.0608537 -7.4447e-22)
(-0.230406 0.113213 2.70388e-19)
(0.319419 1.1251 -2.03468e-21)
(1.91117 -0.0574735 -4.53829e-20)
(1.25621 0.495616 -3.53131e-19)
(0.95276 -0.0642897 0)
(1.84539 -0.0137585 1.14969e-19)
(1.58881 0.0614066 -1.455e-20)
(0.865142 -0.721974 1.77136e-19)
(1.11862 -0.932668 -7.75903e-20)
(0.516496 0.481784 2.08181e-19)
(0.235493 -0.410519 0)
(1.86159 0.608672 7.79053e-21)
(-0.0636186 -0.0431176 -2.23816e-19)
(0.942191 0.823112 0)
(2.06858 0.821766 0)
(0.274451 -0.272417 -3.76882e-21)
(0.375359 0.384873 0)
(-0.804723 0.567375 -3.25874e-19)
(-0.188836 0.248786 -1.33142e-19)
(1.72306 -0.361389 0)
(1.31507 0.0434002 2.73053e-19)
(0.238528 0.533251 2.37935e-19)
(0.500952 -0.473487 -5.52612e-19)
(1.57592 0.000567674 6.40848e-21)
(0.576619 -0.519076 0)
(1.07234 0.143003 0)
(1.41105 -0.196936 0)
(1.16294 0.257653 -2.79514e-19)
(1.40309 0.117048 4.00036e-19)
(-0.1967 -0.320138 0)
(0.839749 -0.0449447 0)
(1.5698 -0.190173 1.51145e-20)
(-0.157081 0.148788 9.40379e-20)
(2.20029 -0.400935 -1.37365e-19)
(1.0977 -0.482729 1.14094e-19)
(1.62624 -0.125298 -7.73875e-20)
(-0.145192 0.848308 -1.70371e-19)
(1.97679 0.0440952 -8.99218e-20)
(1.01344 -0.00690578 4.87252e-19)
(1.60384 0.638461 0)
(-0.339109 0.619665 3.65653e-20)
(0.9568 -0.785516 2.27704e-19)
(0.85271 0.0326306 5.51857e-20)
(0.588693 -0.368161 0)
(1.81988 -0.447062 -4.4076e-21)
(1.16204 -0.172658 1.86536e-19)
(0.592198 -0.344895 0)
(0.577213 -0.534532 5.55127e-19)
(1.73679 0.135606 3.62062e-20)
(2.26554 -0.349955 3.55683e-19)
(-0.177294 0.1684 -2.01091e-19)
(1.40706 0.663512 1.90122e-19)
(1.20718 0.445872 4.36013e-21)
(0.949815 0.42588 2.5702e-19)
(1.18951 0.00181562 6.24517e-20)
(-0.19757 0.0461841 5.73608e-22)
(0.59066 0.146276 0)
(-0.113891 -0.0972457 2.19863e-19)
(1.06055 -0.914664 0)
(1.01472 -0.606848 2.71153e-20)
(0.217235 0.0954006 8.60154e-20)
(0.601154 0.395347 -8.95379e-20)
(-0.375641 0.500126 -2.2884e-19)
(1.04345 0.534198 2.02699e-19)
(-0.506752 -1.34688 1.24432e-19)
(0.714348 -0.0423524 0)
(0.768964 -0.260175 0)
(1.83559 -0.103854 -1.106e-20)
(0.754757 -0.0103254 0)
(1.30077 -0.185187 -1.91943e-19)
(-0.322601 0.76468 5.21792e-19)
(2.03318 0.524386 -2.83326e-20)
(1.06222 -0.0310498 0)
(0.508998 -0.275156 1.22213e-19)
(1.00779 0.0263525 2.31249e-19)
(-0.0113467 -1.13843 -2.35646e-20)
(-0.0635408 0.864702 0)
(1.05881 -0.433164 6.00997e-19)
(0.767127 -0.0247004 -1.34903e-23)
(1.05334 -0.453294 -2.61317e-19)
(2.47957 0.127593 1.20534e-19)
(1.36297 0.844544 0)
(0.892476 0.0268884 0)
(0.0856183 0.3242 -1.09497e-19)
(-0.0218822 0.0187775 1.35245e-19)
(0.997772 0.412823 -2.39976e-19)
(-0.201777 0.0962582 -7.86628e-20)
(0.695713 0.47975 2.67822e-19)
(1.0162 -0.0681947 0)
(0.509496 -0.472913 0)
(0.221262 1.00658 -6.66091e-21)
(1.17894 -0.463215 -1.26002e-19)
(0.906993 0.0199472 9.37857e-21)
(0.718553 -0.0864263 1.35311e-19)
(-0.125842 0.121776 -2.44687e-19)
(1.71381 -0.104877 2.53205e-19)
(0.707882 0.660764 0)
(1.34462 0.743447 0)
(1.69377 0.26538 0)
(-0.231446 0.271079 -8.82335e-20)
(1.34535 0.618007 1.79806e-19)
(1.69301 0.040965 -6.25506e-21)
(0.990725 -0.017195 0)
(1.11931 0.311706 0)
(2.00372 -0.114127 -1.33113e-19)
(-0.0197976 -0.871136 3.45768e-20)
(1.00508 0.00680513 -2.31423e-19)
(1.58495 0.519161 0)
(-0.0412016 0.80245 0)
(1.30095 0.346134 3.49905e-19)
(1.08181 0.576335 -1.52684e-19)
(1.0819 0.0373989 0)
(0.74762 -0.0264071 0)
(2.13548 0.720507 -2.50793e-19)
(-0.23455 0.331293 -3.20295e-22)
(0.993456 0.0167879 0)
(0.760603 0.539961 -3.73609e-20)
(0.894582 -0.784813 0)
(1.00007 0.0192072 5.37917e-20)
(0.198855 -0.207201 -1.23163e-19)
(0.869487 -0.27598 3.60561e-19)
(0.330093 0.688569 1.82988e-19)
(1.90832 -0.0307176 1.18597e-20)
(1.97943 0.0271968 -2.08594e-20)
(0.7564 -0.0185058 0)
(0.996444 0.0156457 0)
(-0.578984 0.526871 0)
(0.710601 0.680556 -2.18973e-19)
(-0.0853947 0.0718911 1.6577e-19)
(1.22469 0.386259 -5.59342e-19)
(-0.332541 1.021 0)
(0.888258 0.701081 1.91159e-19)
(0.968971 -0.288848 0)
(1.00543 0.000740602 1.35411e-19)
(-0.652122 -0.464117 -5.86077e-21)
(1.08827 0.44613 3.02061e-19)
(1.69672 0.0544659 0)
(2.2469 0.116034 -5.08608e-20)
(0.814439 -0.0580786 -4.18254e-19)
(-0.923937 0.495393 -4.50496e-19)
(0.217152 -0.580084 0)
(0.913597 0.292932 1.99437e-19)
(1.75733 0.0141001 0)
(0.830235 0.582834 4.08389e-19)
(-0.533545 0.472118 2.17461e-19)
(-0.0947722 0.0805481 0)
(0.634217 0.604118 -8.01382e-20)
(0.978887 -0.593847 -1.88952e-19)
(0.435246 -0.155792 -1.393e-19)
(1.01767 -0.00110556 0)
(0.215154 0.587323 -2.02688e-19)
(0.594624 -0.521571 9.59106e-20)
(0.944818 0.339826 0)
(1.4117 -0.338486 -7.07932e-20)
(1.04659 0.892245 2.90589e-20)
(-0.0767805 0.205957 9.64761e-20)
(0.241231 0.151809 -1.67087e-19)
(0.189499 0.116902 -6.15418e-19)
(-0.0531255 0.0297373 5.51452e-21)
(0.864171 0.416993 2.79542e-19)
(-0.271391 0.364233 -5.44413e-21)
(1.35512 -0.60004 2.95381e-21)
(1.01992 0.0257572 -4.02614e-19)
(-0.376216 0.373199 0)
(1.04151 0.052446 -4.77038e-19)
(1.53539 -0.198335 -5.19327e-20)
(0.948418 0.74583 3.2515e-19)
(1.11202 -0.0517592 1.88538e-19)
(0.998955 -0.00672338 1.86224e-19)
(0.682798 0.376096 8.4098e-20)
(0.165508 0.254055 1.31567e-21)
(1.6979 -0.811188 1.55522e-20)
(1.06646 -0.117004 -9.7744e-20)
(0.738981 0.0447528 1.13057e-19)
(0.876391 -0.245609 1.04461e-19)
(1.99764 0.129872 0)
(1.02465 0.789962 0)
(-0.209043 -0.209243 6.9924e-21)
(2.08131 0.202071 -5.75262e-21)
(-0.674294 0.674663 1.63907e-19)
(0.985781 -0.494285 -6.25755e-19)
(0.571133 -0.480968 4.56489e-19)
(1.62774 0.129229 -1.20644e-19)
(-0.176407 0.0708648 9.71174e-21)
(-0.0917432 0.498939 0)
(0.765414 0.181266 -7.61626e-21)
(0.239728 -0.199811 2.61523e-19)
(1.10458 0.815967 0)
(-0.016902 -0.0791633 0)
(0.945299 0.138279 0)
(0.0291069 0.08793 -3.43756e-20)
(-0.163932 0.18652 0)
(0.865631 -0.714177 1.27529e-20)
(1.26849 0.198395 7.74599e-21)
(-0.111751 -0.881821 2.33943e-19)
(2.17317 0.657933 2.48352e-20)
(1.93142 0.481532 -3.01019e-20)
(1.96732 -0.220758 -7.28907e-21)
(-0.196265 0.0226322 -1.88282e-19)
(-0.203102 0.124585 2.33128e-21)
(1.94035 0.132475 0)
(0.690452 -0.0362276 0)
(1.00093 0.00118112 2.10541e-22)
(-0.291252 0.322098 0)
(1.28618 0.0239778 4.21348e-20)
(0.687254 -0.0321007 0)
(1.03429 0.0152509 1.51846e-19)
(0.988072 0.017047 -5.25853e-20)
(1.63982 -0.0400571 1.65163e-19)
(1.07473 -0.0102067 -1.09076e-21)
(0.9213 -0.15245 -6.2932e-20)
(1.0165 -0.0128269 4.32671e-19)
(0.626805 -0.561027 2.18089e-19)
(0.378655 -1.54392 -2.39519e-19)
(1.79368 0.775897 1.67859e-21)
(-0.0284107 0.0305267 0)
(1.19349 0.848517 0)
(1.01897 0.0134782 0)
(0.954602 -0.726925 -1.34343e-19)
(1.00119 -0.853684 8.35192e-20)
(1.81301 0.589542 -5.46192e-20)
(-0.81892 -0.664703 -1.4005e-19)
(0.0952693 0.708627 6.0931e-21)
(0.539709 -0.310723 -7.29053e-19)
(2.0239 0.370747 -3.77669e-21)
(0.782377 0.963304 1.29117e-19)
(1.93308 -0.168173 1.57071e-20)
(1.35455 0.216111 4.47487e-20)
(0.0699822 0.150892 -7.15528e-20)
(1.17364 0.600371 2.36046e-19)
(-0.261777 -0.0994766 0)
(-0.191934 0.169579 1.60491e-19)
(-0.143774 -0.0718653 -9.84451e-24)
(1.03184 -0.0426875 3.89121e-19)
(1.01891 0.016266 -9.9892e-21)
(1.11138 -0.00617058 -1.07442e-19)
(0.782889 -0.196897 8.03236e-20)
(1.723 0.331079 8.50641e-20)
(0.3633 -0.334915 -3.65129e-19)
(1.62844 0.580267 8.01042e-20)
(1.02549 0.0179039 -2.85316e-19)
(2.08126 0.654339 -1.72942e-21)
(0.910039 -0.0688881 0)
(1.17348 0.638275 -4.43382e-19)
(1.00281 -0.00236913 1.10451e-19)
(0.729372 0.658842 2.89954e-19)
(0.22822 0.747991 -4.6161e-21)
(1.08165 -0.00083424 -3.56001e-20)
(1.13881 0.0231145 1.00757e-21)
(2.29136 -0.251161 1.29368e-20)
(1.11404 0.38982 0)
(1.04539 -0.0389322 0)
(1.04857 -0.0340062 6.7912e-19)
(1.00257 -0.00197773 0)
(-0.084647 -0.0336989 0)
(0.97715 -0.567673 0)
(1.00079 0.000242404 -6.42502e-19)
(1.10599 -0.635864 1.11689e-19)
(1.02214 0.00316643 1.35145e-20)
(1.42398 1.01387 -4.06385e-20)
(1.61601 1.06401 7.72885e-20)
(0.247304 0.818754 -1.35061e-20)
(0.60424 -0.166341 -6.41863e-20)
(2.06432 -0.0021272 0)
(-0.130408 0.445605 0)
(1.62067 0.0382771 -6.92601e-20)
(0.244474 -0.369438 0)
(0.999429 -0.00467224 -1.98587e-19)
(1.01059 -0.00120421 3.86078e-19)
(1.50889 0.149577 -8.61652e-20)
(0.0453671 -0.103961 1.74759e-19)
(0.984736 0.00334508 2.1076e-19)
(0.493219 -0.146479 2.44198e-20)
(1.79466 0.130108 1.00384e-19)
(0.645696 -0.407587 1.01183e-21)
(0.921799 0.0192332 -2.12091e-19)
(1.00338 0.00446951 2.49505e-19)
(1.00012 -0.000224881 1.4744e-20)
(0.789788 -0.0133109 0)
(0.730574 -0.0266266 0)
(0.727426 -0.0271417 7.07059e-22)
(0.705534 -0.0298018 0)
(0.601855 0.110499 0)
(1.33484 0.275585 0)
(2.01449 0.11253 -1.059e-19)
(2.09309 0.0680276 6.36618e-20)
(1.18296 0.0883376 0)
(0.370433 0.067725 -1.70659e-20)
(0.233444 -0.0371984 0)
(0.176708 0.0839236 0)
(-0.159503 0.100297 0)
(0.35184 0.171256 -3.46897e-20)
(1.71916 0.202048 -7.80626e-20)
(0.770606 0.0247867 0)
(0.784137 0.0199487 0)
(0.962098 0.0224607 -2.61273e-19)
(0.813776 0.00749643 4.86044e-19)
(1.00844 -0.00135008 0)
(1.00024 -0.000646304 4.61214e-19)
(1.00033 -0.000624479 -3.24539e-22)
(0.781524 0.0227343 4.14902e-19)
(1.00084 -0.0039356 -2.4182e-19)
(0.677773 -0.341198 0)
(1.7275 0.248101 -1.00489e-19)
(1.00079 -0.000946564 -2.33091e-19)
(0.999857 0.00173342 -4.00049e-19)
(0.718072 -0.429729 0)
(0.998997 0.00154094 0)
(0.999668 0.00028664 0)
(0.343861 0.634231 -7.94919e-20)
(0.599495 1.09498 -1.13006e-20)
(1.69382 0.825434 0)
(-0.229705 0.587484 2.79363e-19)
(-0.625472 -0.626114 -6.37629e-20)
(1.02173 -0.00616386 -3.11458e-19)
(-0.0736872 0.144857 -6.17247e-20)
(1.0173 0.0148028 -2.50601e-19)
(1.11152 -0.195612 -1.37895e-19)
(0.755217 -0.417594 3.56589e-19)
(-0.0234466 0.00764561 -5.22135e-20)
(1.02598 0.0202258 0)
(1.0803 -0.00676001 -6.87415e-20)
(0.838426 0.0279534 0)
(-0.101555 0.0974303 2.38012e-19)
(-0.0167129 -0.549646 0)
(-0.121049 0.321398 -1.66736e-19)
(0.716592 0.225048 1.38703e-20)
(1.75326 0.725145 -6.91622e-20)
(-0.0692092 0.00368871 0)
(1.05314 -0.0369895 2.10185e-19)
(0.341969 1.07247 -6.95092e-22)
(0.93111 0.0281621 3.26544e-19)
(1.01431 -0.00252895 -2.12173e-19)
(1.77116 0.915684 1.05109e-20)
(0.567446 0.537712 0)
(0.499931 0.476208 2.20988e-19)
(0.83808 0.309101 1.9345e-20)
(1.18784 0.142646 2.32232e-19)
(1.03734 -0.665184 0)
(1.02513 0.012249 0)
(1.00087 -0.0160382 -4.87741e-19)
(1.0172 0.0207523 -4.75562e-19)
(-0.0843999 0.0263911 0)
(1.29381 0.876201 -1.67014e-19)
(0.203169 0.925015 4.91318e-21)
(1.01597 0.0110932 1.83365e-19)
(1.01108 0.01693 -2.29397e-19)
(-0.143982 0.487062 -1.76224e-20)
(0.629952 1.09225 2.55561e-20)
(1.02054 -0.00713167 7.82007e-19)
(0.596416 0.715721 0)
(1.97781 0.692007 -1.2357e-20)
(1.017 -0.00441852 -2.43489e-19)
(1.71109 -0.0165118 1.87245e-20)
(1.07092 0.0182885 -5.63742e-22)
(1.00897 -0.00740668 4.86352e-20)
(1.81542 -0.0215125 -3.00937e-20)
(1.01623 0.00974992 2.35957e-19)
(1.45368 1.14222 -1.44664e-21)
(1.01774 0.0136368 0)
(0.959787 0.191635 5.73014e-20)
(-0.55531 -0.313609 4.13437e-21)
(0.9966 0.0238237 2.34144e-19)
(1.03911 0.0223778 -5.95435e-22)
(0.411971 0.912592 -8.23699e-21)
(1.32328 0.344029 5.11953e-19)
(0.9929 0.0210788 1.61283e-19)
(1.01813 -0.00811498 4.54491e-22)
(1.85831 0.24571 -3.84701e-20)
(1.89233 1.01483 -9.72072e-20)
(0.736511 -0.658264 7.36515e-20)
(0.400811 -0.236263 -3.51051e-19)
(1.0091 -0.00618505 0)
(1.02007 0.00765646 5.85892e-20)
(1.01181 -0.00409428 1.2373e-19)
(1.14986 1.28621 -1.56847e-22)
(1.01385 0.0135593 -2.4576e-19)
(1.02239 -0.00850563 2.8167e-19)
(1.0093 -0.00383163 -2.31241e-19)
(1.01414 0.0123546 -5.36549e-22)
(1.01281 0.00837012 -3.45929e-22)
(1.02249 0.0207506 2.35336e-19)
(0.916559 0.132758 5.86463e-19)
(1.79219 -0.274926 0)
(-0.290832 0.16289 1.78863e-20)
(1.00964 0.00398293 0)
(1.02418 -0.00595368 -6.83121e-20)
(1.61802 0.469562 -1.20954e-19)
(1.51126 -0.0763607 0)
(1.40665 -0.371201 2.7545e-20)
(1.03212 -0.499318 -1.22315e-20)
(0.806837 -0.0225252 0)
(1.55517 0.0535747 0)
(0.100664 -0.939759 -1.22681e-19)
(0.435924 0.565398 -3.17139e-20)
(1.01813 0.00423201 -2.47716e-19)
(1.069 -0.520537 -7.47395e-20)
(0.563989 1.21084 -5.50699e-21)
(1.44434 0.872961 0)
(0.375524 0.619554 0)
(2.12239 -0.102011 0)
(-0.0239654 0.330101 7.44524e-20)
(1.10729 1.15076 -2.97805e-20)
(-0.266408 -1.49476 0)
(0.296716 0.57277 -2.49353e-19)
(1.79735 1.0262 -1.54379e-20)
(1.00703 0.00187836 -4.83848e-19)
(0.942316 1.1283 1.45235e-20)
(1.01987 0.0217817 3.20663e-19)
(0.721533 -0.0475838 0)
(-0.146664 -0.0113022 -1.66987e-20)
(0.668184 0.508323 -3.78618e-19)
(1.82214 -0.096972 1.48391e-19)
(0.206535 0.526135 0)
(0.74096 0.0749929 9.64849e-20)
(0.56088 0.539594 5.77476e-20)
(1.25865 0.940579 -4.56995e-20)
(-0.0848513 -0.0787539 8.37877e-20)
(1.02703 0.0267042 0)
(1.24035 1.09521 -8.34035e-20)
(1.01157 0.00473884 1.81723e-19)
(2.40759 -0.0999311 0)
(1.01129 0.0134444 3.04665e-19)
(-0.124577 0.180605 -7.53487e-20)
(1.01926 0.0199303 -1.88824e-19)
(1.79726 1.24409 0)
(1.89034 -0.530166 1.45917e-23)
(1.00903 0.00844391 -1.26471e-19)
(0.996793 -0.00112617 3.33035e-19)
(1.12534 0.118069 -3.11977e-21)
(1.655 1.10944 1.61139e-19)
(-0.10626 -0.129592 2.25746e-19)
(2.20022 0.250343 1.47736e-19)
(0.93908 0.905209 -1.81593e-19)
(0.798352 0.0143521 -4.56317e-19)
(0.832164 0.0334831 0)
(0.673233 1.13605 -5.24448e-20)
(1.02566 -0.000405678 -3.67065e-20)
(0.970839 0.0568821 0)
(1.0568 0.0101986 -2.33332e-19)
(0.380049 0.260284 1.30406e-19)
(-0.605935 0.206579 1.66715e-19)
(2.06645 -0.463617 0)
(0.151669 -0.375023 -8.77733e-19)
(1.43982 -0.310285 0)
(1.04204 -0.0141281 6.83142e-20)
(1.11395 -0.309607 -2.86035e-21)
(1.01175 0.00860843 1.96544e-19)
(0.0574809 0.363113 5.17344e-19)
(1.02004 0.00996959 0)
(0.994073 0.0036647 -4.71289e-19)
(1.00817 0.0116797 2.49804e-19)
(1.92572 -0.0120808 0)
(1.11297 -0.573258 1.08711e-20)
(0.9562 -0.00124184 -2.1312e-19)
(-0.108483 0.0891098 2.15363e-19)
(1.00382 0.000984663 -2.43561e-19)
(0.997829 0.0475069 -5.72103e-19)
(1.57354 -0.539317 -2.76233e-20)