/*--------------------------------*- C++ -*----------------------------------*\
| =========                 |                                                 |
| \\      /  F ield         | OpenFOAM: The Open Source CFD Toolbox           |
|  \\    /   O peration     | Version:  2306                                  |
|   \\  /    A nd           | Website:  www.openfoam.com                      |
|    \\/     M anipulation  |                                                 |
\*---------------------------------------------------------------------------*/
FoamFile
{
    version     2.0;
    format      ascii;
    arch        "LSB;label=32;scalar=64";
    class       volScalarField;
    location    "9";
    object      p;
}
// * * * * * * * * * * * * * * * * * * * * * * * * * * * * * * * * * * * * * //

dimensions      [0 2 -2 0 0 0 0];

internalField   nonuniform List<scalar> 
2186
(
0.707377
-0.411503
-0.114187
0.979657
-1.14098
0.00684573
0.591157
-1.07712
-1.06366
1.2193
0.904299
-1.00513
-1.09804
0.908756
-0.629962
0.907521
0.936087
-1.78194
0.00208748
-1.09506
1.29365
-1.04254
0.917005
-1.08955
0.904793
0.954954
1.12634
0.812825
0.42697
0.909456
-1.08057
0.907461
-1.01142
-0.745817
-0.998998
-0.0755128
-0.590368
1.2795
-1.05122
0.00489762
-1.12135
-1.04518
-0.742576
-1.16099
0.763007
1.20163
0.268135
0.434118
-0.766279
-1.36483
-1.08792
0.744092
-0.733285
1.20652
-0.998145
0.861338
-0.791413
0.888319
-1.18592
0.740114
-0.373977
0.475435
0.386446
0.00437226
0.407199
0.376651
0.506284
1.1869
1.08308
-1.13255
-1.08233
-0.446377
1.16198
0.909535
1.06411
1.06466
-0.629288
0.931964
-1.00516
-1.00476
-2.24112
0.00536593
0.903763
0.460677
0.8983
0.904347
1.18585
0.00663809
-0.0329757
-1.00528
0.862344
-1.09127
0.835293
1.07118
0.913898
0.247033
-0.235135
0.430647
-1.29369
0.901869
-2.26236
-2.37839
0.5044
0.851723
0.937501
-1.1201
1.08632
-0.819558
0.843119
-0.384226
-0.944004
-1.25945
0.458894
1.19921
-1.00657
-1.00254
0.0016121
-0.635589
-1.00984
1.16605
-0.21528
-1.64547
0.702471
-2.02475
0.912684
0.00433332
-1.21862
1.0546
-1.83849
0.572483
1.29156
1.14772
0.159035
0.56451
-2.20722
-1.40736
0.832972
-1.08392
-0.755038
-1.0319
0.643809
-0.277204
-1.05505
0.615716
0.829202
0.860556
-0.753254
-1.17148
0.525432
-1.13994
-1.14048
0.495479
0.933628
1.09316
0.955264
0.444481
1.17805
0.276317
0.172031
0.340166
-1.03458
-1.7482
0.878079
0.898251
0.0037494
0.00306473
-0.939556
-0.953891
-0.0818701
-0.131352
0.186032
0.906794
0.936444
1.02131
0.2538
-0.525827
-1.12247
0.880248
-2.20607
0.712821
-0.943896
0.918174
-1.07975
0.379715
0.361519
-1.16899
-0.825276
1.00278
-0.735348
-1.10288
-1.31013
1.15533
-1.59389
0.888418
-1.02909
-0.283125
-0.105063
1.07365
0.934843
-1.05912
-1.27232
0.117572
0.00478216
0.938281
-1.00811
-1.12445
-1.01556
-0.431568
0.84458
-0.892233
0.437316
-0.0206305
1.18766
0.673432
0.774314
0.862943
1.05791
0.905978
0.811665
0.975264
0.299041
-0.918786
-1.05146
-0.0881972
0.110321
-1.80636
-1.1926
0.902205
1.04262
-0.965927
-0.943669
-0.800886
0.290069
0.569445
0.705088
0.81333
1.03321
-2.02427
0.798559
-1.04049
-1.37272
-0.991274
0.860801
0.570655
1.02395
1.08377
0.981928
0.957585
-1.06586
0.741293
1.00243
-1.10918
0.846549
0.620308
-1.07106
-1.0029
-0.926854
1.02482
0.932169
-1.13738
-1.18145
-0.0824408
0.87017
-2.22142
0.598815
0.943155
0.771902
-1.01689
-1.07823
0.882769
0.484105
-0.684806
-0.732642
1.23293
-1.12988
-1.06447
0.756224
1.09732
0.899346
-1.25973
-0.786773
-0.928531
0.787086
-1.13971
0.464184
0.881892
0.933188
-0.272227
-0.545397
0.862807
-1.09986
0.841108
1.10803
0.927167
0.927113
0.0108127
-1.34423
-1.07459
-0.453804
-0.764585
-1.38587
0.299256
-0.625238
0.444124
1.08415
1.08216
0.786381
-0.787271
1.03651
-1.38162
-0.00726784
-1.4553
-1.03281
-1.14354
0.272225
-1.14435
-1.1005
-0.018826
0.805209
-0.203358
0.208641
-1.24
-0.0875917
-1.11062
-1.22023
1.12096
-0.207114
-0.00320837
-1.07214
0.706435
0.400135
-0.653791
0.443647
0.31556
-1.20572
0.499653
0.935723
0.942952
0.125485
1.05353
0.805836
0.203599
1.15787
0.901791
0.84723
0.297743
-0.23985
-1.03735
0.728168
-1.17447
-0.965068
-1.51193
-0.875774
-1.01332
1.25065
-0.0501187
-1.07831
-1.11872
0.902163
-1.07458
-1.11157
-1.33171
0.678223
-0.173484
-2.01417
1.1498
1.21106
1.04166
-1.06243
-0.00919778
1.26452
0.908652
-1.39628
0.28166
-1.04899
0.0954817
1.06971
0.85414
0.796539
1.21262
-0.581573
-0.249888
-0.243912
-0.50168
-1.83435
-1.02317
0.00382186
1.19076
-1.94547
-1.41545
0.894868
0.502731
-1.01255
-2.18781
-1.04189
-1.62737
-1.70437
-1.02667
-1.0959
-1.11537
1.09998
-0.0956284
-0.946789
0.922173
-1.685
1.17573
-2.04273
-1.05166
-1.3628
0.906149
-0.951797
0.929834
0.765572
-0.0646789
0.954887
-1.72451
-1.02112
-1.28819
0.929011
0.853282
-1.03957
-1.05168
-1.50815
0.851706
-2.02898
-1.75122
0.343698
0.829287
0.792997
0.618544
-1.06996
-0.82589
0.711104
-0.835847
0.726305
-1.0441
0.930988
-0.230159
1.04566
-1.01061
0.770589
0.569478
0.936916
-1.31648
0.900096
-0.381848
-1.01965
0.907979
-0.176901
-0.0509987
-0.935473
-0.34548
0.908608
0.0206459
0.213625
0.907586
0.0619464
-0.236677
0.00974529
-1.07958
0.166707
-1.18854
0.556186
-0.951259
0.941059
1.05029
-1.08566
-1.02996
-0.212184
-1.04976
0.243928
-1.1374
0.687788
-0.125346
-1.08804
0.987105
-0.146844
0.199967
0.219263
-0.19078
0.648282
0.171169
-0.37457
-0.60834
-0.0437414
-0.949048
0.924574
-0.685315
1.01954
1.1418
1.12812
0.496135
1.04215
-1.12157
-0.963359
0.809428
0.141479
0.895404
-1.00614
-1.08061
-2.28994
0.717535
-1.02373
-1.78032
-1.08192
-1.13212
0.0110758
-1.05992
0.587597
0.575071
-0.796223
-0.808283
0.669566
0.000648134
1.01023
-1.13905
-0.373752
-1.02508
0.609418
-0.010288
1.08867
1.27983
-2.14002
-1.15574
-0.901344
0.0925501
-2.31402
0.955651
-0.802695
0.912075
0.624417
-1.00596
0.746377
0.709051
-1.13722
0.789927
-0.607112
-1.07982
-0.883596
-0.975452
-0.678501
-1.96312
-0.877885
0.91063
0.036054
-1.20137
0.510991
1.05424
1.12878
-0.422734
0.681038
-0.0234423
0.696448
-0.161086
-1.07043
-1.0958
0.331922
0.673301
0.94008
-1.47645
-1.08381
-1.69401
-1.02078
-0.185649
0.650721
-2.01052
0.00505079
-1.59145
0.808913
-0.0395809
0.858583
-0.30684
-0.318146
0.856413
0.580634
-2.02616
-0.362364
0.867891
1.20708
0.934091
0.0130666
-1.89305
0.716696
-0.271561
0.703204
-0.834072
0.27801
0.864909
-1.0987
-1.07836
0.896964
-1.38878
1.12517
0.00658314
0.79626
0.0390938
0.543488
-0.812949
1.1456
-1.07883
-1.88503
0.825821
0.359116
0.336929
-1.46175
-1.08111
-0.828619
0.656721
-0.0680551
-0.874792
-0.202249
0.926619
0.222272
-1.70561
0.606623
0.757729
0.886453
-1.5758
-0.97892
-1.0927
0.922304
1.05542
0.413101
0.918002
0.0803522
0.969998
0.0513805
-0.925753
-0.28528
0.8325
0.878007
-2.25155
0.708892
-1.08611
0.673428
-1.25463
0.869248
0.868021
0.925947
-1.1905
0.792959
-1.99535
-0.926548
1.07646
-2.05806
-0.76135
1.00422
-1.36231
0.982291
-1.87873
-1.09225
0.91471
0.700445
1.2727
0.908388
-2.22728
1.00172
0.970859
-0.160378
0.481881
0.0548239
-0.878593
1.39608
-1.04218
1.01769
-1.15258
0.228304
0.909409
-1.64515
0.892075
-1.17113
0.788605
0.864575
0.922951
0.00753106
-1.0458
-0.671777
0.490787
0.574579
0.981134
-0.22685
0.686553
-1.78067
-0.565731
-1.98187
0.75177
1.06391
-1.34021
-1.12205
0.0031352
1.13621
-0.00888666
0.587378
0.0192593
-2.25113
-1.06195
-1.05552
-0.177542
0.679092
-0.657194
-0.0435647
-0.497858
-0.623099
-1.10419
-1.47091
-0.235547
0.874343
0.926642
-1.50866
-0.485676
0.88661
0.846821
0.930919
-1.96831
0.88577
0.970544
0.907762
0.978623
-0.156075
-0.059427
-1.08051
0.464953
0.91236
0.628811
0.0806588
-0.00673024
-1.21078
0.028008
1.17576
-0.136388
0.0359116
-0.741128
-0.0785469
-1.07615
0.645985
-0.963401
-1.75735
-1.02148
0.907619
0.909642
0.915328
0.0058927
0.154157
1.15426
-0.000438747
0.9095
-0.0306062
0.00624985
0.618494
0.926773
0.966818
0.0143672
0.879671
0.879455
-1.00041
-0.0448486
0.91673
0.9309
0.926464
-1.02829
-1.05712
0.926456
0.532401
0.910254
0.036252
-0.315597
0.0317271
-1.16973
-0.255161
-1.14468
-1.52421
0.0139332
0.933569
0.936832
0.630819
-1.02511
0.907812
-0.0103051
-0.0112105
0.00295445
0.911675
0.932946
0.927005
0.941383
0.917945
0.911626
0.899673
-0.11424
-0.0161863
0.00411095
0.00137393
0.00207257
0.00171365
0.00109277
0.00857082
6.543e-05
-0.0130297
-0.113471
0.905847
0.922452
0.915864
0.942087
0.939049
0.928392
0.932017
0.912913
0.914451
0.00235827
-0.00227421
0.928902
0.928127
0.00235402
0.928353
0.92854
0.00540586
0.0269978
-0.0169763
-1.05601
-0.171663
0.910575
-1.19845
0.906922
0.557304
0.995186
-1.03841
0.912254
0.847858
0.862671
-1.07619
0.0539681
-1.2858
-0.0248295
-0.228546
-1.07214
0.921836
0.023381
0.997422
0.912761
-0.365312
1.05962
1.21367
-0.0131727
0.761387
0.588265
0.907748
0.929213
0.91761
-1.03681
0.32593
0.0118431
0.909636
0.925461
-1.24149
0.0212257
0.912231
0.00757222
-0.5379
0.911871
-0.758803
0.891927
0.924841
-1.04248
0.919652
0.0329321
0.909542
0.976867
-1.18129
0.928139
0.937094
0.0140557
0.553677
0.912549
0.915188
-0.0422684
-0.973557
0.640663
1.26678
0.921512
0.915048
0.917512
0.0226731
0.91426
0.904852
0.919163
0.914264
0.915255
0.914757
1.01094
-0.132993
-2.29715
0.915025
0.909734
0.124114
-0.704086
-0.22503
-0.0703214
0.77675
-1.55939
0.126284
0.00549742
0.911139
0.650294
0.0113954
0.03357
-0.0022477
-0.241493
-1.21994
0.025391
0.227075
-2.03503
-0.532768
0.919634
0.0149575
0.908959
0.826646
-1.02488
1.13681
-0.0824244
-1.57199
0.674135
1.01839
0.299443
-1.01366
0.909701
0.0321573
0.91686
-1.13571
0.91777
-1.59057
0.907735
0.0208176
-0.30368
0.91909
0.933793
0.842016
0.0432377
-1.00507
-1.02229
0.0601314
0.933495
0.810793
0.0409391
0.909034
0.952465
0.903213
0.0939509
-1.91971
-0.722915
-1.37229
0.254979
0.913719
0.00410047
0.914282
-2.11293
0.909062
0.948818
0.921486
-7.46327e-05
0.00113698
0.9437
-1.18122
0.925334
0.926621
-0.0545393
-1.07354
0.821013
1.03335
0.906112
0.904647
0.0828119
0.17188
0.887092
0.339959
0.922477
0.768176
-1.11796
-1.06026
0.75028
1.16116
0.909337
0.271892
0.0169877
0.0546763
-0.638125
0.304874
0.892525
-0.715898
0.895873
-1.78951
-1.03241
-1.13832
0.304789
-1.15491
0.0510193
0.260669
0.906433
-1.01833
0.791299
-1.04385
-0.238312
0.104882
0.00887802
0.242795
0.878648
0.0643942
-0.820121
0.16213
-1.32558
0.904831
0.388392
0.00760329
-1.91041
0.978618
-0.00693192
-1.04102
0.976992
0.897281
0.888694
0.406589
-0.950148
0.915316
0.938483
-0.514537
-1.11027
0.906662
0.720324
1.14834
0.924883
-0.36984
0.248702
-1.16522
-1.68593
-1.28972
-1.02377
0.0230038
-1.24607
0.724462
-0.0884612
0.918951
1.11189
0.906222
-1.01108
-1.27082
0.909301
0.10908
0.14006
0.89425
-0.35107
-0.971998
-1.86384
0.0487259
0.854745
0.829644
-0.302149
0.768573
0.549827
0.0210083
0.898487
-2.1576
0.708526
-1.01675
0.903694
-0.262941
0.35163
0.909556
0.982796
-1.72055
-1.98647
0.731287
1.27797
0.93089
0.906653
0.369803
1.16468
-0.893902
0.115934
-0.882887
0.398645
-1.3899
1.01875
1.0782
-1.04821
-0.628615
0.90551
-0.963173
0.773687
0.938029
0.869418
-1.7041
0.910476
0.0030049
0.939509
0.00237427
0.157077
-0.31241
0.914694
-0.00923257
-0.67113
0.107595
0.916385
0.279372
1.08584
0.192184
1.21971
0.874074
-1.1789
0.896137
-1.09102
0.878935
0.88014
0.0824611
0.185463
1.01927
0.895567
1.11846
0.864288
0.0201143
0.8639
0.901118
0.76134
0.917743
-1.01464
-1.32173
0.123563
1.01445
-0.916681
0.211985
-1.08296
-0.926936
0.0909992
0.00372534
0.752286
0.112792
0.873383
0.925655
-1.12036
-1.32976
-1.10382
-1.39184
-1.36828
-1.08891
0.913075
-0.842102
0.926233
1.1525
0.967582
-0.368647
0.936058
0.84524
-1.12147
0.878941
0.893887
-1.11779
0.890411
0.830971
0.00317173
-1.01692
1.36747
-0.647405
-1.61014
-1.23044
0.167127
0.894642
-1.67268
-0.18263
-1.07002
1.04238
0.272156
0.740714
0.924408
0.898133
-1.12012
0.887167
-1.29204
0.922194
0.938863
-0.582632
0.926821
0.375805
0.906308
0.634111
-2.12772
0.00262719
0.00238186
0.0348609
1.1402
0.00525053
0.936098
1.29388
-0.29544
-0.00407076
0.980631
-0.00180467
0.976148
-0.00505683
0.00136922
0.972736
0.976762
0.35427
-1.96187
0.64776
-0.969648
-1.25944
-0.881804
0.933554
0.914221
1.33916
-1.01668
0.176602
0.668256
-1.31681
0.980912
0.887512
0.909121
0.900815
0.870521
-2.18433
-1.02692
-1.74226
0.707034
0.830452
-1.29311
-1.09544
-1.04721
0.930676
0.949325
-0.685992
-2.01278
0.948242
-0.0439998
0.0809132
0.660568
0.813999
-0.156196
-1.35139
-0.386704
-1.06631
-0.962574
-2.13298
-0.222542
1.2928
1.26007
-0.993391
-0.979216
0.928259
0.906042
-1.32346
-0.128348
-0.420325
0.536436
1.00508
-1.63455
0.919917
-0.156613
-1.30984
-1.24232
-1.55252
-1.17435
0.90027
-1.0299
-1.73461
1.26182
-1.05581
0.917156
1.12868
-1.09807
0.9702
1.17407
-1.11235
1.14052
-1.07397
-1.34796
0.921351
0.0780472
0.940405
0.924233
-1.07936
0.974754
0.0806764
-1.85217
0.952422
0.958276
-0.953493
-1.91988
0.851731
0.911839
-1.06527
-1.77625
1.18021
-1.07791
0.817977
0.0139242
0.862097
-0.990234
-1.67218
-1.04824
-1.08807
0.99004
0.949787
1.21125
1.10431
0.873459
0.970942
0.96093
-1.0432
1.03111
1.06825
-1.12661
-1.0763
-1.19801
1.22086
-0.429184
-1.28349
0.0479724
0.832506
-1.13337
-0.91996
0.917418
0.947648
-1.05404
-1.10874
-1.22229
0.0124617
-1.87056
-1.12369
-1.03826
0.784764
0.822921
-1.09326
-0.616315
-0.921133
0.734903
-1.07706
-1.0519
-1.03487
0.873941
-2.36109
-1.11534
1.25085
0.813339
0.329527
1.11997
0.103952
0.908799
0.924108
1.03749
1.13303
-0.05333
0.572775
0.906266
0.199786
-1.03035
1.33093
0.882823
0.834774
0.978235
-1.123
-2.47335
0.781868
0.699843
0.882908
-2.40897
-1.76913
0.903235
-1.02975
0.754739
0.0286362
1.31206
-1.02657
0.628383
0.670324
-1.08448
-1.02233
-1.96139
0.984105
-1.08691
-1.02392
0.632398
0.508366
-1.65027
0.978239
0.764966
-1.089
-0.793438
0.860733
-2.45317
-1.01795
-1.18693
-1.08574
-0.941158
0.885894
0.927661
-1.27371
0.552512
0.920656
1.24819
0.213501
0.172536
-0.104733
0.812369
-0.507403
-1.08253
-0.394128
-0.758012
-1.08064
0.904822
-1.08314
0.0591926
-1.01412
0.438705
0.50344
-1.07568
0.570183
-1.84559
0.431468
-1.07037
0.361939
-1.08455
0.326767
-1.00729
0.275766
-1.06373
0.750224
-2.42684
-1.06411
-1.07128
-1.01699
0.926996
0.0280953
-1.10708
-1.01429
-0.0784706
-0.00610026
-1.07718
-1.02339
-1.15659
-0.176878
-1.03169
-0.247673
-1.0646
-0.462641
-1.23958
-0.345909
0.792928
-0.00737973
-2.46546
0.890433
-0.217149
-0.0348029
0.385305
0.883691
-2.38507
-1.68947
-1.00803
-1.97525
0.821033
1.31884
-0.449996
-0.0013495
-0.0389939
-1.04138
-0.52572
-0.420938
0.880065
-1.00473
0.875066
-1.49892
1.38205
0.392651
1.34003
-1.10313
1.11513
-0.713322
0.936487
-1.00448
-1.00394
1.00275
0.912051
-2.30253
-1.01788
-1.0783
0.873761
-1.24157
0.899757
-1.35272
-1.1119
-1.04928
1.21407
0.944043
1.03785
0.92183
0.932159
0.0410944
-0.620568
1.10408
-2.47666
-0.975025
1.3135
-1.11584
0.82344
0.877837
1.28243
1.34233
-1.15215
-1.98946
0.95166
0.165186
-0.514095
-1.01191
-0.302395
-1.50067
-1.10349
0.486197
-1.75479
1.12619
-0.932687
0.943423
1.03831
0.941475
-1.84182
-0.982346
-1.26947
1.00179
-1.07538
1.07191
-0.887233
-1.29702
1.13691
1.22714
-1.01204
-0.0357475
0.863114
-1.61936
-1.41024
0.590192
1.17151
1.14152
-1.46214
0.786117
0.739116
-1.01306
1.15418
0.165768
-1.09692
-0.231294
0.00578557
-0.00129518
1.01628
-0.936373
0.142133
0.0163985
0.0397721
-0.819912
-0.999638
0.90094
-2.41218
0.926972
-0.232117
0.0231335
0.621663
0.189788
-1.00084
-0.792272
-1.22806
-0.0770095
0.0139171
-1.53862
0.829571
-2.57216
-2.12567
0.9132
-1.42441
-1.13554
0.928892
-1.01688
0.866979
0.00915858
-1.03204
-0.395764
0.717028
-0.827057
-2.07497
0.814126
-1.08084
0.988934
-0.634862
-1.20749
-1.00918
-1.01113
1.40286
-1.62802
1.04576
0.0178115
0.87173
1.09494
0.648103
0.944617
1.05726
-0.295084
-1.21982
0.885635
1.01605
1.27663
-1.04477
0.957176
0.560142
-1.06906
0.715451
1.13331
-0.756035
1.24052
0.0147015
-0.957924
0.76199
-1.07798
-1.06904
0.86194
-0.640863
0.973937
0.982295
0.864959
-1.02626
0.80403
1.15985
-1.46096
-0.473984
-1.60256
-1.42371
-1.17641
-1.02031
1.27334
0.678475
-1.10407
0.838435
-1.08097
-1.01861
1.19377
1.12325
-2.48318
-1.93517
-1.00894
-1.06115
0.89368
-1.12041
0.0107039
-1.02777
-0.593524
0.979396
-1.07396
1.28632
0.957291
0.804865
0.931991
1.20021
-1.37189
-1.08196
0.937129
1.06531
-0.806204
0.923742
-1.54411
-1.04774
-1.0554
0.980322
1.01037
-1.0531
-1.15679
0.478781
-0.142587
-1.73634
0.892266
0.855329
-1.85279
0.896315
0.939879
-1.6153
-1.12985
-1.07226
-1.043
-1.05598
1.23211
0.0296113
0.807727
-1.13564
1.23097
0.789827
0.757876
0.844651
-1.98164
-0.519938
-1.03826
0.40775
-1.1146
0.846575
0.22704
-0.779744
0.762506
0.930679
0.953635
0.917747
0.000223556
0.950609
0.000666839
0.346237
0.701807
-0.747962
-1.12759
-1.17835
-0.878216
0.928825
0.894324
0.925608
-2.26524
-0.86096
-1.03352
-0.992783
0.921618
1.185
0.935679
-1.12153
-0.931615
-1.52822
-0.726795
-1.01358
-1.00981
-0.369848
0.906256
-0.872122
-1.09275
0.0129225
-0.159729
0.605128
-0.631093
-1.02911
-1.24661
0.838095
1.33834
0.0119589
1.01608
1.38863
0.542233
1.10934
-1.14619
0.0142349
1.31639
-1.02457
0.243425
-1.1079
-1.0621
-1.07001
-1.0862
0.900144
0.660415
1.08838
1.04992
0.000638182
0.706526
-0.104168
0.00950346
-1.02008
1.02403
0.606913
0.932978
0.946468
0.00682794
0.00124881
0.946628
-0.88831
-1.01699
-1.08937
-1.07809
0.515249
-1.08424
0.875779
0.597333
-1.02527
1.15421
-1.11888
-0.501891
0.900439
-0.887228
-1.06325
-2.41029
0.47578
-1.09712
-1.62926
0.803263
0.938894
-0.0141322
-0.0313377
-2.63718
-1.01531
0.115212
-2.10431
-0.266337
0.530528
-1.34574
-1.08182
1.16036
0.121307
0.227328
-1.07911
-1.06857
0.915096
0.969996
0.402343
0.465822
-1.07337
-1.0241
-0.802895
0.322385
0.375142
-1.06687
0.74728
-0.001407
-1.05919
1.34091
-1.06226
-2.01079
-1.05713
-1.01918
0.7702
-1.08353
-1.10253
-1.02054
-0.0586662
-1.12898
-0.15291
-0.986489
0.00166036
1.07649
-1.19128
-0.239356
-1.04885
-0.341099
1.23685
1.31253
1.126
0.921928
1.10222
-0.9044
0.905788
-1.11968
0.966701
-1.00926
-0.959147
1.18423
-1.16585
0.40783
-2.28129
1.31271
-0.21111
1.25096
0.473854
0.667475
-1.10145
-1.10509
-1.00457
-1.4775
1.22115
1.09428
0.902432
0.557633
0.910336
0.794371
0.695686
-1.07539
-1.05662
0.0817816
0.0158148
0.669312
0.92508
-0.0969942
-1.10232
-1.06537
-1.84868
-1.00497
-1.00178
1.26314
0.940603
0.916489
0.00855932
0.00338892
0.940784
-0.376139
-1.0176
-2.20326
-1.06279
0.657596
-1.08712
-1.07787
-0.37765
0.91252
-2.41211
-1.05484
0.909565
0.538545
0.641071
0.906867
-1.01121
0.749619
1.10441
0.765304
-1.00583
0.907633
0.287074
0.321644
-1.1449
-1.08314
1.34573
0.177857
-1.47163
-0.0528668
0.788929
0.865047
-1.01078
-1.87033
0.00841365
-1.13426
-0.954743
-1.11116
0.0111812
0.902022
-1.43454
0.894685
1.19236
1.0148
0.889332
0.978263
1.04136
0.910439
-1.80572
-0.72145
-0.599957
-1.09115
-0.931564
-1.07426
1.0474
0.940903
-1.07349
0.883813
-0.881752
0.138595
-1.06705
-0.136374
0.46052
-1.46462
0.896995
0.785462
-1.8811
-0.464577
1.24323
-2.21433
0.102617
-1.17807
-1.11836
-1.04611
0.957629
0.646641
1.0137
-1.46016
-0.360316
-0.990335
-0.544752
-1.07572
-1.23858
-1.70135
-2.65689
0.791727
-0.783644
1.36886
-1.33122
-0.638218
-1.04863
-1.07521
0.851574
-1.07381
-1.38186
-0.940634
-0.418206
1.08439
1.13751
-2.32875
-0.544862
0.698632
-1.03126
-0.902925
1.02178
-1.70256
-1.50875
-1.4816
0.622566
-0.501187
-1.07496
0.902867
-0.152979
-1.23537
0.914084
-0.930259
-1.81483
-1.50645
-1.15794
-0.174012
-1.07668
1.20911
-1.02673
0.0856162
-1.01118
0.665441
-0.929658
-1.04398
0.515775
0.688155
0.967507
0.876924
1.07627
-1.09238
0.77072
0.474795
-1.54893
0.827809
-0.561613
-1.00292
-2.56656
1.09706
1.08288
-1.07061
-1.00542
-1.43711
0.896999
-1.00159
-0.0821111
-1.46364
-1.08252
1.17454
0.90008
-1.10288
-1.03643
-1.11272
-1.09295
0.809855
-1.16023
0.863844
0.0810199
0.577618
0.710648
-1.05194
-1.06516
0.822987
-1.07987
0.0115852
1.18854
-1.03438
-1.08809
0.693488
-1.56977
-1.0757
-0.27264
-1.05501
1.26381
-0.68686
0.0637574
-1.10664
1.22425
-1.11087
-1.02429
0.510876
-1.34033
-1.00893
1.24886
0.541935
0.931621
-1.09469
1.12129
-0.108303
-0.884616
-1.11315
-1.12517
-1.1167
1.15408
0.440654
-1.05042
-1.11246
-1.06791
1.02231
-0.907922
1.20045
-1.01032
0.601706
-1.08645
0.22866
0.402375
0.366704
0.282611
0.113674
-0.961819
0.896558
-1.11779
-0.896486
-1.23367
0.203276
1.24033
-0.387403
-1.08398
-1.15072
-1.08924
0.118077
-1.32123
-1.08527
0.770254
0.113719
-1.09382
1.30428
-1.07223
-1.93271
1.2701
-1.08998
-0.000802161
-0.919369
-1.07024
-1.08363
1.27913
-1.06726
1.19105
-1.08249
-1.05556
1.06935
-0.335917
-1.00647
0.430218
-1.04477
-0.140352
-0.488735
-1.08457
0.730015
-1.15129
-1.08303
-1.07326
-1.07119
-1.01937
0.767595
-0.320788
-0.546915
-1.09828
1.21728
-0.93325
-1.06023
-1.04714
-0.238523
-1.21426
-1.05079
-1.09612
-0.209094
1.13646
-1.12786
-1.00959
-1.62827
-0.800478
-0.404858
-1.02592
1.30217
1.23403
0.273548
-1.14654
-1.01614
0.185328
-1.01891
1.31115
0.0599218
0.996051
0.568897
1.20472
-0.062911
-1.2223
-1.18924
-0.222379
-1.12223
-0.222358
-0.18298
-1.07998
1.21133
-0.396291
0.071862
-0.507687
-1.01828
-1.2144
)
;

boundaryField
{
    frontback
    {
        type            empty;
    }
    Top
    {
        type            zeroGradient;
    }
    outlet
    {
        type            fixedValue;
        value           uniform 0;
    }
    bottom
    {
        type            zeroGradient;
    }
    Inlet
    {
        type            zeroGradient;
    }
    rectangle
    {
        type            zeroGradient;
    }
}


// ************************************************************************* //
