/*--------------------------------*- C++ -*----------------------------------*\
| =========                 |                                                 |
| \\      /  F ield         | OpenFOAM: The Open Source CFD Toolbox           |
|  \\    /   O peration     | Version:  2306                                  |
|   \\  /    A nd           | Website:  www.openfoam.com                      |
|    \\/     M anipulation  |                                                 |
\*---------------------------------------------------------------------------*/
FoamFile
{
    version     2.0;
    format      ascii;
    arch        "LSB;label=32;scalar=64";
    class       surfaceScalarField;
    location    "9";
    object      phi;
}
// * * * * * * * * * * * * * * * * * * * * * * * * * * * * * * * * * * * * * //

dimensions      [0 3 -1 0 0 0 0];

oriented        oriented;

internalField   nonuniform List<scalar> 
3181
(
-1.01295
0.383562
0.629387
-0.38347
0.360154
0.0233154
0.514339
-0.353756
-0.160583
0.11652
-0.194136
0.0776157
-0.0941835
0.117531
-0.0233472
0.714359
0.481429
-1.19579
0.145545
-0.139357
-0.00618762
0.08137
-0.00213558
-0.0792344
0.593418
-0.773279
0.17986
-0.0744646
0.13232
-0.0578554
-0.0106409
-0.0516908
0.0623317
0.131609
0.0428207
-0.174429
0.00115623
-0.0685122
0.067356
-1.08166
0.156778
0.924878
-0.319364
0.686118
-0.366754
-1.12546
0.643894
0.481566
0.0803783
-0.935566
0.855188
-0.379453
0.2906
0.0888534
-0.632827
-0.420225
-0.00664514
0.0723099
-0.0656648
0.0427299
-0.0890025
0.0462726
-0.0810488
0.0641876
0.0168612
1.05412
-1.02657
-0.0275492
0.0196649
0.0347321
-0.054397
-0.959564
0.32068
0.638884
-0.106524
0.223044
0.304682
-0.24944
-0.0552419
0.0289598
0.0608745
-0.0898343
-0.416229
0.342926
0.0733021
-0.0275404
-0.00478917
0.00685951
-0.00207034
-0.0417241
-0.91784
0.106838
-0.072381
-0.0344573
-0.056061
1.31432
-1.25826
-0.0445424
0.0399488
0.00459367
0.182961
0.277862
-0.460823
1.17225
-1.22831
0.0729313
-0.0302014
1.60916
-0.864455
-0.744701
-0.311606
1.02596
-0.136684
0.137841
-0.0839423
0.00289343
-0.402504
0.0831399
-0.166739
0.0827968
-0.630877
0.127221
0.503657
-0.143453
0.0689881
-0.165173
0.16928
-0.00410653
-0.266045
-0.0759799
0.342025
-0.305468
1.42572
-1.12025
0.0795643
0.203752
-0.283316
-0.0114343
-0.101453
0.107607
-0.00615456
0.501107
0.185011
-0.0938663
0.144141
-0.0502743
0.0944292
0.0124091
-0.1671
0.192656
-0.0255566
0.159677
0.0564343
-0.216111
0.106317
-0.112127
0.00580949
1.26142
0.347736
-0.839294
-0.173655
0.250794
-1.10215
0.851357
0.555684
0.230414
-0.786099
-0.447783
-0.20878
0.656563
-0.992636
0.68103
-0.273625
0.82931
-0.317675
-0.102303
0.419979
-0.209127
-0.207101
-0.186138
0.168122
0.0180164
0.144276
0.281135
-0.425411
-0.201533
0.794951
-0.00639473
0.0877648
-1.32155
1.57234
0.18063
0.124052
-0.171383
-0.110922
0.282305
-0.265023
0.359187
-0.0941641
-0.0784839
0.0867008
-0.00821686
-1.62702
-0.916615
0.0099205
0.906695
-0.0443474
-0.000195025
-1.10668
0.817592
0.289087
0.637233
-0.457382
-0.179851
-0.996315
0.0036783
1.11312
-0.956339
-0.721408
1.12258
-0.197697
1.07139
0.171403
-0.170167
-0.00123538
1.16594
-0.684513
0.810062
-0.810062
-0.00799949
0.00106214
0.00693735
-0.205249
-0.05341
0.258659
0.140784
-0.092324
-0.0484602
-0.42023
0.800995
-0.380765
-0.0211269
-0.230067
0.251194
-1.07074
0.0441722
0.350023
0.0575964
-0.407619
0.130869
-0.844066
1.07448
0.101226
0.102501
-0.203727
-0.0177954
-0.149304
-0.537639
0.457937
0.0797021
-0.463356
-0.0742828
0.107053
-0.951118
0.338462
-0.758692
0.915108
-0.834729
-0.0282793
0.230512
-0.202232
0.0852822
0.0525515
-0.137834
-1.34723
-0.123667
1.4709
-0.238753
0.402726
-0.163974
-0.357685
0.440447
-0.0827618
-0.487234
-0.619446
0.192584
-0.11302
-0.149756
0.144272
0.00548417
-0.0773454
-0.0156532
0.0929986
-0.551891
-0.221388
-0.126369
0.0530907
0.0732779
-1.02847
0.0351791
0.993287
1.45838
-0.0326677
-0.00762288
-0.000376604
0.0314633
0.149167
-0.202385
0.385346
0.00800624
0.268698
-0.276705
0.14024
0.0693858
-0.209625
0.38585
-0.0647221
-0.321128
-0.593362
-0.532098
-0.801863
-0.226603
-0.0753965
0.176623
-0.10079
0.177891
-0.0771005
0.00639709
0.0243117
0.121233
-0.05612
0.0671049
-0.0109849
-0.0923196
-0.0205703
0.11289
0.0729875
-0.0729875
-0.181356
0.205668
0.173877
0.211758
0.101953
0.0907035
-1.24828
1.04674
-1.50243
0.0556875
1.44674
0.0151071
-0.010917
-0.00419013
-0.0271004
-0.0521512
0.0792516
0.526552
-0.0192192
-0.507333
-0.0338051
0.0357401
-0.00193502
-0.195871
0.0145149
0.154382
0.646613
-0.36351
0.517892
-0.136278
-1.21095
-0.139746
0.0455627
0.477072
-0.296583
-0.180489
0.169806
-0.142838
-0.0269681
0.0472218
-0.313267
0.024751
-0.941366
0.0482395
-0.14903
-0.277907
-0.393655
0.0775364
1.41862
-0.984187
-0.434433
1.10539
0.313226
0.0654613
0.276563
0.0183877
-0.00328055
-0.175574
0.234983
-0.0594091
-0.237151
-0.592958
0.830109
-0.349674
0.533115
0.691419
-1.11164
0.151274
0.020205
-0.0604517
0.0402467
-0.903991
-0.0527976
0.956788
0.0392924
-0.943283
-0.310031
0.660054
-0.910815
-0.0162453
0.0046886
-0.270756
0.266067
1.46598
-1.59801
0.132027
-0.145036
0.00529006
0.564352
-0.801502
0.222532
-0.521764
0.299233
-0.297639
-0.12218
0.419819
0.171479
-1.0018
-0.0689375
-0.020079
-0.0455857
-0.5646
0.355819
-0.250092
0.019046
0.231046
-0.0426905
-0.102346
0.0333783
-0.0333783
-0.121197
0.132895
-0.011698
-0.233813
-1.26862
0.104999
0.0284483
-0.133447
-0.215421
0.0456127
0.169808
-0.225893
0.0397542
1.63524
-0.240319
-1.39492
-0.189708
0.44181
-0.252102
-0.000913886
0.00153774
-0.000623858
-0.0336211
-0.324064
-0.189063
-0.00463964
0.193703
-0.166176
0.310452
-0.103
0.101254
0.0017457
0.0756881
0.0150889
-0.090777
-0.187775
0.249588
-0.0618135
-0.0805628
0.028835
0.0517278
-0.215251
-0.0498533
0.265104
-0.682336
0.652607
0.0297289
-0.00231631
0.0370484
0.0497265
-0.0501497
0.000423259
0.00798484
-0.0623819
0.517809
0.940576
0.161885
-0.874858
0.712973
-0.163611
1.86566
-1.70205
0.374769
0.140757
0.669305
0.0667952
0.207141
-0.0669016
-0.0723454
-0.0291072
0.228895
0.160008
-0.0747256
0.729534
-0.408853
0.0597186
0.19894
0.0522343
-0.169573
0.117339
-0.811203
-0.129656
0.940859
-0.0442785
0.0442785
-0.10066
-0.272968
0.55083
0.0123018
-0.227553
0.140635
0.149965
0.0513126
-0.126709
0.137714
-0.148355
-0.345997
0.32487
0.059867
0.0489866
-0.108854
0.376055
-0.333234
0.332429
0.0033745
-0.335803
-0.202586
0.268048
0.184642
-0.481225
-0.234881
0.618443
0.161671
-0.0325628
0.0325628
-0.386836
0.547983
-0.161146
0.374387
0.0283394
-0.0182431
0.0240889
-0.00584577
-0.180816
-0.0683689
-0.0579996
-0.0501645
0.187879
-0.182924
0.245023
-0.062099
0.131795
0.0282126
-0.388467
0.139027
0.194209
-0.062414
-0.0465451
-0.0564551
-0.0805056
0.0615564
0.0189492
0.144253
-0.102425
-0.0418282
-0.0258047
0.401048
-0.375244
-0.13993
0.133536
0.105831
-0.110256
0.00442582
0.0242174
0.548645
-0.216217
-0.0929262
-0.0168143
0.109741
-0.105205
-0.000691946
0.105897
-0.0929844
0.0997105
-0.726897
0.627187
-0.0316854
-1.49217
-0.338759
1.83093
0.380621
0.853496
-1.23412
0.0807609
-0.373463
0.308741
0.282007
0.252751
-0.534758
-0.21037
0.262604
0.167776
-0.905981
0.738204
0.0457218
-0.150927
-0.0218929
0.00181393
-0.982395
0.443711
0.538685
0.984187
-0.877135
-1.63409
1.51043
-1.46598
1.52167
0.0380053
-0.0882797
0.0156184
0.0341081
0.00725917
0.831874
-0.664098
0.118112
-0.0698725
0.394163
0.728412
-0.158164
-1.55393
1.39032
-0.667304
-0.580971
-0.239942
-0.390935
-0.00208977
-0.162412
0.209634
-0.588232
-0.369948
0.18024
0.761151
-0.234599
-0.870901
-0.763193
0.726237
0.245668
-0.199946
0.277836
0.0367989
-0.0367989
0.672967
0.148268
-0.821235
-0.221614
0.894581
0.467643
-1.08559
0.617946
0.269766
-0.0580073
0.00616822
0.0072103
-0.0133785
-1.10215
-1.18425
1.15158
0.755884
0.879358
-0.0339205
-0.131252
-0.243657
0.744764
-0.200374
-0.0497183
-0.00288727
-0.0755966
-0.0543847
0.106936
0.37783
-0.250609
-0.803582
-0.290828
-0.175497
-0.0979639
0.27346
-0.785237
0.925994
-0.223119
0.222777
0.000341631
0.012884
0.00550366
-0.15426
0.0902254
0.0640347
0.0093256
0.410653
0.122653
0.0471525
0.0264198
0.0104676
-0.0368874
-0.0170253
-0.172038
-0.721194
0.370002
0.351192
0.496538
-1.05769
0.561155
0.140334
-0.161991
0.0216573
-0.0148379
0.207422
-0.221688
-0.588374
-0.148044
-0.00621619
-0.163729
0.0507099
0.14704
-0.349425
-1.17185
0.776072
0.395781
0.040124
0.0907217
0.0535315
-0.811203
-0.45011
0.369548
0.164597
-0.0743718
0.0446491
-0.631097
-0.0512391
0.0620052
0.132204
-0.00478617
0.0358767
-0.461287
0.119663
0.353412
-0.295815
-0.112234
0.0199144
0.216495
0.837645
-1.05414
0.0974896
-0.711501
0.614011
-0.922256
0.7926
-0.614551
0.0654698
0.549081
-0.00419118
0.00510935
-0.000918172
0.173849
-0.471488
0.216607
-0.127092
-0.0895149
0.0588659
-0.0595578
0.0101575
-0.185654
-0.0109003
0.0287066
-0.0207218
0.0200118
0.0814625
-0.101474
0.848264
-0.00444757
0.00541201
-0.000964443
0.115573
0.0179624
0.860388
0.0767568
-0.0714667
-0.0208461
-1.1634
0.254148
0.0156173
0.00745175
0.0832699
-0.549081
0.588374
0.24827
-0.25049
0.00222009
-0.256042
0.085875
0.118481
-0.119716
-0.00134887
0.0880496
-0.0359407
-0.715741
-0.456111
-0.0456887
0.0657005
0.743597
-0.262031
-0.318685
0.103264
0.346531
0.0163693
-0.0346124
-0.0075765
0.080564
0.14212
0.217067
0.157451
-0.337821
0.18037
0.10109
0.545523
-0.0355097
-0.107943
0.903614
-0.244447
-0.659166
-0.614551
-0.190569
0.687107
1.17225
-0.20068
0.532232
-0.331552
0.374113
-0.0693591
-0.304754
-0.277091
-0.719224
-0.0743788
0.0753707
-0.000991867
-0.0203672
-0.192437
0.212805
0.436643
-0.987986
0.551343
0.03616
0.670485
-0.706645
-0.0432554
-0.106501
-0.00128834
-0.0916379
0.243699
-0.630535
-0.00716237
0.00297119
0.156437
0.0184111
-0.174848
0.0442853
-0.219859
-0.00252024
0.0154043
0.100016
0.130496
-0.0434179
-0.0067318
0.197915
-0.427982
-0.112931
0.966427
0.0320846
0.012194
-0.981835
-0.0199657
0.245141
-0.0699635
-0.0422705
-0.110651
0.333183
0.48107
-0.689591
0.208521
0.176428
0.0777202
-0.952173
-0.00416609
-0.000584767
-0.648378
0.748088
-0.0172384
0.17891
-0.0106674
-1.07492
0.180575
-0.434346
0.253771
0.0278554
0.240843
-0.00371902
0.00393939
-0.00022037
-0.0371233
-0.150651
-0.0202152
-0.129089
0.7429
-0.64541
-0.152215
0.0779257
-0.178834
0.317637
-0.160185
0.188861
1.25836
-0.105659
-1.1527
-0.122445
0.141491
-0.503154
-0.218039
-0.567519
0.621481
-0.596993
-0.0244877
-0.0997289
-0.0524861
-1.55393
0.593848
-0.593848
-1.64692
1.64692
0.831874
0.177368
-0.694737
0.51737
-0.887604
-0.0942312
0.638481
-0.370511
-0.26797
0.15531
-0.23241
-0.00940279
0.00177991
-0.873624
-0.0774945
-0.9377
0.210803
0.0406574
-0.138621
0.700532
-0.0993277
-0.601204
0.707109
0.465137
-0.000922114
-0.0027969
-0.979722
0.249144
-0.245769
-0.0862796
-0.601364
0.687643
-0.0792692
-0.896794
-0.701212
0.217229
-0.810591
-0.940859
1.35392
-0.413059
-0.136369
0.2746
-0.138231
-0.0320023
0.732534
-0.107412
-0.990335
0.990335
-1.05807
0.483911
0.574158
0.00213995
-0.00658752
0.132912
-0.439401
0.86868
-0.0510874
-0.0863499
-0.0339117
0.134522
0.00153333
-0.00244721
1.05621
-0.990745
-0.344123
0.419811
-0.640047
1.02052
-0.38047
-0.0623405
-0.0857034
0.126022
-0.0566359
0.363583
0.00433119
-0.0728434
0.355699
0.0453494
0.0436902
-0.251485
0.207795
0.136035
0.0332449
0.0989213
0.184024
1.01498
0.557364
0.303815
0.963587
-1.2674
-0.9574
0.904602
0.231701
-0.148904
0.0775016
-0.770539
0.693038
0.481183
0.123691
-0.469689
-0.0732567
0.129115
-0.0558585
0.12518
-0.198437
-0.454793
-0.109807
-0.0728586
0.0760018
-0.00314325
-0.00200753
-0.0414104
0.0314514
-0.0190422
0.664098
-0.614011
-0.0500864
-0.285889
0.298191
0.873805
0.636138
-0.262024
-0.0374373
0.0658856
-0.330778
-0.190986
0.171378
-0.564007
0.392629
0.00369509
0.000244299
-0.0136466
0.308687
-0.295041
0.00237476
-0.00946822
0.00709346
-0.024829
0.0165465
0.00828248
-1.04003
0.355516
-0.188509
-1.30366
-0.202042
-0.877135
1.52167
1.51043
-0.188419
-0.168953
0.1191
-0.0643038
0.0700702
-0.00576639
0.0572282
1.13754
-1.19476
0.555192
0.0832893
0.00125039
0.0024447
0.123139
-0.0257912
0.0339117
-0.0501106
0.00442191
-0.712405
0.381627
-0.0777618
0.129074
-0.235365
0.61142
1.10539
-0.129764
-0.0594868
0.00118802
0.0582988
1.83543
-0.325001
-0.0593548
-0.0527721
-1.03499
0.157857
0.389513
-0.218034
-0.475806
-0.13006
0.605866
0.805297
-0.362959
-0.442338
-0.149557
0.630627
-1.39032
0.288171
-0.0155682
-0.0380392
0.0536074
0.526819
1.33884
-0.167738
0.173906
0.226855
2.06688
-0.545209
-0.668549
0.0418564
0.626692
0.387087
0.0128933
-0.35259
0.517494
0.800765
0.00902769
0.0743088
-0.0207773
-0.420236
-0.0631662
0.483402
1.2827
0.0864994
-0.0600797
-0.0517999
-0.360909
0.109634
-0.320004
1.1327
0.125651
-0.148051
0.0483217
0.320269
-0.520949
-0.0204268
0.0181105
0.108219
-0.144164
0.0359451
-0.292573
0.305213
-0.0126406
0.759665
-0.865324
-0.983736
0.0469378
0.936798
0.162188
-0.290295
0.128107
0.277685
0.0399513
-0.292992
-0.157119
-0.694315
0.694315
0.851357
0.707109
-0.711501
0.332763
0.468002
-0.606555
0.445408
0.926537
-0.371345
0.0210154
-0.872643
0.851627
0.125822
0.00649802
0.0275034
-1.13707
0.84408
0.120268
-0.167939
-0.116098
0.284036
0.236806
-0.503212
0.335273
-1.09827
-0.291127
-0.6733
-0.0694125
0.00531851
9.34989e-05
-0.228187
0.171804
0.101656
0.0330166
-0.148872
0.115855
-0.599313
-0.458755
-0.00552586
0.0664004
-1.0526
0.471019
0.581576
-0.554165
0.373676
-0.105396
0.154383
0.229379
-0.0082046
-0.0136883
-1.1181
0.877779
0.0348037
0.0710269
-0.225772
0.0469387
0.207924
0.00868345
-0.441143
0.7351
0.512944
-0.173485
0.861413
-0.783912
0.795371
-0.44884
-0.616402
0.177001
0.155505
-0.778046
0.752713
0.025333
1.23189
-0.0991833
-0.20852
-0.135603
-0.129525
0.0372007
0.957537
-0.842414
-0.115124
-0.18676
0.112034
0.0268728
0.117399
0.8886
0.908039
-0.744842
-0.163197
-0.320734
-0.0492136
-0.593232
-0.459364
0.160655
1.31024
0.610805
0.0963043
0.172816
0.544667
-0.717483
0.0487421
0.0509713
-0.00757278
-0.000631814
-0.51246
-0.103942
0.162528
-0.205218
-0.190577
0.140413
-0.521056
0.268955
-0.992154
-0.637509
-0.291118
-0.944221
1.47808
-0.0313375
-0.288955
-0.323251
-0.389155
-0.129867
0.306631
0.0490683
1.32562
-0.888974
-0.194087
0.131673
-0.476171
-0.382771
0.858941
-0.0180928
0.0025246
0.0495637
-0.0611008
-0.231472
-0.113975
0.69208
-0.417606
-0.274474
0.116303
0.129855
-0.0936499
-0.0362053
0.244937
0.0616931
-0.261039
-0.973079
-0.0974488
0.142098
0.874985
0.0330536
0.00601779
0.099879
-0.0233785
0.0166132
0.00676526
0.016143
-0.0270601
-0.247287
0.0777135
-0.0921278
-0.544074
0.407705
0.0235317
0.12503
0.0371583
-0.692286
1.46289
-1.33724
0.0160501
-0.196448
0.180398
-0.125295
-0.520447
0.645742
0.0823613
-0.713458
-0.879003
-0.104733
-0.0719147
-0.00160011
0.0735148
-0.242827
-0.621481
-0.189722
-0.140159
-0.420236
-0.235085
0.168183
-0.651156
-1.13659
-0.634014
0.499076
0.134938
0.258289
0.109895
0.531003
0.249342
-0.780346
0.166447
0.0792213
0.88677
-0.142139
-0.744631
-0.216288
-0.0808592
0.985461
-0.245663
0.183564
-0.879342
0.798482
0.344635
0.113302
-0.0265131
0.0337722
-0.00517147
1.00975
-1.18323
0.715767
0.08953
-0.984429
0.268688
0.251139
0.675399
0.896871
0.00674285
-0.0224542
-0.610805
-0.6733
-0.717445
0.727366
-0.100742
-0.870901
0.670485
0.617605
-0.936645
0.957481
0.00159949
-0.779645
-0.310655
0.633783
-0.767081
0.133298
0.078382
0.0514732
-0.250555
0.0780943
0.923429
-1.00152
0.00366777
0.00165074
-0.267612
0.217893
0.716144
0.217067
-0.202552
-0.17653
0.881354
-0.846175
0.136361
0.381009
0.635228
0.469791
-1.10502
-0.796002
0.732836
1.04033
-0.569316
0.0932891
0.561496
-0.483402
-0.0118785
0.217777
-0.0499876
0.127758
0.117383
-0.000202523
-0.01237
0.0125725
-1.01677
-0.037374
0.311928
-0.799536
-0.457054
1.18029
-0.723236
0.372205
0.648312
-0.0477094
0.0510052
-0.00329583
0.0084122
0.872941
-0.725225
0.897638
0.536379
-0.993433
0.318934
-0.101157
-0.581239
-0.410915
-0.382831
1.01806
-0.0487897
-0.871043
-1.78616
0.0841103
0.561496
0.0542516
-0.853788
0.832886
-0.649638
-0.183248
-0.981848
0.400609
-0.00098691
0.111303
8.59788e-05
-0.111389
-0.972549
0.561634
-0.209014
0.91291
-0.917076
0.194347
-0.211372
-0.096807
0.243847
1.05137
0.0371248
-0.186615
-1.49866
0.345959
0.968576
-0.959548
-0.550572
-0.518432
1.069
0.449428
0.019064
-0.0118537
-0.744019
0.706645
0.621372
-0.61296
-0.669305
0.649774
0.0195304
0.642037
0.538253
0.785929
-0.813469
-0.492696
-0.44867
-0.472829
-0.49972
0.801202
-0.801202
0.689768
-0.689768
-0.744019
-0.653453
0.653453
-0.649774
-0.520499
-0.367585
-0.413239
-0.751461
0.751461
0.621372
-0.61296
0.785929
0.769297
-0.769297
0.813469
0.761759
-0.761759
0.507304
0.527171
0.481568
-0.130089
-0.50028
-0.55133
1.0785
-0.526897
-1.07746
0.694634
0.554307
0.486027
0.0514637
-0.0163491
0.0931059
-0.881663
0.094837
0.786826
-0.158557
0.156468
-0.990108
0.581255
0.926718
-0.593955
-0.122597
0.000919217
-0.00492974
-0.802838
-0.0720208
-0.538685
-0.00455177
0.0063657
0.0892343
-0.206979
0.132608
0.180319
0.0116608
-0.0150152
0.00335442
-0.813851
0.071814
0.742037
0.477451
0.573916
-0.530022
0.417587
0.112435
0.915726
-0.75146
-0.164266
0.0830404
0.302306
-0.0139517
-0.0589068
-0.0605998
-0.013779
0.190694
-0.975931
-0.838765
0.0961996
-0.74269
0.791443
-0.0487534
0.123576
-0.898877
0.775302
-0.802198
0.905297
-0.103099
-0.0541089
0.0702519
0.0204394
-0.291195
0.551945
0.466113
-0.088924
-0.792739
0.917321
-0.0920836
-0.825238
0.122175
-0.184515
1.03176
0.826801
-0.643843
0.471566
-0.388277
0.104315
-0.897055
1.22831
0.418612
-0.780021
0.000375867
1.01993
-0.896357
1.2074
1.00278
-0.52148
-0.4813
-0.883012
-0.107096
-0.412836
0.0375927
-0.465471
0.673992
-0.789263
0.789263
-0.609098
-0.0911219
-0.873385
0.121925
-0.961538
0.875259
0.0755507
-0.202643
-0.0560875
0.0556916
0.0114134
0.195563
0.824369
0.814175
0.775129
0.134668
-0.909797
-0.499985
0.986012
-0.782093
-0.105849
0.887942
0.16767
-0.892895
-0.677822
0.886363
-0.782048
-0.102902
0.457004
-0.0172425
-0.439762
0.00555465
0.999431
-1.00499
-0.00932645
-0.433524
0.44285
-0.884995
-0.826897
0.0842071
0.528232
0.267139
-1.25178
1.0153
-0.626274
0.626274
-0.986858
-0.511798
-0.00446348
0.848544
-0.85203
0.898968
0.780514
-0.197188
0.938747
-0.583231
0.540441
-1.00748
0.467038
-0.0329628
-1.02473
0.276444
0.502795
-0.000405261
0.369953
0.24066
0.308603
-0.225563
0.781383
-0.884482
0.576401
0.409612
-0.144022
0.725277
0.622294
-0.622294
-0.0526238
0.0581274
0.112264
-0.0792473
0.769966
0.229465
0.318563
-0.0034093
0.000240719
0.00316858
-0.668783
0.697135
-0.028352
0.473712
-0.995192
0.103612
-0.88566
-1.06849
1.27322
-0.204727
0.299562
0.875351
-0.636216
1.10993
-0.750992
0.601786
-0.653025
-0.662184
0.159029
-0.454751
0.02833
0.123978
-1.0047
0.54995
-0.00397928
-1.05062
0.0605013
0.730942
0.684378
-0.0825916
0.0803147
0.780074
-0.487057
1.0939
-0.60684
-0.799421
0.5094
0.399088
-0.922059
0.703403
0.218656
-0.682586
-0.128006
1.02029
-0.293822
-0.336714
-0.0400707
0.488272
0.511728
-0.774061
-0.110421
-0.505466
-0.542736
-0.493393
-0.546402
0.403511
0.596489
-0.160058
0.178021
-0.866145
-0.0652882
-0.587737
-0.153652
-0.242647
0.396299
-0.0313208
-0.00461994
0.114402
0.0734767
-0.128742
-0.118545
0.768255
-0.64217
0.722485
-0.437879
-0.566822
0.924936
-0.366641
-0.558295
-0.733875
-0.188862
0.922737
-0.236507
0.224702
-0.0257623
-0.115458
0.0131126
0.00922708
0.764477
-0.138203
0.118175
0.111204
-0.734667
0.0658846
1.01084
-0.500665
0.383021
-0.718825
0.848138
-0.279235
1.00765
5.25732e-05
0.441776
-0.214921
-0.0017428
-0.0797693
-0.159289
0.24701
0.76383
-0.386473
0.829
-0.442527
0.852463
-0.0171662
0.00605246
0.0111137
0.130452
-0.00620139
-0.000960985
0.21274
-0.104521
0.172897
-1.02493
-0.64894
0.262466
-0.0028144
0.284116
0.462359
-1.09446
1.34578
-0.251315
-0.792157
0.850073
-0.0579164
-0.278987
-0.0188546
0.36349
-0.0750664
1.01698
-0.456837
-0.0731851
0.273772
0.443497
0.18526
-0.628757
0.393386
0.0406462
0.656488
-0.571232
0.565861
0.00537093
1.12922
-1.25909
-0.0455147
0.0583477
-0.012833
0.70844
-0.00950963
-0.0820767
0.0190349
1.07517
-0.432399
0.153412
0.107815
-0.13836
-0.151935
0.150494
0.0764412
-0.226936
6.09579e-05
-0.000263481
0.689397
-0.831536
0.268103
0.215193
-0.0250641
-0.086766
0.227995
0.101427
0.00790328
0.110967
0.768941
0.0734128
0.745738
-0.819151
0.963285
-0.303336
-0.65995
0.661211
0.119434
-0.0951308
0.00640092
0.0887299
-0.676593
-0.399148
-0.608332
-0.00986406
0.736101
0.708994
-0.0540119
-0.557814
0.307259
0.828881
0.152464
0.0363977
-0.883481
0.161948
-0.267286
-0.174792
-0.169306
0.694892
0.0740499
0.0136151
0.817034
-0.835888
-0.252387
0.170629
0.0210282
-0.110031
0.420626
-0.058373
-0.380671
-0.0682796
0.160401
0.655608
0.307678
-0.148223
0.796188
-0.0437003
-0.10723
0.0120472
-0.00088775
-0.0111594
-1.29701
0.0379211
-0.00372516
0.932871
-0.225376
-0.610508
0.645675
-0.0351671
0.121593
0.760776
-0.908189
0.349894
0.0804381
-0.177245
0.634658
0.126118
0.699693
0.2263
-0.269982
0.741548
-0.202416
0.966246
-0.595109
0.349993
0.245117
-0.645722
-0.0709045
0.040495
0.0658092
-0.0479248
1.23008
0.751569
0.0773126
0.620372
0.209737
-0.873858
-0.0820522
-0.680909
0.681285
-0.0255698
-0.570686
0.417033
0.884867
0.675304
0.1791
0.00436329
-0.149852
-0.319836
1.25989
0.203006
-0.745862
0.0399191
0.616076
0.35017
0.678856
0.314431
-0.0791733
0.96597
-0.720272
0.899306
-0.179034
-0.416703
-0.178406
-0.0724828
-0.193035
-0.135621
0.878739
0.0162018
-0.00573417
0.624486
-0.114721
-0.604104
0.610016
-0.129449
0.227541
0.756362
0.245264
-1.00163
0.271691
-0.921329
-0.0371728
-1.30007
-0.183059
0.758071
-0.575012
-0.666953
-0.158106
0.0426477
-0.0560358
-0.920934
0.0160157
-0.0393942
1.03686
0.142978
-0.451544
0.308566
-0.0256455
-0.588232
0.175706
0.26607
-1.03795
0.00742542
0.00423539
-0.59245
-0.0546864
-0.599002
0.0277701
0.575764
0.309104
0.876821
0.95411
-0.243194
-0.377307
0.6205
0.192084
-0.617954
0.617954
-0.226274
-0.920663
1.14694
0.0308035
-0.153248
0.696458
-0.120695
-0.218891
-0.342613
0.0058999
0.531383
0.523559
-0.415622
0.180002
-0.102465
-0.729402
0.481672
0.0841889
0.0634689
0.00946241
-0.928426
-0.540685
-0.251063
0.697368
0.302632
-0.540685
0.697368
-0.539506
-0.239711
-0.539506
-0.694896
0.694896
0.305104
-0.0138533
0.269847
-0.0774803
0.212658
0.149414
-0.478502
0.6355
-0.0254844
0.659897
-0.513399
-0.146498
-0.0529878
0.0509647
0.00202309
-0.0051913
0.00178201
0.153288
0.0182213
-0.0848046
-0.430079
-0.360226
0.132039
0.0415755
0.824444
-0.279777
-0.565116
0.175961
0.00303426
-0.182701
-0.00880367
0.667434
0.0686668
-0.0241328
-0.0341516
-0.00273576
0.0238169
0.0814567
0.553948
-0.478681
-0.0752676
1.51733
0.552909
-0.829818
0.900437
0.0115143
-0.0636655
0.10828
-0.108895
0.179546
1.13901
-0.382647
0.013974
-0.0833865
0.750339
-1.00461
0.0207315
-0.0207315
0.0210145
-0.0210145
-0.0302305
0.0302305
0.0320846
0.361056
0.450803
-0.0547239
-0.703617
0.469018
0.18415
0.0285902
-0.0840473
-0.483462
0.871612
0.111751
-0.794336
-0.972827
-0.102095
0.153901
0.0198567
-0.0033102
-0.0231037
0.0231037
0.359814
-0.0215036
0.0215036
0.696364
0.0979248
-0.0237112
-0.0104404
0.00642321
-0.06591
-0.0216689
0.0216689
-0.01878
0.01878
-0.0224965
0.0224965
-0.0157906
0.0157906
0.154242
-0.298533
-0.07957
0.216759
-0.0139376
0.0139376
-0.375542
0.50146
-0.125918
0.491457
-0.216857
-0.224437
-0.340679
0.558279
-0.180481
0.0856966
0.559978
0.564771
-0.0052003
0.0052003
0.339357
0.0251233
-0.0251233
-0.0117553
0.0117553
0.753131
-0.862819
0.039364
0.0308635
0.277824
0.00154002
-0.00154002
0.0234772
-0.0234772
0.0185045
-0.0185045
0.0223221
-0.0223221
-0.0236744
0.0236744
0.0355042
-0.0355042
0.485094
-0.0321195
0.0321195
-0.000579037
0.000579037
0.0242709
-0.0242709
-0.00976505
0.00976505
0.00713531
-0.00713531
-0.0816648
-0.0261151
0.0261151
0.0322513
0.00359091
-0.03993
0.03993
0.00934179
-0.00934179
0.0311553
-0.0311553
0.0338652
-0.0338652
0.0249203
-0.0249203
0.00242777
-0.00242777
-0.00361109
0.00361109
-0.448527
-0.00325651
-0.0160736
0.0160736
0.000339139
-0.000339139
-0.0386115
0.0386115
-0.0271831
0.0271831
0.000358521
-0.000358521
-0.416626
0.667765
0.257046
-0.0324569
0.0324569
-0.0431992
-0.0260335
0.0260335
0.00116272
-0.00116272
0.0362565
-0.0362565
-0.168845
0.205242
0.00552262
-0.00552262
-0.0219565
0.0219565
-0.478562
0.0430173
-0.770037
-0.030447
0.030447
-0.438808
0.0325793
0.0184259
-0.302704
-0.681725
-0.0372666
0.0372666
-0.203873
0.1455
-0.0397426
0.00178658
-0.00178658
-0.00420287
0.0504755
0.25699
-0.320791
-0.271961
0.592752
0.181624
-0.00759319
0.00759319
-0.365087
0.510803
-0.145716
0.752792
-0.380924
-0.371868
-0.464851
-0.642959
-0.182585
0.358546
-0.449555
-0.349866
-0.580967
0.0176281
0.188785
-1.06444
0.0165925
-0.0165925
0.0017891
-0.0017891
0.031277
-0.031277
0.0254521
-0.0254521
0.00112725
-0.00112725
0.0015448
-0.0015448
-0.105983
-0.351399
0.169435
-0.292032
-0.00077141
0.00077141
-0.0436734
0.0436734
-0.0409293
0.0409293
0.285885
0.0171875
-0.303073
0.00163236
0.307382
-0.532758
0.000221262
-0.000221262
-0.026514
0.026514
-0.102205
-0.0976308
-0.0849547
0.00176517
-0.00176517
0.116207
0.00975295
0.98524
-0.481859
-0.0832002
0.565059
-0.625179
-0.167225
-0.298247
-0.0374857
0.0374857
-0.674503
0.272422
0.0503865
-0.0503865
-0.654226
0.386256
0.257234
0.117327
0.00169886
-0.00169886
-0.845719
0.00160536
-0.00160536
0.322611
0.409923
0.0800431
-0.0544738
0.0544738
0.00139349
-0.00139349
-0.0430125
0.0430125
-0.0522182
0.0522182
0.0025698
-0.0025698
-0.0577024
0.0577024
0.00286275
-0.00286275
-0.0463933
0.0463933
-0.000883998
-0.0438491
0.0438491
0.000627138
-0.000627138
0.0489747
-0.0489747
0.00182607
-0.00182607
0.0462293
-0.0462293
-0.120103
-0.00123112
0.00123112
-0.00424054
0.00424054
-0.0413131
0.080564
-0.011334
0.011334
0.00556744
-0.00556744
-0.060428
0.060428
0.299073
-0.0196165
0.0196165
-0.0555
0.0555
-0.00787353
0.00787353
-0.0684776
0.0684776
-0.0132925
0.0132925
-0.0819815
0.0819815
-0.0226193
0.0226193
-0.091445
0.091445
-0.679736
0.16756
-0.539049
0.503882
-0.896794
-0.240831
-0.550432
0.381126
0.0848448
0.0314583
0.0035431
-0.0035431
0.388425
-0.701714
0.0447821
-0.0353197
-0.610356
1.07549
0.714273
0.248811
-0.0579407
0.00241879
-0.385973
-0.584064
-0.0820183
0.378859
-1.31081
-0.0219211
0.0219211
-0.736996
0.0186363
-0.0186363
-0.00217119
0.00217119
0.324922
-0.318423
-0.00168928
0.00168928
0.0184971
0.0140657
0.59545
0.119202
0.000861156
-0.00793373
-0.0145205
-0.0985013
0.496709
-0.398208
0.283769
-0.0073256
0.0143322
1.14105
-0.0318433
0.0484055
-0.405024
0.442617
-0.488224
-0.979125
-0.231826
-0.0725415
0.0181569
-0.458073
0.024549
0.0652846
-0.00532854
-0.0217092
0.777661
-0.539247
-0.0404416
0.0614698
-0.0369721
0.0181137
0.251733
0.412267
0.24034
-0.162981
0.207465
0.0143561
0.000732826
-1.09196
0.0346365
-0.0861192
-0.365425
-0.0183731
-1.29543
-0.0722009
0.266136
-0.351685
0.397034
0.169762
-1.11398
0.0501827
-0.0515299
-0.132985
-0.349843
0.462277
-0.110169
-0.0335341
0.143703
-0.0274141
0.0274141
0.177954
-0.439978
-0.119671
0.165284
-0.081219
0.0556491
-0.0621896
-0.00552519
0.0677148
-0.0221352
-0.155079
0.147525
-0.123672
-0.279818
-0.348207
0.628025
0.0154375
0.0599332
0.148922
-0.0307474
-0.162404
0.0733948
-0.159699
0.315204
-0.0172288
0.0283426
-0.023845
0.172767
0.0035768
0.262491
0.00126371
-0.00126371
-0.143539
0.822395
0.0919939
-0.174046
-0.067574
-0.0116952
0.459699
0.650229
0.00864529
-0.0420236
-0.532348
-0.00670065
-0.010562
0.0909316
-0.685329
0.313983
-0.055565
0.370829
-0.650647
0.202185
0.501219
-0.0916942
0.0916942
8.59792e-05
-0.962494
0.493103
0.469391
-0.215647
0.159611
0.0474577
-0.0527302
-0.812594
-0.185547
-0.05253
0.0681484
0.922691
0.279897
-0.100797
-0.0701463
-0.36364
-0.629793
-0.0740097
-0.266201
0.783695
0.567098
-0.259716
-0.267873
0.551989
0.0794518
0.45278
-0.263803
0.102679
-0.455038
0.32912
0.120035
-0.120035
0.161699
-0.163182
0.00148317
0.00898087
-0.00762078
0.0166132
-0.395832
-0.280761
0.225131
-0.184711
-0.04042
0.531617
-1.08386
-0.162454
-1.00095
0.687962
-0.116114
-0.175917
-0.0352014
-0.0787739
-0.483304
0.0532253
-0.291148
0.00571293
-0.0183731
0.384154
-0.00510069
0.000924788
0.00185308
0.0124776
-0.0162043
0.00372662
-0.11295
-0.0182847
-0.169577
0.187861
-0.118038
-0.337
0.0184971
0.34702
0.00419693
-0.378139
0.087021
0.00262674
0.182924
-0.237648
-0.0126021
0.0126021
-0.00122497
0.00469717
-0.00907347
0.00218231
-0.101108
0.000653192
-0.00117782
0.332416
0.000766908
0.000706118
-0.000706118
0.126496
0.502107
0.00270643
-0.286584
0.501745
1.14936
-0.467881
0.328949
-0.434999
-0.325753
0.206083
0.220962
-0.223345
-0.0178687
0.0122764
-0.00304936
-0.00917842
-0.176756
-0.375321
0.844338
0.48656
-0.592543
0.302306
-0.00163891
0.313438
-0.0138761
0.00255634
0.000276835
0.0119996
-0.111284
0.0013185
-0.000365633
0.712852
-0.639457
-0.2461
-0.0628547
0.906973
0.000823586
0.00191153
-0.0397426
-0.00552671
0.816832
-0.430992
0.515181
-0.793799
0.89912
-0.786113
0.563906
-0.18278
0.695396
0.00217186
0.00300286
0.0168539
-0.115057
0.138779
-0.285636
0.00864576
0.00918463
0.0657815
-0.0520302
-0.0137513
0.00207057
0.0537187
0.0328043
-0.086523
-0.0943482
-0.000446651
0.000687371
0.00133326
0.482625
-0.437693
-0.00464126
0.000579785
0.82797
-0.334867
0.37968
-0.00598959
2.51777e-06
0.304846
-0.0367429
-0.0435971
-0.109687
-0.0151558
-0.00366268
0.12553
0.0765444
-0.00209519
0.400925
0.0014399
-0.00215094
0.00215094
0.0128498
-0.0207836
0.000355838
-0.318285
-0.00373976
0.073262
-0.106306
0.211955
0.112768
-0.0643909
0.000550146
0.00300942
0.451269
0.000571612
-0.00702449
-0.0654583
-0.0020832
0.000905188
0.0594314
0.259132
-0.710526
0.458895
-0.834216
-0.0730818
-0.00037168
-0.771234
0.148393
0.0922669
0.578137
-0.0147325
0.0429006
-0.00408729
-0.00141174
-0.548385
-0.00338075
0.000292951
-0.0489599
0.917241
-0.523855
-0.00258148
-0.00103668
-0.00595421
-0.00305719
0.0723204
-0.0216572
0.0216572
-0.0529055
0.0576027
-0.00230609
-0.00804958
0.0627917
-0.0618669
-0.167237
0.0963326
-0.00541901
-0.013504
0.0399798
-0.0168924
0.0626466
-0.0444897
-0.626127
0.577374
0.03628
-0.00202434
0.322184
-0.161784
-0.0676264
-0.661342
-0.0721735
-0.114284
-0.0952892
0.093206
0.686592
0.000907477
0.0204046
-0.0184931
0.343201
0.0616251