/*--------------------------------*- C++ -*----------------------------------*\
| =========                 |                                                 |
| \\      /  F ield         | OpenFOAM: The Open Source CFD Toolbox           |
|  \\    /   O peration     | Version:  2306                                  |
|   \\  /    A nd           | Website:  www.openfoam.com                      |
|    \\/     M anipulation  |                                                 |
\*---------------------------------------------------------------------------*/
FoamFile
{
    version     2.0;
    format      ascii;
    arch        "LSB;label=32;scalar=64";
    class       volVectorField;
    location    "9";
    object      U;
}
// * * * * * * * * * * * * * * * * * * * * * * * * * * * * * * * * * * * * * //

dimensions      [0 1 -1 0 0 0 0];

internalField   nonuniform List<vector> 
2186
(
(1.30859 -0.0433053 1.70437e-19)
(1.59988 -0.932132 -1.1098e-19)
(1.44736 -0.910762 -8.55429e-22)
(0.730414 -0.571492 -1.16474e-19)
(-0.524697 0.62996 -2.38567e-19)
(1.04596 0.00764054 0)
(0.716976 -0.662456 0)
(-0.266888 -0.480779 1.29132e-19)
(1.51874 -0.261231 2.01284e-19)
(0.544936 -0.304297 -2.25553e-21)
(0.679515 0.611314 0)
(0.849121 -0.272645 -1.48704e-19)
(-0.345528 -0.597136 -5.25876e-20)
(1.14466 0.0274751 -2.88719e-19)
(1.78687 -0.674615 -1.16132e-19)
(1.01807 0.00152931 1.35691e-19)
(0.991606 0.0184759 0)
(-0.784739 0.402506 0)
(1.05259 0.00168327 0)
(-0.0444539 0.272548 -8.82072e-20)
(0.481701 0.101195 -9.40303e-20)
(-0.242184 0.166914 1.19209e-19)
(1.13837 0.017881 2.38893e-19)
(-0.223086 0.00766034 4.28435e-21)
(1.04022 -0.000294402 -1.87425e-19)
(0.780776 -0.54592 0)
(0.761106 -0.0253877 1.16628e-19)
(0.606723 -0.58637 -1.30989e-19)
(1.21782 0.718793 0)
(0.989171 0.021806 -2.56506e-19)
(0.00160844 0.0334493 0)
(1.02605 -0.0168376 8.86066e-21)
(0.00562232 0.335539 0)
(2.04851 0.337029 1.44382e-19)
(-0.121692 -0.141138 3.83858e-21)
(1.55114 0.777105 -6.01199e-22)
(1.52964 0.164299 8.23855e-20)
(0.507765 0.149321 -2.79013e-19)
(1.9894 0.219585 -4.51174e-19)
(1.04964 0.00734896 -6.1676e-22)
(-0.413938 -0.665682 0)
(-0.209813 0.162773 0)
(1.85945 -0.867527 9.80346e-20)
(-0.474197 0.237661 0)
(1.09879 0.275381 1.14e-19)
(0.588722 -0.287027 2.31105e-19)
(0.912411 -0.777829 0)
(1.17862 -0.785187 7.4056e-20)
(1.89915 -0.665857 0)
(-0.372046 0.702781 2.64702e-19)
(0.0235718 0.104652 1.30434e-19)
(0.632671 0.582931 5.73673e-20)
(2.04642 -0.746965 1.24206e-19)
(0.592541 0.279968 -2.22301e-19)
(-0.280701 0.180453 4.4663e-20)
(0.757335 -0.644152 0)
(1.64699 -0.954514 1.79897e-20)
(0.576953 -0.537359 0)
(2.37524 0.174765 1.40874e-19)
(1.12126 -0.151374 -2.75723e-19)
(1.19671 -0.131804 6.97072e-20)
(1.35346 0.299018 -1.1713e-19)
(1.34229 0.539966 0)
(1.07722 0.0114529 6.75723e-22)
(1.36475 0.385177 -6.22381e-20)
(1.24526 -0.72998 -9.71982e-20)
(1.17773 0.668349 3.49526e-20)
(0.67756 0.0800805 -4.51216e-19)
(0.824989 0.062094 0)
(2.13825 -0.191149 -7.18603e-20)
(-0.251411 -0.552897 -1.50062e-19)
(1.54945 -0.502864 -6.69055e-20)
(0.725899 -0.032521 -1.9904e-19)
(0.866926 -0.507061 0)
(0.824192 0.192182 -7.21891e-20)
(0.543117 -0.503766 -2.39257e-19)
(1.87434 -0.401745 0)
(1.00495 0.00456518 2.82122e-19)
(-0.103253 -0.223462 0)
(2.03686 0.417645 0)
(1.08612 0.248074 1.81926e-19)
(0.984327 0.0134539 6.74728e-22)
(1.03385 0.0180144 3.11582e-20)
(1.3236 0.417574 1.68717e-20)
(0.978795 0.0301548 3.26596e-19)
(1.04082 0.0406332 -7.74097e-21)
(0.664434 0.185763 -2.68143e-19)
(1.0626 0.00568465 1.6754e-22)
(0.605996 0.019493 0)
(-0.0608081 -0.0169717 1.0635e-19)
(0.853305 -0.612486 -1.26508e-19)
(-0.0791842 0.525076 -1.87101e-21)
(1.08689 -0.089023 1.90086e-19)
(0.813676 -0.185289 0)
(1.00498 0.0198874 3.11725e-20)
(1.37861 0.648765 0)
(1.60907 -0.945073 0)
(1.30008 0.223279 0)
(-0.508124 0.711571 0)
(0.784595 -0.658154 2.27737e-19)
(0.833946 -0.308115 -4.50972e-19)
(1.00278 -0.0526644 3.34186e-19)
(1.48822 0.177899 0)
(1.09282 -0.118818 -1.73783e-19)
(1.08352 0.0242007 1.39584e-19)
(0.00190966 0.617104 1.65917e-19)
(0.637416 0.5056 0)
(2.16174 -0.166421 -1.45063e-19)
(0.96246 -0.472155 6.32384e-20)
(-0.53296 0.511135 7.47568e-20)
(1.78858 0.271678 1.54815e-19)
(-0.263781 0.753513 -3.73798e-19)
(0.809642 -0.73619 0)
(0.564532 0.352065 1.34196e-19)
(1.67582 -0.2685 -5.76392e-19)
(-0.549038 -0.442295 -5.02839e-19)
(1.04617 -0.0326602 -1.02098e-21)
(1.68562 -0.686431 0)
(-0.0864352 -0.0089373 -3.19043e-19)
(0.707037 -0.0669789 6.32069e-20)
(1.57349 0.884212 0)
(-0.289067 0.758046 -4.22393e-19)
(0.890062 0.763178 -1.96585e-19)
(-1.01341 0.285805 5.81365e-19)
(1.03428 -0.0206896 0)
(1.06671 -0.0502052 1.28631e-21)
(-0.419026 0.736298 0)
(0.68768 -0.484711 -8.53383e-20)
(-0.974251 0.339676 -3.19393e-19)
(0.782888 -0.714805 0)
(0.429744 -0.269513 3.39695e-19)
(0.535278 -0.450045 2.25846e-19)
(0.408667 -0.369896 0)
(0.97745 -0.777451 -8.78775e-20)
(1.05574 0.0347903 0)
(-0.100105 0.791404 -2.07661e-19)
(0.80526 -0.691735 1.07146e-19)
(2.35612 -0.24693 3.23184e-19)
(2.17342 0.10015 0)
(-0.0244021 -0.107766 0)
(0.688621 0.639095 -2.35957e-19)
(1.77704 -0.62338 2.3854e-20)
(-0.153731 -0.227643 0)
(0.978154 -0.802022 -9.80036e-21)
(1.10468 -0.116212 0)
(1.07372 -0.124088 3.02782e-19)
(2.08995 -0.161012 -1.40978e-19)
(-0.565771 0.607764 0)
(1.21419 -0.546866 -3.82619e-20)
(-0.218282 0.402616 -5.57495e-20)
(-0.276956 0.641046 0)
(1.08806 -0.809895 1.20637e-20)
(1.0016 0.0105725 -4.71089e-19)
(0.642464 -0.472023 -8.43995e-21)
(0.806552 -0.504512 0)
(1.19472 -0.724858 -6.311e-20)
(0.654798 0.244717 2.08271e-19)
(1.24378 0.0852403 0)
(1.53485 0.0875981 -7.44787e-20)
(1.19112 -0.852438 -1.16306e-19)
(-0.0154694 -0.0909085 -1.19376e-19)
(-0.0923311 -0.66442 -2.72546e-19)
(1.05902 0.0161302 1.74116e-19)
(0.915132 -0.459861 -7.95261e-20)
(1.05353 0.00951757 -1.55109e-22)
(1.06192 0.00542739 -1.36671e-21)
(0.74348 -0.107128 1.32826e-19)
(-0.217497 0.00548428 -2.84485e-19)
(1.01631 0.0195654 0)
(1.09306 -0.0497681 2.22029e-20)
(1.44565 0.65169 6.1624e-20)
(0.800359 -0.604323 -1.66107e-19)
(0.993076 -0.000384827 9.65413e-21)
(0.711621 -0.522074 2.34669e-19)
(1.31109 0.803138 6.35395e-20)
(1.86399 -0.0109169 2.87995e-20)
(-0.632301 0.474009 0)
(1.05191 0.0639793 -1.79978e-19)
(-0.977502 -0.13583 -4.02894e-19)
(1.07794 0.49501 5.73903e-20)
(0.0792474 -0.0759578 1.71834e-19)
(1.1108 0.0375398 -3.32457e-20)
(-0.141357 0.253705 -2.12444e-19)
(1.30768 0.587681 -4.23945e-20)
(1.14321 0.889346 0)
(-0.685206 0.454391 -1.21877e-19)
(-0.234416 -0.130665 0)
(0.653691 0.560219 -2.12986e-19)
(2.04182 0.17245 -3.04238e-20)
(-0.479329 -0.628334 1.79404e-19)
(-1.05251 0.0566116 -8.14664e-19)
(0.724765 0.0839551 1.97997e-19)
(2.15027 -0.403969 -5.58539e-20)
(0.975564 -0.350877 -2.34797e-20)
(0.0179236 -0.00097633 0)
(-0.118703 0.289914 1.79162e-20)
(1.33766 0.976455 2.97466e-20)
(0.839104 0.0837961 -1.06983e-19)
(0.555568 0.520297 1.46978e-19)
(0.459174 0.185312 0)
(-0.0824356 -0.791451 -2.67919e-19)
(0.275824 0.0929156 -5.36525e-20)
(1.28649 -0.951073 8.36454e-23)
(0.973287 -0.0347304 -1.46487e-19)
(-0.164188 -0.128891 7.31864e-21)
(-0.240749 0.310263 1.9595e-19)
(-0.354402 -0.0934739 -2.09351e-19)
(1.61566 -0.682784 0)
(1.10501 0.051009 -2.4025e-19)
(2.02818 -0.278553 1.7501e-19)
(1.26885 -0.615419 6.35239e-20)
(0.843722 0.0241688 8.45408e-22)
(0.591164 0.333035 0)
(0.947201 0.751367 -1.14217e-20)
(0.685684 0.62968 1.33376e-19)
(0.890193 -0.552441 1.14276e-19)
(0.686615 0.501089 0)
(1.01502 -0.0100921 6.23218e-21)
(0.87503 -0.654667 1.62839e-19)
(0.846057 0.426436 -3.51004e-19)
(1.25856 -0.102127 0)
(-0.230957 -0.231678 -3.301e-19)
(0.0216512 0.499014 -1.30325e-19)
(1.59458 0.724384 0)
(1.33932 -0.932353 -7.15824e-23)
(-0.806595 0.471633 0)
(-0.492853 0.717122 1.51575e-19)
(0.736939 0.651208 -7.32622e-20)
(0.85287 -0.223341 0)
(-0.234328 -0.167201 0)
(1.61129 -0.444344 0)
(-0.307127 -0.360443 1.94606e-19)
(1.20373 -0.878819 7.64871e-20)
(1.17544 -0.597984 4.24937e-20)
(1.07771 -0.15253 -1.20916e-19)
(0.872429 -0.687084 -1.2775e-19)
(0.184548 -0.188365 0)
(-1.24894 0.0475203 0)
(0.999548 -0.50484 1.30733e-19)
(-0.0799909 -0.194353 0)
(-0.352196 0.712846 0)
(-0.537149 -0.421279 4.28304e-19)
(0.794284 0.66967 6.35656e-20)
(1.01648 0.795542 0)
(0.697464 0.552376 -6.52924e-20)
(0.833048 -0.042215 -1.77718e-19)
(0.748239 0.561653 -1.73667e-19)
(0.590751 0.548178 -1.2656e-19)
(-0.197592 -0.533163 2.66026e-21)
(0.71444 -0.640743 0)
(0.895478 0.180124 -2.49666e-19)
(-0.326351 -0.674375 6.92124e-20)
(0.603975 0.559039 2.79237e-19)
(0.960314 0.798525 0)
(-0.653258 -0.180038 3.21473e-19)
(-0.0750508 -0.430014 3.58059e-19)
(-0.0112072 -0.363004 -1.79443e-19)
(0.663614 0.567644 -1.13575e-20)
(0.980749 -0.0085829 4.56219e-20)
(-0.43962 -0.696357 0)
(2.23783 0.159398 -3.14929e-19)
(1.21554 -0.372456 -3.64175e-20)
(0.647157 -0.598815 -5.80256e-20)
(-0.744291 0.185781 2.1169e-20)
(1.19164 0.464548 1.21159e-19)
(0.895008 0.416337 0)
(1.06924 -0.200595 1.44195e-19)
(0.123659 -0.570884 -1.14468e-20)
(-0.0341258 0.124663 4.92683e-19)
(0.931783 0.0229775 -4.00665e-20)
(1.13913 0.116358 0)
(1.87049 -0.00252242 -3.00708e-19)
(1.90257 0.0233521 0)
(0.542372 0.260239 -3.67782e-19)
(-0.249622 0.363312 0)
(-0.222642 -0.47814 2.94292e-19)
(0.785491 0.0772087 0)
(0.613471 -0.506677 -1.45075e-19)
(1.08384 0.0229933 1.59616e-19)
(-0.565351 0.613751 5.71991e-20)
(1.80833 -0.0933294 -1.31144e-20)
(2.1095 -0.246756 -1.46702e-19)
(1.10346 0.221901 -1.61192e-19)
(-0.353328 -0.728572 -1.38787e-19)
(1.06839 -0.846731 0)
(0.791405 0.0209059 -1.16304e-19)
(0.928895 -0.385957 -2.25824e-19)
(1.70185 -0.560383 -1.00006e-20)
(1.70087 -0.00452031 2.83665e-19)
(1.05916 0.000760633 2.89105e-19)
(0.14603 -0.634301 -1.83519e-19)
(0.995622 -0.440839 -9.54537e-20)
(0.194226 -0.186914 2.05574e-19)
(1.00164 -0.0176628 0)
(1.00592 -0.00763714 0)
(1.16424 -0.566652 -7.32229e-21)
(-0.0133919 0.751612 -1.39677e-19)
(0.187664 -0.117912 -1.54372e-19)
(1.24548 -0.194765 1.93646e-20)
(1.41093 -0.792177 0)
(2.14722 -0.399776 -1.1002e-19)
(0.935106 -0.813729 -4.67672e-20)
(1.78861 -0.539471 -9.37961e-20)
(1.10903 0.838279 0)
(0.467282 -0.448951 0)
(0.604068 0.516226 -1.37513e-19)
(1.09245 0.277384 -2.93143e-19)
(2.19746 -0.231141 4.78936e-22)
(0.859507 0.170093 1.07698e-19)
(0.101919 -0.734276 -6.01557e-19)
(0.975542 0.0555591 -1.61383e-21)
(-0.271377 -0.701453 0)
(-0.0314461 -0.117364 0)
(-0.588945 -0.632528 0)
(1.33286 -0.720943 -4.16393e-20)
(-0.291983 0.651839 -2.9338e-19)
(-0.0957282 0.246417 0)
(1.2963 0.977845 -4.07009e-21)
(1.1039 0.145444 -3.08682e-19)
(1.20271 0.243168 -1.91866e-20)
(1.08497 0.925274 3.32933e-20)
(-0.232714 0.76545 1.92752e-19)
(0.822849 0.0627971 0)
(-0.598829 -0.566331 -3.79617e-19)
(-0.346296 0.771285 3.59554e-19)
(0.778965 0.0383965 1.456e-19)
(1.54258 0.946463 6.36643e-20)
(1.09355 -0.0603605 1.14929e-21)
(-0.142285 0.500803 -3.25226e-21)
(0.739804 -0.67513 -2.71883e-20)
(1.23218 0.00947573 0)
(1.7088 0.0488869 0)
(1.13814 0.0271178 0)
(0.282381 0.36145 2.71462e-20)
(-0.514624 -0.685273 1.43553e-19)
(1.05011 0.845115 0)
(0.983838 -0.00884411 3.93692e-19)
(0.769801 0.603741 -1.7281e-19)
(-0.275976 0.0616167 -1.57886e-20)
(0.868688 0.0198873 -3.23045e-20)
(0.709462 -0.646759 -1.65441e-19)
(1.3932 0.709422 -9.98534e-21)
(0.555986 -0.443616 -2.35588e-19)
(1.10441 -0.00480463 -3.50567e-19)
(0.842413 0.0400651 3.403e-20)
(1.50892 -0.166017 3.46232e-20)
(0.777636 0.00913773 -3.38597e-20)
(-0.0114761 -0.0344672 -1.19094e-22)
(1.08122 0.473544 -1.9262e-19)
(1.35374 0.622421 1.10445e-19)
(-0.126242 -0.388557 0)
(0.0652043 -0.739194 2.26043e-19)
(-0.323517 -0.313917 1.38482e-19)
(-0.223714 -0.0505861 -1.47693e-19)
(0.475335 0.320067 0)
(1.18348 -0.379694 0)
(0.0412086 -0.0269954 -1.79646e-19)
(-0.258166 -0.739796 -8.06314e-20)
(1.05589 -0.0229303 1.39071e-19)
(-0.570051 0.500174 -5.57978e-20)
(1.66836 -0.796616 -3.68518e-19)
(-0.026799 0.768166 0)
(0.826984 -0.733188 -2.18666e-19)
(0.767865 0.0531148 5.38818e-20)
(-0.460731 -0.446281 2.54917e-19)
(0.716007 0.171438 2.60945e-19)
(0.620631 0.14707 8.52385e-20)
(0.496278 -0.469357 1.60574e-19)
(-0.173825 -0.298541 -1.5678e-19)
(1.08751 -0.0716309 0)
(0.392354 0.347854 -1.553e-19)
(1.03356 -0.0102068 -2.21467e-19)
(-1.15218 0.0222385 3.1665e-19)
(1.42828 0.47844 -5.27251e-20)
(-0.104047 -0.270204 -5.89321e-20)
(0.679867 -0.620545 -1.11882e-20)
(0.814829 0.196561 -1.60727e-19)
(0.984173 0.428927 1.68162e-20)
(1.12026 -0.125221 2.6221e-20)
(0.599867 -0.225492 -2.42461e-19)
(2.00206 -0.344917 -1.97235e-19)
(0.564697 -0.0771564 0)
(1.04036 0.105505 -2.07417e-20)
(1.26862 0.229934 -1.62635e-20)
(1.23117 -0.337934 1.82455e-19)
(0.991084 0.353101 -2.39136e-19)
(1.05305 0.0295981 -1.08731e-21)
(0.417485 0.388003 -1.99388e-19)
(-0.241704 0.278764 3.86729e-19)
(2.0418 -0.140058 0)
(0.939449 0.00676425 0)
(0.865451 -0.766033 3.98546e-20)
(-0.0675405 -0.525229 -3.91627e-19)
(-1.23098 0.0202628 -3.88572e-19)
(-0.0269651 -0.0700883 -2.53645e-19)
(-0.511221 0.682786 -2.43538e-19)
(-0.375481 -0.683364 0)
(-0.0126927 -0.0729806 4.51237e-20)
(0.316583 0.564641 -1.26363e-19)
(-0.272283 0.354315 -4.48012e-19)
(0.802493 -0.110123 0)
(1.19325 -0.237556 1.30316e-20)
(-0.295136 -0.338639 0)
(1.0209 0.0220879 2.83173e-19)
(-0.078323 -0.725182 3.0664e-20)
(0.532161 -0.416083 3.15749e-19)
(-1.05178 -0.273756 6.67979e-19)
(-1.30785 -0.311912 0)
(0.323809 0.714827 1.58586e-19)
(1.01216 0.031027 -8.47736e-21)
(-0.225059 -0.102558 0)
(1.00704 -0.0118169 -4.40345e-20)
(0.854058 -0.720045 -2.13823e-19)
(1.19515 -0.583852 0)
(0.927183 -0.276406 1.60378e-19)
(0.176351 0.683926 3.52876e-19)
(0.0244833 0.0279702 0)
(-0.172186 -0.732934 -8.05693e-21)
(0.718889 -0.626143 -3.30307e-19)
(0.981287 -0.0435755 -2.01692e-19)
(-0.0820116 -0.634233 4.8337e-19)
(-0.153228 -0.41983 1.80222e-19)
(-0.341694 -0.735028 0)
(0.966859 0.479198 0)
(-0.386193 -0.689219 3.25746e-19)
(2.18735 0.377572 -2.27386e-19)
(1.07907 0.898911 1.02991e-20)
(1.06145 0.210145 -9.23738e-20)
(1.1559 -0.0121745 -1.65521e-19)
(1.04113 -0.0759502 -5.64422e-20)
(-0.0336664 -0.678714 -4.48167e-19)
(1.74576 -0.0449439 4.07882e-19)
(0.747979 0.0395708 1.49623e-19)
(1.80239 0.0325662 1.21183e-19)
(1.03678 -0.138149 0)
(0.157856 0.701674 2.95663e-19)
(1.09498 0.0263816 -3.84057e-19)
(1.74634 0.61911 -3.86608e-20)
(0.72762 -0.444293 -1.27609e-19)
(-0.0614744 0.00197586 2.38698e-19)
(0.791261 -0.693692 2.83039e-19)
(1.22579 0.193108 5.07238e-20)
(1.00635 -0.0141936 1.95201e-19)
(0.177484 -0.780657 -2.06367e-19)
(1.04035 0.0221428 0)
(1.19816 0.114445 -1.11133e-19)
(0.0178011 0.0267512 0)
(1.03345 0.0148835 -1.14536e-19)
(-0.758215 -0.21941 -1.86939e-19)
(1.6969 0.31184 -6.48336e-21)
(-0.485233 -0.32705 1.80453e-19)
(1.61411 0.052059 -4.05188e-20)
(1.00923 -0.0203595 4.01285e-20)
(1.32573 -0.0704212 0)
(1.43459 -0.606719 -7.11236e-20)
(1.02593 0.0410818 -1.18613e-19)
(1.44925 0.791192 1.09419e-20)
(1.35626 -0.0121685 0)
(1.05095 -0.0161236 1.53879e-21)
(0.0491436 -0.030767 0)
(1.41862 0.0452582 0)
(-0.487375 -0.703515 0)
(1.23588 0.448227 0)
(1.92695 0.258175 7.36835e-20)
(0.742446 0.614467 3.0248e-19)
(0.288442 -0.289917 -1.90096e-19)
(-0.216948 -0.658986 -4.34852e-19)
(0.0207816 0.000575589 0)
(1.2163 -0.222158 3.61573e-20)
(1.37725 0.51737 0)
(1.46626 0.292336 0)
(-0.657347 -0.558404 1.68923e-19)
(0.810888 0.71489 8.88776e-20)
(1.70029 -0.000313623 0)
(-0.366628 -0.531715 1.0048e-19)
(0.90992 0.227353 1.46533e-19)
(1.11106 -0.114352 -2.01535e-20)
(1.24742 0.929602 2.05395e-20)
(0.911606 -0.820345 -1.66043e-20)
(0.439045 -0.0164648 -2.25559e-20)
(0.79744 0.719273 8.94443e-20)
(1.18487 0.928953 0)
(1.57054 -0.409357 7.43086e-20)
(1.44222 1.04864 0)
(1.14139 -0.0421307 4.36457e-21)
(0.98939 0.0884956 2.47203e-19)
(1.00935 -0.00431831 0)
(0.335026 0.706377 1.19065e-19)
(0.891796 -0.17174 3.7416e-20)
(0.61946 -0.399465 0)
(0.657787 -0.373069 1.69754e-19)
(1.24021 0.561772 -2.15728e-20)
(0.474085 0.446655 2.14253e-19)
(-0.316042 0.450487 5.29235e-20)
(0.144359 0.0147165 1.29511e-19)
(0.80326 0.0679939 0)
(1.31452 -0.896076 -2.02419e-20)
(1.05073 -0.0368116 3.0778e-19)
(1.52925 0.316533 1.89421e-19)
(-0.407925 -0.580067 8.71583e-20)
(-1.09814 -0.177526 0)
(1.18892 -0.241279 -8.31833e-20)
(0.0279307 0.0251424 -2.07041e-19)
(0.438571 0.562773 -5.04263e-20)
(-0.135563 0.0299386 -5.27264e-22)
(-0.215298 0.0930351 3.96958e-19)
(1.05931 0.00856303 -6.83376e-22)
(2.30046 0.00813997 4.21778e-19)
(1.20082 0.465388 -1.95381e-19)
(1.00876 -0.0374837 0)
(1.79343 0.0204581 2.83514e-19)
(1.79257 0.130567 1.23045e-19)
(0.904424 -0.759514 1.02413e-19)
(1.14405 -0.963643 -6.21307e-21)
(0.478752 0.443736 1.4216e-19)
(1.77426 0.913469 0)
(1.7794 0.568819 7.02305e-20)
(0.0275547 0.0182481 -4.22416e-19)
(0.888061 0.773585 0)
(1.05494 -0.0677437 0)
(0.289221 -0.288784 -3.66232e-21)
(0.325598 0.30803 0)
(-1.3685 0.111505 -5.56972e-19)
(-0.398338 0.633694 -1.59493e-19)
(1.73258 -0.39842 0)
(1.31098 0.0177052 4.71393e-20)
(-0.787085 0.0604258 3.2874e-19)
(0.528446 -0.501321 -3.61837e-19)
(1.85877 -0.0486 -4.82452e-20)
(0.605681 -0.549163 0)
(1.05671 0.119152 0)
(1.36689 -0.221819 0)
(1.11276 0.226602 -1.69489e-19)
(1.30003 0.104952 2.36783e-19)
(-0.833313 -0.0118706 0)
(0.855253 -0.0749041 0)
(1.57213 -0.109683 1.85655e-20)
(-0.0894566 0.254506 1.36029e-19)
(2.10842 -0.343425 -2.31581e-19)
(1.05851 -0.503322 2.16026e-19)
(1.57551 -0.107908 -2.2526e-19)
(-1.32638 0.0917014 -2.59529e-19)
(1.9001 0.0159134 -2.40729e-19)
(1.01449 -0.013827 3.1827e-19)
(1.53587 0.60054 0)
(-0.400713 0.718448 4.25106e-20)
(0.99576 -0.823073 1.18873e-19)
(0.859159 -0.0144844 3.77593e-20)
(0.623817 -0.422171 0)
(1.90087 -0.53302 1.06807e-20)
(1.19595 -0.198459 1.06401e-19)
(1.12124 -0.127122 0)
(0.601988 -0.558848 3.2405e-19)
(0.674778 -0.0667503 -2.37515e-20)
(2.09357 -0.490619 4.61362e-19)
(-0.14246 0.398791 -2.81862e-19)
(1.33748 0.623051 8.13418e-20)
(1.15064 0.411902 2.59084e-21)
(0.916783 0.378153 1.71632e-19)
(2.0177 0.476957 -2.17388e-19)
(-0.04909 -0.727372 -8.10283e-21)
(1.20995 -0.170719 0)
(-0.156342 -0.0919683 3.94612e-19)
(1.07887 -0.937903 0)
(1.05599 -0.642917 1.56866e-20)
(1.58862 0.286725 -7.76958e-19)
(1.05913 -0.00421719 -1.37364e-21)
(-0.796012 -0.46045 -5.60973e-19)
(0.99853 0.489925 1.28432e-19)
(0.357614 0.532695 -2.97616e-20)
(0.742911 -0.0388389 0)
(0.878436 -0.191727 0)
(0.770762 0.157433 8.05438e-21)
(0.754529 -0.0121703 0)
(1.35409 -0.221359 -1.09484e-19)
(-1.86094 0.124735 7.19286e-19)
(1.91083 0.485902 7.81726e-20)
(1.05456 -0.0183192 0)
(0.54332 -0.340702 8.33865e-20)
(1.02579 0.0259526 1.52402e-19)
(1.05362 0.910321 -2.36008e-20)
(-0.484706 0.603166 0)
(1.10897 -0.471886 3.56101e-19)
(0.903598 -0.0591195 -1.81592e-22)
(1.09652 -0.490179 -1.55255e-19)
(2.32601 0.139461 2.51577e-19)
(1.29448 0.795981 0)
(0.894329 0.0295232 0)
(-0.497077 -0.61896 -2.21341e-19)
(0.036949 -0.023387 2.02066e-19)
(0.959732 0.370988 -1.56077e-19)
(0.392205 -0.683203 -1.85808e-19)
(0.648637 0.412791 1.90887e-19)
(0.991558 -0.0224644 0)
(0.532614 -0.495125 0)
(1.09431 0.00229873 9.68004e-22)
(1.22175 -0.500875 -6.88909e-20)
(0.62381 0.00248629 1.42612e-20)
(0.729344 -0.149603 9.47746e-20)
(-0.034817 0.125161 -3.60895e-19)
(1.62921 -0.170016 3.51128e-19)
(0.663219 0.617055 0)
(1.27914 0.700353 0)
(1.56907 0.2447 0)
(-0.500877 -0.653913 -2.23997e-19)
(1.28898 0.572086 2.79021e-19)
(1.88691 0.156095 4.70764e-20)
(1.0079 -0.00584822 0)
(1.06385 0.052677 0)
(1.9559 -0.0728142 -3.23597e-19)
(1.0842 0.893923 2.25036e-20)
(0.997578 -0.00144027 -1.52194e-19)
(1.49076 0.478479 0)
(-0.359401 0.634433 0)
(1.24445 0.32091 1.99107e-19)
(1.03276 0.534602 -9.30196e-20)
(1.04289 0.0271598 0)
(2.0431 0.686101 0)
(2.02628 0.671795 -4.19273e-19)
(-0.107964 0.62878 -5.27573e-21)
(1.00242 0.0180914 0)
(0.711916 0.476524 -2.58045e-20)
(0.925592 -0.816234 0)
(1.01679 0.0179598 3.51529e-20)
(1.10332 -0.0204794 2.66693e-20)
(0.899377 -0.330315 2.36938e-19)
(1.08103 0.00654588 -1.91718e-20)
(2.15019 -0.0774356 4.09621e-19)
(0.870373 0.0883629 4.61467e-20)
(0.762735 -0.0306935 0)
(1.0027 -0.0012909 0)
(-0.778132 -0.459183 0)
(0.668761 0.639499 -1.33906e-19)
(-0.00334924 0.0582169 2.43328e-19)
(1.16163 0.34821 -3.21606e-19)
(-0.747352 0.409137 0)
(0.833735 0.644286 1.25506e-19)
(0.998387 -0.3356 0)
(1.00446 -0.00866539 8.88778e-20)
(0.911556 0.839972 5.47462e-20)
(1.04109 0.409354 1.85087e-19)
(1.81967 -0.136623 0)
(2.13235 0.123444 -1.02026e-19)
(0.825085 -0.106889 -2.86366e-19)
(-1.28911 0.0925791 -6.7691e-19)
(1.34677 0.860402 0)
(0.883099 0.248356 1.35814e-19)
(2.1701 -0.0365486 0)
(0.781749 0.524544 2.76932e-19)
(-1.68896 0.105209 2.61048e-19)
(-0.0395276 0.135463 0)
(0.591921 0.561829 -5.30289e-20)
(1.01794 -0.62894 -1.10116e-19)
(0.471388 -0.237328 -9.99915e-20)
(1.0076 -0.0149112 0)
(-0.524419 0.300209 -3.60346e-19)
(0.630334 -0.560474 6.40443e-20)
(0.915574 0.294614 0)
(1.2923 -0.435524 2.04959e-20)
(0.988041 0.840413 1.59002e-20)
(1.09827 0.00743559 -2.1146e-20)
(0.177791 -0.226957 -2.71868e-19)
(0.225367 -0.0215221 -4.53585e-19)
(-0.051696 -0.177062 1.09606e-20)
(0.825018 0.36328 1.89716e-19)
(-0.311628 0.686691 -7.26404e-21)
(1.40044 -0.644525 3.21424e-21)
(1.01414 0.0157093 -2.62883e-19)
(-0.624402 -0.632105 0)
(1.03095 0.0455632 -3.07764e-19)
(2.08778 0.560527 1.80741e-19)
(0.892757 0.691782 2.04454e-19)
(1.07929 -0.0802245 1.21041e-19)
(1.00034 -0.0360544 1.21483e-19)
(1.05887 -0.00159004 1.25611e-21)
(-0.375293 -0.454398 -3.1144e-22)
(1.71532 -0.859718 1.50083e-20)
(1.1429 -0.150956 -5.13398e-20)
(0.859259 0.0343422 5.86989e-20)
(0.909013 -0.302247 7.0204e-20)
(0.360339 0.0205335 0)
(0.967657 0.737132 0)
(0.971451 0.644161 -6.52644e-20)
(2.02581 0.207332 -4.3774e-20)
(-1.37541 -0.0449469 2.71299e-19)
(1.02451 -0.528556 -3.83387e-19)
(0.608435 -0.525005 3.10043e-19)
(1.50878 0.183125 -2.088e-19)
(0.355886 -0.627591 2.1029e-20)
(1.08473 0.0453433 0)
(0.749871 0.127378 -5.36028e-21)
(1.09569 0.0212175 -6.88578e-21)
(1.04573 0.764703 0)
(1.13102 -0.00651421 0)
(0.690522 -0.37029 0)
(-0.153372 -0.318165 -7.1282e-20)
(-0.161672 0.13969 0)
(1.33835 0.702026 6.32055e-20)
(1.20802 0.179839 4.54009e-21)
(-0.539262 0.213134 6.28876e-20)
(1.10716 -0.0473067 5.3176e-21)
(1.84079 0.455873 -1.27359e-19)
(2.07867 -0.293607 -4.22409e-20)
(-0.1824 -0.0103184 -2.82242e-19)
(-0.228967 -0.781431 6.00336e-21)
(0.698842 0.0320639 0)
(0.705248 -0.0312418 0)
(1.00907 0.00265607 2.54059e-22)
(-0.529519 -0.650427 0)
(1.47289 0.0662134 -1.31406e-19)
(0.693359 -0.0247184 0)
(1.04444 0.00219521 9.65325e-20)
(0.991779 0.0069258 -3.46356e-20)
(1.66273 -0.388828 2.11003e-19)
(1.04828 -0.0170802 -7.03156e-22)
(0.935749 -0.186926 -4.22705e-20)
(1.02798 -0.0314617 2.82667e-19)
(0.663732 -0.601402 1.43628e-19)
(-0.0304191 -0.197272 -9.65211e-21)
(1.00138 -0.0736015 6.44282e-21)
(0.0374821 -0.0108848 0)
(1.13233 0.79837 0)
(1.02365 -0.0225912 0)
(0.994908 -0.767164 -7.41266e-20)
(1.0272 -0.880846 6.6898e-21)
(0.986204 -0.0379765 -6.53885e-22)
(0.483387 1.14708 -5.72956e-19)
(1.07699 0.0126149 3.38899e-21)
(0.575299 -0.37304 -5.09214e-19)
(0.973536 -0.0295501 -3.05725e-20)
(1.08163 -1.74776e-05 -1.31783e-20)
(2.06575 -0.304625 1.35736e-19)
(0.759413 -0.0581084 -1.56568e-20)
(-0.307588 -0.52615 -1.50238e-19)
(1.11747 0.559118 1.34702e-19)
(-0.129736 -0.350239 0)
(0.30878 -0.698272 5.47872e-19)
(-0.0340197 -0.0591298 1.95669e-22)
(1.03315 -0.0380076 2.5294e-19)
(1.01635 0.00400634 -6.50183e-21)
(1.08252 -0.00511019 -6.99461e-20)
(1.06103 -0.0104133 2.53517e-21)
(1.61905 0.307996 1.63364e-20)
(0.392972 -0.367795 -2.51837e-19)
(1.02608 -0.021973 4.5832e-22)
(1.03034 0.013122 -1.86474e-19)
(0.973727 -0.0782268 -6.6304e-21)
(1.06916 -0.0171327 0)
(1.11585 0.597971 -2.50559e-19)
(1.00536 0.0043779 7.23457e-20)
(0.67607 0.603076 1.97856e-19)
(1.07232 0.0328628 -2.48335e-22)
(1.04647 -0.00416248 -2.28333e-20)
(1.09466 0.0269288 6.49526e-22)
(2.20799 -0.256025 2.0488e-20)
(0.507992 -0.013924 0)
(1.06275 -0.029533 0)
(1.07051 -0.0273422 4.46838e-19)
(1.00121 -0.000955832 0)
(0.00937594 -0.021802 0)
(0.947525 -0.570518 0)
(1.00024 -0.00177964 -4.21525e-19)
(1.14983 -0.675071 5.57567e-20)
(1.02359 0.00639154 8.80967e-21)
(1.3519 0.958211 -3.08557e-22)
(1.53742 1.0071 -1.64914e-19)
(1.0748 0.0115804 -5.71321e-21)
(1.65152 0.789815 1.53718e-19)
(0.539572 0.0976455 0)
(0.0864717 0.652039 0)
(2.17423 0.125512 5.30748e-19)
(1.1587 -0.147868 0)
(0.998475 -0.00711347 -1.30699e-19)
(1.00099 0.00173626 2.53962e-19)
(1.38086 0.133451 -4.75653e-20)
(0.0111019 -0.123885 3.04506e-19)
(0.984552 -0.00882539 1.37451e-19)
(0.827808 -0.0216602 2.03598e-21)
(0.848339 0.0211314 -1.07971e-21)
(1.0633 -0.00854255 2.0135e-23)
(0.908363 0.00703693 -1.38648e-19)
(1.00634 0.00370392 1.64193e-19)
(1.00134 0.00254327 9.66014e-21)
(0.784467 -0.009304 0)
(0.728097 -0.0236409 0)
(0.732967 -0.017691 5.37277e-22)
(0.71194 -0.0377868 0)
(0.456973 0.00135647 0)
(0.621378 0.0154912 0)
(0.6802 -0.000575777 -8.3559e-22)
(0.844582 0.0102801 4.55015e-22)
(1.05337 0.0062124 0)
(1.05943 -2.59513e-05 7.99171e-22)
(1.05518 -0.00523792 0)
(0.715631 -0.00306432 0)
(0.620504 -0.00179542 0)
(0.583973 -0.00758561 1.18255e-21)
(0.405918 -0.0102479 3.82918e-20)
(0.82197 0.0294043 0)
(0.812317 0.020942 0)
(0.947166 0.0222318 -1.70587e-19)
(0.831066 0.0169059 3.21174e-19)
(1.00322 -0.00123129 0)
(0.999339 -0.0010373 3.02635e-19)
(0.999525 0.00149608 -3.68523e-22)
(0.817569 0.0267477 2.71081e-19)
(1.00186 -0.0110255 -1.57785e-19)
(0.846641 -0.0162568 0)
(0.65088 -0.00508111 1.08065e-21)
(1.00179 -0.00236479 -1.53088e-19)
(1.00405 0.00645448 -2.625e-19)
(1.06442 -0.00784628 0)
(0.994363 0.0018283 0)
(1.00068 0.000241984 0)
(1.05691 0.0285762 -2.35734e-22)
(1.07443 -0.00124355 4.2891e-21)
(1.01267 -0.0622406 0)
(-0.529496 0.526188 2.6235e-19)
(0.0248309 0.564918 -1.09835e-19)
(1.0127 -0.017623 -2.02675e-19)
(-0.382268 -0.747386 -1.47278e-19)
(1.00315 0.00960097 -1.63346e-19)
(1.1761 -0.226486 -6.57311e-20)
(0.786975 -0.460965 2.3704e-19)
(-0.0080683 -0.0399065 -1.02585e-19)
(1.02488 0.016212 0)
(1.05883 0.000816796 -4.37456e-20)
(0.86477 0.0202509 0)
(0.00161521 0.0472539 3.56811e-19)
(1.12472 -0.079143 0)
(-0.589745 -0.655859 -3.81581e-19)
(0.810326 -0.0339362 -3.11884e-21)
(1.67634 0.680442 1.13033e-19)
(-0.0389681 -0.0885902 0)
(1.07368 -0.0330881 1.37401e-19)
(1.0742 0.0091075 6.02489e-22)
(0.929562 -0.0110552 2.1864e-19)
(1.0147 0.00216222 -1.38014e-19)
(1.68853 0.86202 9.62781e-20)
(0.522171 0.489543 0)
(0.445983 0.403605 1.61858e-19)
(1.05964 0.077694 -5.79469e-22)
(1.14296 0.127646 1.40803e-19)
(1.07745 -0.702061 0)
(1.01958 0.0127596 0)
(1.00663 -0.0181458 -3.20515e-19)
(1.01659 0.0134728 -3.10766e-19)
(-0.0978761 -0.324449 0)
(1.22877 0.825231 -6.48615e-20)
(1.0586 0.0193884 2.64387e-22)
(1.01919 0.00697295 1.19322e-19)
(1.00755 0.0191133 -1.50844e-19)
(-0.738465 -0.565509 -3.7759e-20)
(1.07259 0.0081955 -9.4871e-21)
(1.02566 -0.00425349 5.09226e-19)
(1.05345 0.0196752 0)
(1.88452 0.650042 -1.11387e-19)
(1.01864 -0.0171215 -1.58656e-19)
(1.77824 0.186449 -1.11289e-19)
(1.04685 0.0138195 -3.64441e-22)
(1.00387 -0.00845229 3.19284e-20)
(2.11423 -0.191957 -3.36295e-19)
(1.01985 -0.000730555 1.54216e-19)
(1.08038 -0.0228725 7.86214e-22)
(1.02696 0.0172169 0)
(0.926726 0.154854 3.80505e-20)
(-0.768021 0.107642 4.84558e-21)
(0.983766 0.0267468 1.53952e-19)
(1.02327 0.0179154 -7.16028e-22)
(1.06701 0.0159737 -1.0511e-21)
(1.25567 0.313284 2.7076e-19)
(1.00978 0.00491696 1.0509e-19)
(1.02931 -0.0140902 5.51001e-22)
(1.75189 0.224866 4.28881e-21)
(1.8068 0.951949 -1.3663e-19)
(0.766685 -0.688081 4.21018e-20)
(0.441505 -0.313046 -2.48415e-19)
(1.00748 -0.0341166 0)
(1.02477 0.00247204 3.82334e-20)
(1.01806 -0.00614742 8.06656e-20)
(1.06605 -0.0100772 6.04476e-22)
(1.01974 0.00673801 -1.60517e-19)
(1.0368 -0.0139887 1.83644e-19)
(1.0194 -0.000878738 -1.5096e-19)
(1.00815 0.00369701 -5.00859e-22)
(1.01271 0.00205839 -5.01751e-22)
(1.0106 0.0172167 1.53781e-19)
(0.901272 0.0910512 3.96488e-19)
(1.29643 0.418504 0)
(0.915596 0.3723 2.93325e-19)
(1.00424 -0.00415052 0)
(1.01618 -0.0175172 -4.44717e-20)
(1.54317 0.44142 -2.18857e-20)
(1.52542 0.0996492 0)
(1.29346 -0.288243 -3.77675e-20)
(1.23708 0.640815 -6.77861e-21)
(0.845474 -0.0196595 0)
(2.17339 0.126785 0)
(1.01774 0.65211 1.77791e-20)
(1.06474 0.00353057 -1.37624e-21)
(1.0184 -0.00411317 -1.61633e-19)
(1.11105 -0.554466 -4.36062e-20)
(1.06158 -9.40336e-05 -2.13031e-21)
(1.10698 -0.0186388 0)
(1.08133 0.0368041 0)
(1.21961 0.289363 0)
(0.27745 0.566305 1.39678e-19)
(1.07489 -0.011191 8.53601e-21)
(0.590876 0.278357 0)
(-0.0231689 0.625073 -4.53172e-19)
(1.71341 0.969792 -1.4145e-19)
(1.00265 -0.00404237 -3.16585e-19)
(1.06519 -0.002991 1.86826e-21)
(1.00984 0.00708355 2.0901e-19)
(0.764562 -0.0395235 0)
(-0.0785815 -0.275504 -3.14163e-20)
(0.61531 0.437259 -2.68381e-19)
(1.25939 0.330975 9.41308e-21)
(0.199267 0.670523 0)
(0.832181 0.133424 5.53515e-20)
(0.520121 0.496478 3.97953e-20)
(1.19304 0.888097 -1.60037e-20)
(-0.00359796 0.0216905 1.52209e-19)
(1.02355 0.00853041 0)
(1.08843 -0.0287323 6.13692e-21)
(1.01043 -0.00102572 1.18656e-19)
(2.32147 -0.131664 0)
(1.01163 0.016249 1.99242e-19)
(0.441656 -0.678765 -2.55915e-19)
(1.01763 0.00993279 -1.22841e-19)
(1.0708 -0.0379768 0)
(1.37089 -0.393277 1.96426e-22)
(0.996806 0.00954794 -8.29118e-20)
(0.991005 -0.0230981 2.18775e-19)
(1.09011 0.100728 -2.99532e-21)
(1.09171 -0.0262555 -9.83526e-21)
(-0.172242 -0.0397955 3.97032e-19)
(2.0735 0.297034 2.70406e-19)
(1.09674 -0.0109303 1.13559e-20)
(0.826243 0.013434 -3.00361e-19)
(0.84347 0.0335256 0)
(1.08373 -0.00818971 6.93012e-21)
(1.02278 -0.00301439 -2.39167e-20)
(0.962723 0.0321032 0)
(1.03785 -0.00428899 -1.51607e-19)
(1.09038 -0.0025957 -1.82043e-20)
(-1.5237 0.103206 3.09739e-19)
(2.12792 -0.566082 0)
(-0.65189 -0.554809 -5.38659e-19)
(1.49276 -0.330481 0)
(1.03439 -0.0204794 4.44766e-20)
(1.05027 0.000137689 -7.68617e-23)
(1.00448 -0.000805688 1.28371e-19)
(-1.01047 -0.148406 5.63687e-19)
(1.0153 -0.00388441 0)
(0.982284 0.00450639 -3.11354e-19)
(1.01978 0.00897159 1.63509e-19)
(1.04891 0.00573214 0)
(1.03857 -0.00889614 1.47924e-22)
(0.966266 -0.00165348 -1.40404e-19)