/*--------------------------------*- C++ -*----------------------------------*\
| =========                 |                                                 |
| \\      /  F ield         | OpenFOAM: The Open Source CFD Toolbox           |
|  \\    /   O peration     | Version:  2306                                  |
|   \\  /    A nd           | Website:  www.openfoam.com                      |
|    \\/     M anipulation  |                                                 |
\*---------------------------------------------------------------------------*/
FoamFile
{
    version     2.0;
    format      ascii;
    arch        "LSB;label=32;scalar=64";
    class       volScalarField;
    location    "42.9";
    object      p;
}
// * * * * * * * * * * * * * * * * * * * * * * * * * * * * * * * * * * * * * //

dimensions      [0 2 -2 0 0 0 0];

internalField   nonuniform List<scalar> 
2186
(
0.724131
-0.675411
-0.299607
1.03314
-0.761868
0.139485
0.553129
-1.34932
-1.28432
1.34215
1.23582
-1.4466
-1.29763
1.07346
-0.924242
1.109
1.11383
-0.851078
-0.0376715
-0.476356
1.50305
-0.475082
1.08687
-1.57037
1.07882
1.00284
1.30496
0.823174
0.840292
1.07568
-0.460929
1.07916
-0.424476
0.0290777
-1.47495
0.408795
0.0618127
1.50041
-0.235583
0.358539
-1.30054
-0.443664
-1.09595
-0.593722
1.0931
1.3249
0.15382
0.362055
-0.940671
-0.680867
-0.462571
1.10436
-1.05176
1.45498
-0.481502
0.884162
-1.17195
0.916436
-0.291665
0.773506
-0.151938
0.879202
0.807722
0.404105
0.826152
0.297497
0.907144
1.38827
1.28682
-1.19356
-1.36488
-0.333871
1.33533
0.952074
1.30556
1.13769
-0.586127
1.11034
-1.50008
-0.349024
-0.703848
0.431476
1.07231
0.866537
1.05869
1.0723
1.41747
-0.0373236
0.294365
-1.50072
0.8873
-0.559058
0.932975
1.19595
1.08906
0.688992
-0.449894
0.841489
-0.747753
0.934589
-1.24562
-1.07204
0.886148
0.953823
1.11509
-0.472448
1.37879
-0.678975
0.875407
-1.46499
-0.352588
-0.706329
0.38959
1.4633
-1.36342
-1.07724
-0.497274
-1.17511
-1.5008
1.32821
0.281572
-0.633518
1.06966
-1.00206
1.11233
-0.482088
-0.739395
1.1293
-0.907201
0.529019
1.42745
1.24233
0.0196556
0.519223
-0.840343
-0.62313
0.84852
-0.963205
-0.147127
-1.45656
1.02054
-0.496348
-1.35808
0.582005
0.908471
0.953541
-0.744192
-0.772609
0.484199
-0.510495
-0.685396
0.436698
1.11313
1.1764
1.00704
0.37712
1.42483
0.721118
0.644853
0.248038
-1.46533
-1.52408
1.10824
0.942452
0.00801843
-0.118655
-1.44212
-1.46997
0.0974058
-0.320094
0.638542
0.942114
1.11525
1.08554
0.691389
0.0906044
-0.792416
1.11223
-1.32725
1.07298
-1.43395
1.09583
-0.489257
0.799839
0.782694
-0.810306
-0.967149
1.31437
-0.108043
-1.2236
-0.942205
1.36126
-0.981268
0.941727
-1.46819
-1.39751
0.375772
1.2901
1.26034
-0.465182
-1.48038
-1.28291
-0.161436
1.09981
-1.46731
-0.715526
-1.52873
-1.02824
1.08972
-0.550479
0.373906
0.196043
1.44883
1.04599
1.12871
0.891508
1.35574
1.08504
0.823204
1.27819
0.244937
-1.03068
-0.490846
0.402048
-0.031601
-0.79953
-0.754996
1.23348
1.15912
-1.582
-1.36515
-2.07398
0.186816
0.533467
0.736429
0.823799
1.0968
-1.27434
0.816575
-1.42618
-0.723576
-1.04459
1.1993
0.960261
1.32974
1.2518
1.29546
1.27802
-1.41057
0.735727
1.25508
-1.3656
1.1883
1.00172
-2.00368
-1.50355
-1.56538
1.33145
1.12424
-1.26063
-0.540007
-0.320449
0.894018
-0.988536
0.977814
1.25203
0.850418
-1.52969
-0.482565
1.03936
0.869815
-0.516232
-0.0824456
1.47405
-0.711526
-1.38899
0.83149
1.17939
1.05891
-0.768799
-0.373796
-0.973974
1.10379
-1.33576
0.397366
1.03878
0.995317
-0.475948
-0.480114
1.10509
-1.5666
0.879118
1.19093
1.11786
1.11442
-0.664657
-0.583318
-1.58487
-0.254058
-1.55013
-1.062
0.194841
-0.90301
0.853539
1.16279
1.37672
1.11386
-0.871604
1.27631
-1.58246
0.333585
-1.4388
-1.47203
-1.18001
0.169051
-0.68004
-0.600409
0.45065
1.10684
0.453614
0.649308
-0.665696
-0.0726203
-1.13393
-0.718306
1.31497
0.287003
-0.874279
-0.556499
0.691666
0.816356
-0.00310071
0.416551
-0.916083
-1.21817
0.900398
1.10288
1.26522
-1.57188
1.24713
0.815469
0.650524
1.25648
1.10864
0.974358
0.234519
-0.176325
-1.44714
1.08186
-0.557305
-1.55842
-1.54364
-0.987378
-1.51166
1.50435
-0.448753
-0.475366
-1.39686
1.10702
-0.804302
-1.61933
-0.514036
0.657128
-0.348583
-1.44406
1.38195
1.43498
1.10815
-1.34881
-0.765215
1.51921
1.10724
-0.938343
0.721652
-1.41994
-0.0571015
1.32098
1.17998
0.864696
1.347
-0.773459
-0.0326535
0.370652
0.187547
-1.4902
-0.458088
0.370193
1.46306
-0.760622
-1.02937
1.10444
0.443162
-1.49985
-1.33009
-1.43895
-0.745779
-1.45788
-1.47706
-0.408254
-0.726689
1.24265
-0.0805985
-1.05597
1.09872
-1.59814
1.27991
-1.25418
-1.69875
-0.428679
1.07919
-1.41672
1.12208
0.766112
-0.94692
1.04186
-0.562635
-1.48752
-1.46888
0.969361
0.979732
-1.51088
-1.4252
-1.41948
1.18185
-1.55788
-0.448906
0.767041
1.1213
0.886102
0.64842
-1.49364
-0.342499
1.02212
-0.348446
0.779354
-0.372446
1.10566
0.282402
1.12174
-1.49864
0.771875
0.935822
1.1299
-1.5513
1.11489
0.360614
-1.48852
1.08269
-1.9982
0.456051
-1.00593
0.228356
1.1089
-0.0409735
0.0986985
1.12343
0.527471
-0.270673
-0.22948
-0.472217
0.102821
-1.26752
0.942083
-0.226832
1.26479
1.11822
-1.41683
-1.47292
-0.460375
-0.456005
0.70511
-1.11125
1.05732
-0.176163
-1.27505
1.25474
-0.297594
0.64314
0.0946767
-0.328801
1.02425
0.61703
-0.380101
0.0293923
0.116759
-0.37578
1.11005
-0.401684
1.13667
1.24027
1.22722
0.896717
1.34582
-0.736675
-0.386338
0.914447
0.00733642
1.10466
-0.470479
-1.22359
-1.32568
0.738491
-1.48054
-0.673856
-0.474767
-0.510499
-0.1604
-0.540821
0.971286
0.932413
-0.166221
-0.466322
0.64755
-0.171151
1.32184
0.0771212
0.155016
-1.47945
0.992271
-0.495188
1.16716
1.52992
-1.30764
-0.73481
-1.27358
0.605709
-1.19733
1.00155
-0.417097
0.946724
0.971602
-1.50897
1.06556
1.0271
-1.74446
0.881473
-0.345971
-0.549623
-0.659036
-1.43708
-0.372824
-1.11287
-0.27544
1.0802
0.510664
-0.71675
0.453894
1.23152
1.22184
-0.650052
0.694002
-0.0122168
0.679438
0.192155
-0.9057
-0.605577
0.760515
1.03533
1.24472
-0.260216
-1.48973
-1.46678
-1.50078
-0.402217
0.627355
-0.413089
-0.123032
-1.23053
1.15065
-0.743444
1.09154
-0.0225694
0.458167
0.992908
0.586193
-1.29287
0.170283
1.09351
1.32269
1.10832
-0.13336
-0.774907
0.718011
0.0352798
0.705752
-0.133214
0.713531
1.09249
-1.18448
-0.476884
1.2094
-1.63755
1.40329
-0.2411
0.801375
-0.745438
0.511202
-1.52027
1.2951
-0.507359
-1.01671
1.17126
0.783161
0.773861
-1.33548
-0.460315
-0.373103
0.978835
0.146348
-0.341415
0.115695
1.10947
0.675386
-0.704992
0.977391
1.11055
1.10849
-0.231095
-0.394292
-0.601635
1.09999
1.35112
0.334482
1.09454
-0.148649
1.04629
-0.693945
-0.730643
0.469399
0.950098
1.02084
-1.44499
1.07506
-0.506375
1.02756
-0.802246
1.20596
0.92421
1.11201
-0.293168
1.1303
-0.805701
-0.277304
1.2291
-1.32571
0.414064
1.27638
-0.886533
1.29369
-1.4709
-0.547146
1.24388
0.689816
1.40857
1.08362
-0.859335
1.05958
1.25772
-0.416265
0.885056
-0.127721
-1.53351
1.58089
-1.4498
1.31025
-0.699514
0.119704
1.08363
-1.30536
1.11247
0.0260371
1.14082
0.982579
1.09016
-0.213424
-1.1759
-1.00802
0.488536
0.59898
1.06853
0.355444
1.05692
-0.444975
0.0456669
-1.21792
0.759905
1.13739
-0.338482
-1.56363
0.204604
1.35668
0.188399
0.97467
0.0603134
-1.48561
-1.39077
-0.494376
0.561856
1.01128
-1.89349
-0.490392
0.0505596
-0.756428
-0.491345
-1.49346
0.478101
1.09695
1.10981
-1.30006
-0.449024
1.10192
0.966589
1.10553
-1.22499
1.10379
1.07246
1.06395
1.0303
-1.95218
-0.0401468
-0.477611
0.871963
1.07054
0.598442
-0.0735149
-0.169864
-0.87061
-0.244377
1.28247
0.0682313
-0.991927
-0.892953
0.0738034
-1.32035
1.02
-1.5678
-1.65515
-1.48528
1.10943
1.08338
1.11736
0.0360641
0.638219
1.24815
-0.0260554
1.07089
-0.236801
-0.140992
0.999275
1.11373
1.28561
-0.0782861
1.108
1.09956
-0.61782
0.130295
1.11687
1.12513
1.11624
-1.47654
-1.54207
1.11412
0.484897
1.08638
0.500247
0.191288
-0.511337
0.312317
0.623552
-0.531518
-0.406015
-0.0196346
1.12385
1.129
0.977132
-1.51469
1.11
0.373947
0.381175
0.0735091
1.07651
1.11453
1.11494
1.135
1.11567
1.11218
1.10757
-0.108492
0.369329
0.512439
0.467262
0.0132351
-0.0216131
-0.0325833
-0.123517
0.24714
0.387851
0.0907952
1.06836
1.09649
1.08986
1.11779
1.11825
1.11375
1.12125
1.0826
1.11475
0.0501411
0.467031
1.11762
1.11239
-0.0448775
1.11388
1.11635
0.139949
-0.865775
-0.146813
-0.790884
-0.496798
1.10156
-1.34707
1.08882
0.559641
1.05951
-1.45336
1.08571
1.08591
1.00187
-0.474202
-0.0286346
-1.23473
0.167485
0.27941
-0.462837
1.12014
-0.504021
1.18579
1.10789
0.148181
1.35966
1.48073
0.332542
1.06973
0.551592
1.1021
1.11882
1.09863
-1.45445
0.753227
-0.0985865
1.10451
1.10482
-1.13571
-0.649711
1.10833
0.129294
0.0080234
1.10383
-0.176735
1.10563
1.11964
-0.794642
1.10072
-1.23699
1.09325
1.22725
-1.46408
1.10269
1.11212
-0.221411
0.935306
1.08922
1.10855
0.489885
-0.386352
0.612665
1.39507
1.11592
1.09332
1.10668
-0.901999
1.09684
1.06594
1.11149
1.10088
1.10629
1.09259
1.23662
0.462495
-0.58422
1.09741
1.10145
0.591576
-0.0624491
-0.438736
0.262067
1.0483
-0.636712
-0.116714
-0.122959
1.0969
0.633264
-0.399368
-1.12581
0.185217
0.611001
-0.33607
-1.05007
-0.849407
-0.624479
-0.000634863
1.10152
-0.612465
1.08945
1.07645
-1.47571
1.41555
0.303743
-0.463564
0.713883
1.32741
0.729723
-1.49391
1.11201
-1.23111
1.10221
-0.500014
1.10045
-1.72656
1.0963
-1.08803
-0.302935
1.10536
1.11474
1.12665
-1.24857
-1.50105
-0.216133
-1.16545
1.10906
1.0676
-1.18204
1.10338
1.13909
1.10659
-0.81324
-1.43664
-1.02479
-1.94151
0.189694
1.11119
-0.0838183
1.09385
-1.53015
1.10322
1.14176
1.10453
0.110221
-0.13906
1.12759
-1.41011
1.10593
1.11116
-0.218764
-1.32825
1.16711
1.31743
1.09311
1.10637
-0.986326
-0.728548
1.03971
0.246755
1.10671
0.770286
-0.836138
-1.37595
1.03271
1.30154
1.10854
0.165124
0.0443842
-1.17984
-2.02995
-0.298296
1.05859
-0.529834
1.10511
-1.07008
-1.46421
-0.741296
0.745786
-1.54051
-0.147763
-0.661548
1.09632
-1.49265
1.14337
-1.43212
-0.464995
-0.770606
-0.235259
-0.708873
1.09839
-0.918828
-1.41606
-0.63795
-0.41881
1.06514
-0.89426
-0.209654
-1.64401
1.26956
-0.010205
-1.43933
1.17053
1.06397
1.04653
0.36665
-1.35369
1.11659
1.15395
0.574667
-0.666304
1.09432
0.710246
1.41709
1.1234
-0.715207
-1.10087
-0.667535
-1.20877
-0.861929
-1.48526
0.0760954
-1.64827
0.715927
-0.281848
1.09271
1.35815
1.10627
-1.4968
-1.50456
1.09934
-1.35938
-0.439383
1.04952
-0.361044
-0.840237
-1.58982
-1.01705
1.10541
1.08483
0.780018
0.825877
0.943182
-1.83481
1.05455
-1.61063
1.02264
-0.381195
0.976721
-1.926
0.270784
1.0985
1.2989
-1.61127
-1.28953
1.02944
1.47601
1.12144
1.23555
-1.36853
1.26205
-1.53859
-0.312165
-1.27675
0.317637
-1.7184
1.2173
1.16615
-1.4153
0.531954
1.10521
-0.355304
0.795207
1.13227
1.12356
-1.40552
1.10252
0.102644
1.11921
-0.00880701
-0.674365
0.19297
1.10342
0.333365
-0.108079
-0.359269
1.03189
-0.559655
1.37204
0.0675663
1.4801
1.21062
-0.343861
1.04521
-0.581837
1.11518
1.09959
-0.249979
-0.475984
1.32138
1.10783
1.40346
1.09517
-0.131186
1.1106
1.05184
1.0752
1.11246
-1.56693
-0.774797
-1.59728
1.14433
0.252225
-0.651995
-0.527895
0.389798
-0.52575
-0.492809
1.1101
-0.692829
1.0069
1.0502
-0.681833
-1.20111
-0.419475
-0.671046
-0.361189
-0.583336
1.12165
-1.91471
1.12001
1.26301
1.15031
0.213474
1.12798
1.08501
-0.0660112
1.00154
1.10983
-0.857168
1.10457
1.17481
0.217805
-0.526604
1.54553
-1.64269
-1.04846
-1.31509
0.0337685
1.04885
-0.983879
0.657977
-0.463048
1.26793
-0.910516
1.10136
1.13885
1.04113
-0.381714
1.00087
-1.93833
1.1204
1.13327
0.000980978
1.12016
0.794267
1.04809
0.625863
-1.64928
-0.0656292
-0.21042
-0.204459
1.39766
-0.282675
1.1618
1.52604
0.660062
0.192068
1.15659
0.338553
1.15343
-0.154492
-0.192634
1.16715
1.1716
0.263628
-1.69892
1.02495
-0.318596
-0.640291
-0.311809
1.13207
1.04695
1.4877
-1.4951
-0.978147
0.645183
-1.19506
1.21755
1.19683
1.03054
1.10694
1.01428
-1.19235
-1.48361
-1.37413
1.0505
1.09114
-1.91378
-0.620733
-1.44361
1.10785
1.09344
0.316922
-1.34942
1.14395
-1.34787
0.559452
1.03423
1.1616
0.14147
-1.29983
0.208085
-1.15704
-0.433038
-0.528327
-1.62951
1.42203
1.51818
-0.811417
-1.08857
1.111
1.08461
-0.824452
-0.292155
-0.697763
0.932283
1.21717
-1.24394
1.11451
-0.928468
-1.33265
-0.372035
-0.990744
-0.545461
1.03397
-1.14065
-1.00432
1.50494
-1.19009
1.11442
1.39611
-0.637295
1.01972
1.27336
-0.754492
1.42438
-1.23448
-1.38987
1.21793
-0.833036
0.981649
1.11169
-1.27325
1.11273
-0.0601088
-1.19344
1.15799
1.00444
-1.39575
-1.35697
1.11738
1.10795
-1.36495
-1.79699
1.45617
-1.30775
1.08781
-1.08201
0.973279
-1.48195
-0.884972
-1.42736
-0.769473
1.3046
1.08462
1.3201
1.39559
1.2105
1.17501
1.2817
-1.44182
1.33736
1.1414
-0.704539
-1.33808
-0.871724
1.48845
-1.47325
-1.41176
-0.415579
1.17746
-0.724021
-0.842874
1.24657
0.991134
-1.41011
-0.636235
-1.39109
-0.436635
-1.83462
-0.738221
-1.45382
1.13792
0.835324
-0.556741
-0.0581637
-1.34004
1.09709
-1.3128
-0.788921
-1.46382
0.897844
-1.61273
-0.661172
1.36953
0.922141
0.273926
1.20743
-0.537272
0.942365
1.13132
1.18308
1.22184
-0.26999
0.961866
1.23374
0.0695276
-1.47185
1.53497
0.987338
0.894886
1.10685
-0.684567
-1.31188
0.837155
1.05021
1.02551
-1.18793
-1.51258
1.0699
-1.46979
0.793439
-0.804757
1.55837
-1.47866
1.00797
0.648471
-0.495629
-1.48444
-0.467517
1.05126
-0.512896
-1.49366
0.600849
0.907561
-1.11754
1.19195
0.790127
-0.53296
-0.882927
1.13241
-1.03304
-1.4893
-1.44457
-0.459799
-0.630033
1.15436
1.07068
-1.49746
0.504658
1.09874
1.47513
0.0989241
0.618528
0.395003
0.83022
-0.793317
-0.483749
-1.1324
-0.171742
-0.473743
1.12802
-0.522268
0.519681
-1.49281
0.8485
0.442012
-0.468609
0.527712
-0.367473
0.353875
-0.464562
0.782763
-0.484849
0.22893
-1.49914
0.708628
-0.46184
0.744452
-1.50136
-0.461885
-0.467854
-1.49121
1.11874
-0.1413
-0.494347
-1.50794
0.399149
0.4848
-0.500133
-1.48859
-0.53495
-0.389845
-1.52534
0.250269
-1.56768
0.0609204
-0.609093
-0.608183
1.08904
0.396532
-1.31008
1.13783
0.338674
0.227051
0.313339
1.03634
-0.865683
-1.34949
-1.50324
-1.20214
0.884667
1.55008
0.464478
-0.370349
-0.202687
-1.15756
0.0915217
-0.662149
1.14312
-0.84636
1.0034
-0.791167
1.61339
0.353079
1.48224
-0.609503
1.2003
-0.145448
0.993802
-0.652068
-1.50211
1.06064
1.06273
-1.47404
-1.49105
-0.46637
1.17505
-0.259235
1.10937
-0.503812
-1.45667
-1.42259
1.42421
1.20472
1.10426
1.18021
1.10929
-0.558888
-0.633803
1.39448
-0.800005
-1.07435
1.5561
-0.627172
1.08902
0.950387
1.46784
1.50319
-0.590413
-1.67923
1.11452
0.0480872
-0.811924
-0.425082
0.695453
-0.942589
-0.650611
0.473962
-1.10531
1.21255
-0.0961074
1.26198
1.30324
1.21949
-0.713849
-1.51312
-1.1017
1.17755
-1.03297
1.37034
-0.334569
-0.965531
1.41958
1.34269
-1.51263
0.43751
0.999394
-1.14347
-0.892871
0.577713
1.44805
1.26959
-0.73801
1.07046
1.09682
-1.49374
1.27848
0.614191
-0.582436
-0.642369
-0.190936
0.238862
1.31583
-0.978185
0.593404
-0.854174
0.0156747
-0.934278
-1.51264
1.13714
-1.25502
1.20062
0.294932
-0.134386
0.620434
0.112136
-1.49512
-0.230222
-1.77046
-0.0932926
-0.571144
-0.651128
1.17256
-1.40647
-0.802157
1.2054
-1.22164
-0.713485
1.1122
-1.59137
1.20164
-0.298514
-1.47773
-0.601051
0.732643
-1.30242
-1.32795
0.856272
-1.44196
1.13894
-0.988618
-1.02108
-1.11439
-1.49747
1.56308
-1.69213
1.14387
-0.889251
1.0263
1.31987
0.646379
1.05854
1.35717
0.272643
-1.41441
1.02197
1.09441
1.42133
-1.1663
1.19248
0.95199
-1.21344
0.710942
1.22267
-0.200246
1.50412
0.496133
-0.829822
0.765182
-1.2544
-0.465879
0.979547
-0.100888
1.13166
1.03452
1.14526
-0.801692
1.13333
1.4398
-0.825935
0.0945808
-1.79776
-0.783693
-1.04997
-1.48784
1.39732
0.659501
-0.762586
0.855207
-1.29183
-0.988426
1.29792
1.41083
-1.05046
-1.2307
-1.49735
-1.45274
0.999745
-0.747652
-0.127294
-0.406034
0.023495
1.14761
-1.35314
1.53899
1.1822
0.850067
1.17758
1.47232
-1.01736
-1.32417
1.03737
1.15542
-0.901733
1.07578
-1.66142
-1.43391
-1.38343
1.2979
1.32057
-1.41796
-0.748418
0.433269
-0.290595
-0.437443
1.12525
1.19622
-1.15852
1.22933
1.26473
-1.6865
-0.715598
-0.77963
-1.44786
-1.3963
1.35169
-0.268193
1.15681
-0.730142
1.34458
1.07352
1.11575
1.16197
-1.01393
0.541583
-1.45935
0.823886
-0.64883
0.864991
0.105855
-0.0982904
1.09786
0.969552
1.14559
1.15179
0.273932
1.13284
-0.0784712
0.270832
1.03544
-0.180283
-0.695482
-0.55242
-0.31474
1.11031
0.923007
1.10833
-1.45787
-1.27871
-1.46811
-0.408361
1.11918
1.45601
1.13093
-0.673479
-0.916795
-1.05571
-0.175302
-1.49397
-1.49853
0.148269
1.13754
-0.863693
-0.543622
-0.387745
-0.355651
0.98899
-1.25159
-1.47617
-1.66039
1.1533
1.52684
-0.490426
1.17283
1.59967
0.936347
1.36703
-0.728328
-1.06342
1.45143
-1.4818
0.144307
-0.622703
-1.38974
-0.46421
-0.503017
0.989024
0.634102
1.38348
1.35237
-0.0288516
0.693463
0.402617
-0.118451
-1.48685
1.19406
0.990132
1.12374
1.14088
-0.28218
0.469506
1.12358
-0.222786
-1.50278
-0.521393
-0.471486
0.486529
-0.487458
1.02589
0.559556
-1.48147
1.2488
-0.69365
0.0252501
1.06029
-0.942922
-1.0601
-1.03242
0.880099
-0.568453
-0.419506
1.15236
1.13202
0.235562
-0.142836
-1.09218
-1.49124
-0.420037
-0.592831
-0.428482
0.475081
-1.04958
-0.477569
1.43789
0.574043
0.666391
-0.470352
-1.37983
1.0981
1.01843
0.817547
0.396016
-0.465805
-1.12745
-1.18362
0.748924
0.287568
-0.462227
1.04636
0.466837
-0.458881
1.57952
-0.461853
-1.0464
-1.39857
-0.413193
0.770759
-0.47671
-0.757426
-1.51239
-0.244222
-0.511185
0.333865
-0.811198
-0.277645
1.3606
-0.565247
-0.47205
-1.54749
0.168108
1.49881
1.45401
1.41199
1.10908
1.39369
-0.322014
1.10473
-0.696578
1.01566
-1.50461
-1.48111
1.28713
-0.819138
0.362876
-0.695333
1.47157
0.330153
1.39686
0.878113
1.01591
-0.595189
-0.651227
-1.50235
-0.343462
1.40499
1.36936
1.11148
0.54313
1.09063
0.800656
1.06301
-0.461535
-1.47121
0.587234
-0.55405
1.04156
1.11815
-0.285117
-0.628049
-0.458554
-1.69517
-1.50262
-1.06504
1.38655
1.13499
1.11256
-0.409134
0.398329
1.12013
0.718746
-1.49095
-0.540088
-1.20193
1.03292
-0.5482
-0.468516
-0.619244
1.1559
-1.61521
-1.40405
1.09368
0.485949
0.665752
1.10569
-1.49569
1.10834
1.22396
0.762297
-1.49742
1.07209
0.179886
0.747801
-0.980299
-0.506477
1.56284
0.0992067
-0.416
-0.149284
1.13772
1.16134
-1.10929
-1.25716
-0.204837
-0.230496
-1.41351
-0.763374
-0.678252
1.10483
-0.76877
1.14715
1.32701
1.07472
1.17199
1.28438
1.33234
1.10625
-1.16273
-1.08449
-0.0606275
-1.60226
-1.28321
-0.468379
1.31842
1.25733
-1.29331
0.974566
-0.880665
-0.488148
-0.464118
0.299522
0.426467
-1.63833
1.10659
1.13801
-0.474083
-0.762886
1.44186
-1.70222
-0.728251
-1.60494
-0.775538
-0.432995
1.11031
1.02284
1.09828
-1.18687
0.594004
-1.45197
-0.00604349
-1.27591
-0.37137
-0.925354
-1.32629
1.14164
-1.18034
1.52053
-0.693882
-0.905939
-1.53226
-0.464099
0.930617
-1.53584
-1.12275
-1.48768
-0.504802
1.37953
1.25033
-1.01299
0.552732
1.0649
-1.52395
-1.33785
1.12206
-0.539721
-1.3272
-0.286234
1.0035
-0.722693
-1.25571
1.10542
0.398491
-0.3317
1.13477
-0.890181
-1.10888
-0.800246
-0.529993
-0.269457
-1.24729
1.47531
-1.47638
-0.0135911
-1.50295
1.03943
-0.231987
-0.964477
0.913507
0.701187
1.14071
1.00448
1.34417
-0.473849
0.828476
0.445497
-0.893363
1.13018
-0.0300562
-0.217695
-1.47927
1.20031
1.18888
-0.225243
-0.928664
-1.0915
1.22939
-0.869017
0.443542
-1.5299
-0.48252
1.44543
1.22417
-0.624258
-0.792834
-0.649006
-0.570769
1.08343
-0.722742
1.19707
0.541345
0.965628
1.07626
-0.45002
-0.90662
1.16385
-0.466949
-0.43227
1.37597
-1.45928
-0.567162
1.06254
-0.855981
-0.771677
-0.406096
-1.10083
1.43856
-0.97861
-0.0190949
-0.637991
1.33774
-0.675509
-0.806704
0.909376
-1.44569
-1.50486
1.40363
0.935553
0.971826
-0.766219
1.40872
0.124241
-1.14936
-0.750429
-0.753166
-0.687498
1.43463
0.84984
-1.40311
-0.664964
-1.2183
1.30392
-0.848086
1.30784
-1.50275
0.967628
-0.524062
0.666968
0.817013
0.786382
0.713934
-0.022837
-0.827177
1.21796
-0.744323
-0.324582
-1.47888
0.105016
1.35822
-0.51723
-0.776369
-0.712547
-0.536364
0.570621
-0.695401
-0.513841
0.769606
0.00520811
-0.598658
1.43904
-1.23817
-1.18799
1.43565
-0.558094
0.46694
-0.859175
-0.464825
-0.49837
1.40763
-0.455506
1.33452
-0.489892
-0.876987
1.34475
-0.403307
-0.821211
0.841049
-1.1244
0.344375
-0.680285
-0.520478
0.753356
-1.50776
-0.533885
-0.467138
-0.46548
-1.50869
0.803129
0.185033
-0.615161
-0.610927
1.37176
-1.36
-0.77981
-0.458436
-0.450738
-0.584139
-0.453525
-0.58459
-0.281361
1.42078
-0.703904
-1.49224
-0.794717
-1.06489
0.109294
-1.51613
1.4696
1.40856
0.70607
-0.919987
-1.50387
0.6292
-1.50162
1.49151
0.519963
1.0512
0.958648
1.31413
0.412511
-0.594447
-0.95933
0.271801
-0.744892
0.272197
-0.37929
-0.497811
1.37544
-0.436731
0.530158
-0.526881
-1.47098
-0.909031
)
;

boundaryField
{
    frontback
    {
        type            empty;
    }
    Top
    {
        type            zeroGradient;
    }
    outlet
    {
        type            fixedValue;
        value           uniform 0;
    }
    bottom
    {
        type            zeroGradient;
    }
    Inlet
    {
        type            zeroGradient;
    }
    rectangle
    {
        type            zeroGradient;
    }
}


// ************************************************************************* //
