/*--------------------------------*- C++ -*----------------------------------*\
| =========                 |                                                 |
| \\      /  F ield         | OpenFOAM: The Open Source CFD Toolbox           |
|  \\    /   O peration     | Version:  2306                                  |
|   \\  /    A nd           | Website:  www.openfoam.com                      |
|    \\/     M anipulation  |                                                 |
\*---------------------------------------------------------------------------*/
FoamFile
{
    version     2.0;
    format      ascii;
    arch        "LSB;label=32;scalar=64";
    class       volScalarField;
    location    "5";
    object      p;
}
// * * * * * * * * * * * * * * * * * * * * * * * * * * * * * * * * * * * * * //

dimensions      [0 2 -2 0 0 0 0];

internalField   nonuniform List<scalar> 
2186
(
0.75575
-0.346674
-0.0366418
1.05937
-1.38557
0.0131239
0.671536
-1.45512
-1.50528
1.30659
0.994083
-0.891642
-1.42093
1.00917
-0.553792
1.00401
1.03673
-1.54783
0.00468183
-1.0885
1.38413
-0.951822
1.02374
-1.00409
1.00881
1.03482
1.21112
0.890535
0.518142
1.01984
-1.04537
1.00982
-1.26042
-0.147127
-1.06061
0.00830143
-0.147785
1.3708
-0.953657
0.00588696
-1.45783
-0.94985
-0.695986
-0.972589
0.854845
1.28911
0.348395
0.519934
-0.033173
-1.90575
-1.06516
0.834868
-0.650137
1.29642
-1.14364
0.939348
-0.754629
0.966211
-1.02539
0.792626
-0.0744412
0.574359
0.475409
0.0108344
0.507826
0.46516
0.598151
1.27415
1.17126
-1.26924
-1.48843
-0.0478087
1.2472
0.992994
1.15306
1.14468
-0.0689382
1.02695
-1.06353
-1.05472
-1.66616
0.0217298
1.01001
0.553386
1.00125
0.99802
1.27501
0.0127948
0.026484
-1.03246
0.942577
-1.43195
0.934763
1.1566
1.01729
0.337866
-0.162593
0.520878
-1.59851
0.979856
-0.652431
-0.975688
0.581784
0.93834
1.03932
-1.62986
1.17579
-0.619218
0.929805
0.175077
-0.919794
-1.70641
0.540323
1.28962
-1.45189
-1.12404
0.0252676
0.0100778
-1.04248
1.25235
-0.138293
-2.21931
0.793814
-1.17075
1.00709
0.0292086
-1.55826
1.13646
-1.38986
0.653095
1.38025
1.23039
0.238414
0.645384
-1.23676
-2.06652
0.911439
-0.838456
-0.463229
-1.27781
0.735065
-0.205165
-1.40572
0.696548
0.922022
0.952883
-0.611661
-1.38566
0.616777
-1.04844
-1.52779
0.579883
1.02988
1.17535
1.03697
0.532776
1.26701
0.386355
0.264356
0.424617
-1.24481
-2.17863
0.977246
0.982646
0.00493216
0.00449489
-0.815748
-0.771273
0.0302676
0.026927
0.280654
0.986085
1.03682
1.10175
0.342215
-0.327684
-1.28035
0.9783
-0.90847
0.805459
-0.826283
1.01348
-1.14791
0.468192
0.450908
-1.26905
-0.943139
1.09218
-0.482297
-1.33812
-1.13725
1.24128
-0.437915
0.976758
-1.19036
0.145003
-0.0284464
1.16172
1.0245
-1.02074
-2.10674
0.120981
0.0825871
1.02914
-0.98537
-1.43797
-0.98662
0.0214414
0.941571
-0.270788
0.525143
0.0182282
1.27749
0.764844
0.865017
0.9464
1.14687
1.01042
0.891656
1.06506
0.402687
-1.04092
-1.4091
-0.000553659
0.190882
-1.68032
-1.52148
0.991923
1.12765
-1.02439
-0.835757
0.152087
0.373169
0.658258
0.798309
0.89222
1.11196
-0.606631
0.887369
-1.36787
-1.82044
-1.09857
0.950758
0.662181
1.11297
1.16829
1.07097
1.04718
-1.50532
0.819745
1.09231
-1.54985
0.936708
0.71177
0.143994
-1.43954
-1.57307
1.11407
1.03186
-1.41253
-0.44772
0.043943
0.947744
-1.13373
0.689844
1.03327
0.890504
-1.80843
-1.14949
0.982934
0.590014
-0.39083
-0.428407
1.32288
-1.44703
-1.47176
0.88712
1.179
0.999109
-1.49274
-0.249931
-0.760582
0.878833
-1.54306
0.546553
0.983145
1.01806
-0.191607
-0.325074
0.964138
-2.14112
0.932073
1.18915
1.03165
1.02965
0.0595411
-2.09869
-1.06823
-0.105979
0.0450846
-0.238411
0.379771
-0.537888
0.534819
1.16474
1.17174
0.876255
-0.625051
1.12449
-2.45572
0.0203376
-2.05526
-1.23031
-1.31453
0.356251
-1.54367
-1.34849
0.0613957
0.891414
0.0182571
0.295035
-1.70892
0.0262191
-1.24298
-1.63582
1.20606
-0.13171
0.0244463
-1.38337
0.785467
0.515573
-0.402356
0.520967
0.115644
-1.40361
0.590889
1.01835
1.03226
0.145353
1.14165
0.883814
0.29091
1.24131
1.0041
0.938543
0.393737
-0.00598624
-1.29237
0.820843
-1.1479
-1.50131
-2.39704
-0.989691
-1.02028
1.34324
0.0432003
-1.11576
-1.62529
1.00213
-1.22641
0.0122632
-2.19841
0.75753
0.0197414
-1.54159
1.23824
1.2996
1.12107
-1.4186
0.0294555
1.35806
1.00738
-1.14968
0.371089
-1.40392
0.174325
1.1592
0.944767
0.887709
1.30048
-0.510048
-0.016132
0.0137205
-0.110599
-1.85457
-0.921267
0.0224052
1.28246
-1.96204
-1.24257
0.993392
0.583844
-1.47067
-0.451254
-1.32087
-1.86629
-1.99491
-1.17504
-1.68359
-1.41871
1.18396
0.0320785
-1.07412
1.01452
-2.42476
1.26007
-0.945704
0.188586
-2.31133
1.00673
-0.895476
1.02667
0.84478
0.0680878
1.04351
-2.45668
-1.11732
-2.09718
1.00725
0.94588
-1.76922
-1.45823
-1.991
0.942948
-1.96173
-0.372202
0.432933
0.921497
0.919301
0.767494
-1.76742
-0.260779
0.822492
-0.329679
0.805157
0.123637
1.02072
-0.135691
1.12844
-1.04679
0.848925
0.654603
1.03822
-2.3878
0.992394
-0.0727722
-1.10936
1.00246
0.17402
0.092827
-1.0396
-0.19323
1.00776
0.136696
0.298529
1.0008
0.146244
-0.0768583
0.0093826
-1.10829
0.271581
-1.46426
0.647851
-0.970149
1.03041
1.12921
-1.59267
-1.18157
0.0100915
-1.01407
0.352362
-1.22469
0.779039
0.0126381
-1.38927
1.0769
0.0252651
0.285632
0.299489
0.00388914
0.739485
0.256867
-0.0172104
0.088127
0.034929
-0.753436
1.02616
0.117467
1.10303
1.22629
1.2133
0.586525
1.13178
-1.41783
-1.16575
0.921924
0.223694
0.99239
-0.809522
-1.32338
-0.658728
0.817685
-1.12257
0.0274591
-1.05303
-1.11015
0.0115621
-0.448866
0.680838
0.681843
-0.406313
-0.370684
0.749518
0.0772402
1.09974
0.0476048
-0.277994
-1.14555
0.700609
0.0221782
1.1689
1.37441
-0.327204
-1.47366
-0.7808
0.197075
-0.872267
1.03332
-0.314582
0.989941
0.726989
-0.854662
0.834938
0.800458
0.164502
0.911614
-0.153651
-1.27663
-0.208845
-0.960696
-0.199095
-0.950736
-0.431361
1.00256
0.129255
-1.58082
0.592514
1.1416
1.2123
-0.33371
0.791987
0.0384472
0.775367
0.0152442
-0.189384
-1.38864
0.420277
0.765075
1.02998
-0.160167
-1.83275
-1.82175
-1.00821
-0.11439
0.735096
-0.412351
0.00703443
-1.40412
0.900838
0.109838
0.958876
-0.0558895
-0.0613085
0.967626
0.703713
-0.411525
-0.287894
0.975279
1.29314
1.02821
0.0897547
-1.91119
0.812194
-0.0294964
0.79742
-0.703031
0.366663
0.966509
-1.29436
-1.12409
0.987475
-2.6302
1.2143
0.0115494
0.874194
0.0291993
0.635921
-1.00095
1.23137
-1.18423
-0.597556
0.916246
0.448428
0.425529
-1.76793
-1.0627
-0.317681
0.768706
0.0316994
-0.355531
0.079105
1.01766
0.320361
-2.07789
0.699633
0.850475
0.981855
-0.11538
-0.933193
-1.51713
1.01866
1.14416
0.494837
1.01032
0.0441762
1.05518
0.035543
-0.710108
-0.0293754
0.932267
0.986546
-1.32167
0.800023
-1.19107
0.766391
-1.36238
0.959089
0.95892
1.02948
0.070044
0.884703
-0.943051
-0.558693
1.16013
-0.135497
0.0597201
1.09342
-0.953859
1.07129
-0.109144
-1.25765
1.0045
0.784437
1.36099
0.999653
-1.69149
1.08041
1.06174
0.0347731
0.572776
0.0368523
-1.54418
1.49018
-1.34106
1.10666
-1.54485
0.311557
1.0021
-1.5566
0.995884
-0.162686
0.879131
0.957565
1.01093
0.013132
-1.25478
-0.622707
0.595414
0.768529
1.06704
0.00628733
0.778087
0.00904546
-0.360804
-0.646483
0.844831
1.14418
-1.58369
-2.26168
0.0235185
1.22322
0.0318767
0.679032
0.0355532
-0.367613
-1.43148
-0.970713
0.0547199
0.774768
0.167571
0.029547
-0.417322
-0.528164
-1.08113
-2.22265
0.000780951
0.973192
1.02611
-1.64487
-0.274503
0.985844
0.939534
1.02478
-0.478435
0.984783
1.05695
0.999673
1.057
0.146861
0.0240912
-1.13816
0.55611
1.00017
0.711334
0.158843
0.0166108
0.0998587
0.0240966
1.26046
0.0185417
0.0240933
-0.633643
0.0189685
-1.42284
0.738975
-1.11504
-2.5608
-1.11135
1.00388
1.00274
1.00606
0.00405671
0.26661
1.23663
0.0124974
1.00478
0.0269407
0.00931967
0.711805
1.02977
1.05631
0.0266919
0.974697
0.983524
-0.327721
0.0227286
1.00611
1.03424
1.02618
-1.17803
-1.04061
1.0351
0.621467
1.00733
0.117984
-0.244795
0.023678
-0.0108596
-0.00824009
-1.7443
-0.412571
0.0439637
1.03258
1.03776
0.725306
-1.01301
1.00166
0.0102636
0.0172702
-0.00189049
1.01437
1.03087
1.02918
1.03969
1.00842
1.0086
1.00151
0.0263765
0.0161636
0.016618
0.0206869
0.00392535
-0.00105706
-0.000951799
0.0157047
0.0105995
0.0187227
0.0191949
1.00838
1.02056
1.00967
1.04145
1.03764
1.0263
1.03026
1.01162
1.00827
0.0181992
0.0239017
1.0263
1.02825
0.00304843
1.03025
1.02671
0.0162681
0.0221464
0.0210768
-1.238
0.143125
1.00509
-1.63376
1.00527
0.700544
1.0777
-1.27891
1.01037
0.953742
0.963376
-1.1208
0.0445004
-1.46524
0.0221373
-0.13709
-1.05564
1.01438
0.0212468
1.08609
1.00595
-0.292884
1.14927
1.30569
0.0245843
0.860887
0.675164
1.00124
1.03255
1.00897
-1.40234
0.415471
0.0152456
1.00802
1.02004
-1.27989
0.0186911
1.00621
0.0156031
-0.449349
1.01134
-0.251437
0.989466
1.02463
-0.798063
1.01159
0.0246263
1.00722
1.06618
0.154775
1.02022
1.03583
0.0117011
0.643832
1.01276
1.00045
0.0304306
-0.929441
0.720345
1.3542
1.01366
1.01623
1.01939
0.0224902
1.01738
0.998418
1.01323
1.01375
1.01208
1.01171
1.09922
0.0413061
-0.336381
1.00815
1.00705
0.226624
-0.178523
0.00832185
0.0504782
0.878543
-0.634555
0.0772715
0.00611595
1.01505
0.741546
0.0116847
0.0328055
0.0213782
0.0110573
-2.13095
0.0203356
0.0913738
-2.31304
-0.467094
1.0141
0.0232455
1.00104
0.938038
-1.31031
1.22641
0.0349552
-2.48992
0.79124
1.10792
0.387704
-1.08044
1.00193
0.0261228
1.01392
-0.57118
1.01499
-2.67038
1.00864
0.0238214
-0.0206708
1.01609
1.02622
0.941742
0.0339555
-1.0276
-1.07617
0.0367803
1.03204
0.911859
0.0285866
1.00225
1.04502
0.997515
0.0401564
0.0312565
-0.63079
0.135822
0.375432
1.00534
0.00600038
1.01889
-0.194483
1.00837
1.04268
1.01919
-0.00091433
-0.000221904
1.04552
-1.7713
1.02329
1.01887
0.0333361
-1.41234
0.911379
1.12193
1.00581
0.999242
0.0395587
0.0516331
0.980876
0.42257
1.01488
0.849353
-1.20665
-1.41182
0.851461
1.24666
1.0039
0.355919
0.0595178
0.0358379
0.12763
0.0780976
0.987335
-0.150732
0.994496
-0.925046
-1.21742
-1.43682
0.4141
-2.21309
0.0526907
0.0647448
1.00408
-1.0573
0.881779
-1.33762
-0.168777
0.0417953
0.00918138
0.0715474
0.973444
0.0348873
-0.762455
0.0547274
-1.03322
1.00842
0.0880625
0.00737999
-0.115493
1.06795
0.0398278
-1.34858
1.06776
0.992881
0.988818
0.494584
-0.820176
1.00709
1.03026
0.0351167
-1.42759
0.998322
0.800356
1.23754
1.01893
0.00526939
0.0926677
-1.589
-1.3132
-1.24249
-1.11967
0.0276886
-2.4527
0.805662
-0.0142841
1.01165
1.20024
1.00298
-1.01838
-2.19945
1.00243
0.0929195
0.058162
0.990866
-0.186806
-1.10963
-0.0315949
0.0346175
0.956016
0.934658
0.0387902
0.853786
0.642158
0.128634
0.994031
-2.01635
0.814467
-1.5327
0.992056
0.11719
0.438751
1.00873
1.07236
-0.0921781
-0.425853
0.834932
1.36694
1.03047
0.996185
0.112073
1.24744
-1.34175
0.0489388
-0.797
0.480834
0.0231662
1.10618
1.16265
-1.37287
0.00105859
0.999125
-0.538986
0.864356
1.03905
0.965034
-0.185074
1.00512
0.00270448
1.03823
0.00309224
0.054376
-0.24231
1.00464
0.012117
-0.561674
0.0588851
1.00549
0.0653442
1.17461
0.273837
1.31123
0.964033
-0.812266
0.998686
-1.36971
0.974863
0.978034
0.0451764
0.0654455
1.10805
0.991804
1.20808
0.967373
0.0950406
0.963604
0.997275
0.841753
1.01113
-1.93985
-1.50522
0.112063
1.09752
-0.0784278
0.0689394
-1.23578
-0.0307319
0.0507694
0.0164233
0.843119
0.0476843
0.972295
1.01182
-1.459
-1.41237
-0.636268
-0.672783
-1.37046
-1.30367
1.00704
0.0995446
1.0206
1.23892
1.05949
-0.276959
1.03862
0.952917
-0.189285
0.97644
0.988745
-1.16221
0.990467
0.921092
0.0164634
-0.415819
1.45961
0.0803653
-1.01286
-1.5883
0.247285
0.993802
-1.04911
0.0251358
-1.06374
1.12993
0.0842562
0.831822
1.00989
0.987967
-0.361621
0.979579
0.0676259
1.0152
1.04106
-0.567077
1.02551
0.4652
0.994794
0.732841
-0.153986
0.00524983
0.00758304
0.026526
1.22882
0.0207646
1.02958
1.3861
-0.0075295
0.0020422
1.07251
0.00578375
1.06995
0.000433591
0.00829955
1.06773
1.07411
0.435532
-2.3531
0.739509
-0.953024
-1.79458
-0.808135
1.02265
1.00885
1.42825
-1.06586
0.0799679
0.747558
-1.39407
1.07085
0.976279
0.999997
0.996173
0.966055
-0.0584145
-1.1435
-1.72643
0.803061
0.928177
0.0820246
-1.36066
-1.47067
1.02409
1.03757
-0.097817
-0.309676
1.03637
0.0902607
0.214808
0.751807
0.904399
0.0168551
-1.62008
-0.278825
-1.24303
-0.741882
-0.285646
0.101793
1.37961
1.35444
-1.18137
-1.12114
1.02825
0.998105
-1.34739
-0.0365098
-0.360644
0.627987
1.09232
-1.45481
1.01684
0.0542119
-1.66546
-0.901924
-1.07084
-1.16373
0.991933
-1.2008
-1.01945
1.35359
-1.2618
1.00612
1.21751
-1.38285
1.04821
1.2567
-1.36774
1.23136
-1.32019
-1.83683
1.01234
0.0388283
1.01833
1.02553
-1.35828
1.06351
0.165828
0.0537543
1.04483
1.03617
-0.930815
-1.54394
0.947884
1.0076
-1.4023
0.0234304
1.27186
-1.38469
0.913816
0.0328268
0.96508
-0.958716
0.0968767
-1.35034
-1.31693
1.07978
1.03795
1.2952
1.1945
0.963661
1.06331
1.05057
-1.31579
1.12084
1.14787
-1.43101
-1.40773
-1.18303
1.31358
0.0802395
-1.8822
0.0341395
0.922885
-1.43202
-1.09548
1.00729
1.02538
-1.37679
-1.3843
-1.76565
0.011272
-0.0193453
-1.40052
-1.27488
0.875574
0.900478
-1.27983
-0.474793
-0.898485
0.825926
-1.40224
-1.25765
-1.23503
0.951398
-1.74422
-1.41017
1.33625
0.921238
0.440338
1.20184
0.0455846
0.986146
1.01279
1.12185
1.21477
0.031819
0.663885
0.995802
0.279854
-1.18937
1.42356
0.970874
0.922944
1.06614
-1.42734
-1.17435
0.870698
0.790648
0.983346
-0.29776
0.0805829
0.998966
-1.39341
0.855673
0.0362274
1.40825
-1.15742
0.719633
0.749427
-1.17403
-1.13201
-2.04077
1.06834
-1.20648
-1.08326
0.712081
0.599123
-1.12234
1.06616
0.854415
-1.23832
-0.967986
0.959595
-0.275916
-1.10403
-1.87935
-1.01794
-0.536099
0.976553
1.02111
0.176507
0.632955
1.01475
1.33806
0.295748
0.257369
-0.0246175
0.89788
-0.44468
-1.14819
0.0514333
-0.654738
-1.12604
0.993383
-1.27651
0.140879
-1.08299
0.528671
0.584412
-1.09918
0.654544
-0.0908689
0.512842
-1.07733
0.45081
-1.14711
0.408337
-1.04535
0.362894
-1.05595
0.828581
-1.36315
-1.0434
-1.04053
-1.15979
1.03068
0.105287
-1.07684
-0.998554
-0.00113932
0.137567
-1.2272
-1.30189
-1.13212
-0.105147
-1.00869
-0.176102
-1.05131
-0.399305
-1.22175
-0.282709
0.898371
0.00768198
-0.61663
0.982513
-0.0806084
0.0231139
0.466334
0.995851
-1.60057
0.146666
-1.00695
-0.817043
0.910185
1.41296
-0.0682957
0.0362181
0.0470663
-1.23323
-0.375239
-0.341007
0.972785
-1.1206
0.970238
-0.452151
1.4807
0.496119
1.42851
-1.35341
1.1965
-0.577156
1.02144
-0.570868
-1.02581
1.08086
0.999098
-0.434497
-1.08678
-1.04376
0.965984
-2.1584
0.990864
-0.797403
-1.7849
-1.36574
1.30154
1.03495
1.11752
1.01512
1.02808
0.0407677
-0.470045
1.19401
-0.54805
-1.10669
1.40914
-1.52339
0.926732
0.96316
1.37143
1.43282
-1.74164
-2.23742
1.04547
0.24482
-0.45899
-0.977265
0.0195624
0.143277
-1.4052
0.620932
-0.908515
1.2076
-0.2037
1.03275
1.12706
1.03333
-1.01724
-1.42551
-1.23377
1.09027
-1.1295
1.16168
-0.742282
-1.11794
1.22702
1.31284
-0.915404
0.0449556
0.956616
-1.21221
-1.22092
0.689145
1.26253
1.22781
-1.79165
0.891299
0.831329
-1.02131
1.24044
0.252516
-1.3152
0.039759
0.019195
0.00989207
1.10515
-1.03657
0.226493
0.0203687
0.0310623
-0.953289
-1.16244
0.9943
-0.76814
1.01853
-0.170157
0.10429
0.723765
0.309877
-0.962331
-0.742789
-1.22541
0.0248309
0.0121568
-0.756304
0.919965
-0.998591
-0.694038
1.00543
-1.423
-1.46553
1.02334
-1.89983
0.957049
0.0137761
-1.47981
-0.296493
0.810326
-0.964715
-1.50172
0.90352
-1.64658
1.07473
-0.589076
-1.14497
-1.16335
-1.05923
1.49376
0.062094
1.13136
0.0181788
0.973317
1.18191
0.744437
1.03168
1.14682
-0.171742
-0.0439789
0.978434
1.10043
1.36538
-1.23093
1.04848
0.652103
-1.29357
0.803298
1.21458
-0.692987
1.33388
0.09985
-1.13761
0.845342
-1.33985
-1.0471
0.952327
-0.57944
1.06238
1.0601
0.953995
-1.22122
0.894675
1.25107
-1.45833
-0.414347
0.0970984
-1.40757
-1.16174
-1.09539
1.35954
0.761136
-1.34518
0.916048
-1.37429
-1.08242
1.27699
1.21371
-1.09188
-1.12725
-1.06378
-1.57728
0.984628
-1.38692
0.103122
-1.15981
-0.546634
1.07179
-1.40747
1.38148
1.04813
0.894604
1.02276
1.29232
-1.12622
-1.40131
1.02214
1.1505
-0.956267
1.01449
0.146492
-1.33665
-1.39916
1.06992
1.10011
-1.36896
-1.44227
0.567932
-0.0391574
-1.92103
0.986829
0.945604
-0.901105
0.98636
1.02965
-2.51223
-1.43124
-1.28795
-1.30111
-1.39445
1.31842
0.052927
0.898358
-1.42273
1.31564
0.895237
0.84886
0.934063
0.0518406
-0.0615995
-1.25809
0.498704
-1.40068
0.923944
0.307989
-0.717784
0.852933
1.00813
1.05057
1.0099
0.00574883
1.05057
0.00287138
0.428065
0.788759
-0.611853
-1.43231
-1.16129
-0.766695
1.01993
0.971688
1.02258
-1.57853
-0.828612
-1.22115
-0.947236
1.01367
1.27557
1.02612
-1.4212
-1.03095
-1.07327
-0.649956
-1.06895
-1.05768
-0.295444
0.999506
-1.04383
-1.26282
0.0112364
-0.0858456
0.696385
0.165723
-1.18688
-2.38224
0.930415
1.43002
0.0183467
1.10296
1.48436
0.63323
1.19803
-1.48005
0.0288624
1.40408
-1.15072
0.325845
-1.37116
-1.40641
-1.03541
-1.19456
0.986735
0.739799
1.1783
1.13966
0.00342192
0.785145
-0.0210447
0.0123166
-1.11856
1.11008
0.698198
1.03516
1.04498
0.00796028
0.00445622
1.0434
-0.273559
-1.0371
-1.2273
-1.05164
0.615733
-1.16326
0.968446
0.677351
-1.14493
1.2361
-1.45469
-0.437427
1.00208
-0.996879
-1.14716
-0.832611
0.566239
-1.30079
-2.5464
0.893886
1.0405
0.0274256
0.0785877
-0.555817
-1.09366
0.0612272
-2.35595
-0.159517
0.611245
-1.15234
-1.13953
1.2509
0.204794
0.313513
-1.11316
-1.41465
1.00761
1.04779
0.491877
0.547038
-1.08752
-1.18738
-0.821713
0.410537
0.456669
-1.06724
0.856103
0.0784496
-1.04509
1.4377
-1.03593
-1.03294
-1.38704
-0.994261
0.848177
-1.051
-1.35396
-0.995145
0.0170592
-1.10125
-0.0780435
-1.16244
0.0174282
1.16522
-1.17191
-0.170944
-1.03131
-0.27289
1.3298
1.40118
1.21619
1.02417
1.19223
-0.868731
1.00361
-1.4341
1.04544
-0.998083
-1.402
1.26783
-0.861472
0.51453
-1.94216
1.40254
-0.106869
1.33926
0.564313
0.755297
-1.33682
-1.39424
-1.03654
-2.37947
1.30712
1.18306
0.996003
0.655013
1.00238
0.872085
0.786921
-1.02836
-1.59246
0.170717
0.0127207
0.760569
1.02337
-0.0216806
-1.42297
-1.03456
-2.30407
-1.01579
-0.0818606
1.34945
1.04424
1.01428
0.00808638
0.00621246
1.04218
-0.00516076
-1.08411
-0.117751
-1.29043
0.748845
-1.24531
-1.09816
-0.305833
1.0013
-1.72566
-1.39259
1.00368
0.619308
0.780398
1.0055
-1.07442
0.841004
1.19004
0.843508
-1.05282
1.00781
0.368792
0.409876
-1.11538
-1.17833
1.4402
0.275704
-1.36471
0.0505153
0.880444
0.958407
-1.15918
-1.30897
0.0185733
-1.7999
-0.942369
-1.35259
0.0141035
0.996984
-1.63305
0.987196
1.27949
1.09351
0.978364
1.06756
1.1302
1.01261
-1.02114
-0.680147
-0.541574
-1.08178
-1.17962
-1.08605
1.13654
1.03025
-1.38237
0.970524
-1.02108
0.0518867
-1.05318
0.0233701
0.568455
-2.39867
0.995661
0.876117
-2.37253
-0.407877
1.33103
-1.88516
0.0667593
-2.11129
-1.34527
-1.02834
1.0484
0.740262
1.09872
-1.34781
-0.0234506
-0.95567
-0.468423
-1.36971
-0.414571
-1.14267
-0.957825
0.882835
-0.900725
1.45888
-1.31598
-0.54471
-1.02634
-1.0708
0.941096
-1.02087
-1.24307
-1.59052
-0.284604
1.17425
1.22395
-0.133167
-0.0255614
0.79129
-1.01967
-1.1338
1.10686
-1.42789
-0.213715
-2.0521
0.714891
-0.404961
-1.34542
0.997431
-0.0523549
-1.60609
1.00186
-1.04121
-0.848095
-1.6252
-1.14751
-0.0692457
-1.34813
1.30056
-1.16084
0.196238
-1.00783
0.757368
-1.19568
-1.08511
0.606675
0.788901
1.05949
0.965763
1.16497
-1.07277
0.857169
0.566329
-1.24139
0.923262
-0.498784
-1.55367
-1.33335
1.18312
1.16928
-1.34762
-1.06446
-1.18715
0.986992
-1.09454
0.0459986
-2.05575
-1.09565
1.26478
0.990104
-1.36662
-1.23199
-1.44694
-1.2929
0.907888
-1.513
0.954274
0.16541
0.668917
0.802598
-0.993449
-1.0946
0.91433
-1.08533
0.0120727
1.27469
-1.24798
-1.27141
0.78457
-1.37725
-1.29995
-0.167436
-1.1824
1.35143
-0.625121
0.153079
-1.38431
1.3091
-1.41737
-1.20484
0.601667
-1.87512
-1.01719
1.3368
0.633001
1.00915
-1.33403
1.21162
0.0234412
-1.01421
-1.37944
-1.38903
-1.42981
1.24498
0.530923
-1.40997
-1.41086
-1.30303
1.11122
-1.07168
1.28474
-1.02327
0.688682
-1.21643
0.315118
0.492071
0.455833
0.370315
0.195886
-1.12708
0.986966
-1.39376
-0.847956
-1.86725
0.299349
1.32602
-0.276892
-1.29309
-1.51206
-1.23786
0.201663
-1.29762
-1.19662
0.848395
0.217008
-1.32399
1.39209
-1.32573
-0.646545
1.35857
-1.26632
0.0793215
-1.06366
-1.0702
-1.17335
1.36639
-1.03949
1.27761
-1.15125
-1.11148
1.15819
-0.237187
-1.15542
0.520199
-1.19901
-0.0648889
-0.411752
-1.19894
0.832252
-2.03708
-1.22439
-1.08135
-1.0642
-0.999472
0.860791
-0.251279
-0.404385
-1.3452
1.30424
-0.890906
-1.27141
-1.00786
-0.166369
-1.20177
-0.996676
-1.31333
-0.101726
1.22691
-1.47083
-0.987293
-1.76056
-0.858646
-0.337275
-1.01069
1.39157
1.32039
0.361135
-1.10762
-1.00283
0.270821
-1.00211
1.40132
0.141975
1.07439
0.659828
1.28967
0.0154294
-1.20353
-1.11283
-0.149695
-1.39864
-0.149694
-0.103716
-1.15745
1.29694
-0.288138
0.154599
-0.376102
-0.971719
-1.14811
)
;

boundaryField
{
    frontback
    {
        type            empty;
    }
    Top
    {
        type            zeroGradient;
    }
    outlet
    {
        type            fixedValue;
        value           uniform 0;
    }
    bottom
    {
        type            zeroGradient;
    }
    Inlet
    {
        type            zeroGradient;
    }
    rectangle
    {
        type            zeroGradient;
    }
}


// ************************************************************************* //
