/*--------------------------------*- C++ -*----------------------------------*\
| =========                 |                                                 |
| \\      /  F ield         | OpenFOAM: The Open Source CFD Toolbox           |
|  \\    /   O peration     | Version:  2306                                  |
|   \\  /    A nd           | Website:  www.openfoam.com                      |
|    \\/     M anipulation  |                                                 |
\*---------------------------------------------------------------------------*/
FoamFile
{
    version     2.0;
    format      ascii;
    arch        "LSB;label=32;scalar=64";
    class       surfaceScalarField;
    location    "5";
    object      phi;
}
// * * * * * * * * * * * * * * * * * * * * * * * * * * * * * * * * * * * * * //

dimensions      [0 3 -1 0 0 0 0];

oriented        oriented;

internalField   nonuniform List<scalar> 
3181
(
-1.03979
0.419201
0.620592
-0.390058
0.363263
0.0267951
0.517479
-0.358537
-0.158941
0.121486
-0.199053
0.0775676
-0.135561
0.14265
-0.00708835
0.691656
0.479564
-1.17122
0.144992
-0.138887
-0.00610439
0.104612
0.0204579
-0.12507
0.578838
-1.0124
0.433567
-0.0759594
0.13653
-0.0605708
-0.0107332
-0.0512002
0.0619334
0.149927
0.0310721
-0.180999
-0.0501492
-0.0736983
0.123848
-1.0245
0.129218
0.895279
-0.317451
0.695677
-0.378226
-1.11222
0.642476
0.469742
0.0809876
-0.943807
0.862819
-0.270526
0.10396
0.166566
-0.618341
-0.414703
-0.00233819
0.157894
-0.155556
0.0418076
-0.0895208
0.0477132
-0.0392426
0.033338
0.00590465
0.997587
-0.962356
-0.0352308
0.0251595
0.0595629
-0.0847225
-0.948342
0.308574
0.639768
-0.104223
0.225709
0.302938
-0.239719
-0.0632187
0.0292184
0.0607127
-0.0899311
-0.413314
0.337744
0.0755703
-0.0269099
-0.0423998
0.0507462
-0.00834635
-0.0209443
-0.927398
0.255833
-0.136865
-0.118968
-0.0146641
0.835062
-0.820398
-0.0949844
0.152299
-0.0573143
0.183806
0.272732
-0.456539
0.83796
-0.852624
0.0733133
-0.0315057
1.64683
-0.929922
-0.716905
-0.336438
1.02809
-0.178351
0.128201
-0.0135653
-0.0256773
-0.410998
0.0935474
-0.153102
0.139537
-0.624546
0.12766
0.496886
-0.14779
0.0718303
-0.165894
0.16984
-0.0039456
-0.264757
-0.0781808
0.342938
-0.0675749
0.839724
-0.772149
0.167959
0.129733
-0.297692
-0.044738
-0.101042
0.107139
-0.00609753
0.497342
0.198335
-0.0937108
0.143255
-0.049544
-0.00479219
0.260625
-0.16776
0.193869
-0.0261087
0.160626
0.060309
-0.220935
0.1069
-0.112641
0.00574115
1.0819
0.564931
-0.852614
-0.187179
0.0305899
-0.811715
0.781125
0.540739
0.226392
-0.767132
-0.44085
-0.202415
0.643264
-1.00628
0.669845
-0.261879
0.802618
-0.317952
-0.108951
0.426903
-0.211453
-0.201861
-0.189246
0.167198
0.0220479
0.132313
0.282614
-0.414927
-0.441484
1.02032
-0.072147
0.176759
-1.02165
1.05224
0.18152
0.121418
-0.178356
-0.105175
0.28353
-0.266551
0.352861
-0.0863094
-0.0805161
0.0880118
-0.00749567
-1.08922
-0.919718
0.0174345
0.902284
-0.162716
0.0677321
-1.15023
0.83682
0.313415
0.490104
-0.764015
0.273911
-0.992487
-0.0137963
1.10992
-0.980702
-0.702728
1.08185
-0.186572
1.08898
0.168825
-0.171958
0.00313293
1.13656
-0.657
1.01217
-1.01217
0.00368695
0.00352852
-0.00721547
-0.209735
-0.0497947
0.259529
0.260511
-0.186454
-0.0740571
-0.433841
0.787745
-0.353904
-0.0311821
-0.225499
0.256681
-1.02663
0.0642753
0.342769
0.0592142
-0.401983
0.12742
-0.830381
1.05677
0.174591
0.0382562
-0.212847
-0.0159741
-0.151786
-0.497322
0.813145
-0.315823
-0.857745
0.360423
0.104862
-0.935243
0.309956
-0.743797
0.904833
-0.823845
-0.0365018
0.303706
-0.267204
0.0845705
0.0520401
-0.136611
-1.26176
-0.244476
1.50624
-0.244004
0.397902
-0.153898
0.726262
-0.24383
-0.482432
-0.502049
-0.648186
0.240248
-0.0722893
-0.149558
0.143934
0.00562358
-0.0769168
-0.0155179
0.0924346
-0.739628
-0.272777
-0.111143
0.0563619
0.0547809
-0.983974
0.00145197
0.982522
1.04525
-0.205523
0.00696407
-0.00327713
0.0305173
0.151002
-0.200968
0.384775
0.141926
0.0260867
-0.168013
0.1382
0.0692206
-0.20742
0.379135
-0.294225
-0.0849101
-0.584523
-0.527695
-0.805952
-0.178022
-0.0482697
0.222861
-0.105744
0.180642
-0.074898
0.108608
0.0240408
0.120951
-0.0577507
0.0700628
-0.0123121
-0.0946627
-0.0218861
0.116549
0.0737714
-0.0737714
-0.180971
0.205012
-0.367641
0.271659
0.103271
0.0905975
-1.25731
0.815823
-1.35912
-0.0372482
1.39636
0.116292
-0.0957207
-0.0205715
-0.0271803
-0.0520181
0.0791984
0.51926
-0.00966546
-0.509595
-0.101913
0.103255
-0.00134224
-0.195547
0.0145757
0.147054
0.640691
-0.359705
0.50676
-0.0223362
-1.23942
-0.14348
0.00791897
0.485274
-0.297306
-0.187968
0.230333
-0.213472
-0.0168606
0.0480005
-0.312757
0.0241591
-0.943877
0.0478321
-0.153576
-0.282579
-0.396133
0.0751139
1.43475
-1.01172
-0.423026
1.08362
0.351126
0.0674571
0.275481
0.118746
-0.00245346
0.113984
0.0547926
-0.168777
-0.249884
-0.567481
0.817365
-0.349179
0.518223
0.668466
-1.08317
0.175087
0.0219602
0.00159108
-0.0235513
-0.901707
-0.0499689
0.951676
0.0403724
-0.942079
-0.305127
0.647896
-0.919648
-0.0184115
0.00224029
-0.267423
0.265182
1.38085
-1.54567
0.16482
-0.162965
0.0194845
0.547283
-0.797167
0.297621
-0.270661
-0.0269601
-0.297401
-0.118256
0.415657
0.197047
-0.966512
-0.0601196
-0.0855679
-0.0699884
-0.556811
0.354396
-0.248733
0.0196962
0.229037
-0.0676914
-0.0952735
0.0243351
-0.0243351
-0.119975
0.131502
-0.0115263
-0.124068
-1.23505
0.0826974
0.0618007
-0.144498
-0.160714
0.0273934
0.13332
-0.219396
0.0301502
1.17312
0.11722
-1.29034
-0.191254
0.431405
-0.240151
0.03828
-0.0352236
-0.00305644
0.498562
0.2277
-0.190063
-0.00439946
0.194463
-0.175545
0.307858
-0.102212
0.100453
0.00175914
0.0732732
0.0258788
-0.099152
-0.257299
0.226218
0.0310817
0.360287
-0.770364
0.410077
-0.217281
-0.0490019
0.266283
-0.680435
0.642708
0.0377264
0.0201247
0.0394383
0.083267
-0.086874
0.00360694
-0.0237869
-0.0609356
0.585413
0.459834
0.15972
-0.854232
0.694513
-0.201445
1.37355
-1.1721
0.376323
0.218819
0.793349
0.066338
0.20502
-0.0668201
-0.0719591
-0.0290828
0.233736
0.158237
-0.0736667
0.718021
-0.409447
0.0584178
0.201111
0.0505406
-0.165349
0.114808
-0.847295
-0.0983564
0.945652
-0.0412276
0.0412276
-0.173367
-0.269136
0.541868
0.00976238
-0.227043
-0.0697195
0.17368
0.086656
-0.134926
0.135987
-0.14672
-0.351185
0.320003
-0.116296
0.278625
-0.162329
0.377076
-0.346004
-0.579324
0.374533
0.204791
-0.201395
0.268852
0.186268
-0.483574
-0.198884
0.618086
0.161689
-0.0329181
0.0329181
-0.347064
0.263538
0.0835265
0.374415
0.0234866
-0.0997467
0.11461
-0.0148636
-0.259436
-0.0469699
-0.0641729
-0.0497914
0.185778
-0.180455
0.242979
-0.0625237
0.130258
0.0279791
-0.382307
0.142587
0.191738
-0.0614796
-0.0462321
-0.0559798
-0.124613
0.159337
-0.0347245
0.143936
-0.102147
-0.0417888
-0.0184756
0.386938
-0.368462
-0.209748
0.137601
0.105091
-0.109524
0.00443252
0.0245646
-0.18471
-0.394614
-0.202412
-0.0572468
0.259659
-0.143116
-0.165061
0.308177
-0.0919962
0.0934536
-0.716936
0.623482
-0.0956531
-1.3328
-0.0355182
1.36832
0.0625934
0.843235
-0.905828
0.0807913
-0.150621
-0.143604
0.268952
0.256236
-0.525188
-0.20616
0.2567
0.123951
-0.867356
0.743405
0.0583899
-0.201506
-0.102399
0.0168312
-1.02971
0.461033
0.56868
1.01172
-0.906858
-1.55849
1.31402
-1.38085
1.3436
0.0382987
-0.0878427
0.0111022
0.0721648
0.0521458
0.877385
-0.753434
0.120759
-0.0729265
0.395511
0.68634
-0.204928
-1.16411
0.962667
-0.738998
-0.518309
-0.233837
-0.390708
-0.0815463
-0.161603
0.209604
-0.634202
-0.365569
0.174315
0.75816
-0.238899
-0.845061
-0.713431
0.707003
0.263383
-0.204993
0.277508
0.0376306
-0.0376306
0.659542
0.156792
-0.816333
-0.225186
0.884728
0.612644
-0.940682
0.328038
0.237503
0.0341565
0.00544529
0.00885084
-0.0142961
-0.811715
-0.875514
0.669991
0.430063
0.743054
-0.0345536
-0.13134
-0.257047
0.754389
-0.197922
-0.0508112
-0.00314633
-0.0773698
-0.0538077
0.105848
0.371705
-0.244046
-0.761334
-0.285027
-0.119727
0.00607781
0.113649
-0.728771
0.947591
-0.283972
0.150446
0.133526
0.117192
0.00155343
-0.131027
0.0384916
0.0925355
0.0129278
0.413975
0.126415
0.103918
0.0462811
0.055596
-0.101877
-0.0178428
-0.172221
-0.71717
0.367255
0.349916
0.566191
-0.984329
0.418138
0.140123
-0.162009
0.0218861
0.054728
0.18552
-0.173684
-0.838484
-0.1503
0.0192726
-0.173998
0.101709
0.148213
-0.349182
-1.11658
0.705021
0.411563
0.0871445
0.0905862
0.0533499
-0.847295
-0.434923
0.79521
0.189207
-0.150715
0.045057
-0.6288
-0.0516344
0.0614507
0.130287
-0.271801
0.0433108
-0.458238
0.119816
0.351612
-0.292398
-0.11643
0.0217676
0.193312
0.825532
-1.01884
0.0775364
-0.754899
0.677362
-0.932165
0.833808
-0.758433
-0.0396783
0.798111
-0.0497289
0.0544805
-0.00475161
0.165536
-0.462937
0.22409
-0.132704
-0.0913869
-0.000455438
-0.164606
-0.104347
-0.0153802
-0.0168926
0.0145424
-0.0383293
0.0201248
0.0808226
-0.100947
0.675237
-0.00540986
0.00703373
-0.00162387
0.206221
-0.06862
0.835788
0.0909747
-0.0714901
-0.090288
-0.785226
0.186651
0.0508517
0.00757761
0.0830086
-0.798111
0.838484
-0.0383202
-0.257451
0.295772
-0.251699
0.0797409
0.119348
-0.116215
-0.00156617
0.089578
-0.0814549
-0.724786
-0.391798
-0.0448126
0.0649374
0.735668
-0.265926
-0.220027
0.0593131
0.338137
0.00245034
-0.102197
-0.00804368
0.0818151
0.143526
0.209335
0.155021
-0.330073
0.175052
0.109209
0.531481
-0.0364034
-0.111386
0.876678
-0.212797
-0.663881
-0.758433
-0.1273
0.693491
0.83796
-0.833273
0.826659
0.00661404
0.382802
-0.0528287
-0.329973
-0.242702
-0.749785
-0.0735797
0.0745617
-0.000982018
0.246676
-0.173253
-0.0734222
0.0714766
-1.06562
0.994145
0.022673
0.718271
-0.740944
-0.0434091
-0.106149
-0.0375575
-0.164854
-0.269675
-0.0773889
-0.0499616
0.000232719
-0.00894347
0.123553
-0.11461
0.207952
-0.0939673
-0.00163574
0.118828
0.199303
0.104403
-0.0771374
-0.0097366
0.202586
-0.428085
0.0394939
0.803741
0.0357138
0.00551385
-0.954546
-0.0119661
-0.049554
-0.0718964
-0.0445339
0.0158682
0.281753
-0.306481
0.45992
-0.153439
0.111611
0.0750404
-0.973418
-0.00728461
-0.114704
-0.655788
0.749241
-0.0176686
0.179358
-0.354443
-0.586239
0.181033
-0.431591
0.250558
-0.0275521
0.0536388
0.0041468
-0.00253135
-0.00161546
-0.135066
-0.122233
-0.0210574
-0.130729
0.735542
-0.658006
-0.239063
0.161788
-0.0760205
0.311571
-0.15655
-0.207097
0.814539
0.302927
-1.11747
-0.121943
0.141639
-0.496803
-0.220367
-0.5574
0.716764
-0.678501
-0.0382633
-0.206514
-0.0325492
-1.16411
0.646988
-0.646988
-1.25272
1.25272
0.877385
0.706676
-0.533884
-0.172792
-0.875514
-0.0790318
0.629513
-0.359962
-0.269551
0.162934
-0.237832
0.00244817
0.00451591
-0.859779
-0.0754637
-0.933234
0.216298
0.0620157
-0.0559379
0.693434
-0.111505
-0.581929
0.677298
0.160662
0.00866395
-0.00451715
-1.00865
-0.216089
0.590622
-0.130457
-0.564619
0.695076
-0.0638625
-0.869031
-0.676636
0.205829
-0.790352
-0.945652
1.37187
-0.426222
-0.141922
0.278668
-0.136746
-0.0303564
0.723791
-0.104927
-0.980116
0.980116
-1.06662
0.492969
0.573653
0.00362711
-0.00903696
0.0935536
-0.433776
0.934065
-0.0972449
-0.0852694
-0.0344843
0.171496
0.0266416
0.0116384
0.902586
-0.942264
-0.355154
0.428427
-0.633748
0.996889
-0.363141
-0.0999285
-0.0503712
0.125451
-0.0562302
0.391757
0.0206585
-0.0943568
0.346143
0.0407951
0.0442829
-0.251052
0.206769
0.136177
0.0336621
0.0982706
0.184406
0.905903
0.146335
-0.207264
0.796335
-0.589071
-0.889682
0.839714
0.294257
-0.154721
0.0693294
-0.763067
0.693738
0.499412
0.11496
-0.466145
-0.0730059
0.131808
-0.0588022
0.13079
-0.203796
-0.452299
-0.104512
-0.0721948
0.0753115
-0.00311665
-0.0176171
-0.0595203
0.249038
0.0115873
0.753434
-0.677362
-0.0760722
-0.288408
0.298171
0.848205
0.656769
-0.273968
-0.033427
0.0952276
0.0727091
-0.34337
0.13927
-0.543134
0.403864
-0.0018636
-0.00066775
0.101025
0.350901
-0.451926
-0.00204925
-0.006544
0.00859325
-0.0265465
0.0167399
0.00980659
-1.00266
0.345665
-0.25547
-1.07733
-0.196063
-0.906858
1.3436
1.31402
-0.187969
-0.169942
0.120941
-0.0637852
0.069509
-0.0057238
-0.150326
0.792708
-0.642382
0.543023
0.0864903
0.0121259
-0.0139895
0.122835
-0.100931
0.0344843
-0.0493044
0.00449182
-0.13185
0.204559
-0.0837019
0.170358
-0.25113
0.628207
1.08362
-0.420296
-0.0601714
0.00157503
0.0585963
1.50819
-0.194177
-0.0594968
-0.0531442
-1.07762
0.170759
0.404873
-0.207826
-0.46036
-0.133417
0.593778
0.780453
-0.345753
-0.4347
-0.103245
-0.203236
-0.962667
0.150952
-0.046459
-0.118968
0.165427
0.435277
0.93827
-0.175846
0.181291
0.178627
1.708
-0.364403
-0.672689
0.0548884
0.617801
0.378761
0.0488623
-0.338996
0.501113
0.759862
-0.0859414
0.074042
-0.0206921
-0.70344
-0.0253141
0.728754
0.86534
0.193025
-0.146744
-0.0475866
-0.359652
0.105102
-0.311262
0.828189
-0.0136499
-0.179212
-0.0273022
-0.0703044
-0.762968
-0.00292328
0.0230479
0.108951
-0.146035
0.0370841
-0.292371
0.306078
-0.0137068
0.905979
-0.603052
-0.95897
0.0422784
0.916692
0.0602323
-0.245484
0.185252
0.272187
0.0393842
0.292189
-0.727112
-0.747909
0.747909
0.781125
0.677298
-0.754899
0.288939
0.470923
-0.0941497
0.177676
0.933282
-0.390259
0.0200644
-0.844796
0.824731
0.130699
0.00583151
0.0293188
-0.527695
0.819884
0.176956
-0.167483
-0.117694
0.285177
0.022692
-0.50069
0.333207
-1.05399
-0.290157
-0.727845
-0.0519625
0.00671969
0.000314032
-0.224971
0.166142
-0.0524927
0.0324228
-0.147292
0.114869
-0.626463
-0.440158
-0.00553251
0.0662452
-0.985403
0.446291
0.539112
-0.56337
0.375402
-0.0774266
0.356051
0.233103
-0.0387842
-0.063615
-0.95202
1.06924
0.0343978
0.0706935
-0.236244
0.160224
0.214279
0.00981167
-0.430629
0.777992
0.543889
0.26864
0.870872
-0.801543
0.777614
-0.439477
-0.601875
0.168098
0.153931
-0.77464
0.760131
0.014509
0.803218
0.0249712
-0.220655
-0.134499
-0.18313
-0.00332361
0.971127
-0.855554
-0.115573
-0.184376
0.11071
0.0263448
0.117589
0.911007
0.843818
-0.684458
-0.15936
-0.315372
-0.0501977
-0.551635
-0.433768
0.357378
1.14886
0.83074
-0.153441
0.186218
0.559979
-0.746198
-0.284411
0.0509092
-0.0524599
0.0136758
-0.507599
-0.0942759
0.154822
-0.222513
-0.187836
0.138045
-0.51102
0.270869
-0.988253
-0.68421
-0.287886
-1.31966
1.29015
0.106219
-0.285498
0.0846809
-0.216531
0.203637
0.295783
0.0503602
1.12203
-1.05055
-0.191079
0.129599
-0.0198125
-0.111352
0.131164
-0.0763507
0.0298917
0.0492526
-0.0583246
-0.234046
-0.118322
0.687542
-0.422399
-0.265143
-0.316857
0.13214
-0.0948515
-0.0372887
0.239578
0.0562043
0.0136689
-0.919497
-0.0968714
0.141928
0.831466
0.0123523
-0.0227459
0.330923
-0.0231594
0.0182546
0.0049048
0.0191223
-0.114843
-0.241328
0.0759793
-0.111763
-0.553553
0.411632
0.0148527
0.228156
-0.167924
-0.678986
0.962474
-0.976124
0.0163268
-0.193397
0.17707
-0.10207
-0.527687
0.629757
0.081593
-0.710393
-0.858805
-0.100165
-0.0895357
0.00333925
0.0861965
-0.250372
-0.716764
-0.130531
-0.134339
-0.70344
-0.231438
0.164618
-0.583185
-1.07023
-0.241574
0.185155
0.0564188
0.256721
0.113263
0.418577
0.586449
-1.00503
0.278272
-0.0148893
0.806529
-0.09812
-0.708409
-0.221548
-0.0580977
0.897811
-0.242184
0.17966
-0.804115
0.746017
0.466154
0.346992
-0.0616438
0.11379
-0.0194907
0.863831
-0.59519
0.68902
0.0914326
-0.929093
0.204307
0.269976
0.663306
0.901889
-0.0252109
-0.0285957
-0.83074
-0.727845
-0.705457
0.722891
-0.00808809
-0.845061
0.718271
0.633472
-0.934586
0.753416
0.000317533
-0.774958
-0.316631
0.629404
-0.768137
0.138733
0.0789792
0.053161
0.318821
0.014471
0.983426
-0.997897
0.00865069
-0.00193099
-0.264679
0.213867
0.710997
0.216544
-0.201969
-0.177986
0.893916
-0.892464
-0.335712
0.16292
0.591977
0.46597
-1.05795
-0.818904
0.79359
0.996689
-0.550398
0.140554
0.743225
-0.728754
-0.00122219
0.219594
-0.162785
-0.117
0.0674457
-0.0158662
-0.0900759
0.105942
-1.00142
-0.0174221
0.295623
-0.795593
-0.454822
1.154
-0.699178
0.363605
0.633284
-0.0490311
0.0525389
-0.00350783
-0.00682279
0.900739
-0.713248
0.882495
0.505278
-0.960099
0.315965
-0.0963714
-0.58801
-0.400244
-0.387701
0.979679
-0.0370361
-0.844478
-1.44344
0.271335
0.743225
0.0701218
-0.865715
0.828739
-0.644018
-0.184722
-0.986007
0.397998
0.0250059
0.115537
0.000420427
-0.115957
-0.970074
0.56983
-0.209865
0.929781
-0.937066
0.193506
-0.211349
-0.096575
0.244788
1.00508
0.160836
-0.216353
-1.14557
0.0281052
0.83566
-0.921602
-0.557706
-0.516417
1.07412
0.442294
0.0161879
-0.00733709
-0.758366
0.740944
0.726433
-0.733256
-0.793349
0.747666
0.0456821
0.632984
0.521017
0.820774
-0.847684
-0.490451
-0.453426
-0.472498
-0.497576
0.810431
-0.810431
0.688244
-0.688244
-0.758366
-0.73387
0.73387
-0.747666
-0.531486
-0.342246
-0.393925
-0.844719
0.844719
0.726433
-0.733256
0.820774
0.783409
-0.783409
0.847684
0.766056
-0.766056
0.509549
0.527502
0.483583
-0.118286
-0.502424
-0.546574
1.07408
-0.512999
-1.04515
0.657451
0.528932
0.467756
-0.00996908
-0.011422
0.102397
-0.885795
0.0971781
0.788617
-0.218781
0.137235
-0.990195
0.580748
0.868761
-0.579822
-0.119645
0.033909
0.00238311
-0.787695
-0.0665371
-0.56868
-0.032418
0.0492492
0.0315453
-0.218596
0.0678807
0.181906
0.00524278
-0.0143725
0.00912969
-0.808269
0.0625353
0.745734
0.469112
0.53597
-0.523567
0.409191
0.114376
0.937713
-0.767504
-0.170209
0.0847341
0.30004
-0.0138516
-0.0583432
-0.0598427
-0.013737
0.238623
-0.967395
-0.806113
0.0962128
-0.7425
0.784131
-0.0416307
0.134367
-0.894392
0.760024
-0.81268
0.919521
-0.106841
-0.172501
0.191623
0.022015
-0.289438
0.512984
0.466695
-0.0988017
-0.786993
0.928253
-0.0977359
-0.830517
0.0551744
-0.155103
0.998044
0.838911
-0.658236
0.470194
-0.383704
0.103968
-0.890962
0.852624
0.400098
-0.770797
-0.00416034
1.0404
-0.906033
1.1732
0.948494
-0.509696
-0.438798
-0.873608
-0.116587
-0.403226
0.0347638
0.101541
-0.25498
-0.795375
0.795375
-0.599033
-0.0976417
-0.886412
0.118909
-0.98441
0.853953
0.0717874
-0.204491
-0.0558785
0.0585261
0.0115367
0.212658
0.827742
0.821879
0.772053
0.132659
-0.904711
-0.47856
0.946316
-0.759482
-0.111743
0.871225
0.165161
-0.878409
-0.673754
0.888052
-0.784084
-0.115186
0.460572
-0.0252598
-0.435312
-0.281926
0.871636
-0.58971
-0.347766
-0.305136
0.652902
-0.874668
-0.827678
0.085178
0.508076
0.269538
-0.928595
0.581904
-0.68409
0.68409
-1.08651
-0.0590599
0.32019
0.499694
-0.818868
0.861146
0.776309
-0.198396
0.90854
-0.562876
0.524193
-0.932838
0.408645
-0.26668
-0.717649
0.310914
0.469934
0.355681
0.439529
-0.100974
0.309779
-0.225045
0.761067
-0.867908
0.558328
0.387987
-0.147684
0.728432
0.681372
-0.681372
-0.189658
0.191211
0.111241
-0.0788187
0.531648
0.339988
0.128679
0.00421637
-0.00775275
0.00353637
-0.659246
0.682831
-0.0235851
0.419787
-0.929483
0.113601
-0.897685
-0.920389
0.899549
0.0208407
0.049142
0.873487
-0.642186
1.06197
-0.765026
0.590107
-0.641741
-0.639327
0.142524
-0.405289
0.0112653
0.21716
-0.929418
0.524129
-0.00271808
-0.989196
0.0676727
0.716458
0.675836
-0.0857286
0.0591433
0.776645
-0.456401
1.0167
-0.5603
0.0648684
0.503259
-0.287955
-0.893322
0.685765
0.207557
-0.660514
-0.129838
0.998246
0.192846
-0.270235
-0.0390617
0.490941
0.509059
-0.762062
-0.105846
-0.496609
-0.532768
-0.485247
-0.546208
0.410099
0.589901
-0.251405
0.182785
-0.859798
-0.0571301
-0.584611
-0.161645
-0.239724
0.401369
-0.0742778
-0.00717709
0.112833
0.0729457
-0.125984
-0.115344
0.7569
-0.652728
0.711871
-0.396702
-0.532716
0.853103
-0.350936
-0.502167
-0.720268
-0.200217
0.920485
-0.235948
0.224287
-0.0231759
-0.106935
0.0116613
0.0416113
0.823363
-0.139273
0.118064
0.11504
-0.729411
0.0701644
0.902094
-0.465067
0.671677
-0.466885
0.855375
-0.319093
1.00543
0.00584739
0.241469
-0.0628416
-0.0376771
-0.101319
-0.142977
0.372768
0.529326
-0.44608
0.822513
-0.376433
0.842078
-0.0486278
-0.0263967
0.0750245
0.129159
-0.0472908
-0.0026708
0.216292
-0.107341
0.174629
-0.993497
-0.812863
0.366783
-0.00957396
0.327447
0.471576
-1.19347
1.19593
-0.00246471
-0.769883
0.826865
-0.056982
-0.373334
-0.13162
0.597774
-0.0716838
0.904416
-0.453337
-0.0702292
0.285165
0.423289
0.193935
-0.617224
0.42038
0.024301
0.65853
-0.567561
0.561095
0.00646559
0.847849
-0.644212
-0.102424
0.121556
-0.0191318
0.694394
-0.00861183
-0.0809536
0.0204706
0.731748
-0.782338
0.409004
0.181143
-0.0241527
-0.221332
0.118236
0.0743884
-0.192625
0.0212657
-0.0371318
0.660249
-0.758369
0.22578
0.215676
-0.0250941
-0.0925927
0.223267
0.0829397
0.00834203
0.17028
0.762067
-0.352118
0.786752
-0.434634
0.900997
-0.412557
-0.488441
0.626648
0.135056
-0.0932777
0.00300175
0.0902759
0.0814945
-0.357005
-0.575833
-0.0194956
0.726498
0.691795
0.252659
-0.405558
0.724379
0.791808
-0.193907
-0.0131905
-0.865329
0.353441
-0.260462
0.266118
-0.17723
0.685109
0.0769579
0.0135292
0.672815
-0.804435
-0.0370147
0.176375
0.0224127
-0.111933
0.418336
-0.0575493
-0.372261
-0.0709171
0.333305
0.652913
0.248084
-0.14767
0.582527
-0.0490474
-0.107042
0.0621544
-0.00184569
-0.0603087
-0.894405
0.250193
-0.0129523
0.925743
-0.223182
-0.597471
0.617045
-0.0195737
-0.0510191
0.755273
-0.868808
0.366641
0.0811846
-0.17776
0.633168
0.122105
0.704103
0.243488
-0.259154
0.729348
-0.35335
0.882676
-0.594419
0.351673
0.242747
-0.502025
-0.0695076
0.0418087
0.0653048
-0.0475904
1.18811
0.716647
0.0751611
0.616967
0.200398
-0.854052
-0.0803688
-0.679757
0.675596
-0.0253691
-0.578113
0.416468
0.85538
0.657469
0.316034
-0.0501062
-0.150407
-0.315738
0.733569
0.228905
-0.788989
0.101812
0.523081
0.359595
0.659872
0.32265
-0.0782607
0.889722
-0.722909
0.89762
-0.174711
-0.406792
-0.187627
-0.119285
-0.0452999
0.00535306
0.983507
0.0746377
-0.0190416
0.628174
0.167122
-0.634007
0.600339
-0.131966
0.222498
0.71964
0.270986
-0.990626
0.270909
-0.914927
-0.101386
-0.874738
-0.165229
0.726658
-0.561429
-0.664477
-0.141763
0.0348279
-0.0553517
-0.900938
0.0183158
-0.0414751
0.837113
0.0678909
-0.230862
0.162971
-0.125228
-0.634202
0.152136
0.089333
-0.85639
0.00187305
0.00336974
-0.379985
-0.0543681
-0.59259
0.0250298
0.549844
0.305536
0.521686
0.846633
-0.245575
-0.372755
0.61833
-0.0514796
-0.625709
0.625709
-0.175625
-0.934292
1.10992
0.0309731
-0.152916
0.669063
-0.119219
-0.230164
0.178978
-0.449213
0.5189
0.522767
-0.397698
0.177031
-0.101917
-0.744749
0.478085
0.0830097
0.0626487
0.0106646
-0.871091
-0.617631
-0.253315
0.696929
0.303071
-0.617631
0.696929
-0.623411
-0.248753
-0.623411
-0.702194
0.702194
0.297806
-0.0137509
-0.126461
-0.0775658
0.305845
0.219676
-0.479809
0.635923
-0.0355836
0.652368
-0.503834
-0.148534
-0.0559612
0.0543513
0.00160993
-0.0035329
0.00774928
0.406767
0.0181635
-0.163421
-0.428486
-0.351276
0.126306
0.0321146
0.832717
-0.272738
0.0791697
-0.2957
0.0287521
-0.261891
-0.0107132
0.651012
0.0754861
-0.446094
-0.0999048
-0.00197227
-0.0107133
0.0717667
0.548995
-0.48097
-0.0680246
1.06397
0.550194
-0.789077
0.871681
0.0115449
-0.0635629
0.107344
-0.125413
0.228105
1.11155
-0.391906
0.0282396
-0.0802021
0.558213
-0.522959
0.0218275
-0.0218275
0.0209022
-0.0209022
-0.03377
0.03377
0.0357138
0.36862
0.463289
-0.104277
-0.696539
0.45764
0.186157
0.0301347
-0.0850187
-0.484359
0.92384
0.119981
-0.780495
-0.773989
0.187749
0.102877
0.0202492
-0.00350931
-0.0301447
0.0301447
0.86478
-0.033484
0.033484
0.697904
0.0960776
-0.0767427
-0.0231621
0.00640949
-0.0665809
-0.022347
0.022347
-0.0303118
0.0303118
-0.022391
0.022391
-0.0295555
0.0295555
0.236403
-0.295072
-0.0805542
0.210974
-0.0311702
0.0311702
-0.361368
0.498026
-0.136658
0.49553
-0.216862
0.269151
-0.189981
0.55666
0.0338802
0.0735236
0.543521
0.572985
-0.0237635
0.0237635
0.15168
0.025015
-0.025015
-0.0322828
0.0322828
0.724536
-0.820208
0.0375942
0.553683
-0.202782
0.0148129
-0.0148129
0.0329619
-0.0329619
0.0183999
-0.0183999
0.0231687
-0.0231687
-0.0235407
0.0235407
0.0353505
-0.0353505
0.486431
-0.0319292
0.0319292
-0.0121421
0.0121421
0.0241237
-0.0241237
-0.0234121
0.0234121
0.0251057
-0.0251057
-0.0673743
-0.025997
0.025997
0.314155
0.11417
-0.039783
0.039783
0.0198051
-0.0198051
0.0329737
-0.0329737
0.0336883
-0.0336883
0.0250359
-0.0250359
0.0166586
-0.0166586
-0.0141639
0.0141639
-0.435169
0.330658
-0.0295417
0.0295417
-0.00739052
0.00739052
-0.0385174
0.0385174
-0.0270894
0.0270894
0.00387272
-0.00387272
-0.396276
0.666252
0.274838
-0.0324199
0.0324199
-0.0755
-0.0322423
0.0322423
-0.00362245
0.00362245
0.0362292
-0.0362292
0.22105
-0.234241
0.0182796
-0.0182796
-0.0229276
0.0229276
-0.470033
0.0436223
-0.71966
-0.0304881
0.0304881
-0.435904
0.0337475
0.0187914
-0.296381
-0.632713
-0.0373622
0.0373622
-0.200383
0.142834
-0.0401093
-0.00056601
0.00056601
-0.00243232
0.0501455
0.258625
-0.308224
-0.273976
0.582201
0.182288
-0.0213609
0.0213609
-0.599553
0.282412
0.317141
0.7271
-0.382797
-0.344303
-0.453928
-0.647748
-0.340367
0.0446671
-0.0141705
0.0790388
-0.582786
0.00196568
0.183966
-0.96763
0.0164104
-0.0164104
0.00178513
-0.00178513
0.031311
-0.031311
0.0253211
-0.0253211
0.00308086
-0.00308086
0.00245288
-0.00245288
-0.681408
-0.0826067
0.174864
-0.294509
-0.00115529
0.00115529
-0.0434847
0.0434847
-0.0410857
0.0410857
0.171407
0.0643087
-0.235715
0.00207144
0.304354
-0.527536
-0.00133869
0.00133869
-0.0289345
0.0289345
-0.0958056
-0.532154
0.191787
0.00406834
-0.00406834
0.213867
0.0250689
0.954682
-0.478128
-0.0882719
0.5664
-0.629504
-0.217971
0.319512
-0.0373803
0.0373803
-0.677204
0.277229
0.050799
-0.050799
-0.648298
0.378747
0.257222
0.112891
0.00476038
-0.00476038
-0.823811
0.00444635
-0.00444635
0.323663
0.400128
0.188956
-0.0549802
0.0549802
0.00504912
-0.00504912
-0.0432258
0.0432258
-0.0521822
0.0521822
0.00607022
-0.00607022
-0.0578058
0.0578058
0.00642945
-0.00642945
-0.0466737
0.0466737
-0.0237673
-0.0440549
0.0440549
-0.00828595
0.00828595
0.0493202
-0.0493202
0.00558158
-0.00558158
0.0460133
-0.0460133
-0.063361
0.00180705
-0.00180705
-0.00277847
0.00277847
-0.133964
0.0818151
-0.0113717
0.0113717
0.000406276
-0.000406276
-0.0610615
0.0610615
0.307062
-0.0211783
0.0211783
-0.056721
0.056721
-0.00662281
0.00662281
-0.0692725
0.0692725
-0.0138757
0.0138757
-0.0830677
0.0830677
-0.0236853
0.0236853
-0.0938051
0.0938051
-0.663589
-0.298703
-0.519148
0.499575
-0.869031
-0.189403
-0.56426
0.38703
0.162094
-0.478951
-0.00411613
0.00411613
0.201023
-0.691022
0.0444134
-0.0337488
-0.596259
0.756921
0.608035
0.255806
-0.0612961
0.0413178
-0.387892
-0.573934
-0.0816163
0.369933
-1.019
-0.0213015
0.0213015
-0.73823
0.0198645
-0.0198645
-0.0105098
0.0105098
0.333072
-0.122648
0.00475744
-0.00475744
0.0186264
0.0142916
0.591778
-0.102221
-0.0299296
-0.0137303
-0.0148654
-0.0907446
0.487848
-0.397103
0.495748
-0.184835
0.011119
1.21677
0.0346549
0.0509822
-0.40212
0.436884
-0.490392
-0.940605
-0.29882
-0.0717853
0.0179776
-0.719665
0.414529
0.0618757
-0.00489103
-0.00198753
0.767281
-0.534439
-0.0407592
0.0631719
-0.0376455
-0.471669
0.345208
0.403827
0.238881
-0.166481
0.212952
0.0268852
-0.00100643
-0.603731
0.0448134
-0.0596087
-0.171253
-0.0188392
-0.921784
-0.070784
0.259695
-0.345022
0.385817
-0.197772
-1.12189
0.0950525
-0.00389019
-0.151213
-0.341386
0.455762
-0.108334
-0.00620988
0.114544
-0.0272404
0.0272404
0.157559
-0.431526
-0.0998249
0.127218
-0.0804426
0.0550735
-0.0643576
-0.00620786
0.0705654
-0.0844868
-0.155676
0.147254
-0.133312
-0.291752
-0.341392
0.633144
0.0152589
0.0593028
0.153045
-0.0349818
-0.135882
0.0609464
-0.156001
0.309932
0.0468926
0.0281319
-0.0233057
0.176351
0.00457985
0.260602
0.00721982
-0.00721982
-0.15599
0.815862
0.0902133
-0.170582
-0.067083
0.00322054
0.459132
0.602841
0.0177414
-0.0420765
-0.524061
0.00491289
-0.522517
0.0918624
-0.685809
0.29555
-0.0603667
0.354411
-0.646163
0.198962
0.486804
-0.093323
0.093323
0.000420427
-0.929066
0.458248
0.470818
-0.211583
0.156232
-0.362064
0.437253
-1.04031
-0.17151
-0.090339
0.101441
0.93845
0.564835
-0.248801
-0.0687498
-0.375704
-0.584395
-0.162889
-0.27391
0.775022
0.571556
-0.267201
-0.309658
0.637105
0.651134
0.175525
-0.256667
0.206151
-0.455796
0.319138
0.12394
-0.12394
0.112224
-0.137239
0.0250145
0.00556906
0.0101974
0.0182546
-0.0427023
0.124197
0.224451
-0.185664
-0.0387872
0.53396
-1.06854
-0.093191
-0.692035
0.675469
-0.120255
-0.174253
-0.037229
-0.0810925
-0.480157
0.0516709
-0.28688
0.0039285
-0.0188392
0.381566
-0.00509477
-0.000796307
-0.00161469
0.0111295
-0.019395
0.00826544
-0.11404
-0.0197437
-0.170325
0.190069
-0.119993
-0.335802
0.0186264
0.346033
0.00152765
-0.370108
0.0822224
0.00262398
0.126918
-0.231196
-0.0124856
0.0124856
-0.00110006
0.00265009
-0.00913985
-0.00111264
-0.0732929
0.000821752
-0.00114971
0.187451
0.0943012
0.0049908
-0.0049908
0.195438
0.501371
0.000770077
-0.280072
0.61926
1.15123
-0.46138
0.325534
-0.438721
-0.22728
0.127455
0.217329
-0.227297
-0.011193
0.0531185
-0.0115073
0.00772408
-0.188858
-0.369544
0.827183
0.140847
-0.822255
0.141414
-0.00166214
0.465055
-0.415913
-0.000719562
0.0044024
0.0487161
-0.246364
0.00126554
-0.000241186
0.688954
-0.628008
-0.243802
-0.392763
0.467707
0.00376808
0.00411572
-0.0401093
-0.00545212
0.806865
-0.430071
0.51308
-0.786084
0.892973
-0.794961
0.569393
-0.182363
0.68521
0.00205119
0.00250694
0.0177422
-0.0984544
0.136907
0.051581
0.00798282
0.0073945
0.0651837
-0.0515678
-0.0136159
0.00308126
0.038856
0.0406798
-0.0795357
-0.0982426
-0.00781106
5.83123e-05
-0.00329515
0.481947
-0.425158
-0.0040392
0.00253403
0.799344
-0.341095
0.383226
-0.00605119
0.00235114
0.533433
-0.307654
-0.0439074
-0.116766
-0.0163967
-0.00372348
0.121349
0.0800188
-0.00196301
0.402912
0.00365411
-0.0122562
0.0122562
0.0102653
-0.0239955
0.00192557
-0.317109
-0.00369966
0.0731472
-0.108236
0.221308
0.116239
-0.0691273
0.00249398
0.00458552
0.444286
0.00167952
-0.000725662
-0.118559
-0.00214016
0.0033471
-0.259942
0.388621
-0.698629
0.447657
-0.817201
-0.117625
0.000980775
-0.734805
0.20504
-0.306014
0.553274
-0.014802
-0.00978378
-0.00418125
-0.0014788
-0.555099
-0.00344783
0.000359224
-0.0557271
0.978209
-0.557828
-0.00264649
-0.000847868
-0.00608128
-0.00377453
0.0797797
-0.0215568
0.0215568
-0.0714587
0.0741087
-0.00621654
-0.00821103
0.0650006
-0.0657969
-0.16411
0.0946028
-0.00725289
-0.0137952
0.0420393
-0.0167118
0.0620429
-0.0440653
-0.616863
0.575233
0.074216
-0.00452241
0.521578
-0.188273
-0.0700954
-0.652396
-0.0748745
-0.117496
-0.0953875
0.0932473
0.674497
0.00328997
0.0615556
-0.0574398
0.235806
0.0609513
-0.143466
0.0825149
-0.0680328
-0.605514
0.825334
-0.540247
0.0197661
0.0126538
0.0106964