/*--------------------------------*- C++ -*----------------------------------*\
| =========                 |                                                 |
| \\      /  F ield         | OpenFOAM: The Open Source CFD Toolbox           |
|  \\    /   O peration     | Version:  2306                                  |
|   \\  /    A nd           | Website:  www.openfoam.com                      |
|    \\/     M anipulation  |                                                 |
\*---------------------------------------------------------------------------*/
FoamFile
{
    version     2.0;
    format      ascii;
    arch        "LSB;label=32;scalar=64";
    class       volVectorField;
    location    "5";
    object      U;
}
// * * * * * * * * * * * * * * * * * * * * * * * * * * * * * * * * * * * * * //

dimensions      [0 1 -1 0 0 0 0];

internalField   nonuniform List<vector> 
2186
(
(1.30782 -0.0368989 1.82357e-19)
(1.62674 -0.93046 -9.569e-20)
(1.46652 -0.905779 8.70187e-22)
(0.736883 -0.591507 -1.25944e-19)
(-0.727086 0.574542 -2.95212e-19)
(1.02326 -0.0117017 0)
(0.714807 -0.659904 0)
(-0.661704 -0.728879 1.72114e-19)
(2.24149 0.0367382 2.88057e-19)
(0.561614 -0.319239 -2.33241e-21)
(0.674431 0.605245 0)
(0.93674 -0.2556 -1.38467e-19)
(-0.666123 -0.683719 -6.7754e-20)
(1.07602 0.00726781 -3.21314e-19)
(1.81837 -0.65775 -9.82748e-20)
(1.0141 -0.0115559 1.50304e-19)
(1.00866 0.0200538 0)
(-0.973835 -0.248534 0)
(1.03129 0.00594264 0)
(-0.160831 0.628234 -8.66754e-20)
(0.488707 0.0957558 -1.00679e-19)
(-0.0836071 0.195894 1.11103e-19)
(1.06051 -0.0145952 2.67432e-19)
(-0.274664 -0.0840015 1.25306e-20)
(1.03625 -0.0078177 -2.08492e-19)
(0.784762 -0.56789 0)
(0.750772 -0.0386291 1.25625e-19)
(0.605616 -0.586835 -1.43298e-19)
(1.21467 0.701212 0)
(0.941023 0.0210571 -2.87001e-19)
(-0.031251 0.235354 0)
(1.01855 -0.0394643 9.82197e-21)
(0.103412 0.781792 0)
(1.34286 0.224627 2.45147e-20)
(-0.0420781 -0.682555 1.31856e-20)
(1.54406 0.756353 2.24007e-20)
(1.12275 0.0762399 1.94817e-20)
(0.51326 0.144735 -2.99107e-19)
(2.12334 -0.0747775 -4.23901e-19)
(1.05389 -0.0119924 -1.13043e-21)
(-0.742516 -0.663769 0)
(-0.0627704 0.225587 0)
(1.91986 -0.847714 9.63182e-20)
(-0.1736 0.35258 0)
(1.08951 0.287376 1.27282e-19)
(0.605868 -0.298184 2.47873e-19)
(0.917718 -0.777062 0)
(1.1845 -0.776492 8.75827e-20)
(1.24778 -0.282591 0)
(-0.752068 0.777152 3.78711e-19)
(-0.036936 0.367179 1.28358e-19)
(0.630256 0.579642 6.4931e-20)
(2.08688 -0.701261 1.08872e-19)
(0.589332 0.276234 -2.38966e-19)
(-0.00150136 0.716432 4.50789e-20)
(0.75837 -0.652346 0)
(1.70221 -0.960893 1.94311e-20)
(0.577969 -0.541 0)
(2.26113 -0.00359766 1.33963e-19)
(1.17764 -0.16573 -2.9581e-19)
(1.02054 -0.0353635 1.51835e-20)
(1.30894 0.294751 -1.38535e-19)
(1.30924 0.520159 0)
(1.05429 -0.0172275 1.23849e-21)
(1.32902 0.372001 -7.96733e-20)
(1.26243 -0.724063 -1.19303e-19)
(1.17382 0.645757 4.09164e-20)
(0.674563 0.0586593 -4.84419e-19)
(0.810728 0.0414222 0)
(2.41375 0.138923 -6.16454e-20)
(-0.663511 -0.762245 -2.07321e-19)
(1.17639 -0.121914 -5.19171e-21)
(0.717687 -0.042153 -2.13515e-19)
(0.865655 -0.532394 0)
(0.81734 0.171485 -7.80618e-20)
(0.550956 -0.517229 -2.57256e-19)
(1.24411 -0.163836 0)
(1.00596 0.0178036 3.1105e-19)
(-0.0769639 -0.824527 0)
(2.17255 0.310319 0)
(1.42041 -0.950717 1.46395e-19)
(1.00581 -0.00962889 3.28651e-21)
(1.03046 -0.00122627 3.47088e-20)
(1.29676 0.392224 2.06035e-20)
(0.950921 -0.00362932 3.63427e-19)
(1.04876 0.0234265 -8.5809e-21)
(0.660537 0.169285 -2.88508e-19)
(1.01966 -0.00166238 2.87732e-22)
(0.775547 0.0310809 0)
(0.0524911 0.0669983 1.09233e-19)
(0.85327 -0.627729 -1.38654e-19)
(-0.27462 0.879375 -1.22762e-20)
(1.08534 -0.0686287 2.11129e-19)
(0.825585 -0.167844 0)
(0.959597 0.0269294 3.45247e-20)
(1.3609 0.638987 0)
(1.63421 -0.930278 0)
(1.30474 0.214106 0)
(-0.752964 0.725773 0)
(0.787501 -0.670403 2.47489e-19)
(0.848632 -1.10364 -1.21208e-19)
(1.10853 -1.2088 1.42739e-19)
(1.42735 0.154237 0)
(1.05667 -0.077389 -1.93025e-19)
(1.05412 0.0184167 1.54677e-19)
(-0.0382356 0.739342 2.47417e-19)
(0.631501 0.50143 0)
(2.06902 0.00983223 -1.07908e-19)
(0.940765 -0.489054 6.94129e-20)
(0.763598 0.101394 -2.30446e-20)
(1.86522 0.369419 1.3322e-19)
(-0.573712 0.723847 -5.08372e-19)
(0.809448 -0.733697 0)
(0.560845 0.350764 1.44408e-19)
(2.07084 -0.117275 -8.21683e-19)
(-0.557343 -0.313066 -5.60031e-19)
(1.03639 -0.0245242 -8.96081e-21)
(1.16678 -0.206043 0)
(0.0241341 0.0442574 -3.29463e-19)
(0.709613 -0.0687772 6.77518e-20)
(1.57304 0.881654 0)
(-0.517722 0.334333 -5.85861e-19)
(0.883209 0.754144 -2.20945e-19)
(-0.680602 -0.308077 3.36797e-19)
(1.01525 -0.0019293 0)
(1.04745 0.0166315 1.12899e-20)
(-0.69845 0.730085 0)
(0.696602 -0.508652 -9.202e-20)
(-0.863267 -0.387618 -2.19165e-19)
(0.781073 -0.711398 0)
(0.44664 -0.287292 3.6321e-19)
(0.54907 -0.470826 2.4223e-19)
(0.413389 -0.373106 0)
(0.975653 -0.773947 -1.01396e-19)
(1.01136 -1.01222 0)
(-0.394899 0.509759 -2.97047e-19)
(0.805315 -0.698243 1.17387e-19)
(2.23807 0.158688 2.72629e-19)
(2.00143 -0.0366799 0)
(-0.372477 -0.692134 0)
(0.687835 0.637056 -2.69297e-19)
(1.79667 -0.588563 1.55585e-20)
(-0.501467 -0.565538 0)
(0.975749 -0.799362 -1.11533e-20)
(1.0512 -0.110396 0)
(1.06634 -0.130948 3.34321e-19)
(2.03975 -0.05361 -1.10765e-19)
(-0.731573 0.573656 0)
(1.2312 -0.54699 -4.45407e-20)
(0.175946 0.651492 -5.63705e-20)
(-0.623193 0.800303 0)
(1.08662 -0.806257 1.19446e-20)
(1.00378 0.00501454 -5.19651e-19)
(0.654121 -0.494325 -9.08046e-21)
(0.809512 -0.528975 0)
(1.20473 -0.724586 -7.46322e-20)
(0.649887 0.235907 2.23912e-19)
(1.23273 0.105862 0)
(1.57317 0.0177993 -1.30837e-19)
(1.19679 -0.845858 -1.47975e-19)
(-0.347498 -0.624057 -1.40738e-19)
(-0.678655 0.123627 -3.66011e-19)
(1.04309 0.0060547 1.94106e-19)
(0.905284 -0.481829 -8.72923e-20)
(1.03875 0.00592737 -2.6638e-22)
(1.01761 0.0114577 -1.17574e-21)
(0.763079 -0.055744 1.19644e-19)
(0.105845 -0.118848 -2.36857e-19)
(1.05162 -0.0200682 0)
(1.05778 -0.019267 -4.16228e-21)
(1.41652 0.625884 8.6339e-20)
(0.802629 -0.621751 -1.80528e-19)
(0.997241 0.00585108 1.06692e-20)
(0.719694 -0.544078 2.52938e-19)
(1.30693 0.785517 8.3017e-20)
(1.74557 -0.0773236 1.82109e-20)
(-0.728269 0.421806 0)
(1.02194 0.0367796 -2.00585e-19)
(-0.765025 0.25504 -1.78291e-19)
(1.06774 0.478562 6.45741e-20)
(0.230071 -0.106821 1.43168e-19)
(1.0672 0.021485 -3.66418e-20)
(-0.0788059 0.711104 -2.25621e-19)
(1.2984 0.574396 -5.31555e-20)
(1.14003 0.879838 0)
(-0.734261 0.390469 -1.31922e-19)
(-0.20201 -0.0740383 0)
(0.647031 0.553626 -2.3234e-19)
(1.92076 -0.0473179 -2.34874e-20)
(-0.674741 -0.561971 2.14641e-19)
(-0.803062 -0.0156133 -6.92696e-19)
(0.718571 0.0576197 2.12632e-19)
(1.64696 -0.576168 -1.25082e-20)
(0.948867 -0.356692 -2.56974e-20)
(-0.146048 -0.249449 0)
(0.811494 0.0821144 -3.55039e-20)
(1.34447 0.976082 1.70122e-20)
(0.838273 0.0621579 -1.15581e-19)
(0.551616 0.51585 1.609e-19)
(0.553086 0.180904 0)
(-0.600328 -0.682421 -4.40448e-19)
(0.895222 0.0142368 -2.47462e-20)
(1.30025 -0.947375 2.07973e-22)
(0.973775 -0.0352908 -1.59372e-19)
(-0.331179 -0.0981877 1.62678e-21)
(-0.478407 0.529539 2.49282e-19)
(-0.302698 -0.294044 -1.98068e-19)
(1.14379 -0.183326 0)
(1.0761 0.0431647 -2.68974e-19)
(1.50228 -0.374852 4.71973e-20)
(1.29996 -0.607605 7.74236e-20)
(1.03848 -0.0256703 -1.2202e-21)
(0.588664 0.331262 0)
(0.937834 0.738418 -1.29374e-20)
(0.682944 0.625558 1.48985e-19)
(0.884722 -0.574296 1.25806e-19)
(0.678331 0.496321 0)
(0.98929 -0.0136342 6.90937e-21)
(0.873542 -0.666478 1.78477e-19)
(0.826074 0.414982 -3.82821e-19)
(1.28357 -0.0989028 0)
(-0.235487 -0.198027 -3.73752e-19)
(0.0450659 0.89173 -1.70563e-19)
(1.57043 0.711571 0)
(1.35077 -0.921866 -1.77986e-22)
(-0.695972 -0.0159943 0)
(-0.734048 0.731448 1.91938e-19)
(0.729962 0.643455 -8.07168e-20)
(0.852034 -0.201326 0)
(0.303008 -0.654855 0)
(1.70061 -0.408068 0)
(0.728825 -0.192809 -5.39194e-20)
(1.20912 -0.869101 9.70308e-20)
(1.18682 -0.599002 4.9464e-20)
(1.12158 -0.209061 -1.42292e-19)
(0.871132 -0.694117 -1.4025e-19)
(0.186423 -0.190991 0)
(-0.446329 -0.446403 0)
(0.987967 -0.517849 1.47802e-19)
(-0.504166 -0.729369 0)
(-0.797055 0.494878 0)
(-0.540244 -0.27491 4.77714e-19)
(0.785509 0.660179 7.00288e-20)
(1.00887 0.782126 0)
(0.689917 0.546461 -7.10828e-20)
(0.812157 -0.0591125 -1.91289e-19)
(0.738391 0.554523 -1.89526e-19)
(0.586232 0.543053 -1.38559e-19)
(-0.644904 -0.844056 1.04397e-20)
(0.712636 -0.640553 0)
(0.87214 0.165774 -2.71935e-19)
(-0.767877 -0.760476 9.87219e-20)
(0.600541 0.554939 3.08393e-19)
(0.953251 0.788079 0)
(0.670987 -0.268453 -3.25835e-20)
(-0.107459 -0.981457 5.1771e-19)
(0.330311 -0.773298 -3.11216e-19)
(0.656907 0.561128 -1.23597e-20)
(0.980839 0.010175 5.05743e-20)
(-0.728562 -0.582848 0)
(1.72197 0.34071 -1.27062e-19)
(1.04559 -0.0362457 1.34095e-20)
(0.64742 -0.602097 -6.33045e-20)
(-0.639396 -0.332997 9.33929e-21)
(1.18027 0.430777 1.40084e-19)
(0.87726 0.405475 0)
(1.03266 -0.140852 1.66798e-19)
(0.244093 -0.799447 -1.78345e-20)
(-0.191211 0.565555 5.2618e-19)
(0.970349 0.00664975 -4.46407e-20)
(1.15546 0.151406 0)
(1.69801 0.176362 -1.64685e-19)
(1.70841 -0.0815584 0)
(0.54321 0.25796 -3.9452e-19)
(-0.528755 0.624792 0)
(-0.680924 -0.778667 4.05848e-19)
(0.884917 0.103577 0)
(0.624835 -0.527979 -1.56002e-19)
(1.03879 0.00825252 1.77627e-19)
(-0.815531 0.50123 6.64341e-20)
(1.3374 -0.0969798 -5.48993e-21)
(2.16295 -0.0539405 -1.47572e-19)
(1.0894 0.227558 -1.79878e-19)
(-0.73368 -0.709874 -1.88628e-19)
(1.06833 -0.840676 0)
(0.827994 0.0249088 -1.29375e-19)
(0.910786 -0.390517 -2.45792e-19)
(1.69081 -0.576309 -7.57216e-21)
(1.65697 -0.0522839 1.65153e-19)
(1.04459 0.00225167 3.22369e-19)
(0.0614788 -0.630438 -3.53358e-19)
(0.964519 -0.446381 -1.06162e-19)
(0.198075 -0.191533 2.20654e-19)
(0.97883 -0.0116679 0)
(0.990415 -0.0131656 0)
(1.02725 -0.0776171 -7.60725e-21)
(-0.598336 0.598996 -2.07539e-19)
(0.206069 -0.11676 -1.53229e-19)
(0.857141 -0.0606553 6.58269e-21)
(1.10825 -0.353903 0)
(1.55129 -0.598236 -2.07383e-20)
(0.939606 -0.811956 -5.88141e-20)
(1.81262 -0.544964 -8.2202e-20)
(1.10371 0.825326 0)
(0.475947 -0.461348 0)
(0.597866 0.51085 -1.4903e-19)
(1.07154 0.257688 -3.27291e-19)
(2.10584 -0.0130716 3.83624e-22)
(0.852305 0.151541 1.17064e-19)
(-0.298384 -0.29541 -1.06183e-18)
(1.00884 0.00769339 2.57292e-21)
(-0.929118 -0.346497 0)
(-0.305648 -0.736067 0)
(-0.730941 -0.457782 0)
(1.35625 -0.717324 -5.79675e-20)
(-0.640588 0.843066 -3.98476e-19)
(-0.419841 0.707539 0)
(1.30097 0.977003 -1.24466e-20)
(1.10038 0.133491 -3.4185e-19)
(1.09152 0.0272947 2.40705e-21)
(1.08762 0.924893 4.79739e-20)
(-0.595438 0.845311 2.63717e-19)
(1.02121 -0.0164985 0)
(-0.717995 -0.348479 -4.21947e-19)
(-0.669566 0.827334 4.84718e-19)
(0.769943 0.0107829 1.56604e-19)
(1.54804 0.934635 4.68492e-20)
(1.04394 -0.0072305 4.69819e-21)
(-0.364469 0.882073 -2.53407e-21)
(0.737483 -0.674209 -3.0294e-20)
(1.30151 -0.0671358 0)
(1.63895 0.103726 0)
(1.20192 0.0797737 0)
(0.927897 0.0346553 2.36025e-20)
(-0.810383 -0.448196 1.65742e-19)
(1.04418 0.834423 0)
(0.980685 -0.012278 4.30185e-19)
(0.760744 0.59568 -1.89088e-19)
(0.861444 0.0149033 1.8613e-20)
(0.85552 0.00805694 -3.49925e-20)
(0.708796 -0.649769 -1.81635e-19)
(1.38486 0.690059 -1.64911e-20)
(0.570714 -0.466005 -2.52477e-19)
(1.02245 -0.0136734 -3.89099e-19)
(0.952724 0.0189103 3.7712e-20)
(1.55836 -0.101244 4.91855e-20)
(0.974883 0.00482841 -1.77836e-22)
(-0.26002 -0.365071 1.85339e-21)
(1.07242 0.455653 -2.15978e-19)
(1.40222 0.619541 1.04794e-19)
(0.381292 -0.933381 0)
(-0.370915 -0.162423 3.85287e-19)
(-0.31712 -0.238579 1.56793e-19)
(-0.152523 -0.136472 -1.49766e-19)
(0.473231 0.315369 0)
(1.02144 -0.0737974 0)
(0.0543274 -0.0397661 -1.86622e-19)
(-0.701444 -0.801214 -1.1967e-19)
(1.01944 0.00811202 1.54014e-19)
(-0.634173 0.471771 -6.48324e-20)
(1.13279 -0.407583 -1.32236e-22)
(-0.158409 0.759509 0)
(0.824715 -0.731599 -2.44649e-19)
(0.991076 0.0181338 -3.46318e-21)
(-0.77538 0.219183 1.76551e-19)
(0.711822 0.149217 2.80868e-19)
(0.622371 0.134845 9.14145e-20)
(0.503002 -0.479704 1.72731e-19)
(-0.546239 -0.624508 -2.06916e-19)
(1.04393 0.00964003 0)
(0.388578 0.342204 -1.66896e-19)
(1.00928 0.00226791 -2.45313e-19)
(-0.833966 -0.0140918 2.78249e-19)
(1.4052 0.4656 -7.38659e-20)
(-0.548974 -0.769672 -7.89668e-20)
(0.691235 -0.627571 -2.56702e-20)
(0.802271 0.178623 -1.74316e-19)
(0.967095 0.418666 1.86698e-20)
(1.1036 -0.158368 2.91839e-20)
(0.617824 -0.230689 -2.60075e-19)
(2.03142 -0.224881 -1.71813e-19)
(0.754754 -0.0121023 0)
(1.01335 0.0139119 1.61694e-21)
(0.82679 0.0421839 -5.83544e-21)
(1.7392 0.797646 2.08889e-19)
(1.18828 0.261488 -2.05244e-19)
(1.04783 0.0074323 -5.50629e-21)
(0.4134 0.383684 -2.14802e-19)
(-0.668388 -0.129526 4.18048e-19)
(2.32812 0.476838 0)
(0.997488 3.72918e-05 0)
(0.865083 -0.762465 4.60294e-20)
(-0.262242 -0.922662 -5.64831e-19)
(-0.328063 -0.525257 -1.05076e-19)
(-0.336127 -0.483588 -3.19126e-19)
(-0.697255 0.296065 -2.71103e-19)
(-0.752983 -0.0972142 0)
(-0.266108 -0.626351 5.10347e-20)
(0.553055 0.762318 -1.85609e-19)
(-0.512204 0.559047 -5.6749e-19)
(0.808072 -0.0954646 0)
(1.03349 -0.0447697 -6.04659e-21)
(-0.332231 -0.31887 0)
(0.991089 0.0326566 3.11001e-19)
(-0.207105 0.0558135 1.73881e-20)
(0.547573 -0.43728 3.38374e-19)
(-0.660784 0.295174 2.96014e-19)
(0.56121 0.00645303 0)
(0.211239 0.46559 2.73067e-19)
(1.05153 0.00565003 -9.39944e-21)
(0.216764 -0.456498 0)
(1.01511 -0.0149385 -4.86836e-20)
(0.852134 -0.723912 -2.36453e-19)
(1.00236 -0.100868 0)
(0.910817 -0.261829 1.75632e-19)
(-0.327815 0.208318 4.88662e-19)
(0.0116476 -0.0188757 0)
(-0.701775 -0.577569 -1.26939e-20)
(0.722838 -0.638166 -3.57628e-19)
(1.00661 -0.0687513 -2.23644e-19)
(-0.329269 -0.975736 8.25915e-19)
(-0.628427 -0.83777 2.52093e-19)
(-0.800323 -0.251743 0)
(0.948629 0.46842 0)
(-0.235815 0.518274 2.85312e-19)
(1.54179 0.620242 -6.41501e-20)
(1.07919 0.894749 1.28334e-20)
(1.05052 0.198431 -1.0347e-19)
(1.10171 -0.0359031 -1.91462e-19)
(1.11 -0.162595 -6.80642e-20)
(-0.371428 -0.849067 -7.48742e-19)
(1.26077 -0.137797 1.42815e-19)
(0.844419 0.0282345 1.71695e-19)
(1.32805 0.172919 4.37516e-20)
(1.06662 -0.0438418 0)
(0.871502 0.29451 -2.70594e-20)
(1.07632 0.0328227 -4.21842e-19)
(1.71238 0.574819 -2.30141e-20)
(0.737773 -0.468598 -1.37643e-19)
(0.0397749 0.0365493 2.46399e-19)
(0.789923 -0.69522 3.11699e-19)
(1.23551 0.196875 5.83147e-20)
(1.00287 -0.00178745 2.16196e-19)
(0.0145177 -0.386857 -3.78955e-19)
(1.01695 0.00720965 0)
(1.01043 0.010207 -2.28297e-20)
(0.0161471 -0.0397055 0)
(1.05532 0.0279989 -1.26745e-19)
(0.761049 -0.0860621 6.31158e-20)
(1.67126 0.202373 9.27852e-21)
(-0.458698 -0.213486 2.0034e-19)
(1.59914 0.0716427 -2.31584e-20)
(1.00132 -0.0297893 4.43205e-20)
(1.34814 -0.110355 0)
(1.45234 -0.602894 -9.58483e-20)
(1.00175 0.0285868 -1.30444e-19)
(1.44001 0.783553 -8.57211e-21)
(1.32533 -0.0334231 0)
(1.03808 0.00862337 1.46714e-21)
(0.0441391 -0.0300748 0)
(1.4306 0.0746692 0)
(-0.818952 -0.566934 0)
(1.20596 0.434353 0)
(2.06637 0.256588 7.22908e-20)
(0.734031 0.606007 3.3117e-19)
(0.291734 -0.294367 -2.04473e-19)
(-0.724819 -0.839462 -6.32302e-19)
(-0.130451 -0.249392 0)
(1.10413 -0.0111569 -1.51861e-21)
(1.48843 0.47592 0)
(1.46091 0.24323 0)
(-0.726418 -0.311359 1.86002e-19)
(0.807068 0.70856 1.01029e-19)
(1.71707 0.0345439 0)
(-0.64076 -0.631664 1.28766e-19)
(0.881512 0.21512 1.59576e-19)
(1.07186 0.00655536 3.65067e-21)
(1.24761 0.922272 2.78601e-20)
(0.917645 -0.821695 -2.30215e-20)
(0.763287 -0.00378646 3.72412e-21)
(0.795077 0.714973 1.02518e-19)
(1.18711 0.92658 0)
(1.1566 -0.0801787 5.76374e-21)
(0.995392 0.161301 0)
(1.02525 -0.00666804 -5.67161e-21)
(0.919103 0.190353 1.93728e-19)
(1.00967 0.00349495 0)
(0.892853 0.223301 -3.43976e-20)
(0.890311 -0.144774 4.06185e-20)
(0.633002 -0.420471 0)
(0.671622 -0.39201 1.8252e-19)
(1.23326 0.540059 -2.53093e-20)
(0.469894 0.442437 2.3262e-19)
(-0.556104 0.623886 6.63785e-20)
(0.577567 0.624712 1.41251e-19)
(0.876736 0.0165403 0)
(1.32661 -0.88841 -4.04478e-20)
(1.0634 -0.00245857 3.41775e-19)
(1.53395 0.267378 1.62481e-19)
(-0.627974 -0.573131 1.10803e-19)
(-0.344981 0.619709 0)
(1.17565 -0.174997 -9.51371e-20)
(-0.00483215 -0.0438894 -2.30208e-19)
(0.849866 0.667562 1.79104e-21)
(-0.142949 0.000233005 9.23032e-23)
(-0.240433 0.0865101 3.89774e-19)
(1.03573 0.00671114 -8.09399e-22)
(1.86451 0.250074 1.70273e-19)
(1.19028 0.443327 -2.25897e-19)
(1.082 -0.0739507 0)
(1.5823 0.0851972 1.41657e-19)
(1.55479 0.059851 6.37621e-20)
(0.901859 -0.759782 1.14473e-19)
(1.15891 -0.966712 -1.76596e-20)
(0.474801 0.439674 1.55019e-19)
(1.06511 0.31012 0)
(1.7699 0.552636 5.67204e-20)
(-0.0313254 -0.134464 -4.7206e-19)
(0.885188 0.767358 0)
(1.03476 0.00156871 0)
(0.294054 -0.29494 -3.7989e-21)
(0.322533 0.302115 0)
(-0.406769 0.210979 -1.10142e-19)
(-0.650148 0.721244 -2.06357e-19)
(1.76337 -0.378426 0)
(1.25754 0.0502241 9.41868e-20)
(-0.0649596 -0.875699 9.50906e-20)
(0.531235 -0.507044 -3.91242e-19)
(1.51412 0.12983 -1.8702e-20)
(0.607171 -0.554116 0)
(1.0899 0.121245 0)
(1.28677 -0.327848 0)
(1.0826 0.237325 -1.90525e-19)
(1.24482 0.0830668 2.69642e-19)
(0.471846 -0.079194 0)
(0.980903 -0.0676069 0)
(1.14333 -0.0275419 7.68357e-21)
(-0.320013 0.718279 1.57836e-19)
(1.46821 -0.293046 -5.87836e-20)
(1.11333 -0.522458 2.11882e-19)
(1.03145 -0.113129 -6.57969e-20)
(-0.813408 -0.139386 -1.4235e-19)
(1.58655 -0.138598 -1.16899e-19)
(1.01922 -0.0359893 3.50505e-19)
(1.51272 0.595633 0)
(-0.730515 0.741649 5.49399e-20)
(0.993955 -0.818876 1.36912e-19)
(0.836093 -0.0320775 4.09015e-20)
(0.637146 -0.444723 0)
(1.90594 -0.462027 8.08681e-21)
(1.1747 -0.193238 1.2618e-19)
(1.02947 -0.0277528 0)
(0.599867 -0.557047 3.61043e-19)
(0.969876 -0.0151869 2.9449e-21)
(1.44029 -0.414856 8.21169e-20)
(-0.462917 0.777393 -3.56999e-19)
(1.3245 0.606527 1.01984e-19)
(1.13599 0.387018 2.9316e-21)
(0.895084 0.364976 1.87662e-19)
(1.34636 0.573889 -2.62194e-20)
(-0.450126 -0.879947 -2.68647e-20)
(1.85713 0.717842 0)
(-0.199573 0.00661217 3.88772e-19)
(1.09896 -0.948655 0)
(1.05512 -0.650366 1.76509e-20)
(1.35233 0.969899 -1.44882e-19)
(1.03682 -0.00913596 -2.15567e-21)
(-0.960008 -0.0770659 -4.69959e-19)
(0.978809 0.479172 1.42813e-19)
(0.928552 0.100603 -2.60663e-20)
(0.817445 -0.0201482 0)
(0.785396 -0.0364739 0)
(0.726959 0.0244172 3.5717e-21)
(0.76139 -0.0380518 0)
(1.28094 -0.156029 -1.29836e-19)
(-0.403609 -0.129946 1.5235e-19)
(1.87716 0.413752 6.11476e-20)
(1.02112 -0.00632869 0)
(0.560001 -0.358938 8.96455e-20)
(1.01988 0.00829906 1.67439e-19)
(0.978737 0.0770674 1.65662e-20)
(-0.403193 -0.326782 0)
(1.11051 -0.469822 4.03876e-19)
(0.981472 0.00934529 -1.56918e-23)
(1.091 -0.491272 -1.75977e-19)
(2.14367 0.05701 2.16607e-19)
(1.28957 0.783735 0)
(0.944011 0.013325 0)
(-0.667395 -0.491332 -2.64736e-19)
(0.055778 -0.0253196 2.09915e-19)
(0.936721 0.355568 -1.71764e-19)
(0.430716 -0.311532 -3.78314e-19)
(0.641644 0.41042 2.05876e-19)
(1.01605 0.00701556 0)
(0.531096 -0.494623 0)
(1.02007 -0.00017486 6.93847e-22)
(1.25089 -0.486396 -8.01056e-20)
(0.783309 -0.508753 1.96069e-20)
(0.739654 -0.141014 1.01804e-19)
(-0.195846 0.599375 -3.93018e-19)
(1.46267 -0.905292 9.78648e-20)
(0.659729 0.61252 0)
(1.27557 0.679801 0)
(1.50683 0.244678 0)
(-1.02327 -0.372899 -2.7032e-19)
(1.32554 0.570432 2.73365e-19)
(1.53791 0.145438 1.82632e-20)
(1.05269 -0.0302432 0)
(1.03921 0.0198805 0)
(1.57816 -0.0598892 -1.1844e-19)
(0.978978 0.133206 -1.96397e-20)
(1.00166 0.0116664 -1.67132e-19)
(1.44642 0.471804 0)
(-0.818042 0.0647069 0)
(1.22073 0.290787 2.28004e-19)
(1.01704 0.521925 -1.04672e-19)
(1.02926 0.0425668 0)
(1.25448 0.470655 0)
(2.03457 0.623936 -3.93974e-19)
(-0.392199 0.911013 -2.72254e-20)
(1.00686 0.0334033 0)
(0.702848 0.47193 -2.80134e-20)
(0.927113 -0.81265 0)
(1.04705 0.0471126 3.87432e-20)
(1.02939 -0.0149068 1.47421e-20)
(0.885602 -0.327161 2.5838e-19)
(1.02127 0.00257266 -1.17295e-20)
(2.01314 0.117559 3.12611e-19)
(1.00251 -0.00339301 7.07978e-21)
(0.852193 0.0175053 0)
(1.00179 -0.00537651 0)
(-0.454642 0.560712 0)
(0.667306 0.636763 -1.50696e-19)
(-0.138196 0.388771 2.66516e-19)
(1.14621 0.339272 -3.67367e-19)
(-0.871955 0.297174 0)
(0.822794 0.63395 1.38191e-19)
(0.966018 -0.344755 0)
(1.00603 0.0105183 9.87881e-20)
(0.935774 0.406444 -1.33499e-21)
(1.02225 0.393074 2.07656e-19)
(1.77449 -0.855719 0)
(1.93301 -0.123699 -5.99232e-20)
(0.819088 -0.108516 -3.09118e-19)
(-0.0813097 0.349503 -2.45253e-20)
(1.0292 0.248923 0)
(0.855928 0.233972 1.47614e-19)
(2.11519 0.525938 0)
(0.76977 0.517131 3.02137e-19)
(-0.0894855 -0.114737 4.9289e-21)
(-0.278629 0.582782 0)
(0.587975 0.557167 -5.82962e-20)
(1.01741 -0.639998 -1.24323e-19)
(0.488195 -0.250914 -1.06754e-19)
(1.00103 0.00172719 0)
(-0.116074 -0.760121 -2.56147e-19)
(0.636748 -0.574107 6.9025e-20)
(0.888183 0.27987 0)
(1.09344 -0.0664139 -6.67607e-21)
(0.986209 0.83442 1.85154e-20)
(1.03374 -0.0168037 -1.31875e-20)
(0.753103 -0.708437 -4.43816e-19)
(0.236399 -0.0427602 -4.83967e-19)
(-0.457801 -0.787096 1.41523e-20)
(0.805394 0.353295 2.06701e-19)
(-0.64618 0.801032 -9.72682e-21)
(1.43039 -0.63659 3.68186e-21)
(1.00289 0.00782623 -2.89558e-19)
(-0.896144 -0.0433878 0)
(0.984601 0.0291167 -3.42727e-19)
(1.38294 0.358792 2.18024e-20)
(0.880236 0.679061 2.2796e-19)
(1.07747 -0.101103 1.34157e-19)
(0.998753 -0.0451076 1.34167e-19)
(1.04165 -0.0201776 2.01447e-21)
(-0.519594 -0.477803 3.66722e-22)
(1.75365 -0.8582 1.60547e-20)
(1.27024 -0.0868293 -6.60021e-20)
(0.990924 0.0341665 7.49091e-20)
(0.89654 -0.290584 7.61813e-20)
(0.725293 0.0009035 0)
(0.954645 0.721895 0)
(0.978709 0.508184 1.59118e-21)
(1.94725 0.14801 -2.76805e-20)
(-0.58737 0.19101 8.93454e-20)
(1.00725 -0.54048 -4.28599e-19)
(0.617937 -0.543018 3.33242e-19)
(2.09775 -0.0954362 -1.96661e-19)
(0.728992 -0.569724 4.18568e-20)
(1.01136 -0.0155066 0)
(0.749519 0.101429 -5.76458e-21)
(1.04077 -0.0121768 1.15046e-20)
(1.03443 0.747511 0)
(1.02519 -0.0169119 0)
(0.829531 -1.03763 0)
(-0.574168 -0.726363 -9.91903e-20)
(0.0813028 0.0884673 0)
(1.04173 0.0936642 -1.37972e-20)
(1.18784 0.180782 5.15497e-21)
(0.673514 -0.0181779 -2.52115e-20)
(1.04066 0.00930935 -2.40505e-21)
(1.86281 0.439512 -1.01461e-19)
(2.02597 -0.233378 -3.32346e-20)
(-0.216079 -0.0435208 -2.7505e-19)
(-0.526496 -0.441207 9.49105e-21)
(1.00345 0.0066335 0)
(0.783875 -0.0141097 0)
(0.991059 0.00608144 5.56168e-22)
(-0.981688 -0.125183 0)
(1.40512 0.10399 -7.64059e-20)
(0.749653 -0.0116606 0)
(1.0245 -0.0234957 1.07119e-19)
(1.00571 0.0302393 -3.80506e-20)
(1.37166 -0.859551 3.8439e-20)
(1.05146 -0.0160745 -7.83961e-22)
(0.94729 -0.178038 -4.58885e-20)
(1.01645 -0.0542589 3.11786e-19)
(0.669085 -0.614176 1.55226e-19)
(0.823248 -0.0736591 2.73064e-20)
(1.02531 0.00737921 -3.6711e-21)
(0.0443737 0.042031 0)
(1.12461 0.780611 0)
(1.02652 -0.0112234 0)
(0.990728 -0.766114 -8.43982e-20)
(1.03812 -0.882583 1.90132e-20)
(1.02324 0.0257408 2.60807e-21)
(0.786258 0.273524 5.35923e-20)
(1.05013 0.00167797 2.69803e-21)
(0.591592 -0.393055 -5.458e-19)
(1.01405 0.00712109 3.64726e-21)
(1.03356 0.000812979 -9.03423e-21)
(2.10617 -0.137086 1.15647e-19)
(0.986185 -0.00868885 3.11141e-21)
(-0.667385 -0.670459 -2.01214e-19)
(1.11547 0.541892 1.54608e-19)
(0.369334 -0.764682 0)
(0.101328 0.211551 8.18304e-19)
(-0.188728 -0.57673 1.64136e-21)
(1.04222 -0.0158987 2.80654e-19)
(0.992846 0.0184961 -7.20837e-21)
(1.0522 -0.0137572 -7.7253e-20)
(1.0352 -0.0127737 2.83108e-21)
(1.55965 0.296179 3.40966e-20)
(0.404113 -0.381183 -2.69967e-19)
(1.04345 -0.0168928 -5.04586e-21)
(1.01834 0.00691194 -2.05649e-19)
(1.01984 -0.00572793 3.77819e-21)
(1.02985 0.0148655 0)
(1.11274 0.576787 -2.88477e-19)
(1.00547 -0.0281828 8.07908e-20)
(0.669939 0.596337 2.15813e-19)
(1.00538 0.011851 -3.95133e-22)
(1.05825 0.0113851 -2.54266e-20)
(1.05392 0.0227673 7.24165e-22)
(1.65069 -0.395652 6.35832e-21)
(0.734931 0.00302083 0)
(1.07537 -0.0145677 0)
(1.04918 -0.0179858 4.96085e-19)
(0.987831 -0.00260479 0)
(-0.172816 -0.408393 0)
(0.98829 -0.593813 0)
(0.99911 0.00274643 -4.6816e-19)
(1.15626 -0.674571 6.59361e-20)
(1.02839 0.024951 9.76783e-21)
(1.35478 0.952017 -7.74288e-21)
(1.54026 1.00556 -1.23747e-19)
(1.02731 -0.0118212 -4.5639e-21)
(1.14504 0.40546 2.97606e-21)
(0.751408 -0.0199828 0)
(-0.0542644 0.794558 0)
(1.61809 0.719392 1.27048e-19)
(1.03575 -0.016849 0)
(1.00313 -0.00751848 -1.44823e-19)
(1.01051 -0.00513726 2.81107e-19)
(1.31974 0.0888361 -5.46865e-20)
(0.0126308 -0.0949404 2.99748e-19)
(1.02069 0.00633632 1.51873e-19)
(0.946822 0.00246572 -2.53752e-21)
(0.975289 0.0284078 3.29821e-21)
(1.03912 -0.00772035 5.59117e-24)
(0.923935 0.00939941 -1.53956e-19)
(1.00112 -0.00498414 1.8128e-19)
(1.00093 0.0112322 1.07569e-20)
(0.829241 -0.00868563 0)
(0.742024 -0.00919711 0)
(0.748348 0.012856 5.21483e-22)
(0.741758 -0.0198786 0)
(0.75592 0.00815527 0)
(0.75218 -0.0166346 0)
(0.773184 0.0152275 -4.56762e-21)
(0.941675 -0.00291812 3.12515e-21)
(1.04685 -0.00196232 0)
(1.01569 -0.00785253 4.66582e-22)
(1.03072 0.00117974 0)
(0.806059 -0.00832662 0)
(0.752172 0.00817687 0)
(0.727459 0.0235161 -9.79535e-22)
(0.728189 0.0058323 -5.90339e-21)
(0.875887 0.00968891 0)
(0.822505 0.0406121 0)
(0.964653 -0.0187149 -1.88621e-19)
(0.82494 -0.0104775 3.54741e-19)
(1.00245 0.00199189 0)
(0.998128 -0.00601843 3.34888e-19)
(1.00064 -0.00333834 -4.94607e-22)
(0.865819 0.0309193 3.00312e-19)
(0.999018 0.00625025 -1.74259e-19)
(0.952003 -0.00854735 0)
(0.760119 -0.0212539 -3.301e-21)
(1.01516 0.00281705 -1.69181e-19)
(1.00141 0.00300815 -2.90475e-19)
(1.03307 -0.00332952 0)
(0.995972 -0.00186104 0)
(1.00176 -0.00492956 0)
(1.01857 -0.011428 -1.90999e-21)
(1.02879 -0.00887253 3.38586e-21)
(1.02223 0.0230195 0)
(-0.629821 0.493256 3.0904e-19)
(0.885119 0.126723 3.39532e-20)
(1.02436 -0.0222045 -2.24211e-19)
(-0.856948 -0.698578 -1.91181e-19)
(1.00635 -0.0106535 -1.80405e-19)
(1.14431 -0.201765 -8.62295e-20)
(0.791118 -0.48753 2.56992e-19)
(-0.269457 -0.408898 -1.24995e-19)
(1.03771 0.0245413 0)
(1.03046 0.0141208 -4.92627e-20)
(0.940065 0.013037 0)
(-0.0605538 0.305383 3.66101e-19)
(1.01725 -0.00462809 0)
(-0.909157 -0.435052 -4.26038e-19)
(0.978515 0.0046026 3.35655e-21)
(1.66038 0.659548 7.64815e-20)
(-0.0914137 -0.0378832 0)
(1.07042 -0.0395266 1.51316e-19)
(1.0315 -0.0126963 4.91745e-22)
(0.914069 -0.0180893 2.38491e-19)
(1.0403 0.0044979 -1.52925e-19)
(1.69154 0.841609 8.21381e-20)
(0.517309 0.484608 0)
(0.441387 0.398575 1.74069e-19)
(1.04172 -0.0175972 5.63815e-22)
(1.10953 0.123304 1.58277e-19)
(1.07783 -0.706474 0)
(1.00195 0.0147548 0)
(1.02286 -0.0408496 -3.55242e-19)
(1.05329 -0.00301774 -3.42584e-19)
(-0.534455 -0.871 0)
(1.22483 0.809917 -8.47448e-20)
(1.03952 -0.000613519 4.20681e-22)
(1.00489 0.00113812 1.31978e-19)
(1.02471 0.0208494 -1.66122e-19)
(-0.809962 -0.303086 -3.9484e-20)
(1.02793 0.0101103 -8.02928e-21)
(1.03436 -0.0223447 5.61844e-19)
(1.02618 -0.0212191 0)
(1.87421 0.651458 -8.9955e-20)
(1.00455 0.00389854 -1.75696e-19)
(1.33969 0.0835469 -4.19558e-20)
(1.03691 0.0191535 -4.03926e-22)
(1.01755 -0.00328621 3.5429e-20)
(2.11335 0.273042 -2.5844e-19)
(1.0264 -0.0170274 1.69601e-19)
(1.01655 -0.00135817 2.13741e-22)
(1.01675 -0.00885395 0)
(0.906873 0.140485 4.16195e-20)
(0.507146 0.202786 -5.01821e-22)
(1.01892 0.00210352 1.6971e-19)
(1.05672 0.032153 -7.84866e-22)
(1.012 -0.00248713 -9.63609e-22)
(1.23751 0.310936 3.16113e-19)
(1.03721 -0.00856975 1.16227e-19)
(1.05134 -0.00950971 6.58024e-22)
(1.72586 0.194966 -6.1366e-21)
(1.83778 0.945157 -1.34148e-19)
(0.764192 -0.685639 4.71941e-20)
(0.459039 -0.332186 -2.65681e-19)
(1.01704 -0.053553 0)
(1.02365 0.00493217 4.19498e-20)
(1.00859 -0.0106128 8.9418e-20)
(1.0239 -0.00840085 7.19618e-22)
(0.982172 -0.00445796 -1.78739e-19)
(1.01903 -0.0127498 2.02883e-19)
(1.01483 -0.0141797 -1.65676e-19)
(1.01921 -0.0162394 9.92516e-23)
(1.01715 0.00236275 -7.18691e-22)
(1.04154 0.00171391 1.70431e-19)
(0.8968 0.0746656 4.30777e-19)
(1.04991 0.0612282 0)
(0.962302 1.01976 1.53679e-20)
(1.00966 -0.0129719 0)
(1.02463 -0.0118909 -4.92455e-20)
(1.51718 0.420697 -4.62881e-20)
(0.964567 0.104968 0)
(1.09323 -0.0440393 1.58629e-21)
(1.05267 0.0966197 2.83804e-21)
(0.929946 -0.0291818 0)
(1.80232 0.685889 0)
(0.974773 0.0767194 1.7262e-20)
(1.01674 0.000342318 -1.44243e-21)
(1.01109 -0.00748514 -1.79645e-19)
(1.11286 -0.557041 -4.95681e-20)
(1.01745 -0.00419537 -1.78702e-21)
(1.02235 0.0213683 0)
(1.0339 -0.00770001 0)
(1.07201 0.0194242 0)
(0.543899 0.495727 2.49e-19)
(1.02464 -0.00933279 7.62202e-21)
(0.966924 0.0333515 0)
(0.179268 -0.458553 -4.88489e-19)
(1.71302 0.968419 -1.20672e-19)
(1.00486 0.0100742 -3.49626e-19)
(1.02167 -0.00660646 2.32841e-21)
(1.00416 0.0133548 2.30838e-19)
(0.837208 -0.0217425 0)
(-0.423825 -0.869383 -4.00773e-20)
(0.609789 0.435189 -2.89699e-19)
(1.05717 0.0470953 -7.93854e-21)
(0.221748 0.0266314 0)
(0.961014 -0.0168936 6.67817e-20)
(0.515832 0.491816 4.33101e-20)
(1.19056 0.878365 -2.17081e-20)
(0.0499299 0.0154504 1.62028e-19)
(1.00766 0.0148113 0)
(1.02321 0.00187981 4.78741e-21)
(1.03006 -0.0160249 1.31451e-19)
(1.9249 -0.395734 0)
(0.958531 0.00436241 2.20091e-19)
(0.49933 0.18617 -4.00403e-19)
(1.01416 0.00506172 -1.36553e-19)
(1.03883 0.0112436 0)
(1.14465 -0.0468516 1.69741e-23)
(1.0106 0.022741 -9.09915e-20)
(0.970623 -0.0166052 2.40668e-19)
(1.06422 0.0918969 -3.64946e-21)
(1.01797 -0.00447082 -6.73697e-21)
(-0.0817577 -0.0178223 4.0277e-19)
(2.22245 0.139314 2.52789e-19)
(1.0267 0.0149202 7.52373e-21)
(0.810587 0.00793119 -3.31572e-19)
(0.929807 0.0276561 0)
(1.02544 0.0102825 4.52447e-21)
(1.01828 -0.0156616 -2.63676e-20)
(0.947886 0.0208742 0)
(1.0356 -0.00993997 -1.67897e-19)
(1.01623 -0.0112446 -7.90213e-21)
(-0.00224867 0.128123 1.02747e-20)
(2.14917 -0.500332 0)
(0.525854 -0.243188 6.01104e-20)
(1.45141 -0.355358 0)
(0.999678 -0.00993027 4.91236e-20)
(1.0349 0.0148911 -1.08187e-22)
(1.00695 0.0042784 1.42944e-19)
(-0.0221882 -0.47338 3.86739e-20)
(1.01266 0.00421524 0)
(0.99642 -0.00146083 -3.43063e-19)
(0.984561 0.0110768 1.80579e-19)
(1.03279 0.00202385 0)
(1.03148 -0.00463571 2.62542e-22)