/*--------------------------------*- C++ -*----------------------------------*\
| =========                 |                                                 |
| \\      /  F ield         | OpenFOAM: The Open Source CFD Toolbox           |
|  \\    /   O peration     | Version:  2306                                  |
|   \\  /    A nd           | Website:  www.openfoam.com                      |
|    \\/     M anipulation  |                                                 |
\*---------------------------------------------------------------------------*/
FoamFile
{
    version     2.0;
    format      ascii;
    arch        "LSB;label=32;scalar=64";
    class       volVectorField;
    location    "42.2";
    object      U;
}
// * * * * * * * * * * * * * * * * * * * * * * * * * * * * * * * * * * * * * //

dimensions      [0 1 -1 0 0 0 0];

internalField   nonuniform List<vector> 
2186
(
(1.28983 -0.060408 2.06143e-19)
(1.66635 -0.931814 -1.18994e-19)
(1.4914 -0.909977 -6.52656e-23)
(0.736954 -0.573981 -1.39252e-19)
(-0.0551049 0.404258 -1.84317e-19)
(0.248958 0.917777 0)
(0.737423 -0.67978 0)
(-0.0524117 -0.0161171 1.25031e-19)
(1.78066 0.144265 1.96454e-19)
(0.550085 -0.295299 -2.73746e-21)
(0.686268 0.620649 0)
(1.09691 -0.245707 -1.69946e-19)
(-0.0456279 0.0305684 -4.82247e-20)
(1.20631 0.0264872 -3.70322e-19)
(1.86077 -0.635431 -1.21605e-19)
(1.01358 0.000503895 1.77909e-19)
(0.97937 0.0114155 0)
(-0.162649 1.04485 0)
(0.818622 0.915706 0)
(-0.132663 0.191629 -4.58143e-20)
(0.487618 0.11281 -1.15136e-19)
(-0.223328 0.216164 6.18165e-20)
(1.19547 0.0293012 3.06602e-19)
(-0.169679 -0.11583 5.5095e-21)
(1.03112 0.0123555 -2.41139e-19)
(0.788032 -0.547301 0)
(0.761565 -0.0185913 1.44146e-19)
(0.62239 -0.601522 -1.56863e-19)
(1.22837 0.728864 0)
(0.965284 0.0259364 -3.29275e-19)
(-0.0531656 0.0655405 0)
(1.02608 -0.00733579 1.1412e-20)
(-0.2203 0.0790343 0)
(1.68835 -0.0566302 -6.27411e-20)
(-0.145626 -0.163137 -6.42166e-23)
(1.5567 0.79361 1.23922e-19)
(1.49479 -0.0684146 -3.01509e-20)
(0.515616 0.160849 -3.44404e-19)
(1.95826 0.28169 -1.5394e-19)
(0.711902 0.686503 -6.16976e-20)
(-0.0673051 0.0302695 0)
(-0.179799 0.158599 0)
(1.97405 -0.832935 1.12441e-19)
(-0.470454 0.13126 0)
(1.12057 0.293342 1.68355e-19)
(0.595128 -0.277952 2.77829e-19)
(0.946376 -0.799965 0)
(1.19347 -0.779252 9.0698e-20)
(2.36134 -0.582647 0)
(-0.253065 0.802107 1.44352e-19)
(-0.0514119 0.103455 6.77023e-20)
(0.632075 0.584048 8.95555e-20)
(2.13133 -0.662826 1.32841e-19)
(0.602655 0.292877 -2.79605e-19)
(-0.380175 -0.115628 2.4302e-20)
(0.7667 -0.649002 0)
(1.77385 -0.964439 2.2266e-20)
(0.591564 -0.550324 0)
(2.38185 0.191361 5.6769e-20)
(1.12475 -0.161158 -3.33993e-19)
(1.27968 -0.247941 2.03247e-20)
(1.37009 0.307831 -2.11271e-19)
(1.37041 0.553254 0)
(1.22777 0.613739 6.76452e-20)
(1.39278 0.39912 -1.35907e-19)
(1.25948 -0.722994 -1.21457e-19)
(1.18819 0.677323 6.14924e-20)
(0.685793 0.0872445 -5.59278e-19)
(0.81964 0.0695643 0)
(2.21078 0.130881 -5.56034e-20)
(-0.075735 -0.0151006 -1.48782e-19)
(1.93016 -0.561635 -5.36358e-20)
(0.72723 -0.0219037 -2.44936e-19)
(0.873054 -0.508677 0)
(0.83275 0.192914 -9.24712e-20)
(0.551555 -0.509307 -2.86059e-19)
(2.21939 -0.514699 0)
(1.0067 0.00869191 3.62846e-19)
(-0.142608 -0.188035 0)
(2.04005 0.419063 0)
(0.843597 0.538534 7.5035e-20)
(0.897874 0.399844 7.81724e-20)
(1.02213 0.00867935 4.00295e-20)
(1.33359 0.426734 3.33739e-20)
(0.971162 0.0249823 4.18819e-19)
(1.03926 0.0312861 -9.9699e-21)
(0.672666 0.194313 -3.37127e-19)
(0.607055 0.980981 3.14486e-21)
(0.536346 0.115972 0)
(-0.0744662 -0.0808641 1.25989e-19)
(0.860472 -0.615567 -1.51369e-19)
(-0.18594 0.092542 -4.75213e-21)
(1.10896 -0.0690387 2.37142e-19)
(0.815167 -0.172562 0)
(0.974042 0.0239047 4.02e-20)
(1.38611 0.659758 0)
(1.65598 -0.932541 0)
(1.31926 0.232167 0)
(-0.231643 0.761457 0)
(0.790163 -0.661003 2.72312e-19)
(0.967972 0.211478 -2.98108e-19)
(0.995258 0.520749 1.77072e-19)
(1.58915 0.19423 0)
(1.14333 -0.0940381 -2.16788e-19)
(1.12678 0.0238127 1.79298e-19)
(-0.257495 0.361737 7.85271e-20)
(0.65038 0.52326 0)
(1.91723 -0.00706706 -7.12504e-20)
(0.966323 -0.470285 7.60188e-20)
(-0.599386 -0.268766 1.66923e-19)
(1.78767 0.307328 7.77568e-20)
(-0.227574 0.562525 -2.39225e-19)
(0.834026 -0.755625 0)
(0.576965 0.370431 1.6998e-19)
(1.86445 0.042147 -5.99512e-19)
(0.044169 0.281602 -4.51624e-19)
(1.97268 1.02884 1.24895e-19)
(2.10512 -0.797143 0)
(-0.0978156 -0.114437 -3.76275e-19)
(0.710605 -0.0605082 7.70127e-20)
(1.57866 0.898094 0)
(-0.140592 0.855728 -1.83385e-19)
(0.899315 0.773599 -2.99018e-19)
(-0.222956 1.05542 3.47763e-19)
(1.02883 -0.0231835 0)
(2.07298 0.96095 -1.57416e-19)
(-0.119377 0.482585 0)
(0.69353 -0.483198 -1.02088e-19)
(-0.189071 1.07322 -1.82537e-19)
(0.802697 -0.731744 0)
(0.429533 -0.255288 4.06999e-19)
(0.540049 -0.447402 2.70171e-19)
(0.432948 -0.391502 0)
(0.993895 -0.782004 -1.06958e-19)
(0.858704 0.32841 0)
(-0.244477 0.841255 -1.13308e-19)
(0.814618 -0.697388 1.28229e-19)
(2.07697 0.0550047 2.05603e-19)
(2.24905 0.118467 0)
(-0.11251 -0.0848949 0)
(0.689592 0.639684 -3.79547e-19)
(1.79891 -0.561932 2.26079e-20)
(-0.0488846 -0.0337135 0)
(0.989369 -0.805894 -1.18652e-20)
(1.13798 -0.0899453 0)
(1.07634 -0.113426 3.7463e-19)
(1.95632 -0.0207581 -8.94291e-20)
(-0.134325 0.642351 0)
(1.22372 -0.540423 -4.6739e-20)
(-0.317372 0.23861 -3.03172e-20)
(-0.0568085 0.0784598 0)
(1.10473 -0.812427 1.38799e-20)
(1.0073 0.00375493 -6.06118e-19)
(0.648981 -0.470152 -1.00983e-20)
(0.817281 -0.507768 0)
(1.20853 -0.7221 -7.73788e-20)
(0.662849 0.254007 2.62226e-19)
(1.2335 0.109536 0)
(1.52678 0.0980925 -3.58875e-19)
(1.21251 -0.854458 -1.47435e-19)
(-0.117028 -0.0962834 -1.32285e-19)
(-0.312756 0.312674 -1.8013e-19)
(1.07755 0.00742796 2.33291e-19)
(0.918556 -0.454359 -9.55981e-20)
(0.493021 1.10624 -2.91237e-21)
(0.690633 1.37529 8.85961e-21)
(0.965941 -0.123956 1.55336e-19)
(0.0450261 -0.0266149 -3.48509e-19)
(0.965571 0.00132779 0)
(1.45712 0.00954953 7.68589e-22)
(1.46767 0.665555 1.80538e-19)
(0.807577 -0.607459 -1.9862e-19)
(0.995316 0.00840093 1.2414e-20)
(0.71945 -0.521308 2.80615e-19)
(1.32281 0.816663 1.57793e-19)
(1.90067 0.0516048 1.07248e-22)
(-0.143141 0.708226 0)
(1.08863 0.0625678 -2.44046e-19)
(-0.581338 0.938116 -2.08401e-19)
(1.08744 0.502134 8.72172e-20)
(0.427023 -0.111492 2.10365e-19)
(1.16511 0.0291776 -4.28982e-20)
(-0.243226 0.0498722 -1.13678e-19)
(1.31165 0.593846 -9.46637e-20)
(1.15304 0.89963 0)
(-0.190236 0.858442 -1.01306e-19)
(0.126989 0.253787 0)
(0.662878 0.574355 -2.88693e-19)
(2.1221 0.238073 -8.16723e-21)
(-0.0298166 0.0929584 1.56034e-19)
(-0.321758 0.869742 -5.88151e-19)
(0.728536 0.0877599 2.4586e-19)
(2.26181 -0.0620802 -4.37337e-20)
(0.979453 -0.335793 -2.83119e-20)
(-0.0888072 -0.0830052 0)
(-0.159536 -1.02555 3.47575e-19)
(1.33913 0.98507 -4.8726e-20)
(0.840698 0.0862243 -1.36183e-19)
(0.557162 0.52379 2.02298e-19)
(0.394446 0.195044 0)
(-0.20902 0.00658378 -2.4237e-19)
(-0.0671192 -1.46025 2.21345e-19)
(1.32698 -0.964508 1.56436e-22)
(0.989523 -0.0242037 -1.87302e-19)
(-0.0940716 -0.163357 4.471e-21)
(0.152147 -0.14993 1.49514e-19)
(-0.188427 -0.240293 -2.45606e-19)
(2.09698 -0.806902 0)
(1.13923 0.049599 -3.30607e-19)
(2.29603 -0.0707397 1.13511e-19)
(1.28038 -0.601016 7.91152e-20)
(1.00044 0.133918 -2.92505e-20)
(0.600985 0.34719 0)
(0.957557 0.763007 -1.78776e-20)
(0.687235 0.633135 1.98391e-19)
(0.898293 -0.556017 1.37015e-19)
(0.697953 0.518061 0)
(1.02246 0.00502001 8.05814e-21)
(0.884076 -0.658729 1.94845e-19)
(0.851276 0.43646 -4.73859e-19)
(1.18365 -0.100642 0)
(0.06008 0.13104 -3.2389e-19)
(-0.189165 0.148575 -7.24692e-20)
(1.60924 0.741187 0)
(1.37505 -0.932797 -1.33894e-22)
(-0.139086 0.983057 0)
(-0.0111776 0.239401 1.14674e-19)
(0.747624 0.664021 -1.03508e-19)
(0.847054 -0.203332 0)
(-0.102653 -0.167081 0)
(1.83075 -0.380591 0)
(0.674528 -0.560547 6.79828e-19)
(1.22958 -0.881056 9.69347e-20)
(1.18266 -0.592576 5.19083e-20)
(1.03432 -0.162665 -1.49324e-19)
(0.878933 -0.687667 -1.52911e-19)
(0.194755 -0.198022 0)
(-0.404562 1.10395 0)
(1.00272 -0.499243 1.57643e-19)
(-0.08884 -0.061329 0)
(-0.197117 0.848893 0)
(0.0123446 0.348712 3.91274e-19)
(0.805801 0.682877 8.98168e-20)
(1.02714 0.80612 0)
(0.710499 0.569755 -8.78489e-20)
(0.831916 -0.0299639 -2.20363e-19)
(0.75855 0.576325 -2.36187e-19)
(0.594651 0.553951 -1.74186e-19)
(-0.109688 -0.0485431 -9.59805e-22)
(0.729314 -0.651226 0)
(0.907109 0.18639 -3.29197e-19)
(-0.102269 -0.0166833 6.59449e-20)
(0.60364 0.560891 3.98041e-19)
(0.971205 0.809669 0)
(0.515296 0.0771095 4.933e-19)
(-0.248191 -0.114574 4.20464e-19)
(-0.131197 0.0540847 -2.25894e-19)
(0.676106 0.58419 -1.52327e-20)
(0.969165 -0.00822076 5.90597e-20)
(-0.0778708 0.0748809 0)
(1.78317 0.14906 -8.58064e-20)
(1.51794 -0.788611 -2.33967e-20)
(0.66174 -0.611189 -6.94381e-20)
(0.0865362 1.05617 1.2147e-20)
(1.20893 0.470125 2.03915e-19)
(0.898871 0.427954 0)
(1.04269 -0.161941 1.81341e-19)
(-0.21138 -0.0876783 6.9061e-21)
(-0.12978 0.0153631 2.65446e-19)
(0.915725 0.0218513 -5.1531e-20)
(1.12517 0.141073 0)
(1.57389 0.0777696 -1.35442e-19)
(1.97002 0.0869728 0)
(0.55433 0.271477 -4.56625e-19)
(0.159196 -0.153043 0)
(-0.0835493 -0.0385709 2.92607e-19)
(0.690203 0.0905964 0)
(0.61705 -0.504352 -1.73438e-19)
(1.13867 0.0211479 2.04874e-19)
(-0.166487 0.789669 4.0141e-20)
(1.92695 -0.163169 -2.21851e-21)
(2.041 -0.0203945 -1.31254e-19)
(1.12322 0.235614 -2.32763e-19)
(-0.101896 0.00983107 -1.22585e-19)
(1.08557 -0.85121 0)
(0.808961 0.0161856 -1.49185e-19)
(0.925983 -0.367053 -2.72291e-19)
(1.73413 -0.527255 -9.75538e-21)
(1.55666 -0.0133078 1.43136e-19)
(1.08412 -0.00652873 3.93128e-19)
(-0.122035 0.012148 -1.94464e-19)
(0.993193 -0.427283 -1.15204e-19)
(0.203627 -0.19595 2.45636e-19)
(1.0078 -0.00828401 0)
(1.00489 -0.00672261 0)
(1.20191 -1.12537 4.27878e-20)
(-0.189448 0.69662 -7.51766e-20)
(0.27302 -0.102352 -1.82969e-19)
(1.58857 -0.201368 1.93637e-20)
(1.7886 -0.529533 0)
(2.29249 -0.175465 -8.51075e-20)
(0.967794 -0.835561 -5.91349e-20)
(1.84449 -0.492596 -1.00268e-19)
(1.11929 0.848882 0)
(0.476668 -0.456514 0)
(0.616125 0.532593 -1.80684e-19)
(1.11232 0.289059 -4.33367e-19)
(2.06303 -0.0414625 3.62878e-22)
(0.870885 0.169911 1.40704e-19)
(-0.222036 0.0742527 -5.12063e-19)
(0.897871 0.24931 7.26472e-20)
(-0.22774 0.135339 0)
(-0.14258 -0.10436 0)
(-0.0880734 0.177114 0)
(1.35365 -0.706393 -5.55181e-20)
(-0.0797193 0.0830992 -1.94269e-19)
(0.0312938 -0.113498 0)
(1.30009 0.986025 -4.95529e-20)
(1.11799 0.158806 -4.45699e-19)
(2.18167 -0.257777 3.58065e-21)
(1.08914 0.929679 1.07456e-19)
(-0.247916 0.472739 1.19671e-19)
(0.850464 0.269611 0)
(-0.0852334 0.245814 -3.19573e-19)
(-0.157114 0.382461 2.38255e-19)
(0.782864 0.0434494 1.81105e-19)
(1.54645 0.962635 -4.42144e-20)
(1.98726 0.423651 -1.69474e-19)
(-0.210817 0.0509701 -5.78251e-21)
(0.758248 -0.68912 -3.26731e-20)
(1.16926 -0.00667732 0)
(1.70956 -0.00623147 0)
(0.984064 0.0455791 0)
(0.162739 -1.24727 -1.48348e-19)
(-0.136779 0.164957 1.12285e-19)
(1.06029 0.85585 0)
(0.996991 0.00238525 5.02463e-19)
(0.780575 0.619463 -2.37641e-19)
(0.230278 -1.05152 -1.55523e-19)
(0.867759 0.0286198 -4.06431e-20)
(0.72119 -0.656805 -1.98233e-19)
(1.40289 0.724684 -4.38007e-20)
(0.55944 -0.438995 -2.82128e-19)
(1.12724 0.00475053 -4.61937e-19)
(0.805093 0.0387483 4.32188e-20)
(1.48476 -0.147382 4.95974e-20)
(0.552071 -0.0272979 -3.39456e-20)
(-0.0731521 -0.0681741 -7.12888e-22)
(1.0908 0.480873 -2.88736e-19)
(1.31215 0.628342 4.75617e-20)
(-0.139964 -0.0358448 0)
(-0.240066 0.118239 1.86618e-19)
(0.109791 0.31682 1.37754e-19)
(-0.137936 -0.196595 -1.75035e-19)
(0.486432 0.33879 0)
(1.37915 -0.821598 0)
(0.00460931 -0.0165981 -9.54151e-20)
(-0.132613 -0.0334729 -6.45089e-20)
(1.0475 -0.0288183 1.83056e-19)
(-0.0819697 0.51171 -4.89186e-20)
(2.15182 -0.619797 -4.82013e-19)
(-0.277581 0.686472 0)
(0.842317 -0.743758 -2.63117e-19)
(0.618161 0.27755 4.23724e-20)
(-0.434935 0.625922 1.38504e-19)
(0.723098 0.174585 3.28798e-19)
(0.629001 0.15449 1.05601e-19)
(0.506945 -0.477715 1.91884e-19)
(-0.0505357 -0.024195 -1.52096e-19)
(2.12583 0.327946 0)
(0.403021 0.364182 -1.93354e-19)
(1.03002 -0.0129063 -2.90369e-19)
(-0.334071 0.940153 2.33092e-19)
(1.43539 0.496113 -1.54475e-19)
(-0.0889365 -0.057632 -6.12902e-20)
(0.720356 -0.653696 -1.88267e-20)
(0.82179 0.200713 -2.09398e-19)
(0.989518 0.437938 2.43296e-20)
(1.14606 -0.134375 3.23202e-20)
(0.606481 -0.214085 -2.91435e-19)
(1.98363 -0.192897 -1.80655e-19)
(0.407996 -0.103378 0)
(2.07887 -0.258786 3.22298e-22)
(1.34504 -0.0100554 -1.49816e-20)
(1.1132 0.366624 1.13542e-19)
(0.893418 0.379616 -1.26239e-19)
(0.828443 0.439672 -1.29466e-19)
(0.424577 0.39891 -2.53018e-19)
(0.0826274 0.91005 1.6831e-19)
(1.99483 0.289087 0)
(0.944577 0.00889915 0)
(0.888689 -0.783191 4.84677e-20)
(-0.239052 -0.1009 -4.61502e-19)
(-0.0437846 0.987465 -2.60745e-19)
(-0.0771501 -0.0686464 -2.73033e-19)
(-0.225277 0.955994 -1.35452e-19)
(-0.271789 0.291629 0)
(-0.143401 -0.11575 5.12508e-20)
(-0.0630519 0.352139 -6.0911e-20)
(0.160508 -0.141664 -3.41327e-19)
(0.805387 -0.0963461 0)
(1.35569 -0.368608 -4.19764e-22)
(0.0674302 0.159765 0)
(0.99497 0.0237954 3.6413e-19)
(-0.234706 0.232016 1.76892e-20)
(0.536249 -0.411414 3.78129e-19)
(-0.604532 0.96964 3.46591e-19)
(-0.281058 0.211308 0)
(0.0145815 0.578553 6.13189e-20)
(1.00304 0.0260682 -1.09441e-20)
(0.104303 -0.0976327 0)
(1.00388 -0.00947259 -5.71413e-20)
(0.862147 -0.7256 -2.56537e-19)
(1.5439 -1.07753 0)
(0.933381 -0.261143 1.95e-19)
(0.0216054 0.729964 1.53253e-19)
(-0.0829357 -0.085015 0)
(-0.211845 0.0283193 -6.58006e-21)
(0.725892 -0.630958 -3.94922e-19)
(0.94491 -0.0198771 -2.55558e-19)
(-0.240762 -0.084384 5.53551e-19)
(-0.109619 -0.0628826 1.86658e-19)
(-0.260229 0.211124 0)
(0.972918 0.488312 0)
(-0.328037 0.433503 1.75833e-19)
(1.4807 0.141536 -3.66071e-20)
(1.08704 0.906864 2.22405e-20)
(1.08443 0.219622 -1.29104e-19)
(1.12279 0.00532725 -2.08163e-19)
(1.02648 -0.0619259 -7.09329e-20)
(-0.234753 -0.07747 -4.90907e-19)
(1.93084 0.021721 1.84161e-19)
(0.684808 0.0428296 2.2307e-19)
(1.37135 0.0686923 1.62727e-20)
(1.02325 -0.141631 0)
(-0.622665 0.0928108 1.38956e-19)
(1.14669 0.0265386 -4.93475e-19)
(1.77582 0.639648 4.18067e-20)
(0.738408 -0.443188 -1.52972e-19)
(-0.104217 -0.116134 2.81333e-19)
(0.803829 -0.70176 3.39271e-19)
(1.24726 0.203177 8.38828e-20)
(1.00661 -0.00882361 2.53134e-19)
(-0.196308 0.0743271 -2.01944e-19)
(1.02845 0.0218317 0)
(1.56407 -0.148326 9.14079e-20)
(-0.102319 -0.100726 0)
(1.01419 0.0148677 -1.47985e-19)
(0.384439 -0.356242 -7.54812e-19)
(1.77816 0.340423 6.056e-20)
(0.0777072 0.393491 1.79011e-19)
(1.62516 0.0411713 2.64005e-20)
(1.01495 -0.0166563 5.26994e-20)
(1.2414 -0.0937593 0)
(1.4537 -0.581119 -9.28438e-20)
(1.02699 0.041846 -1.57531e-19)
(1.45857 0.805604 -9.61525e-20)
(1.21351 -0.0498142 0)
(1.41399 0.0836927 -2.67379e-20)
(-0.00721799 -0.0134742 0)
(1.27357 0.0659158 0)
(-0.119165 0.0869817 0)
(1.2623 0.459977 0)
(1.90451 0.281552 2.33237e-20)
(0.753963 0.629628 4.16918e-19)
(0.300839 -0.30256 -2.27145e-19)
(-0.138125 -0.0531302 -4.32228e-19)
(-0.0982399 -0.0923246 0)
(1.73824 -0.47711 6.02806e-20)
(1.32092 0.540855 0)
(1.49059 0.303076 0)
(-0.126033 0.315457 1.39426e-19)
(0.816324 0.721707 1.40905e-19)
(1.5791 0.0298794 0)
(-0.0260941 0.0269794 9.31147e-20)
(0.916387 0.232962 1.93202e-19)
(1.31089 -0.33852 -1.60516e-21)
(1.25636 0.940414 5.69779e-20)
(0.947698 -0.848706 -2.1752e-20)
(-0.00782032 -0.0882322 -1.06697e-20)
(0.801179 0.723778 1.4609e-19)
(1.19118 0.936901 0)
(1.96165 -0.695879 5.95805e-20)
(-0.319667 -0.0104537 0)
(0.917459 -0.17052 -6.04433e-20)
(1.01337 0.103895 1.24714e-19)
(1.00582 -0.0052908 0)
(-0.722206 -0.225338 1.09181e-19)
(0.891565 -0.15961 4.57096e-20)
(0.624566 -0.393351 0)
(0.666765 -0.367363 2.03691e-19)
(1.25553 0.570381 -3.83544e-20)
(0.476278 0.450754 2.83798e-19)
(0.16798 -0.111325 4.14474e-20)
(-0.0274323 -0.0495984 5.85047e-20)
(0.748847 0.0526412 0)
(1.34502 -0.895859 -3.30949e-20)
(1.03732 -0.0440421 4.07466e-19)
(1.51942 0.349437 1.00026e-19)
(-0.0179217 0.0831528 7.87044e-20)
(-0.752829 1.08467 0)
(1.21805 -0.223222 -1.01105e-19)
(-0.0850138 -0.0820291 -2.35739e-19)
(-0.77376 0.605458 -1.95914e-20)
(-0.131533 0.0428419 -4.98667e-22)
(-0.208141 0.091463 2.13419e-19)
(0.411429 1.01422 1.67974e-20)
(1.83796 0.0674277 1.14989e-19)
(1.2094 0.474018 -3.28842e-19)
(0.915084 -0.0543139 0)
(1.83776 -0.05952 1.01505e-19)
(1.51192 0.0662892 5.09653e-20)
(0.915982 -0.766013 1.2317e-19)
(1.19255 -0.991567 -1.2289e-20)
(0.479849 0.446564 1.92391e-19)
(0.217994 0.439894 0)
(1.78108 0.596658 -2.37643e-21)
(-0.0953591 -0.0941357 -4.79244e-19)
(0.895083 0.780936 0)
(2.08229 0.590019 0)
(0.30156 -0.300003 -4.32098e-21)
(0.332575 0.320582 0)
(-0.626189 0.945424 -3.43776e-19)
(0.0736502 0.0156587 -1.17284e-19)
(1.83827 -0.344897 0)
(1.2927 0.0410454 2.70103e-19)
(0.147166 0.819482 2.16052e-19)
(0.540748 -0.513198 -4.32767e-19)
(1.46937 0.0511379 -1.32401e-20)
(0.61948 -0.559925 0)
(1.03706 0.132726 0)
(1.51367 -0.199245 0)
(1.13198 0.236245 -2.51123e-19)
(1.37362 0.112579 3.58374e-19)
(-0.160997 0.125848 0)
(0.858657 -0.0461869 0)
(1.71581 -0.190882 1.45733e-20)
(-0.0616282 -0.0488543 7.85298e-20)
(2.3753 -0.308161 -1.57861e-19)
(1.20526 -0.525782 2.49828e-19)
(1.85084 -0.064468 -1.11938e-19)
(-0.250316 1.09764 -1.50853e-19)
(2.02194 0.102696 -7.90749e-20)
(1.01673 -0.0169036 4.09774e-19)
(1.53653 0.617508 0)
(-0.120462 0.385999 3.20417e-20)
(1.01312 -0.83105 1.44563e-19)
(0.857116 -0.00376199 4.75059e-20)
(0.630082 -0.416885 0)
(1.90819 -0.436024 1.04177e-20)
(1.19724 -0.185583 1.31245e-19)
(1.14597 -0.50546 0)
(0.619081 -0.5745 3.89645e-19)
(2.00886 0.0629831 1.16224e-20)
(2.41432 -0.271433 3.86851e-19)
(-0.0448704 -0.0545922 -1.7789e-19)
(1.35138 0.634561 1.8164e-19)
(1.16392 0.419103 4.02462e-21)
(0.91617 0.387307 2.3351e-19)
(1.42463 0.229618 1.46374e-20)
(-0.224214 -0.0569692 -6.66466e-23)
(1.07633 0.373816 0)
(-0.112155 -0.095762 4.59339e-19)
(1.13751 -0.978696 0)
(1.06764 -0.642847 1.88987e-20)
(0.526692 0.328155 -3.57237e-20)
(1.18628 0.859554 1.91792e-21)
(-0.346332 0.514084 -3.47522e-19)
(1.00139 0.500006 1.87152e-19)
(0.0125325 -1.39801 1.63687e-19)
(0.705381 -0.0427837 0)
(1.14965 -0.306575 0)
(1.43068 -0.131308 -1.69944e-21)
(0.767143 -0.00782767 0)
(1.33764 -0.192332 -1.3505e-19)
(-0.44052 1.0487 4.9658e-19)
(1.96856 0.515791 -4.15758e-20)
(1.05236 -0.0331389 0)
(0.548732 -0.331171 9.99411e-20)
(1.00906 0.0256658 1.95454e-19)
(0.162334 -0.988515 1.94934e-21)
(-0.100546 1.00039 0)
(1.10234 -0.456426 4.30256e-19)
(0.752619 -0.258049 -1.05921e-22)
(1.09784 -0.485645 -1.87561e-19)
(2.40871 0.183853 7.89922e-20)
(1.30732 0.806093 0)
(0.880273 0.0241708 0)
(-0.038869 0.144023 -1.93435e-19)
(0.00601166 -0.0242026 1.07339e-19)
(0.963731 0.379903 -2.18342e-19)
(-0.141335 0.061619 -1.91283e-19)
(0.65896 0.427055 2.45079e-19)
(1.3154 0.219183 0)
(0.549587 -0.51042 0)
(0.315905 0.577993 -1.47267e-20)
(1.23062 -0.489173 -8.44958e-20)
(1.05849 -0.0280829 2.04443e-20)
(0.729691 -0.13748 1.15129e-19)
(-0.0741892 -0.0286151 -1.98277e-19)
(1.51877 0.085772 2.34543e-19)
(0.664762 0.619617 0)
(1.28938 0.710604 0)
(1.64488 0.257333 0)
(-0.248348 0.231911 -1.63367e-19)
(1.25231 0.576457 1.39836e-19)
(1.5513 0.115698 1.29282e-20)
(0.962379 -0.0145496 0)
(1.07833 0.182551 0)
(2.05282 -0.119077 -1.44482e-19)
(-0.360603 -0.972085 2.38615e-21)
(1.00528 0.00335245 -1.96322e-19)
(1.52838 0.495247 0)
(-0.100475 0.901357 0)
(1.25814 0.3275 3.21497e-19)
(1.0393 0.542068 -1.41354e-19)
(1.07306 0.0317415 0)
(1.12491 0.264011 0)
(2.01442 0.701903 -1.9519e-19)
(-0.197498 0.163194 -1.98006e-21)
(0.995184 0.0140476 0)
(0.720878 0.490987 -3.42863e-20)
(0.953457 -0.835713 0)
(1.00173 0.0169513 4.53593e-20)
(0.0624236 -0.897818 -1.36489e-19)
(0.902163 -0.310102 2.85708e-19)
(0.172976 -0.00931992 2.8307e-19)
(1.89915 0.0532078 2.25611e-19)
(1.80212 -0.103778 -5.56063e-20)
(0.771425 -0.0152679 0)
(1.00829 0.0122846 0)
(-0.558552 0.775868 0)
(0.667775 0.638926 -2.04764e-19)
(-0.032511 -0.0531045 1.35148e-19)
(1.18629 0.362196 -5.13034e-19)
(-0.20555 0.883653 0)
(0.844054 0.658852 1.77027e-19)
(1.00378 -0.320852 0)
(1.00523 -0.0017413 1.15038e-19)
(-0.733752 0.386449 7.14445e-21)
(1.04976 0.416143 2.77984e-19)
(1.54546 0.248618 0)
(2.22676 0.184575 -4.31052e-20)
(0.823055 -0.0988613 -3.53557e-19)
(-0.808814 1.04228 -4.69759e-19)
(-0.265654 0.00271131 0)
(0.889183 0.256872 1.79142e-19)
(1.82938 0.211745 0)
(0.789393 0.538242 3.76147e-19)
(-0.518967 0.903962 2.11423e-19)
(-0.00727867 -0.0879725 0)
(0.59372 0.564341 -7.4235e-20)
(1.02826 -0.631251 -1.32702e-19)
(0.474896 -0.224682 -1.19698e-19)
(1.01864 -0.00910806 0)
(0.104093 0.83872 -1.66162e-19)
(0.637871 -0.564977 7.65667e-20)
(0.916132 0.304161 0)
(1.71246 -0.581821 2.41118e-20)
(0.995854 0.848098 2.7432e-20)
(-0.00504972 -0.509129 1.16285e-19)
(0.541285 0.096215 -3.73052e-19)
(0.225936 -0.00501904 -5.4402e-19)
(-0.111179 -0.0781931 1.18179e-20)
(0.827708 0.375227 2.55036e-19)
(-0.056011 0.139575 -5.01836e-21)
(1.41972 -0.626398 3.05758e-21)
(1.02288 0.0162996 -3.38591e-19)
(-0.351013 0.416263 0)
(1.03302 0.0412961 -4.1149e-19)
(1.39515 0.0494525 -1.21727e-20)
(0.903413 0.704579 3.02547e-19)
(1.12524 -0.0594916 1.52482e-19)
(1.00395 -0.0196341 1.5663e-19)
(1.11182 1.05053 -2.73235e-21)
(0.0158363 0.0739853 5.7062e-23)
(1.80721 -0.846911 1.79934e-20)
(1.1068 -0.120556 -6.60904e-20)
(0.770937 0.0419631 7.5551e-20)
(0.90335 -0.277326 8.50577e-20)
(2.01115 -0.00390793 0)
(0.977501 0.74878 0)
(-0.618164 0.186959 -8.52958e-21)
(2.06408 0.192637 -1.63006e-22)
(-0.625251 0.992102 1.6938e-19)
(1.03049 -0.530446 -4.61217e-19)
(0.614084 -0.526181 3.70709e-19)
(1.38764 0.211388 -8.65177e-20)
(0.0872579 0.0892262 2.22522e-20)
(0.0168462 -0.126149 0)
(0.756797 0.130876 -6.71554e-21)
(0.707729 -0.392973 1.39744e-19)
(1.05553 0.775955 0)
(0.199663 -0.654171 0)
(0.990194 0.345851 0)
(-0.0687675 -0.0403355 -7.20182e-20)
(-0.191662 0.193806 0)
(0.0810517 -0.639577 -1.74262e-19)
(1.23642 0.185931 6.9725e-21)
(0.0616057 -0.333842 2.8477e-19)
(2.04939 0.176555 3.54872e-20)
(1.84808 0.482477 -1.07885e-20)
(2.00567 -0.169381 -3.08865e-20)
(-0.175916 0.00906541 -1.4761e-19)
(-0.213476 0.0791948 4.90812e-21)
(1.95409 0.0222481 0)
(0.68288 -0.0366457 0)
(1.001 -0.000754922 2.45293e-22)
(-0.308031 0.331281 0)
(1.26395 0.0534553 -6.79808e-20)
(0.680697 -0.0326178 0)
(1.04856 0.0061621 1.2289e-19)
(0.989196 0.0151646 -4.44417e-20)
(1.53383 0.170438 1.5662e-19)
(1.06602 -0.0149744 -9.38903e-22)
(0.944666 -0.18039 -5.16405e-20)
(1.02233 -0.0244244 3.60905e-19)
(0.670972 -0.606633 1.71731e-19)
(0.406253 -1.163 -3.09238e-19)
(1.94756 0.412166 7.25128e-21)
(0.00294272 -0.0312723 0)
(1.14122 0.808515 0)
(1.02638 0.00101658 0)
(1.00499 -0.768704 -8.95346e-20)
(1.06893 -0.907791 1.32324e-20)
(2.03211 0.751632 -5.72671e-20)
(-0.701693 0.239871 -2.67258e-19)
(0.0975417 0.292222 -3.41665e-20)
(0.582244 -0.366564 -6.10182e-19)
(2.14314 -0.0515456 -1.48078e-20)
(0.743629 0.654562 3.20675e-19)
(2.02624 -0.111358 1.16662e-19)
(1.82788 0.0871799 7.15457e-21)
(-0.0510458 0.000509202 -1.44167e-19)
(1.12885 0.566244 2.20125e-19)
(-0.175608 -0.209609 0)
(-0.20068 0.226182 3.81047e-19)
(-0.161051 -0.142197 -1.18911e-22)
(1.02859 -0.0447463 3.32804e-19)
(1.02283 0.00760862 -8.40685e-21)
(1.10667 -0.0082021 -9.17347e-20)
(1.02302 0.546121 3.24016e-21)
(1.66623 0.319588 8.37171e-20)
(0.401874 -0.374395 -3.01036e-19)
(1.6749 0.808564 1.07609e-19)
(1.03219 0.0083497 -2.38179e-19)
(2.36193 0.429513 -7.47105e-21)
(1.29886 0.521327 0)
(1.12621 0.604659 -4.14131e-19)
(1.0028 -0.00475116 9.37918e-20)
(0.68552 0.615537 2.67982e-19)
(0.170708 0.249328 -1.06227e-21)
(1.07064 -0.00757406 -3.079e-20)
(1.12957 0.0195389 8.67293e-22)
(2.40371 -0.133842 1.28462e-20)
(1.81799 0.174394 0)
(1.04307 -0.0403013 0)
(1.04807 -0.0350999 5.79658e-19)
(1.00253 -0.00348834 0)
(-0.122283 -0.105704 0)
(1.06889 -0.624896 0)
(1.00069 -0.00153923 -5.45469e-19)
(1.16103 -0.671977 6.83635e-20)
(1.02436 -0.000198405 1.13731e-20)
(1.35984 0.971211 -4.13802e-20)
(1.54288 1.01997 1.02143e-19)
(0.264438 0.396543 5.19401e-20)
(0.533289 0.225285 -6.85924e-20)
(1.81684 -0.180182 0)
(-0.227977 0.408014 0)
(1.59564 0.382101 4.93335e-20)
(0.811066 -0.579674 0)
(0.999322 -0.00563722 -1.69391e-19)
(1.01071 -0.00153733 3.29019e-19)
(1.47475 0.145652 -7.86609e-20)
(0.0540406 -0.10545 3.57823e-19)
(0.981247 0.00281343 1.80219e-19)
(0.785678 0.256796 -5.20138e-20)
(1.18317 0.151598 9.7879e-20)
(0.987104 0.2065 3.64662e-22)
(0.926842 0.0179946 -1.77954e-19)
(1.00351 0.00350898 2.1143e-19)
(1.00028 -0.0011562 1.25204e-20)
(0.788984 -0.0137087 0)
(0.727404 -0.0270025 0)
(0.723081 -0.0275445 4.81917e-22)
(0.699866 -0.0303557 0)
(0.168334 -0.0105815 0)
(0.775794 0.146886 0)
(1.43644 0.136697 -1.84308e-19)
(1.48317 0.159169 1.00428e-19)
(0.780928 0.752706 0)
(0.564326 0.422329 -3.74806e-21)
(0.701839 0.00947799 0)
(0.00488804 0.237535 0)
(0.261235 0.0838855 0)
(1.07227 0.432032 -9.93154e-23)
(2.05648 0.141897 -1.76361e-20)
(0.774536 0.0246705 0)
(0.786605 0.0200967 0)
(0.965458 0.021221 -2.19671e-19)
(0.814472 0.00741002 4.11458e-19)
(1.00834 -0.00138706 0)
(1.00015 -0.000923528 3.91292e-19)
(1.00038 -0.000911972 -4.3714e-22)
(0.784843 0.0228667 3.48443e-19)
(0.99842 -0.00438489 -2.06648e-19)
(0.661519 -0.0679273 0)
(1.12204 0.17444 -9.79821e-20)
(1.00075 -0.00188778 -1.98298e-19)
(0.999817 0.000462402 -3.394e-19)
(0.968177 -0.221471 0)
(0.999025 0.00111773 0)
(0.999637 -0.000108024 0)
(0.113149 0.201637 -5.55779e-20)
(0.74481 1.01246 -8.13921e-20)
(1.80021 0.847839 0)
(-0.024593 0.281318 2.26486e-19)
(-0.305558 -0.173732 -1.08415e-19)
(1.01996 -0.0108228 -2.64546e-19)
(-0.139807 0.0201377 -1.19218e-19)
(1.01902 0.0086437 -2.11706e-19)
(1.15066 -0.205775 -8.46776e-20)
(0.79487 -0.46038 2.8441e-19)
(-0.084842 -0.0775437 -1.1242e-19)
(1.02909 0.01545 0)
(1.06657 -0.0101482 -5.97156e-20)
(0.848671 0.0231409 0)
(-0.0881612 0.00943785 1.89291e-19)
(0.678408 -0.805372 0)
(-0.177653 0.204525 -2.88632e-19)
(1.45401 0.238422 4.96139e-20)
(1.67847 0.702252 -8.67439e-20)
(-0.0625251 -0.012776 0)
(1.05183 -0.0380667 1.79397e-19)
(0.401648 0.833507 -7.98743e-21)
(0.929905 0.00183152 2.79873e-19)
(1.01269 -0.00645235 -1.80669e-19)
(1.69321 0.882889 -2.50175e-21)
(0.527458 0.497014 0)
(0.4562 0.418943 2.02726e-19)
(0.582041 0.0108191 1.12746e-20)
(1.15759 0.129567 2.08632e-19)
(1.0902 -0.703958 0)
(1.02375 0.00662788 0)
(1.00016 -0.0180487 -4.15916e-19)
(1.01851 0.0172699 -4.01806e-19)
(-0.137572 -0.086488 0)
(1.23815 0.83671 -1.61072e-19)
(0.180391 0.64619 1.13081e-21)
(1.01537 0.00642329 1.55729e-19)
(1.01184 0.014206 -1.94139e-19)
(-0.180309 0.340878 -2.8203e-20)
(0.751701 0.869013 2.11533e-19)
(1.01873 -0.0105743 6.65699e-19)
(0.371096 0.457524 0)
(1.8855 0.673874 3.76921e-21)
(1.01606 -0.00853029 -2.06799e-19)
(1.48815 0.0366692 -1.7466e-20)
(1.06324 0.0135871 -4.83685e-22)
(1.0079 -0.00986343 4.14534e-20)
(1.86084 0.12441 -1.92078e-19)
(1.01728 0.00713114 1.99439e-19)
(1.35643 0.922865 3.47645e-21)
(1.01818 0.00820239 0)
(0.940968 0.163029 5.07467e-20)
(-0.58119 0.406608 4.74575e-21)
(0.998539 0.0228327 1.97721e-19)
(1.03993 0.0216407 -6.87847e-22)
(0.43679 0.615579 4.86589e-21)
(1.27872 0.325984 4.73384e-19)
(0.995672 0.0179417 1.35718e-19)
(1.01683 -0.0117578 3.52168e-22)
(1.79752 0.253973 -4.00628e-20)
(1.77894 0.960309 -7.83401e-20)
(0.785394 -0.702342 5.06999e-20)
(0.443372 -0.301902 -2.97544e-19)
(1.00763 -0.00891088 0)
(1.02167 0.00451612 4.95501e-20)
(1.01146 -0.00759259 1.05176e-19)
(1.24182 1.18755 -6.59164e-21)
(1.01508 0.00916827 -2.07755e-19)
(1.02785 -0.0168667 2.35659e-19)
(1.00827 -0.00731241 -1.96713e-19)
(1.01405 0.00819503 -4.93425e-22)
(1.0123 0.00431002 -2.79399e-22)
(1.02457 0.0166372 1.98621e-19)
(0.905857 0.0982703 5.1264e-19)
(0.937578 -0.897914 0)
(-0.0965698 0.720544 5.13384e-20)
(1.0108 -0.000214862 0)
(1.02178 -0.0115976 -5.80015e-20)
(1.55823 0.457565 -1.18776e-19)
(1.19469 0.0364742 0)
(1.62557 -0.722306 -6.29631e-20)
(0.373209 -0.890966 2.12284e-20)
(0.786529 -0.0220564 0)
(1.65976 0.229486 0)
(-0.0162504 -1.32027 -3.34157e-20)
(0.843333 0.877616 1.9441e-21)
(1.01812 -0.000778953 -2.09924e-19)
(1.11747 -0.552197 -5.26585e-20)
(0.701894 1.16892 5.17886e-20)
(1.28913 0.305339 0)
(0.303199 0.182219 0)
(1.65378 -0.469445 0)
(-0.165359 0.406586 4.13269e-20)
(1.18199 1.13347 -2.3763e-19)
(-0.0977745 -1.44394 0)
(0.118713 0.782915 -1.97826e-19)
(1.7181 0.986488 3.67553e-21)
(1.00781 -0.00166615 -4.09538e-19)
(1.19664 1.24097 -4.16421e-20)
(1.02083 0.0142811 2.70893e-19)
(0.709505 -0.0470554 0)
(-0.178463 -0.111863 -3.57316e-20)
(0.628638 0.454941 -3.46383e-19)
(1.30061 -0.5217 5.07245e-20)
(0.0324949 0.651746 0)
(0.773363 0.0788587 6.95358e-20)
(0.52267 0.501065 5.33623e-20)
(1.2032 0.898459 -4.43936e-20)
(-0.097362 -0.104638 1.77028e-19)
(1.02422 0.0176147 0)
(1.31921 0.774364 -1.96488e-19)
(1.0118 0.000513616 1.54073e-19)
(2.44074 0.0229161 0)
(1.01257 0.00937587 2.57862e-19)
(-0.0127994 0.232603 -1.85273e-19)
(1.01898 0.0149823 -1.59921e-19)
(2.01247 1.21852 0)
(1.78938 -0.71239 1.14567e-22)
(1.00938 0.00469873 -1.07164e-19)
(0.996973 -0.0197214 2.82546e-19)
(1.09973 0.104089 -1.72863e-21)
(1.41147 0.466064 2.37315e-19)
(-0.0984983 -0.148114 4.69916e-19)
(2.05378 0.287258 9.66643e-20)
(0.81057 0.13738 -2.62001e-19)
(0.799922 0.0143601 -3.85538e-19)
(0.813582 0.0318525 0)
(0.73897 0.757178 -1.46661e-19)
(1.02234 -0.00807861 -3.12046e-20)
(0.970477 0.0377302 0)
(1.05142 0.00660828 -1.99558e-19)
(0.357995 -0.781381 1.41889e-19)
(-0.531769 0.802576 1.88176e-19)
(2.17345 -0.439671 0)
(0.246922 0.180356 -8.92362e-19)
(1.4951 -0.31847 0)
(1.03985 -0.0164778 5.82534e-20)
(1.23821 0.1771 -5.2438e-22)
(1.01335 0.0032057 1.66149e-19)
(-0.0155513 0.721113 4.85709e-19)
(1.01913 0.00518385 0)
(0.994186 0.00353064 -4.02607e-19)
(1.00918 0.00820143 2.11478e-19)
(1.48431 0.459533 0)
(1.02155 -0.350106 -8.41747e-21)
(0.955936 -0.00153133 -1.80675e-19)
(-0.163599 -0.0233626 4.44829e-19)
(1.00431 -0.00185336 -2.06335e-19)
(0.998666 0.0339741 -4.84738e-19)