/*--------------------------------*- C++ -*----------------------------------*\
| =========                 |                                                 |
| \\      /  F ield         | OpenFOAM: The Open Source CFD Toolbox           |
|  \\    /   O peration     | Version:  2306                                  |
|   \\  /    A nd           | Website:  www.openfoam.com                      |
|    \\/     M anipulation  |                                                 |
\*---------------------------------------------------------------------------*/
FoamFile
{
    version     2.0;
    format      ascii;
    arch        "LSB;label=32;scalar=64";
    class       volScalarField;
    location    "16.6";
    object      p;
}
// * * * * * * * * * * * * * * * * * * * * * * * * * * * * * * * * * * * * * //

dimensions      [0 2 -2 0 0 0 0];

internalField   nonuniform List<scalar> 
2186
(
0.789709
-0.365338
-0.056975
1.08235
-0.796331
-0.0669778
0.673918
-1.03581
-1.05421
1.34042
1.08744
-0.966056
-1.04174
1.04083
-0.594917
1.04948
1.07225
-1.23301
0.00148111
-0.761784
1.44668
-0.740432
1.05216
-1.05019
1.04302
1.05678
1.26453
0.90437
0.631245
1.04287
-0.749438
1.04322
-0.695752
-1.17362
-0.962063
0.158402
-1.07638
1.4369
-0.73267
-0.118351
-1.05126
-0.727502
-0.708142
-0.839075
0.936266
1.32379
0.338079
0.511493
-1.62845
-0.904386
-0.753963
0.934197
-0.703719
1.37158
-0.709272
0.95589
-0.757826
0.984068
-0.840985
0.827821
-0.991452
0.668258
0.592177
-0.108905
0.604868
0.452919
0.70649
1.33343
1.22872
-1.09389
-1.04153
-1.07272
1.29927
1.01241
1.22009
1.17107
-1.32429
1.06686
-0.965251
-0.688131
-1.58505
-0.176395
1.03788
0.655094
1.03094
1.03871
1.34268
-0.0272567
-0.135428
-0.982786
0.959177
-0.755341
0.948588
1.19483
1.05246
0.46014
-0.182769
0.619412
-0.869556
0.998886
-1.93919
-1.86387
0.674888
0.97471
1.07399
-0.748658
1.26326
-0.821943
0.945722
-1.73695
-0.656064
-0.839563
0.536516
1.37094
-1.0031
-0.938623
-0.151425
-1.71987
-0.984143
1.30039
0.0276745
-1.08787
0.89415
-1.48394
1.05405
-0.130889
-0.823264
1.16321
-1.29902
0.654157
1.41505
1.25929
0.226594
0.646109
-1.67437
-0.927945
0.926027
-1.09218
-0.687655
-0.996709
0.838385
-0.23088
-1.02057
0.699477
0.935473
0.978635
-0.746277
-0.817019
0.611249
-0.798695
-0.780722
0.575031
1.06987
1.20334
1.05926
0.522737
1.34068
0.463991
0.367277
0.414075
-0.997418
-1.34488
1.02552
1.00273
-0.00714059
0.00545584
-0.893538
-0.930644
-0.226057
-0.253826
0.401294
1.0054
1.07297
1.1267
0.468066
-0.335863
-0.801813
1.02603
-1.62469
0.899356
-0.926333
1.05773
-0.754653
0.587016
0.571286
-0.839587
-0.807596
1.18285
-0.589039
-1.03052
-1.01567
1.30236
-1.64402
0.996422
-0.992819
-1.61029
0.134673
1.22219
1.11706
-0.746647
-1.12905
-1.08108
0.0668065
1.07247
-0.983721
-0.783598
-0.97978
-1.49421
0.993269
-1.31897
0.517489
-0.18486
1.35705
0.866393
0.962863
0.961744
1.23493
1.04625
0.90484
1.14929
0.368683
-0.883196
-0.726428
0.145464
0.17579
-1.23816
-0.813894
1.08524
1.16468
-0.943578
-0.912913
-2.0855
0.361779
0.65562
0.803071
0.90558
1.13706
-1.67258
0.897032
-1.00852
-0.912642
-0.923191
1.04531
0.768729
1.20233
1.21858
1.16115
1.13909
-1.03037
0.829977
1.16066
-1.05314
1.03203
0.815891
-2.12504
-0.981755
-0.953712
1.20398
1.07114
-1.05241
-1.31214
-0.63117
0.964674
-1.59442
0.790669
1.11815
0.889253
-1.01346
-0.752037
1.01868
0.659318
-0.756406
-0.585461
1.39619
-0.785504
-1.03035
0.867106
1.20676
1.03251
-0.859014
-1.11167
-0.934552
0.956268
-1.06434
0.541982
1.0178
1.04279
-0.226595
-0.593367
1.0101
-1.06995
0.946736
1.21707
1.06674
1.06417
-0.85483
-0.884886
-1.05079
-1.11061
-1.97114
-1.70809
0.37062
-0.594079
0.649129
1.19186
1.26012
0.960767
-0.782105
1.19106
-1.18979
-0.260301
-1.20594
-0.995012
-1.04018
0.343912
-0.781289
-0.770008
0.214093
0.971058
-0.37758
0.426957
-0.830041
-0.120598
-1.0135
-0.820514
1.26356
0.0367316
-0.0709107
-0.743617
0.793422
0.587603
-0.45523
0.531942
-0.946775
-1.07565
0.701663
1.06907
1.124
-1.42601
1.19625
0.897405
0.419291
1.27084
1.04597
0.974117
0.35785
-0.368439
-1.00382
0.913261
-0.84218
-0.956044
-1.23731
-0.842659
-0.98766
1.42239
-0.67829
-0.752985
-1.06027
1.04547
-0.781442
-2.0574
-0.875387
0.763881
-0.171396
-1.47407
1.30498
1.36677
1.14642
-1.02615
-0.102738
1.4383
1.04953
-1.05912
0.492496
-1.01545
0.160749
1.22875
1.03218
0.900767
1.33833
-0.56014
-0.480302
-0.337457
-0.927793
-1.52287
-0.732905
-0.208237
1.36731
-1.33156
-1.33821
1.03694
0.582
-0.990428
-1.74659
-1.00776
-1.09631
-1.31932
-0.987823
-0.73191
-0.77657
1.22888
-0.489434
-0.907208
1.05939
-1.31879
1.29009
-1.54413
-1.92195
-0.885774
1.04292
-0.928495
1.06978
0.855812
-1.14297
1.07135
-1.14137
-0.988585
-1.14214
1.02787
0.979349
-1.02425
-1.0199
-1.22688
1.03136
-1.49328
-1.8282
0.554646
0.993739
0.91071
0.726883
-1.04122
-1.07238
0.868281
-1.06556
0.834781
-1.81608
1.06519
0.00900475
1.1556
-0.985012
0.860695
0.740171
1.07688
-1.15907
1.0439
-0.821925
-0.987441
1.04584
-1.86124
0.162246
-0.877781
-0.1599
1.05215
0.0748169
0.282509
1.05153
0.287396
-0.192872
-0.114633
-0.753487
0.225214
-1.07561
0.744904
-0.631289
1.12266
1.155
-1.04425
-0.993738
-0.475827
-0.738982
0.464006
-1.01931
0.880372
-0.0869482
-1.03348
1.14926
-0.404852
0.419059
0.287943
-0.221633
0.842721
0.39172
-1.00371
-1.6287
-0.197885
-0.666646
1.06229
-1.82368
1.14251
1.25633
1.24378
0.695258
1.22163
-0.781407
-0.664031
0.930472
0.207767
1.03718
-0.732696
-1.02165
-1.75878
0.810842
-0.988251
-1.99806
-0.759704
-0.79825
0.00943467
-1.15857
0.779921
0.744813
-0.730798
-0.946775
0.755401
0.0622216
1.19052
-1.82882
-0.130018
-0.989888
0.805741
-0.143159
1.19615
1.4534
-1.78793
-0.794414
-0.881073
0.320776
-1.75058
1.05505
-0.977754
1.00925
0.798772
-0.994724
0.915656
0.876604
-1.91747
0.907384
-1.13719
-0.757289
-1.41998
-0.949628
-1.12493
-1.51979
-0.880198
1.04519
0.259775
-0.811722
0.590621
1.19178
1.24149
-0.383622
0.770486
-0.334346
0.782984
-0.180244
-1.60361
-0.762009
0.541388
0.859493
1.11318
-1.78249
-1.05645
-1.46976
-0.993593
-0.130517
0.737687
-2.00137
0.0316066
-1.24882
0.991718
-1.26345
1.00071
-0.824724
-0.685863
0.98667
0.672833
-1.64675
-0.127654
1.01144
1.32535
1.06794
-1.04209
-1.29835
0.813469
-0.687593
0.801041
-0.593937
0.490183
1.00854
-1.0214
-0.752747
1.07146
-1.21007
1.29754
-0.173317
0.886929
0.201597
0.631664
-0.811031
1.27602
-0.756193
-1.68138
1.01213
0.566706
0.535572
-1.20058
-0.749801
-1.03684
0.816826
-0.178821
-1.01731
-1.18405
1.06237
0.43354
-1.14254
0.788297
0.942866
1.03099
-1.89495
-0.676959
-0.754258
1.05905
1.2311
0.488853
1.05526
0.0711126
1.08307
0.195132
-0.926943
-0.522475
0.959592
1.00776
-1.63236
0.90068
-0.759167
0.852325
-0.882667
1.05304
0.97722
1.06315
-1.80432
0.973993
-1.56015
-0.831994
1.20843
-1.88497
-1.64953
1.16869
-1.31989
1.1604
-1.79959
-0.764256
1.09759
0.790619
1.3968
1.04394
-1.55114
1.10439
1.13818
-0.833296
0.68506
0.0603452
-0.907803
1.54045
-1.00613
1.1896
-0.786211
0.297297
1.04427
-1.287
1.0367
-1.62384
0.975763
0.987429
1.05755
0.0324201
-0.993041
-0.63407
0.59497
0.682858
1.09729
-0.234444
0.878594
-1.92647
-0.406136
-1.56914
0.8484
1.17074
-0.913539
-1.08437
-0.102813
1.28711
-0.115647
0.784304
-0.0940021
-1.96062
-1.02703
-0.759833
-0.99857
0.84725
-1.82858
-0.166837
-0.261528
-0.606235
-0.776937
-1.2138
-0.301153
1.01707
1.06551
-1.21858
-0.493573
1.03074
0.972867
1.06397
-1.85722
1.02936
1.08952
1.0387
1.0798
-1.5336
-0.20531
-0.753549
0.668424
1.04541
0.713395
0.145157
-0.192535
-1.83948
0.0681265
1.29149
-0.193777
0.261588
-0.729375
-0.160754
-1.03286
0.836297
-0.945062
-1.36741
-0.982203
1.04781
1.04622
1.05804
-0.0419508
0.387397
1.26534
-0.217923
1.04101
-0.211316
-0.0829696
0.812457
1.06474
1.14782
-0.0265502
1.02477
1.02293
-1.3256
-0.184508
1.0584
1.0703
1.06702
-0.992146
-1.0308
1.06607
0.614978
1.04778
0.265019
-0.0626821
0.125842
-1.74593
-0.446235
-0.765186
-1.64409
-0.333221
1.07219
1.07719
0.79922
-0.999425
1.04794
-0.235154
-0.265598
-0.0209807
1.04386
1.07067
1.06722
1.08065
1.05836
1.05205
1.04247
-0.10934
-0.2361
-0.114903
-0.206572
-0.0149643
0.0117225
-0.00296076
-0.125507
-0.199928
-0.222339
-0.149905
1.03816
1.05924
1.05348
1.07658
1.07527
1.06701
1.07035
1.04865
1.05632
-0.180065
-0.243294
1.06807
1.06632
-0.0218178
1.06847
1.06752
-0.0853534
0.139104
-0.232072
-0.766338
-1.63335
1.05038
-1.09016
1.04602
0.643952
1.10264
-1.00347
1.04694
0.993033
0.988377
-0.75064
-0.152549
-1.1118
-0.218115
0.0134445
-0.747401
1.06397
0.083335
1.13821
1.05451
-0.113293
1.2387
1.38921
-0.182598
0.925862
0.672674
1.04663
1.06529
1.05622
-1.00538
0.536833
-0.0239184
1.05313
1.06168
-1.07193
0.103877
1.05476
-0.0874456
-0.277152
1.05382
-1.12931
1.03606
1.06668
-1.06186
1.05858
0.17982
1.04938
1.13332
-2.01551
1.06387
1.07173
0.0215158
0.738696
1.05026
1.05663
0.211747
-0.664499
0.72522
1.38754
1.06287
1.05251
1.05768
0.176668
1.053
1.03655
1.05968
1.05316
1.05608
1.05179
1.16116
-0.675035
-2.16625
1.05453
1.04885
0.335931
-1.10609
-0.703376
-0.767865
0.926963
-1.57383
-0.611786
0.0153955
1.0505
0.741524
0.04401
0.0681545
-0.122247
-0.556162
-0.787903
0.140846
-0.61844
-1.35231
-0.266026
1.0574
0.0868253
1.04429
0.973363
-0.989436
1.31059
-0.45548
-1.03646
0.781347
1.19845
0.512699
-0.985424
1.05001
0.13857
1.0561
-1.10901
1.05616
-1.30303
1.04806
0.0543449
-0.782679
1.05854
1.07286
1.00279
0.165354
-0.982573
-0.674397
0.266404
1.0694
0.957308
0.196534
1.04894
1.09155
1.04274
0.352323
-1.86942
-0.696803
-1.91389
0.320478
1.0561
-0.117556
1.05153
-1.86896
1.05
1.08841
1.05959
-0.034776
-0.0467349
1.08538
-1.08792
1.06174
1.06519
0.000106354
-1.03316
1.00737
1.20261
1.04536
1.04387
0.355138
0.213222
1.01779
0.413322
1.06034
0.859622
-0.830022
-1.02463
0.90355
1.28914
1.05094
0.343311
-0.618768
0.417331
-2.08026
-0.463121
1.03151
-1.27777
1.03751
-1.3786
-0.996011
-0.791034
0.510151
-1.09344
-0.414367
-0.192681
1.04609
-0.983217
0.978715
-1.01074
-0.184487
0.158415
0.0278133
-0.296119
1.024
0.238336
-0.815626
-0.091106
-1.05567
1.03677
-0.432977
0.0360854
-2.00558
1.14796
-0.328019
-1.00798
1.11909
1.03443
1.02351
0.493098
-0.936935
1.05567
1.08378
-1.30392
-0.770713
1.04531
0.808501
1.31805
1.06755
-1.22305
-0.665215
-0.78915
-1.29253
-0.950689
-0.987737
-0.0101805
-1.15388
0.813314
-0.030017
1.05578
1.27103
1.04715
-0.987766
-1.13148
1.04879
-1.11692
-0.343238
1.0256
-0.341695
-0.752263
-1.87577
0.0615685
1.00417
0.978356
-1.08212
0.869368
0.747596
-1.59568
1.03043
-1.56099
0.871626
-0.680836
1.01649
-1.72558
0.428211
1.0493
1.16364
-2.09113
-1.67438
0.88972
1.42576
1.07019
1.08869
-0.913923
1.27649
-0.915749
-0.155526
-0.850063
0.47408
-2.16152
1.16215
1.19164
-1.01649
-1.3212
1.04725
-0.913868
0.875702
1.07933
1.02301
-1.95834
1.05039
-0.0304234
1.07685
-0.0517418
-0.076733
-0.0593547
1.05361
-0.235913
-0.39894
-0.27801
1.04079
-0.126338
1.25914
0.260613
1.39195
1.05841
-0.901135
1.0268
-0.762067
1.02788
1.02596
-0.0448642
-0.339911
1.19533
1.04061
1.29428
1.0097
0.0790492
1.01423
1.0342
0.93101
1.05801
-1.03384
-0.90202
-1.16016
1.14018
-1.49569
-0.390868
-0.758535
-1.54433
-0.117504
-0.12813
0.941447
0.088206
0.998733
1.05045
-0.775368
-1.26335
-0.995051
-1.41761
-0.972144
-0.762343
1.05618
-2.15425
1.06741
1.27156
1.1061
-0.134862
1.07391
0.989315
-1.49132
1.0015
1.03504
-0.851139
1.03431
1.01606
-0.156424
-1.16608
1.50772
-1.99948
-1.23807
-1.10038
0.234584
1.02596
-1.24672
-0.709692
-0.746386
1.1927
-0.586202
0.929958
1.0685
1.02954
-1.36314
1.00995
-2.28298
1.06387
1.07833
-0.363783
1.06772
0.584978
1.03478
0.728561
-1.96144
0.0106082
0.0106583
0.0679714
1.30512
-0.19973
1.08474
1.45701
-0.626384
-0.033284
1.11422
-0.0504184
1.11174
-0.0335752
-0.0520958
1.11328
1.11793
0.427918
-1.47607
0.841508
-0.654673
-0.84019
-0.591729
1.07494
1.04015
1.46487
-0.986003
-0.742582
0.753705
-1.11825
1.13358
1.06073
1.03184
1.04309
1.00177
-2.01273
-0.98681
-1.3304
0.883041
0.981614
-2.18755
-0.766461
-1.01559
1.06471
1.07845
-1.24369
-1.70364
1.08855
-1.23405
0.285695
0.854374
1.0008
-0.229518
-1.149
-0.165155
-0.996908
-0.691375
-2.07617
-1.70232
1.41123
1.43656
-0.743167
-0.936227
1.06516
1.04143
-0.940429
-0.0760071
-0.372928
0.735836
1.15126
-1.48212
1.05904
-1.28396
-1.13598
-0.969479
-1.18102
-0.834875
1.02687
-0.97935
-1.60645
1.42842
-1.00313
1.05972
1.29666
-0.765868
1.07052
1.28572
-0.783135
1.31878
-1.02133
-1.1587
1.09047
0.116485
1.03925
1.0611
-1.02982
1.10291
0.1439
-1.95721
1.09643
1.0579
-0.926084
-1.42797
1.00789
1.05195
-1.02776
-1.99351
1.35805
-1.03277
0.972825
-0.0148598
0.981273
-0.9527
-1.92737
-1.01521
-0.775948
1.17101
1.07675
1.32495
1.28286
1.05792
1.11499
1.14229
-1.00984
1.21099
1.17434
-0.783772
-1.03485
-0.906174
1.39806
-1.78568
-1.1345
0.129573
1.01852
-0.788474
-0.717243
1.10028
1.04659
-1.02074
-0.772809
-1.10389
0.0803045
-2.0003
-0.785636
-1.00415
0.972794
0.914845
-0.764824
-0.364133
-0.89516
0.925342
-1.03259
-0.76457
-0.999749
0.968742
-1.70775
-0.775957
1.36678
0.937582
0.401481
1.2301
0.182295
1.00534
1.0672
1.16716
1.24313
-0.227709
0.770989
1.08752
0.267897
-0.994916
1.48354
1.00377
0.944951
1.10485
-0.780561
-1.9973
0.888428
0.880159
1.01046
-2.0751
-1.90482
1.03682
-0.997404
0.855524
-0.0230974
1.4865
-0.991678
0.823686
0.755403
-0.75757
-0.98918
-1.33084
1.09339
-0.759994
-0.984287
0.716676
0.710095
-1.26921
1.12474
0.867701
-0.762102
-0.667177
1.01868
-2.18267
-0.986925
-1.09241
-0.750531
-0.99566
1.04449
1.05641
-1.92411
0.633253
1.05667
1.40627
0.282807
0.393976
0.127528
0.909294
-0.465035
-0.755653
-1.57376
-0.493517
-0.753423
1.05023
-0.753329
0.287816
-0.98516
0.644384
0.582551
-0.750426
0.652986
-2.00265
0.507963
-0.747545
0.571996
-0.757713
0.399189
-0.983245
0.490986
-0.744608
0.839552
-1.74766
-0.745175
-0.751758
-0.976628
1.06828
0.0908258
-0.780571
-0.991816
0.159341
0.198802
-0.748667
-0.985218
-0.823184
-0.121877
-1.00765
0.00191809
-1.03994
-0.197068
-0.899562
-0.2956
0.955218
-0.292271
-1.9301
1.04241
-0.00867276
-0.19139
0.464689
1.01786
-1.64797
-1.92061
-0.986011
-1.5082
0.927921
1.48416
-0.920045
-0.192913
0.018623
-0.986501
-0.318301
-0.378574
1.03566
-0.776135
0.998744
-1.4842
1.55231
0.46887
1.46229
-0.770089
1.22446
-0.441745
1.04449
-1.06435
-0.982294
1.10466
1.04393
-1.96144
-0.985274
-0.751278
1.04272
-0.78801
1.03997
-1.16153
-1.06454
-1.01599
1.36461
1.10259
1.14313
1.07967
1.0671
-0.0901049
-0.623026
1.2819
-2.19573
-0.929171
1.48543
-0.766771
0.974188
0.990543
1.42559
1.47476
-0.775326
-1.5209
1.08603
0.231463
-0.470524
-0.704738
-0.92741
-1.94815
-0.769537
0.570249
-1.34767
1.23573
-1.30395
1.12254
1.20085
1.10497
-1.4215
-0.966503
-1.07356
1.13916
-0.955116
1.25081
-0.611524
-1.03032
1.31331
1.34391
-0.976185
0.196529
0.992626
-1.25162
-1.03788
0.685254
1.34819
1.26665
-0.978795
0.94436
0.926696
-0.980656
1.27771
0.385261
-0.766824
-1.06219
-0.195688
-0.166396
1.19091
-0.854067
0.364393
0.00562858
-0.0106605
-0.75471
-0.967368
1.04953
-1.8386
1.08895
0.00602265
0.0846521
0.715506
0.256726
-0.968973
-0.500819
-1.20533
-0.178723
0.0193635
-1.33636
1.01417
-1.94673
-1.92548
1.08046
-1.17005
-0.784408
1.06508
-1.02082
1.04955
-0.0937612
-1.00382
-0.358558
0.817327
-0.830366
-1.70617
0.919768
-1.04439
1.12033
-0.594487
-1.01141
-0.961269
-0.983819
1.53238
-1.9465
1.1632
0.0572507
1.00772
1.24654
0.745745
1.06671
1.23599
-0.0840435
-1.955
1.0165
1.12819
1.40427
-0.992298
1.10845
0.75778
-1.01531
0.80856
1.24261
-0.472765
1.41748
0.238226
-0.73009
0.854735
-1.02641
-0.74906
0.988286
-0.365017
1.10664
1.08269
1.02655
-0.755562
0.981805
1.33799
-1.02213
-0.248788
-1.97591
-1.07749
-1.01025
-0.985769
1.39055
0.765461
-0.781814
0.93141
-1.03269
-0.901255
1.30638
1.30165
-1.81868
-1.4457
-0.983642
-1.02866
1.01616
-0.785786
0.0686291
-0.716737
-0.387082
1.11505
-1.03299
1.46194
1.10562
0.91126
1.08568
1.37792
-1.09395
-1.03721
1.05506
1.18016
-0.710928
1.05546
-1.92472
-1.01365
-1.02133
1.16133
1.19075
-1.01947
-0.800154
0.564602
-0.0917196
-1.20509
1.0409
1.0405
-1.40983
1.07994
1.12195
-1.33754
-0.786546
-0.771032
-1.00839
-1.02274
1.35072
-0.408386
0.994768
-0.791033
1.34575
0.940654
0.947131
1.01929
-2.039
-1.07714
-1.00304
0.614109
-0.77592
0.939862
0.295566
-0.527707
0.939268
1.02844
1.09212
1.0682
-0.0463462
1.09135
-0.0587901
0.424244
0.871883
-0.484776
-0.783572
-0.840442
-0.593051
1.06337
0.989997
1.0635
-1.77603
-0.82719
-0.998484
-0.687041
1.0622
1.35915
1.07552
-0.779689
-0.801346
-1.19236
-0.450302
-0.984856
-0.984468
-0.119649
1.05414
-0.698418
-0.763902
-0.0170895
-0.106022
0.801649
-1.66661
-0.994851
-1.15992
1.01076
1.48343
0.0481991
1.14952
1.54627
0.742144
1.27273
-0.787583
-0.0232272
1.43653
-0.991113
0.314811
-0.772686
-1.02703
-0.74698
-0.758885
1.01694
0.745292
1.26709
1.22935
0.00546199
0.793736
0.125511
-0.0224085
-0.98777
1.16028
0.803286
1.07044
1.08655
-0.118073
-0.110872
1.08266
-1.22793
-0.987858
-0.761366
-0.755996
0.606476
-0.756742
1.00777
0.680148
-0.989551
1.2647
-0.773705
-0.236019
1.03267
-0.797355
-0.963255
-2.0533
0.679337
-0.767079
-1.0807
0.990463
1.0784
-0.122364
0.0228534
-2.2083
-0.985658
-0.524137
-1.41617
-0.223144
0.610315
-1.09912
-0.75448
1.33634
0.345938
0.445395
-0.752242
-1.03202
1.05305
1.06993
0.610099
0.543507
-0.748983
-0.971958
-0.789815
0.534779
0.449537
-0.745543
0.903446
0.231159
-0.741498
1.51271
-0.744833
-1.80085
-1.02245
-0.700321
0.859555
-0.761526
-0.778348
-0.997148
0.00101144
-0.798517
0.0899809
-0.742494
-0.190174
1.24816
-0.854689
-0.186182
-1.02414
-0.0846513
1.41226
1.43673
1.30342
1.05941
1.28044
-0.608699
1.04644
-0.778284
1.0678
-0.98748
-0.970597
1.29726
-1.16379
0.487616
-1.57879
1.44532
0.0159827
1.37977
0.677481
0.84143
-0.769583
-0.770155
-0.982598
-0.96273
1.36223
1.2634
1.0466
0.647325
1.04749
0.884924
0.887881
-0.747885
-1.02377
0.336092
0.0798983
0.863084
1.06317
-0.0385398
-0.764452
-0.743297
-1.46956
-0.983321
-1.74742
1.3809
1.08134
1.05829
-0.0953521
-0.0805711
1.07929
-0.960897
-0.986259
-2.1955
-1.00734
0.851784
-0.761597
-0.75027
-0.33251
1.06455
-1.78484
-1.02127
1.0474
0.618829
0.741809
1.04789
-0.984402
0.938113
1.22702
0.854687
-0.982297
1.0409
0.357967
0.533896
-0.958766
-0.75813
1.50553
0.241261
-1.09427
0.0044843
0.97453
1.03293
-0.957206
-1.39443
-0.151574
-0.71544
-0.928962
-0.783647
-0.0717373
1.04334
-0.969689
1.04857
1.31841
1.11779
1.05286
1.15363
1.21383
1.0513
-1.36763
-0.685072
-0.323922
-1.06575
-0.929917
-0.74992
1.21263
1.11883
-1.02874
0.999793
-0.735
0.0207378
-0.747272
-0.406474
0.548696
-1.2889
1.04108
0.973308
-1.27327
-0.418581
1.39025
-1.67512
-0.797647
-1.13407
-0.790023
-0.719903
1.08871
0.839734
1.12796
-1.18151
-0.842065
-0.966634
-0.281786
-1.02757
-1.5
-1.22421
-2.08012
0.977864
-0.776153
1.49531
-0.985697
-0.611991
-1.02433
-0.749347
0.963947
-1.04874
-1.13244
-0.972035
-0.398049
1.26296
1.2578
-2.20804
-1.13406
0.888968
-1.00672
-0.912137
1.14036
-1.24428
-1.94247
-0.971516
0.816959
-0.470331
-1.02431
1.04394
0.0794374
-0.823117
1.05867
-0.773799
-1.40811
-1.03442
-0.818292
-0.117485
-1.02311
1.38337
-0.99134
0.14548
-0.988845
0.857983
-0.607395
-0.898144
0.717116
0.783836
1.10445
1.0044
1.24186
-0.760893
0.876787
0.5636
-1.11479
0.994498
-0.291015
-0.6189
-1.96122
1.2152
1.20218
-0.695849
-0.85111
-1.15798
1.08051
-0.796266
0.115578
-1.31859
-0.7564
1.34771
1.07939
-0.769752
-0.759297
-0.770225
-0.764909
0.959991
-0.792882
1.04565
0.305517
0.775512
0.900879
-0.731704
-0.866907
1.00648
-0.752407
-0.0553819
1.33044
-0.999599
-0.763077
0.88605
-1.10675
-0.770231
-0.234292
-0.975993
1.40266
-0.66564
0.120453
-0.771607
1.33935
-0.773143
-0.755883
0.712442
-1.25136
-0.986895
1.38076
0.741739
1.02968
-0.776599
1.29937
-0.285914
-0.880085
-0.781531
-0.785618
-0.776785
1.33153
0.646125
-1.01946
-0.775001
-1.01412
1.18987
-0.715627
1.31457
-0.986989
0.780296
-0.760579
0.446349
0.609957
0.576305
0.497046
0.178305
-0.736006
1.07458
-0.782459
-0.597441
-1.16647
0.270954
1.35706
-0.361524
-0.777478
-0.789349
-0.762482
0.342652
-0.983722
-0.759239
0.859954
0.175543
-0.765383
1.42517
-1.01948
-1.52922
1.40578
-0.763325
0.231507
-0.737106
-0.747965
-0.757688
1.39885
-0.741418
1.31973
-0.756374
-0.835088
1.23729
-0.286452
-0.758885
0.636399
-0.978197
0.101197
-0.463643
-0.759633
0.830675
-1.08803
-0.758597
-0.749665
-0.74893
-0.995701
0.87069
-0.066665
-0.53945
-0.767689
1.34926
-0.904508
-0.765424
-0.736797
-0.188449
-0.873491
-0.734202
-0.766822
-0.144852
1.31408
-0.777639
-0.985726
-1.11081
-0.792657
-0.14578
-1.00164
1.43819
1.3723
0.488433
-0.918908
-0.992333
0.405553
-0.994065
1.45255
0.288214
1.09773
0.767497
1.32004
0.173466
-0.884453
-0.969277
0.024666
-0.782365
0.0250087
-0.132227
-0.75635
1.34624
-0.361289
0.299006
-0.504276
-0.987687
-0.943839
)
;

boundaryField
{
    frontback
    {
        type            empty;
    }
    Top
    {
        type            zeroGradient;
    }
    outlet
    {
        type            fixedValue;
        value           uniform 0;
    }
    bottom
    {
        type            zeroGradient;
    }
    Inlet
    {
        type            zeroGradient;
    }
    rectangle
    {
        type            zeroGradient;
    }
}


// ************************************************************************* //
