/*--------------------------------*- C++ -*----------------------------------*\
| =========                 |                                                 |
| \\      /  F ield         | OpenFOAM: The Open Source CFD Toolbox           |
|  \\    /   O peration     | Version:  2306                                  |
|   \\  /    A nd           | Website:  www.openfoam.com                      |
|    \\/     M anipulation  |                                                 |
\*---------------------------------------------------------------------------*/
FoamFile
{
    version     2.0;
    format      ascii;
    arch        "LSB;label=32;scalar=64";
    class       surfaceScalarField;
    location    "16.6";
    object      phi;
}
// * * * * * * * * * * * * * * * * * * * * * * * * * * * * * * * * * * * * * //

dimensions      [0 3 -1 0 0 0 0];

oriented        oriented;

internalField   nonuniform List<scalar> 
3181
(
-1.05246
0.412066
0.640396
-0.391307
0.368108
0.0231994
0.52571
-0.361168
-0.164542
0.124394
-0.204557
0.0801633
-0.0677769
0.0843523
-0.0165754
0.842686
0.592699
-1.43539
0.149822
-0.143422
-0.00639978
0.0678382
0.00287081
-0.070709
0.5938
-0.765837
0.172037
-0.0750717
0.139573
-0.064501
-0.0101877
-0.050335
0.0605227
0.126312
0.0476895
-0.174002
-0.00747332
-0.0559942
0.0634675
-1.09391
0.149487
0.944422
-0.328906
0.702029
-0.373123
-1.12149
0.638335
0.48315
0.0836566
-0.93339
0.849733
-0.357779
0.29487
0.062909
-0.759218
-0.500222
0.00429568
0.0467794
-0.0510751
0.0344464
-0.0847698
0.0503235
-0.073395
0.0620975
0.0112975
1.06117
-1.03608
-0.025081
0.0193936
0.0347566
-0.0541503
-0.95596
0.324633
0.631327
-0.1082
0.232594
0.309243
-0.243828
-0.0654152
0.0301531
0.0629263
-0.0930795
-0.405835
0.334976
0.0708588
-0.0327447
-0.0132319
0.0130714
0.000160473
-0.0357661
-0.920193
0.0667335
-0.0588358
-0.00789766
0.134301
1.4691
-1.6034
-0.0460056
0.0494999
-0.00349437
0.176347
0.272969
-0.449317
1.59457
-1.46027
0.0709668
-0.0365205
1.53575
-0.795847
-0.739903
-0.204497
1.04718
-0.10958
0.102107
-0.0747301
0.0013351
-0.411475
0.0825689
-0.14254
0.0678103
-0.630098
0.12773
0.502368
-0.151078
0.0760059
-0.169612
0.173901
-0.00428871
-0.273191
-0.0766423
0.349833
0.085645
1.43309
-1.51873
0.071078
0.181769
-0.252847
-0.00893623
-0.0983677
0.104362
-0.00599467
0.517015
0.185014
-0.096103
0.138988
-0.0428849
0.095761
-0.0290275
-0.173089
0.199936
-0.0268471
0.164339
0.0569331
-0.221272
0.110456
-0.116414
0.00595869
1.2675
0.26825
-0.862788
-0.189674
0.0982881
-1.70073
1.60245
0.5477
0.231246
-0.778946
-0.439927
-0.204725
0.644652
-0.755379
0.550883
-0.272043
0.819743
-0.326665
-0.102401
0.429066
-0.203759
-0.202077
-0.192273
0.166435
0.0258382
0.128966
0.285929
-0.414895
-0.170118
0.763918
-0.0179155
0.0857537
-1.9966
2.09489
0.190153
0.11909
-0.182072
-0.110374
0.292446
-0.269615
0.352772
-0.0831573
-0.0828115
0.0907523
-0.00794086
-1.91096
-0.918466
0.00857539
0.909891
-0.058357
0.0123515
-1.05328
0.794972
0.258312
0.554109
-0.302973
-0.251136
-0.843198
0.0878186
1.10541
-0.955926
-0.71197
1.14391
-0.199486
1.06965
0.165892
-0.175009
0.0091178
1.38241
-0.789712
0.579448
-0.579448
-0.00807291
-0.000103592
0.0081765
-0.215701
-0.0521451
0.267847
0.0949792
-0.068034
-0.0269453
-0.448958
0.837334
-0.388375
-0.0167557
-0.239103
0.255859
-1.07984
0.0437533
0.343881
0.0543896
-0.398271
0.134403
-0.849912
1.08116
0.0794866
0.0861926
-0.165679
-0.0168928
-0.156196
-0.410221
0.0787804
0.331441
-0.215682
-0.194539
0.120289
-0.9702
0.333442
-0.7824
0.920455
-0.836798
-0.00299915
0.181138
-0.178139
0.0818244
0.0513899
-0.133214
-1.39878
-0.0983122
1.49709
-0.249758
0.412779
-0.163021
-1.28269
0.608695
0.674
-0.468716
-0.584568
0.162894
-0.0918155
-0.153878
0.148254
0.00562343
-0.0773138
-0.0126482
0.089962
-0.539017
-0.22682
-0.105481
0.0435637
0.0619173
-1.10305
-0.192665
1.29571
1.8128
-0.379717
-0.0115715
0.00349855
0.039983
0.15017
-0.197979
0.374326
0.0202884
0.251158
-0.271446
0.136751
0.0671911
-0.203942
0.321287
0.0429169
-0.364203
-0.59499
-0.526495
-1.1236
0.0205505
-0.0571316
0.136618
-0.108334
0.186033
-0.0776993
-0.036492
0.0251308
0.124691
-0.0576029
0.072377
-0.0147741
-0.09729
-0.0224929
0.119783
0.0751137
-0.0751137
-0.186019
0.21115
0.338427
0.202058
0.106427
0.0935091
-1.27339
1.10327
-1.57304
0.120341
1.45269
0.0321131
-0.0267715
-0.00534163
-0.0261307
-0.0504955
0.0766262
0.54026
-0.021973
-0.518287
-0.0398351
0.0411219
-0.00128676
-0.201714
0.0156944
0.157791
0.679543
-0.372505
0.530296
-0.164737
-1.23404
-0.103671
0.0358943
0.489925
-0.308844
-0.181081
0.118603
-0.100545
-0.0180581
0.0479506
-0.321141
0.0233375
-0.941804
0.0493981
-0.157732
-0.290272
-0.403308
0.0697887
1.38402
-0.932246
-0.451771
1.08847
0.295546
0.0667144
0.283119
0.0329597
-0.000846599
-0.11689
0.168529
-0.0516387
-0.25651
-0.58311
0.83962
-0.360132
0.623194
0.836126
-1.33635
0.145706
0.0287413
-0.0534229
0.0246816
-1.55882
0.433033
1.12578
-0.300783
-1.25804
-0.302163
0.646045
-0.910052
-0.0185243
0.00537273
-0.264231
0.258858
1.46396
-1.57661
0.11265
-0.107998
0.00432681
0.569121
-0.825631
0.18102
-0.42451
0.24349
-0.291594
-0.118133
0.409727
0.174447
-1.00511
-0.0747283
-0.00708251
-0.0439926
-0.551662
0.346937
-0.243192
0.0181166
0.225075
-0.0303458
-0.0776522
0.0351057
-0.0351057
-0.117832
0.1292
-0.011368
-0.306714
-1.26632
0.0808277
0.0266566
-0.107484
-0.149784
0.0175453
0.132239
-0.220514
0.0282408
1.58162
-0.481623
-1.09999
-0.195348
0.451139
-0.255791
0.00866559
-0.00808585
-0.00057974
-0.803318
-0.479377
-0.182649
-0.00477164
0.187421
-0.1764
0.305366
-0.100134
0.0984825
0.00165187
0.0750374
0.00963669
-0.0846741
-0.127518
0.149593
-0.0220746
-0.567895
1.11962
-0.551723
-0.220209
-0.0511655
0.271375
-0.69618
0.660954
0.0352255
-0.00290422
0.0376609
0.0274406
-0.0273458
-9.4828e-05
-0.000323229
-0.053827
0.891973
0.92083
0.174538
-0.88534
0.710802
0.00592279
2.06985
-2.07577
0.387524
0.41415
0.165298
0.0616741
0.201515
-0.0647639
-0.070232
-0.0281357
0.240301
0.155508
-0.0736839
0.734488
-0.409855
0.0604382
0.207408
0.0484138
-0.163577
0.115163
-0.781291
-0.142652
0.923943
-0.04057
0.04057
-0.061835
-0.263569
0.536538
0.0127575
-0.232967
0.160266
0.134603
0.0341066
-0.0912383
0.13411
-0.144298
-0.346461
0.329705
0.0383092
0.0613383
-0.0996475
0.385034
-0.337344
0.737994
-0.408916
-0.329078
-0.207662
0.274376
0.186184
-0.495028
-0.20486
0.616925
0.166866
-0.0340645
0.0340645
-0.258289
0.492301
-0.234013
0.388114
0.024665
-0.0316717
0.0376117
-0.00593992
-0.166654
-0.0631213
-0.0423597
-0.04867
0.18278
-0.178248
0.238318
-0.0600705
0.127788
0.0277207
-0.393708
0.14988
0.188889
-0.0611018
-0.0452094
-0.054925
-0.0704521
0.0683469
0.00210522
0.14869
-0.10541
-0.0432802
-0.011917
0.390713
-0.378796
-0.114185
0.0962696
0.102869
-0.107113
0.00424445
0.023267
0.461074
0.276921
-0.0897759
-0.0186372
0.108413
-0.0868861
-0.0211171
0.108003
-0.0901117
0.0990426
-0.720333
0.62129
-0.0287526
-1.52318
-0.449907
1.97309
0.686908
1.05242
-1.73933
0.0836086
-0.305945
0.348862
0.276388
0.247223
-0.523611
-0.205732
0.254146
0.147931
-0.89416
0.746229
0.0215729
-0.108459
-0.0144397
0.00735719
-0.989313
0.445542
0.543772
0.932246
-0.811957
-1.69751
1.5992
-1.46396
1.5843
0.0403682
-0.0832531
0.00960281
0.0178378
0.0153016
0.806255
-0.658324
0.124211
-0.0748134
0.408309
0.7356
-0.129785
-1.78446
1.79038
-0.672348
-0.60104
-0.239874
-0.390224
-0.012078
-0.166808
0.214758
-0.581004
-0.377452
0.182104
0.777237
-0.236977
-0.901317
-0.796197
0.743659
0.152372
-0.130799
0.288118
0.0387903
-0.0387903
0.670957
0.148643
-0.8196
-0.224713
0.89567
0.39611
-1.2028
0.806694
0.248014
-0.0459562
0.00703912
0.0060704
-0.0131095
-1.70073
-1.14911
0.769391
1.06668
0.514934
-0.0347425
-0.134869
-0.242229
0.759244
-0.195277
-0.0479144
-0.0031742
-0.0796373
-0.0523758
0.103766
0.374343
-0.246612
-0.837085
-0.281532
-0.117817
-0.0325723
0.150389
-0.596255
1.01041
-0.14988
0.141233
0.0086472
0.031835
0.00112466
-0.115798
0.0654798
0.0503187
0.00901981
0.420046
0.0881869
0.0304161
0.0140043
0.00446863
-0.0184729
-0.0157922
-0.166857
-0.721902
0.370105
0.351798
0.598046
-1.5951
0.997056
0.136298
-0.157061
0.0207634
-0.0112596
0.174153
0.179296
-0.758743
-0.109253
-0.00654543
-0.128442
0.0366262
0.141561
-0.33954
-1.62101
0.651146
0.969865
0.0331442
0.0935612
0.0551292
-0.781291
0.00508468
-0.572979
0.12025
-0.0547707
0.0430411
-0.639339
-0.0568407
0.0603066
0.128583
0.316299
0.0468488
-0.461744
0.123662
0.343404
-0.289015
-0.119782
0.0224916
0.221283
0.840984
-1.06227
0.105011
-0.714405
0.609393
-0.957283
0.814631
-1.32285
0.263324
1.05953
-0.0125
0.0134676
-0.000967635
0.167741
-0.459334
0.20439
-0.119616
-0.0847736
0.042116
-0.0632331
-0.00879565
-0.109021
-0.00546429
0.0243558
-0.024679
0.0209798
0.0759086
-0.0968884
1.08302
-0.00179452
0.00211612
-0.000321608
0.0989985
-0.00272887
0.859618
0.0523514
-0.0480246
-0.36552
-0.783589
0.221488
0.0265252
0.00798463
0.0855766
-1.05953
0.758743
0.189368
-0.195559
0.00619116
-0.25045
0.0754403
0.119774
-0.110656
-0.00155158
0.0923039
-0.0369643
-1.47971
-0.141299
-0.0411926
0.0621724
0.738388
-0.255238
-0.253433
0.103649
0.342489
0.00945494
-0.0411267
-0.00776937
0.082883
0.147097
0.205675
0.154394
-0.327484
0.17309
0.116558
0.562984
-0.0417196
-0.109358
0.935394
-0.258623
-0.676771
-1.32285
-0.443781
1.04183
1.59457
-0.106606
0.347094
-0.240489
0.354949
-0.0725723
-0.282377
-0.197787
-0.64541
-0.0714004
0.0721252
-0.000724842
-0.0397887
-0.192051
0.23184
0.490665
-0.959347
0.468682
0.0397869
0.657506
-0.697293
-0.0443421
-0.109535
-0.00779814
-0.0819778
0.301199
-0.559488
-0.0137068
0.00120681
0.150969
0.0174311
-0.1684
0.0336522
-0.150542
0.00136756
0.0304675
0.0488851
0.132253
-0.0237706
-0.00357524
0.195746
-0.434849
-0.483455
1.53587
0.0280905
0.0124795
-0.988255
-0.0168541
0.159733
-0.073654
-0.0461275
-0.0755627
0.256583
0.871177
-1.05086
0.179687
0.179763
0.0417257
-0.942284
-0.0136414
-0.0151137
-0.648051
0.747094
-0.018252
0.185118
-0.00831855
-1.19449
0.183294
-0.443902
0.260608
-0.0025702
0.253728
0.00210559
-0.00222706
0.000121469
-0.0322117
-0.0953064
-0.0215289
-0.134668
0.747092
-0.64208
-0.116257
0.0778019
-0.116228
0.308519
-0.154126
0.137729
1.20832
-0.281153
-0.927165
-0.118967
0.137084
-0.503485
-0.218417
-0.560719
0.615898
-0.601396
-0.0145028
-0.0860007
-0.0302565
-1.78446
0.5449
-0.5449
-1.82981
1.82981
0.806255
-0.0830572
-0.148202
0.231259
-0.89475
-0.0935049
0.624253
-0.365003
-0.25925
0.166007
-0.243706
-0.0101478
-0.00142364
-0.887476
-0.082724
-0.933162
0.212829
0.0395367
-0.072109
0.698233
-0.11121
-0.587023
1.15496
0.439605
-0.000920498
0.00302609
-0.967366
0.442169
-0.851086
-0.0707956
-0.603083
0.673879
-0.0685855
-0.874693
-0.701913
0.21673
-0.81172
-0.923943
1.3751
-0.451157
-0.138862
0.280795
-0.141933
-0.0237544
0.721987
-0.105913
-1.02202
1.02202
-0.789997
0.373336
0.416661
0.000332907
-0.00212742
0.0914978
-0.435583
0.817664
-0.0226919
-0.0839909
-0.0356161
0.101104
0.00569541
0.00297019
1.74149
-1.47817
-0.325477
0.400514
-0.629387
1.00691
-0.377521
-0.0444954
-0.0647577
0.122269
-0.0550783
0.35308
0.00617687
-0.0621711
0.352935
0.0377788
0.0419481
-0.244335
0.202387
0.139702
0.0341991
0.0961387
0.178246
1.59139
0.503497
0.130811
0.686372
-0.817183
-1.02966
1.46269
0.199935
-0.132124
0.0765937
-0.76741
0.690816
0.0477539
0.130673
-0.477134
-0.0742135
0.13524
-0.0610269
0.134211
-0.208424
-0.444406
-0.107256
-0.0707995
0.0738607
-0.00306116
-5.95495e-05
-0.023711
-0.0200068
-0.00902072
0.658324
-0.609393
-0.0489311
-0.292138
0.304896
0.880771
0.60084
-0.245891
-0.0308332
0.0574898
-0.304566
-0.119944
0.173574
-0.582606
0.409031
-0.00209883
-0.000128231
0.0106894
0.113497
-0.124186
0.00407756
-0.0102057
0.00612818
-0.0233728
0.0155282
0.00784469
-1.28673
0.497019
-0.142805
-1.38038
-0.197183
-0.811957
1.5843
1.5992
-0.193729
-0.173341
0.122176
-0.0624927
0.068119
-0.00562623
-0.169411
0.964106
-0.794696
0.549404
0.0748487
0.00138455
-0.00348337
0.119406
-0.472452
0.0356161
-0.0458657
0.00467303
-0.652576
0.34801
-0.0506754
0.084782
-0.232707
0.617741
1.08847
-0.00474516
-0.0621399
0.0015402
0.0605997
1.97261
-0.37341
-0.0614913
-0.0549231
-0.971613
0.159656
0.386178
-0.211731
-0.475378
-0.130231
0.605609
0.815791
-0.363509
-0.452282
0.0697978
0.801379
-1.79038
0.0896447
-0.00696292
-0.0237798
0.0307427
0.248537
1.82131
-0.171057
0.178096
0.128098
2.24823
-0.663929
-0.680461
0.0564073
0.624054
0.382476
0.00817648
-0.346859
0.535008
0.813971
0.506211
0.0766412
-0.021512
-0.688319
0.211644
0.476675
1.31522
0.0507251
-0.0367208
-0.0513343
-0.35587
0.103376
-0.309108
0.836839
0.37148
-0.0997794
0.0137787
0.303841
-0.410447
-0.0213561
0.0184519
0.111086
-0.147975
0.0368892
-0.299869
0.314697
-0.0148278
0.473977
-0.755131
-1.41154
0.120206
1.29133
0.106425
-0.198401
0.0919762
0.269352
0.0391669
-0.426538
0.431623
-0.658496
0.658496
1.60245
1.15496
-0.714405
0.330159
0.483811
-0.578211
0.344198
0.91038
-0.360976
0.00807277
-0.875836
0.867763
0.134681
0.00489179
0.0257049
-0.694741
0.268203
0.120478
-0.165721
-0.12362
0.289342
0.279597
-0.515006
0.349284
-1.10256
-0.283642
-0.650424
-0.0571656
0.00187292
0.0002432
-0.224108
0.0759531
0.0744361
0.0341826
-0.144687
0.110504
-0.376957
-0.41304
-0.00575831
0.0686846
-0.931433
0.525056
0.406378
-0.569834
0.388753
-0.0976344
0.158973
0.235729
-0.00244298
-0.0119967
-0.945041
0.463418
0.0339571
0.0689119
-0.152766
0.0365379
0.196438
0.0079513
-0.426713
1.30508
0.463769
-0.00836944
0.868496
-0.791902
0.78471
-0.442222
-0.611266
0.175684
0.151219
-0.792493
0.767282
0.0252111
1.12792
-0.291076
-0.195273
-0.130204
-0.0914504
0.0234165
0.955337
-0.842659
-0.112679
-0.181484
0.107801
0.0276455
0.120609
0.880609
0.556695
-0.791439
0.234745
-0.325979
-0.0514729
-0.179267
-0.752166
0.123321
1.37377
1.1321
0.0228619
0.170633
0.552207
-0.722839
0.0479307
0.0492841
-0.00327834
0.000835363
-0.50996
-0.101306
0.13759
-0.167936
-0.185451
0.136781
-0.532516
0.276724
-0.992122
-0.317612
-0.286244
-0.606614
1.54616
-0.0934634
-0.284969
-0.330733
-0.321843
0.146923
0.296072
0.0568625
1.33724
-0.846574
-0.188677
0.127576
-0.497295
-0.271158
0.768453
-0.00839066
0.00142773
0.0481475
-0.0588077
-0.241061
-0.122104
0.698261
-0.420144
-0.278117
0.15681
0.135984
-0.0977463
-0.0382379
0.240902
0.0551706
-0.392822
-1.3465
-0.0947285
0.13777
0.911896
-0.355201
0.00780626
0.100197
-0.0209587
0.0206864
0.000272273
0.012047
-0.0388185
-0.24108
0.0775031
-0.0639186
-0.559348
0.420486
0.0177997
0.0875052
0.0189195
-0.69432
1.63162
-1.26014
0.0153409
-0.191192
0.175852
-0.137442
-0.539561
0.677003
0.0776562
-0.716995
-1.17401
-0.237529
-0.0621908
-0.000849712
0.0630405
-0.247135
-0.615898
-0.165392
-0.142685
-0.688319
-0.228832
0.164068
-0.306923
-1.15367
-0.538253
0.392066
0.146187
0.264494
0.116271
0.510204
0.156068
-0.666272
0.0984584
0.0539137
0.848467
0.309039
-1.15751
-0.222209
0.422781
1.03991
-0.239191
0.17912
-0.711
1.13378
0.136574
-0.0577935
-0.027755
0.0430566
-0.0104749
1.12548
-1.13385
0.727821
0.0879701
-1.35612
-0.123588
0.233995
0.676385
0.917112
0.0182821
-0.0192953
-1.1321
-0.650424
-0.713576
0.722151
-0.0652607
-0.901317
0.657506
0.60965
-0.936164
0.794859
-0.00572109
-0.786772
-0.313229
0.636318
-0.772613
0.136294
0.08148
0.0545043
-0.534787
-0.235112
1.17968
-0.944571
0.000767704
0.00110522
-0.260546
0.212632
0.713974
0.223569
-0.207874
-0.181111
0.642794
-0.835459
0.208154
0.023105
0.482919
0.76443
-1.24735
-0.856515
1.06816
0.963284
-0.438228
0.0800269
0.241563
-0.476675
-0.00724152
0.212544
-0.0575315
0.106646
0.0530866
0.00103162
-0.0259923
0.0249607
-1.02552
-0.036743
0.314344
-0.808794
-0.612816
1.55066
-0.937843
0.370768
0.63614
-0.050485
0.0540706
-0.00358565
-0.0306668
0.673461
-0.716205
0.707231
0.606681
-1.2195
0.311015
-0.0984707
-0.58535
-0.406773
-0.809083
1.292
-0.0583484
-0.881557
-1.91246
-0.163307
0.241563
0.0494773
-0.858271
0.833657
-0.646979
-0.186678
-0.981406
0.396056
0.00706297
0.114124
-0.000305079
-0.113819
-0.970963
0.564191
-0.217124
0.911004
-0.924645
0.189491
-0.205283
-0.0944676
0.236029
1.17081
0.333219
-0.151613
-1.44807
0.520909
1.32289
-0.816676
-0.552634
-0.518961
1.07159
0.447366
0.0182064
-0.012136
-0.734036
0.697293
0.0826673
-0.113334
-0.165298
0.0773266
0.0879713
0.889382
0.661277
0.780491
-0.813235
-0.492518
-0.449286
-0.47133
-0.499633
0.80306
-0.80306
0.684559
-0.684559
-0.734036
-0.165145
0.165145
-0.0773266
-0.490216
-0.496185
-0.501575
-0.151525
0.151525
0.0826674
-0.113334
0.780491
0.769482
-0.769482
0.813235
0.760631
-0.760631
0.507482
0.52867
0.481039
-0.0688572
-0.500367
-0.550714
1.07938
-0.47133
-1.4397
0.630616
0.49577
0.467514
-0.128229
-0.00978414
0.0621355
-0.88626
0.0957995
0.79046
-0.115722
0.103644
-0.995772
0.585918
0.932582
-0.602423
-0.124265
0.00812597
-0.0091895
-0.809415
-0.0759255
-0.543772
-0.00187957
0.00923676
0.611887
-0.142731
0.0879606
0.171535
0.00448719
-0.01152
0.00703276
-0.814203
0.0681769
0.746026
0.626488
0.54432
-0.532014
0.409829
0.122185
0.917535
-0.742963
-0.174572
0.0787333
0.295593
-0.013654
-0.0571455
-0.0569447
-0.0144557
0.591232
-1.18749
-0.838887
0.0975728
-0.741621
0.796676
-0.0550544
0.121098
-0.898284
0.777187
-0.801421
0.903311
-0.10189
-0.0684878
0.0805348
0.01926
-0.283491
0.54959
0.742412
-0.0954709
-0.790789
0.9141
-0.0906391
-0.82346
0.0823222
-0.126818
1.12226
0.822064
-0.885795
0.453835
-0.378986
0.101273
-0.892062
1.46027
0.369541
-0.789581
0.00280875
1.01683
-0.895736
1.22659
1.16237
-0.823059
-0.339308
-0.87973
-0.116042
-0.409762
0.0309659
-0.649453
0.82914
-0.786336
0.786336
-0.603262
-0.0867565
-0.863057
0.120094
-0.931686
0.86089
0.0746977
-0.194314
-0.0578458
0.0611445
0.0112324
0.188443
0.82839
0.816554
0.771968
0.139904
-0.911872
-0.666943
1.13446
-0.781504
-0.107415
0.888919
0.172049
-0.888254
-0.674613
0.887797
-0.786524
-0.108091
0.457933
-0.0268967
-0.431036
-0.0268099
1.34118
-1.31437
0.124022
-0.313974
0.189952
-0.889595
-0.830125
0.0885039
0.525933
0.258778
-1.87099
1.09867
-0.578319
0.578319
-0.887332
-0.560742
-0.0898813
0.358084
-1.00763
1.12784
0.780382
-0.205686
1.11397
-0.616952
0.975098
-1.1886
0.2135
-0.105078
-1.49002
0.228648
0.495423
-0.408867
-0.164112
0.22927
0.298184
-0.219451
0.780954
-0.882844
0.724703
0.409755
-0.151567
0.737484
0.582571
-0.582571
-0.0713945
0.0725192
0.109356
-0.0751738
1.19827
0.14291
0.295454
-0.000438926
0.00321996
-0.00278103
-0.669051
0.693924
-0.024873
0.349464
-1.17252
0.108641
-0.895165
-1.09647
1.44869
-0.352224
0.182599
0.876181
-1.20392
1.55338
-0.755261
0.602221
-0.659062
-0.655709
0.152224
-0.197424
0.0278544
0.0777609
-0.634867
0.437443
0.0042516
-0.777537
0.0693543
0.727321
0.693308
-0.0910871
0.0763334
0.783285
0.0720004
0.51936
-0.59136
-0.828028
0.526537
0.530872
-0.962131
0.739541
0.22259
-0.684396
-0.127324
0.980017
-0.437196
-0.122292
-0.0396648
0.485795
0.514205
-0.769609
-0.113235
-0.556967
-0.306537
-0.508687
-0.239479
0.40257
0.59743
-0.117259
0.11453
-0.860248
-0.0697512
-0.589311
-0.155372
-0.248547
0.40392
-0.0329472
-0.00401706
0.111463
0.0713173
-0.128617
-0.112463
0.760139
-0.64095
0.717283
-0.0216552
-0.613212
-0.0503453
-0.00342886
0.0537742
-0.746097
-0.194829
0.940926
-0.242404
0.231313
-0.0239049
-0.0881061
0.010454
0.0133669
0.708523
-0.130203
0.124595
0.111134
-0.735953
0.0669018
1.00879
-0.340093
-0.161693
-0.167385
-0.0507827
-0.287795
1.02339
-0.00629617
0.364422
-0.236324
-0.00893245
-0.050735
-0.0912624
0.0698076
0.938983
0.217672
-0.23542
0.0177475
0.848643
-0.0214663
0.000761299
0.020705
0.126804
-0.0129487
-0.000758079
0.217919
-0.106833
0.222376
-1.23001
0.453772
-0.2361
0.00708251
0.288544
-0.238848
-0.959795
1.29471
-0.334916
-0.781852
0.839268
-0.0574163
0.28966
0.258551
-0.121977
-0.0682061
1.26808
-0.454399
-0.0776147
0.277298
0.458883
0.190093
-0.648976
0.406009
0.0419143
0.65201
-0.576493
0.564505
0.0119875
1.2939
-1.14698
-0.0249823
0.03219
-0.00720765
0.697076
-0.00861131
-0.0830124
0.019454
1.39547
0.66342
-0.37376
0.0769272
-0.0819718
-0.116429
0.132288
0.0499101
-0.182198
0.00947914
-0.00844752
1.08762
-0.778581
0.172895
0.222702
-0.0257994
-0.0929416
0.222538
0.0974376
0.00649822
0.0774837
0.766431
0.393055
0.0579934
-0.451048
0.775017
0.180543
-0.95556
0.644439
0.120703
-0.0682957
0.00803902
0.0602567
-0.708354
-0.0620336
-1.12657
-0.00028515
0.743944
0.715054
0.160053
-0.0300339
-0.504753
0.816488
0.140624
-0.0028945
-0.878995
0.112246
-0.271907
-0.191726
-0.171823
0.691335
0.0750953
0.013194
0.581244
-0.322694
-0.190242
0.163623
0.0281075
-0.112877
0.423543
-0.056868
0.111698
-0.0729779
0.166779
0.179553
0.595464
-0.15233
0.215724
-0.0519148
-0.109495
0.0188886
-0.000708423
-0.0181802
-1.45722
0.310234
-0.00863157
0.882229
-0.226888
-0.61544
0.635273
-0.0198329
0.472165
0.758237
0.15737
-0.103596
0.0772772
-0.171745
0.628247
0.12999
0.557439
0.452966
-0.26575
0.719585
0.129513
0.80947
-0.60234
0.348192
0.254148
-0.0787302
-0.0709805
0.0414091
0.0632604
-0.0465908
1.17404
0.735446
0.0810416
0.615725
0.223895
-0.874474
-0.0808768
-0.673445
0.676253
-0.023858
-0.586123
0.430751
0.871741
0.670161
0.154111
0.0078052
-0.162221
-0.314912
1.124
0.507625
0.19829
0.018746
0.778842
0.0306282
0.684062
0.61165
-0.0771387
0.675246
-0.74312
0.932094
-0.188974
-0.410903
-0.191437
-0.0430404
-0.195429
-0.214242
0.778454
0.00722488
-0.00275625
0.628255
0.106391
-0.273776
0.60041
-0.132419
0.238909
0.751468
0.237057
-0.988525
0.276994
-0.923974
0.15606
-1.4162
-0.181084
0.772326
-0.591242
-0.669109
-0.119394
0.0312875
-0.0544117
-1.08358
0.0232676
-0.0442262
0.875782
0.152006
-0.354958
0.202952
-0.0242238
-0.581004
0.101427
0.262995
-1.41945
0.000756305
0.00373089
-0.17547
-0.0529801
-0.590784
0.0142911
0.567635
0.304106
1.0778
0.895292
-0.249908
-0.383951
0.633859
-0.0580518
-0.616382
0.616382
-0.241259
-0.913442
1.1547
0.0297
-0.148667
0.685317
-0.117682
-0.220549
-0.378159
0.255867
0.631653
0.789756
-0.159729
0.174862
-0.105073
-0.445815
0.48705
0.0774556
0.0565202
0.0144466
-1.46716
-0.174625
-0.234866
0.695004
0.304996
-0.174625
0.695004
-0.132568
-0.196138
-0.132568
-0.69602
0.69602
0.30398
-0.0142609
0.19371
-0.0751228
0.190914
0.128197
-0.461024
0.637881
-0.0374713
0.660812
-0.504233
-0.156579
-0.0588975
0.0584744
0.000423011
-0.00931994
0.00888101
-0.117476
0.0187954
-0.060409
-0.436659
-0.349337
0.125229
0.0438388
0.831054
-0.278848
-0.603614
0.281772
0.00447513
-0.131623
-0.00759271
0.678035
0.065909
0.218869
-0.0167176
-0.00175538
0.00931406
0.0864304
0.562901
-0.474939
-0.0879621
1.97672
0.546794
-0.459367
0.896701
0.0110624
-0.0615579
0.105274
0.185312
0.124498
1.12422
-0.372756
0.0125158
-0.0696814
0.597999
-0.651093
0.0226987
-0.0226987
0.0198478
-0.0198478
-0.0160483
0.0160483
0.0280905
0.365809
0.459367
-0.035648
-0.722073
0.485096
0.18883
0.029089
-0.081426
-0.482951
0.772524
0.112245
-0.796641
-1.14552
-0.0489665
0.100275
0.0188419
-0.00331373
-0.0201491
0.0201491
0.211781
-0.0192994
0.0192994
0.701067
0.0918496
-0.0113621
-0.00535545
0.00668675
-0.0688267
-0.0229731
0.0229731
-0.0100229
0.0100229
-0.0218877
0.0218877
-0.0148923
0.0148923
0.108922
-0.294166
-0.0830202
0.221056
-0.0139464
0.0139464
-0.371464
0.511501
-0.140037
0.502636
-0.221841
-0.343741
-0.259873
0.558782
-0.125431
0.0732411
0.562032
0.566826
-0.0075097
0.0075097
0.0968922
0.0243507
-0.0243507
-0.0128135
0.0128135
0.751276
-1.18337
0.0343863
-0.255807
0.369304
0.00391783
-0.00391783
0.0126456
-0.0126456
0.0180022
-0.0180022
0.0238222
-0.0238222
-0.023053
0.023053
0.0344048
-0.0344048
0.481167
-0.0311962
0.0311962
-0.00315976
0.00315976
0.0236284
-0.0236284
-0.00478043
0.00478043
0.00879645
-0.00879645
-0.0694835
-0.0250755
0.0250755
0.224689
0.0136155
-0.0386492
0.0386492
0.00487526
-0.00487526
0.0159899
-0.0159899
0.032848
-0.032848
0.0259907
-0.0259907
0.00462626
-0.00462626
-0.00145047
0.00145047
-0.505305
-0.281267
-0.0084505
0.0084505
-0.00219212
0.00219212
-0.0373291
0.0373291
-0.0281551
0.0281551
-0.000353212
0.000353212
-0.412475
0.64647
0.260665
-0.0313344
0.0313344
-0.0401888
-0.0139221
0.0139221
-0.00138564
0.00138564
0.0376259
-0.0376259
-0.192683
0.189789
0.0024468
-0.0024468
-0.0236349
0.0236349
-0.503248
0.0449695
-0.356615
-0.0316672
0.0316672
-0.44719
0.0346678
0.0194029
-0.0308462
-1.32528
-0.0358444
0.0358444
-0.198312
0.141444
-0.0409145
-0.000805903
0.000805903
0.00400189
0.0463216
0.261354
-0.324224
-0.280518
0.604742
0.196589
-0.00355636
0.00355636
-0.194038
0.389734
-0.195696
0.77401
-0.4007
-0.37331
-0.457176
-0.662079
-0.0870873
0.368859
-0.485398
-0.34263
-0.57391
0.00914032
0.191405
-1.26786
0.0151748
-0.0151748
-0.000292716
0.000292716
0.030123
-0.030123
0.0262892
-0.0262892
0.00093003
-0.00093003
-0.000164487
0.000164487
0.0239824
-0.326956
0.178028
-0.302293
-0.000855116
0.000855116
-0.0450846
0.0450846
-0.03934
0.03934
0.193209
0.0371193
-0.230328
-0.00178371
0.317753
-0.544641
0.000637259
-0.000637259
-0.0114703
0.0114703
-0.0936772
0.0881087
-0.175196
-0.000285956
0.000285956
0.0924556
0.0144065
1.00036
-0.484872
-0.0801629
0.565035
-0.631518
0.0476526
-0.697105
-0.0386849
0.0386849
-0.682252
0.278113
0.0482455
-0.0482455
-0.641254
0.382004
0.264966
0.120972
0.00104189
-0.00104189
-0.825827
0.000798688
-0.000798688
0.310262
0.411725
0.0518902
-0.0520868
0.0520868
-0.000531015
0.000531015
-0.0413048
0.0413048
-0.0538407
0.0538407
0.00112029
-0.00112029
-0.0594641
0.0594641
0.00107627
-0.00107627
-0.0445192
0.0445192
-0.00111186
-0.0452032
0.0452032
0.00232734
-0.00232734
0.0469485
-0.0469485
0.000288178
-0.000288178
0.0478012
-0.0478012
-0.144753
-0.00182792
0.00182792
-0.00399168
0.00399168
-0.0538819
0.082883
-0.0101199
0.0101199
0.00551955
-0.00551955
-0.0576854
0.0576854
0.293618
-0.0179645
0.0179645
-0.0570836
0.0570836
-0.00780648
0.00780648
-0.0652915
0.0652915
-0.0134146
0.0134146
-0.0780611
0.0780611
-0.021173
0.021173
-0.0939728
0.0939728
-0.686663
0.248915
-0.527084
0.507251
-0.874693
0.117593
-0.568262
0.396438
0.00121112
0.155599
0.00383991
-0.00383991
0.316503
-0.724924
0.042325
-0.0278784
-1.04351
1.48311
1.23724
0.254089
-0.049675
-0.0294476
-0.395096
-0.57855
-0.0578417
0.392533
-1.2633
-0.0187154
0.0187154
-0.76719
0.0211094
-0.0211094
-0.000670966
0.000670966
0.30711
-0.380017
-0.00222375
0.00222375
0.0193039
0.0147606
0.596292
0.198073
-0.00855864
-0.010094
-0.00920129
-0.0938042
0.490461
-0.396657
0.201609
0.0270387
0.007144
0.942487
-0.00732382
0.0557793
-0.407691
0.438657
-0.487854
-1.01214
-0.221907
-0.0700927
0.0177169
-0.231822
-0.0821514
0.0560432
-0.00354066
-0.0145232
0.780963
-0.552426
-0.0364768
0.0645843
-0.0356299
0.0655411
0.128169
0.425357
0.235597
-0.165637
0.212029
0.0115161
-0.00187937
-1.2594
0.0208278
-0.100897
-0.254061
-0.0193875
-1.44734
-0.0707361
0.262537
-0.350192
0.38797
0.320814
-0.927428
0.04518
-0.0330985
-0.0937191
-0.344774
0.466959
-0.079194
-0.0279233
0.107117
-0.0266896
0.0266896
0.179356
-0.425247
-0.105379
0.122924
-0.0778657
0.0540077
-0.0660363
-0.0067552
0.0727915
-0.0291455
-0.150049
0.111237
-0.078549
-0.289654
-0.361026
0.650681
0.0142728
0.0578524
0.152507
-0.027912
-0.149223
0.0646129
-0.155246
0.306465
-0.0052408
0.0259458
-0.0282058
0.180713
0.00289603
0.255962
0.000141609
-0.000141609
-0.227646
0.911709
0.0882112
-0.169088
-0.0499251
-0.0186604
0.853968
0.699412
-0.00718152
-0.0279242
-0.534157
0.00707299
0.193328
0.0884651
-0.675622
0.314646
-0.0562717
0.383784
-0.673438
0.222173
0.517368
-0.0870587
0.0870587
-0.00030508
-1.34939
0.585139
0.764253
-0.20979
0.155379
0.104162
-0.157911
-0.59722
-0.12567
-0.0321181
0.0417209
0.929999
0.253293
-0.0991822
-0.0683469
-0.498669
-0.720828
-0.0728374
-0.268064
0.803071
0.581576
-0.263823
-0.262645
0.551189
-0.038344
0.385438
-0.267916
0.0937799
-0.467128
0.327091
0.123062
-0.123062
0.112292
-0.118517
0.00622454
0.00794139
-0.00126681
0.0206864
-0.249605
-0.45875
0.230741
-0.18702
-0.0437203
0.544781
-1.07467
0.20351
-0.987099
0.696639
-0.123025
-0.179268
-0.0424237
-0.0796803
-0.485266
0.0486071
-0.283503
0.0044071
-0.0193875
0.372882
-0.00522773
-5.84383e-05
0.000945863
0.0123695
-0.012164
-0.000205471
-0.105397
-0.016578
-0.163527
0.180105
-0.129733
-0.337395
0.0193039
0.346618
0.00212624
-0.369077
0.0828333
0.00246302
0.175215
-0.210863
-0.0119238
0.0119238
-0.000936235
0.00262267
-0.00947085
0.00113292
-0.0778485
0.000849131
-0.00116534
0.241861
0.0147223
-0.000714364
0.000714364
0.103094
0.515502
0.00157242
-0.291322
0.449226
1.12525
-0.474506
0.336826
-0.439247
-0.240071
0.134692
0.231552
-0.232521
-0.0186519
0.0172382
-0.00387135
-0.00688594
-0.179509
-0.382038
0.867134
0.483891
-0.459908
0.215606
-0.00155673
0.174947
0.00765198
0.00127646
0.00098791
0.0162503
0.266342
0.00132014
-0.000187301
0.715372
-0.650759
-0.243849
0.10943
0.933215
0.000806479
0.000996332
-0.0409145
-0.00567657
0.818185
-0.433089
0.510545
-0.541403
0.902425
-0.435618
0.582981
-0.186542
0.693579
0.00122407
0.00320849
0.0156334
-0.118137
0.138098
-0.232382
0.00924308
0.00104117
0.0635929
-0.0488047
-0.0147882
0.00110956
0.0465846
0.0170393
-0.0636239
-0.0881417
0.00303661
0.000183349
0.00161297
0.467128
-0.426016
-0.00451951
0.000284048
1.17537
-0.590234
0.388491
-0.0057214
0.000513187
0.21059
-0.0376954
-0.0402243
-0.1201
-0.0184432
-0.0034956
0.117464
0.0526639
-0.00158931
0.417344
0.000779505
-0.00363835
0.00363835
0.00513127
-0.0152253
7.49148e-05
-0.320874
-0.00363653
0.0709048
-0.10704
0.0189563
-0.00947951
-0.0656267
0.000217856
0.00216376
0.471171
0.00011186
-0.00439776
-0.0386427
-0.00196481
0.000494821
0.102231
0.193223
-0.711145
0.483942
-0.86598
0.00595739
-0.000245058
-0.689218
0.0955365
0.133733
0.59907
-0.0151559
0.0161754
-0.00384131
-0.00129701
-0.552262
-0.00321444
-4.40253e-05
-0.0417336
0.930709
-0.5247
-0.00242922
-0.000788092
-0.00559865
-0.0021161
0.0662346
-0.0223967
0.0223967
-0.0312663
0.033889
-0.00228693
-0.00760603
0.0379581
-0.0380166
-0.162565
0.0915849
-0.00560811
-0.0127697
0.0437004
-0.016085
0.060782
-0.0430651
-0.624599
0.569545
0.0190619
-0.00167964
0.326002
-0.159223
-0.0721288
-0.689791
-0.0780536
-0.1214
-0.0920865
0.0901217
0.685986
0.00052936
0.00956238
-0.00856605
0.30384
0.0570981
-0.144928
0.0878302
-0.0707158