/*--------------------------------*- C++ -*----------------------------------*\
| =========                 |                                                 |
| \\      /  F ield         | OpenFOAM: The Open Source CFD Toolbox           |
|  \\    /   O peration     | Version:  2306                                  |
|   \\  /    A nd           | Website:  www.openfoam.com                      |
|    \\/     M anipulation  |                                                 |
\*---------------------------------------------------------------------------*/
FoamFile
{
    version     2.0;
    format      ascii;
    arch        "LSB;label=32;scalar=64";
    class       volScalarField;
    location    "26.9";
    object      p;
}
// * * * * * * * * * * * * * * * * * * * * * * * * * * * * * * * * * * * * * //

dimensions      [0 2 -2 0 0 0 0];

internalField   nonuniform List<scalar> 
2186
(
1.14933
0.0827117
0.378797
1.46336
-0.793218
0.136326
1.07661
-0.497306
-0.345746
1.70183
1.33674
-0.506065
-0.503913
1.36633
-0.135026
1.36532
1.39289
-0.829574
0.0904451
-0.714551
1.75062
-0.673584
1.37441
-0.578836
1.36573
1.43801
1.58873
1.29734
0.85303
1.36635
-0.68837
1.36608
-0.670612
-0.451407
-0.511736
0.335302
-0.50723
1.73263
-0.612144
0.115717
-0.505131
-0.655749
-0.247614
-0.77352
1.2066
1.68195
0.757339
0.919273
-1.14472
-0.803831
-0.696996
1.17312
-0.240122
1.65312
-0.663649
1.34543
-0.298934
1.37279
-0.706131
1.18292
-0.765446
0.91488
0.815951
0.132066
0.844017
0.862311
0.935749
1.64544
1.54092
-0.311803
-0.493693
-0.746111
1.62592
1.39064
1.51711
1.55077
-0.925777
1.38692
-0.515782
-0.633101
-0.993759
0.146465
1.36159
0.893198
1.35628
1.36276
1.63819
0.133567
-0.0243128
-0.523824
1.34461
-0.725265
1.29523
1.54043
1.37498
0.670161
0.258264
0.866259
-0.794249
1.38574
-1.15602
-1.04362
0.928415
1.31047
1.39485
-0.742925
1.52239
-0.124009
1.32248
-1.07781
-0.583331
-0.785184
0.945707
1.63979
-0.398976
-0.585953
0.0718481
-1.20432
-0.524147
1.63222
0.188956
-0.839499
1.13145
-0.874694
1.37078
0.0446173
-0.787998
1.53851
-0.835137
1.0582
1.77645
1.6351
0.648422
1.05006
-1.06761
-0.816353
1.31673
-0.269469
-0.477504
-0.490381
1.07088
0.212425
-0.495609
1.10028
1.28619
1.32274
-0.108279
-0.791773
1.00811
-0.755529
-0.763312
0.980546
1.39016
1.57777
1.43702
0.929552
1.62654
0.70486
0.596723
0.827495
-0.492902
-0.436812
1.33239
1.37804
0.0885915
0.114112
-0.458101
-0.52673
-0.222127
-0.304412
0.607673
1.3897
1.3935
1.50555
0.673939
-0.133018
-0.791929
1.33381
-0.561868
1.14986
-0.513178
1.3797
-0.706105
0.807992
0.782919
-0.782337
-0.655372
1.43667
-0.401626
-0.524257
-0.719401
1.61216
-1.13155
1.36345
-0.494432
-1.25869
0.301707
1.53007
1.36786
-0.682381
-0.469104
-1.38042
0.49625
1.39855
-0.511062
-0.777499
-0.538147
-1.00955
1.29452
-0.926259
0.920705
0.035061
1.63041
1.10237
1.20408
1.34423
1.49433
1.36867
1.29429
1.41642
0.783638
-0.599245
-0.699213
0.323458
0.6011
-0.838025
-0.787045
1.33504
1.51243
-0.602936
-0.457021
-1.37332
0.778692
1.05128
1.16037
1.29649
1.51909
-0.946934
1.27832
-0.488055
-0.804202
-0.599164
1.2932
0.99777
1.45958
1.54625
1.41753
1.39072
-0.488919
1.22569
1.45435
-0.493635
1.27795
1.0481
-1.38329
-0.49653
-0.511489
1.45948
1.38917
-0.512393
-0.244857
-0.345507
1.35459
-0.9136
1.03576
1.38422
1.23787
-0.469028
-0.701895
1.34838
0.915765
-0.0776861
-0.370455
1.68126
-0.774118
-0.491705
1.21872
1.58292
1.35847
-0.793476
-0.792979
-0.249096
1.23225
-0.49806
0.950553
1.34381
1.40843
0.222486
0.0217571
1.31497
-0.472509
1.31837
1.59446
1.38517
1.38256
0.0234648
-0.807901
-0.588385
-0.817947
-1.39147
-1.16253
0.788192
-0.125967
0.868172
1.57064
1.51725
1.23098
-0.171187
1.49044
-0.448548
0.0124643
-0.472511
-0.492927
-0.537925
0.759227
-0.759313
-0.73471
0.390983
1.25238
-0.970124
0.62507
-0.776302
-0.121773
-0.552558
-0.778838
1.57944
0.196902
-0.300242
-0.713587
1.19102
0.836986
-0.258679
0.924825
-1.44576
-0.522857
0.92459
1.39368
1.37729
-1.31226
1.51273
1.29008
0.623678
1.64459
1.35972
1.31084
0.77487
-0.514799
-0.489611
1.16712
-0.792221
-0.541317
-0.438915
-0.626393
-0.532412
1.69039
-0.735304
-0.70067
-0.488955
1.35958
-0.795509
-1.41025
-0.810765
1.16279
-0.298806
-0.469712
1.6027
1.66492
1.52755
-0.495625
-0.616159
1.70241
1.36528
-0.738814
0.707875
-0.487715
0.585612
1.52002
1.29617
1.25445
1.68953
-0.061303
-0.523698
-0.71892
-0.577557
-0.278737
-0.650182
0.140805
1.62638
-0.88944
-0.259659
1.34946
0.988963
-0.492288
-1.00328
-0.487554
-0.826417
-0.466898
-0.497828
-0.737175
-0.774989
1.56762
-0.627804
-0.582245
1.38146
-0.435162
1.66255
-0.611985
-1.20287
-0.811127
1.36492
-0.507747
1.38775
1.24917
-0.668691
1.42516
-0.856418
-0.507185
-0.469078
1.41325
1.31465
-0.485513
-0.488422
-0.47606
1.29214
-0.442321
-0.297523
0.76391
1.27955
1.25797
1.09388
-0.483029
-0.770661
1.15496
-0.317834
1.18835
-0.70826
1.38699
0.174633
1.52794
-0.521731
1.25461
1.00208
1.39465
-0.454384
1.35435
-0.652067
-0.507586
1.36798
-1.34799
0.367608
-0.624541
0.0441802
1.36757
0.533093
0.700557
1.36225
0.477078
0.318922
0.0593536
-0.700015
0.660198
-0.51131
0.991175
-0.55685
1.37452
1.53654
-0.487467
-0.496492
-0.570284
-0.673528
0.684854
-0.562869
1.11572
0.404882
-0.511558
1.43686
-0.557463
0.616942
0.708869
-0.385843
1.07551
0.586708
-0.674573
-1.00767
-0.197613
-0.582973
1.38075
-0.99219
1.48693
1.62612
1.61042
0.927749
1.47598
-0.780594
-0.619475
1.2723
0.631556
1.35077
-0.651936
-0.519435
-0.586079
1.17852
-0.500968
-0.539245
-0.703467
-0.74618
0.199198
-0.213525
1.0227
1.00802
-0.485859
-0.168319
1.15391
0.491935
1.4438
-0.589166
0.0221792
-0.49934
1.03635
-0.105815
1.57538
1.71739
-0.733508
-0.785219
-0.424927
0.538233
-1.00354
1.44095
-0.194389
1.39674
1.06916
-0.594644
1.19118
1.15321
-1.27367
1.2534
-0.817067
-0.717988
-0.993805
-0.485989
-0.786006
-0.867548
-0.609982
1.36881
0.451919
-0.780791
0.99708
1.51516
1.61366
0.0778377
1.14014
-0.319812
1.1811
-0.224537
-1.09933
-0.733834
0.757432
1.11252
1.38315
-0.347585
-0.479882
-0.289812
-0.527551
0.306337
1.13361
-0.250256
0.170041
-0.546824
1.24706
-1.46458
1.30616
-0.705889
-0.628453
1.32094
1.05518
-0.907603
0.0255037
1.31897
1.69178
1.38907
-1.64683
-0.857498
1.19649
-0.648786
1.18257
-0.447772
0.699566
1.3157
-0.532742
-0.700073
1.3405
-0.401699
1.56577
0.0642601
1.28067
0.065949
1.02492
-0.504432
1.61376
-0.706799
-1.11573
1.25663
0.783442
0.770505
-0.498151
-0.693202
-0.249552
1.09474
-0.158309
-0.716273
-1.34518
1.3818
0.649588
-0.841321
1.04423
1.19487
1.34103
-0.415639
-0.596961
-0.737214
1.38062
1.49336
0.900688
1.37691
-0.0526429
1.44368
0.094007
-0.177857
-0.696857
1.29788
1.33947
-0.489493
1.13702
-0.712333
1.11379
-0.7846
1.30259
1.34095
1.38188
-0.679887
1.2343
-1.06634
-0.6087
1.54121
-0.785383
-0.777378
1.45273
-0.261824
1.41925
-0.984122
-0.722627
1.34736
1.18262
1.75567
1.3662
-0.923111
1.48703
1.41768
-0.537865
0.905682
-0.12399
-0.465912
1.86295
-0.487333
1.46023
-0.76901
0.714104
1.36703
-0.511912
1.34736
-0.363186
1.22082
1.32245
1.3827
0.147431
-0.53872
-0.177557
0.978267
1.05551
1.45233
-0.458437
1.11676
-0.573914
-0.218933
-0.728101
1.23152
1.5495
-0.837938
-0.454678
-0.157012
1.59144
-0.193034
1.01593
-0.0549645
-1.26056
-0.489636
-0.687724
-1.45386
1.12115
-1.20378
-0.648798
-0.121161
-0.067034
-0.722764
-0.460133
-0.52313
1.32616
1.3852
-0.508149
0.0934606
1.34233
1.3095
1.38583
-1.21962
1.33957
1.43763
1.36611
1.46361
-1.39024
-0.0593523
-0.703004
0.890763
1.37147
1.11247
0.57117
0.226676
-0.795551
0.0559836
1.66104
-0.357219
0.183211
-0.167013
0.0520694
-0.501486
1.08135
-0.563564
-0.392131
-0.505952
1.36252
1.36882
1.37363
-0.0135585
0.594364
1.64204
0.253459
1.3662
0.0568623
0.0176204
1.05259
1.38393
1.40035
0.158421
1.33312
1.33255
-0.918144
0.218823
1.37434
1.38746
1.38536
-0.49543
-0.572525
1.38575
1.0164
1.36904
0.448281
0.084934
0.159767
-0.54779
-0.574854
-0.754982
-0.272618
-0.32809
1.39068
1.39493
1.06814
-0.53679
1.36209
0.294785
0.132183
-0.032655
1.36794
1.39105
1.38649
1.39779
1.37403
1.36656
1.35598
-0.185568
0.0722612
0.133983
0.15925
0.0499673
0.101374
-0.0144634
0.175882
0.291341
0.311891
-0.10717
1.36305
1.38159
1.37658
1.39836
1.39539
1.38671
1.38922
1.37168
1.37146
0.209138
0.136346
1.38675
1.38649
-0.0428106
1.38912
1.38668
0.127784
0.186386
0.21604
-0.801773
-0.991105
1.36865
-0.494678
1.36729
1.02702
1.47642
-0.489349
1.36805
1.29582
1.32165
-0.699464
-0.546813
-0.52181
0.287375
0.177813
-0.689222
1.38057
0.171612
1.45727
1.37157
0.0336107
1.49369
1.65036
-0.0241764
1.20723
1.07203
1.36364
1.38196
1.37713
-0.488671
0.747841
0.124828
1.37108
1.3824
-0.559008
0.284183
1.37217
0.0927772
-0.143028
1.37251
-0.348165
1.34741
1.38418
-0.213699
1.37968
0.0798796
1.36956
1.42968
-0.964854
1.3862
1.39338
0.192238
0.99226
1.37205
1.37439
0.388312
-0.587648
1.12559
1.75293
1.38044
1.37374
1.37654
0.222549
1.37296
1.36232
1.37726
1.37238
1.37434
1.37267
1.46697
-1.45892
-0.314503
1.37468
1.36676
0.54537
-0.391786
-0.553359
-1.70042
1.21811
-0.267745
-1.92308
0.181006
1.3695
1.13098
0.276914
-0.46188
-0.00152991
-1.05468
-0.778286
0.138895
-1.6463
-0.90436
-0.137255
1.37792
0.351079
1.36485
1.27282
-0.493515
1.57594
-1.43797
-0.851512
1.14162
1.45186
0.719608
-0.514889
1.36506
-0.0221314
1.37538
-0.794667
1.37604
-0.396627
1.36667
-0.000282969
-0.609041
1.37759
1.39276
1.29417
-0.211188
-0.525263
-0.604134
-0.168747
1.39144
1.25459
0.0694568
1.3658
1.40964
1.35703
-0.0733242
-0.934204
-0.226321
-1.45938
0.747482
1.37196
-0.0436747
1.3721
-1.11431
1.3677
1.40647
1.37964
0.0290885
-0.0441047
1.40651
-0.484455
1.38181
1.38453
0.437171
-0.49938
1.25232
1.47813
1.36472
1.35861
-0.490119
-0.906292
1.34603
0.828178
1.37997
1.25073
-0.76915
-0.492995
1.19257
1.63162
1.36711
0.759693
-1.92255
0.0247966
-1.43213
-1.89757
1.3592
-0.91427
1.34985
-0.814053
-0.491592
-0.785519
0.740645
-0.465725
-1.82051
-1.05479
1.36544
-0.516163
1.22273
-0.487854
0.253807
-0.608574
0.307163
-1.30603
1.33412
-0.0909304
-0.486919
-0.861359
-0.849254
1.36129
-1.39472
0.347999
-1.36108
1.42375
-1.56191
-0.489438
1.4366
1.35971
1.35231
0.892601
-0.496468
1.37093
1.394
-0.957562
-0.75099
1.36518
1.20401
1.59123
1.38495
-0.80628
-1.10508
-0.76072
-0.564864
-0.763141
-0.504429
-0.142771
-0.453818
1.2076
0.403116
1.37883
1.56268
1.3623
-0.525029
-0.464121
1.36679
-0.752333
-0.930595
1.35159
0.204923
-0.780515
-1.11565
-0.715845
1.30577
1.27585
-1.18015
1.221
0.982165
-1.16791
1.35731
-0.394843
1.1536
-0.709802
1.37419
-1.38853
0.835828
1.36811
1.41627
-1.45443
-0.784724
1.17468
1.73862
1.38818
1.34099
-1.11002
1.65271
-0.480921
-0.821935
-0.388754
0.886118
-1.42548
1.47702
1.55913
-0.48866
-0.838443
1.36261
-0.660021
1.24992
1.39736
1.32269
-1.40078
1.36791
0.0683896
1.39749
-0.0133751
-1.24573
0.0880171
1.37121
0.098724
-0.276168
-1.82639
1.38263
-1.50703
1.52587
0.682117
1.65938
1.30602
-0.713185
1.35496
-0.726586
1.33299
1.33679
-0.40534
-1.80275
1.45756
1.35343
1.55545
1.31579
0.507715
1.31589
1.36213
1.20759
1.37429
-0.504105
-0.79446
-1.04482
1.47942
-0.484517
-0.641365
-0.711948
-0.654962
-1.43065
0.0728178
1.18245
-1.23422
1.33144
1.38863
-0.756063
-0.310269
-0.73212
-0.24203
-0.83067
-0.72621
1.36913
-1.4698
1.38435
1.6325
1.42559
0.0291192
1.39113
1.29239
-0.299437
1.33912
1.34718
-0.750308
1.34701
1.26431
0.106288
-0.799619
1.83943
-1.41712
-0.715558
-0.500404
0.657233
1.35106
-0.786025
-1.2818
-0.687348
1.49796
-0.758416
1.17257
1.37799
1.35972
-0.274728
1.34903
-1.44866
1.38026
1.39538
-0.227386
1.38603
0.796725
1.36529
1.1141
-1.24047
0.234474
0.0622888
0.152829
1.5873
0.17476
1.39187
1.7427
-0.836046
0.00970411
1.43601
0.0215853
1.43324
0.0239721
0.0673143
1.43064
1.4354
0.842651
-0.37166
1.07801
-0.629701
-0.779913
-0.498123
1.38961
1.37412
1.82469
-0.516549
-0.589788
1.15307
-0.53707
1.4357
1.3324
1.36874
1.35755
1.333
-0.675249
-0.501817
-0.489148
1.14957
1.27887
-1.52882
-0.737204
-0.488241
1.38556
1.40884
-0.550901
-0.897771
1.40422
-1.00094
0.504084
1.08787
1.24462
-0.6468
-0.504547
0.00202296
-0.544864
-0.618709
-0.281375
-1.2337
1.78312
1.69475
-0.8151
-0.566967
1.3852
1.36202
-0.783011
0.367338
0.0717722
0.964581
1.4613
-0.27422
1.37512
-0.734628
-0.496383
-0.769348
-0.746842
-0.786116
1.36051
-0.546179
-0.236213
1.70686
-0.530147
1.3769
1.57315
-0.739568
1.45565
1.66299
-0.790445
1.57439
-0.518529
-0.48315
1.36798
-0.798754
1.42488
1.37931
-0.509435
1.43698
0.570695
-0.696804
1.40944
1.4434
-0.464372
-0.507683
1.30383
1.36915
-0.492707
-1.47735
1.61437
-0.502389
1.26657
-0.085631
1.3237
-0.521672
-0.587738
-0.486691
-0.796968
1.42254
1.41114
1.7009
1.53831
1.30499
1.42861
1.3944
-0.487368
1.4644
1.55471
-0.770947
-0.496921
-0.748099
1.65557
-1.08322
-0.479237
0.113529
1.26349
-0.779138
-0.825884
1.3498
1.43283
-0.487486
-0.747137
-0.486453
0.357049
-1.39618
-0.784198
-0.488467
1.21468
1.30757
-0.727363
-0.228457
-0.424398
1.16357
-0.502126
-0.805707
-0.490763
1.35827
-0.415256
-0.754548
1.74101
1.27917
0.817102
1.60654
-0.316505
1.39373
1.3794
1.50104
1.62021
-0.965056
0.998508
1.34175
0.689409
-0.493866
1.78924
1.34561
1.3024
1.44361
-0.76292
-0.36534
1.24732
1.14028
1.34163
-0.561289
-1.01203
1.36087
-0.490691
1.21948
-0.857354
1.74785
-0.498165
1.05535
1.15574
-0.710684
-0.50271
-0.965497
1.4634
-0.71592
-0.513016
1.11726
0.932415
-0.635057
1.4343
1.23841
-0.720886
-0.865754
1.31356
-0.479753
-0.508293
-0.480674
-0.686633
-0.190512
1.33831
1.38774
-0.962836
1.03873
1.37788
1.70037
0.700863
0.587215
0.304155
1.29361
-0.0128017
-0.706114
-0.956468
-0.373838
-0.702388
1.35881
-0.712863
0.470609
-0.512641
0.860978
0.989867
-0.697215
1.05397
-0.396616
0.918668
-0.693101
0.782118
-0.706701
0.815729
-0.521337
0.693559
-0.689658
1.23402
-0.466662
-0.689994
-0.696928
-0.506684
1.38639
0.518642
-0.727099
-0.531872
0.329098
0.411326
-0.709182
-0.499414
-0.772628
0.315528
-0.546283
0.155171
-0.579472
-0.0648333
-0.854653
0.145248
1.24353
0.116612
-0.566346
1.34403
0.185835
-0.107249
0.867076
1.34763
-0.968289
-0.880479
-0.527398
-0.688142
1.28358
1.76495
-0.65529
-1.28396
0.454175
-0.542933
-0.149626
0.0756211
1.33225
-0.770789
1.33277
-1.02539
1.82056
0.87132
1.8289
-0.740445
1.60203
-0.320456
1.4151
-0.205484
-0.524671
1.48895
1.37115
-1.21479
-0.51312
-0.692779
1.32192
-0.759449
1.35326
-0.86333
-0.481842
-0.487712
1.67086
1.3959
1.52281
1.37475
1.38831
-1.19735
-0.0198975
1.53907
-0.354581
-0.574069
1.75276
-0.745991
1.27114
1.34565
1.74713
1.82068
-0.758859
-0.353165
1.41118
0.651909
-0.0205079
-0.639958
-1.15059
-0.646702
-0.743901
0.961035
-0.732064
1.61322
-0.362396
1.38035
1.48599
1.39152
-1.01496
-0.503408
-0.581548
1.46247
-0.609776
1.50612
-0.515578
-0.688725
1.57315
1.71489
-0.537893
0.374243
1.32488
-0.605442
-0.764281
1.06814
1.60725
1.61312
-0.811693
1.23394
1.17442
-0.522135
1.62845
0.582256
-0.73306
-0.702864
0.0777057
0.0921371
1.45613
-0.653389
0.557691
0.0387065
-0.0959104
-0.738481
-0.520028
1.35504
-1.04002
1.37784
0.168581
0.514535
1.09389
0.686542
-0.525592
-0.400931
-0.745643
-0.217026
0.138448
-0.961421
1.26395
-0.506133
-0.189498
1.36173
-0.531681
-0.772616
1.38516
-0.450072
1.3024
0.0629623
-0.487528
0.106455
1.19027
-0.403109
-0.316007
1.2853
-0.485542
1.45089
-0.146274
-0.633389
-0.555035
-0.520661
1.88686
-1.20656
1.51904
0.136184
1.34118
1.5501
1.12563
1.40915
1.49182
0.0995891
-1.33421
1.34844
1.49391
1.7561
-0.536879
1.41138
0.990117
-0.523213
1.19632
1.6216
-0.366819
1.67523
0.429526
-0.82148
1.24397
-0.513324
-0.693097
1.32259
-0.247607
1.43377
1.46845
1.31578
-0.811024
1.24684
1.59373
-0.796709
-0.100467
-1.39904
-1.04064
-0.607165
-0.508473
1.76364
1.16155
-0.794296
1.32296
-0.505262
-0.63757
1.68324
1.55719
-1.03747
-0.573005
-0.51785
-0.486033
1.36005
-0.787147
0.503026
-0.703783
-0.241159
1.43921
-0.493891
1.72172
1.41266
1.2728
1.38492
1.63445
-0.664989
-0.498962
1.4024
1.54383
-0.792236
1.38328
-1.14712
-0.485797
-0.490981
1.41366
1.44316
-0.48642
-0.790629
0.960448
0.359092
-0.881055
1.34716
1.28658
-0.688248
1.32824
1.37271
-0.365911
-0.774534
-0.800984
-0.486714
-0.489828
1.71832
-0.659496
1.23805
-0.783927
1.72093
1.23554
1.18703
1.28911
-0.586245
-0.642081
-0.488649
0.83267
-0.75154
1.33112
0.717082
-0.402524
1.20534
1.41576
1.40961
1.37244
0.0439289
1.41227
0.0154395
0.829042
1.14219
-0.364193
-0.766837
-0.793125
-0.500028
1.38354
1.37891
1.38329
-0.29768
-0.374655
-0.491601
-0.619497
1.37849
1.62358
1.39215
-0.758887
-0.709657
-0.673888
-0.33858
-0.515527
-0.520407
0.0287987
1.36065
-0.833416
-0.72455
0.030244
0.334166
1.03157
-0.944425
-0.495751
-0.375041
1.28406
1.80414
0.236606
1.47903
1.84122
0.967144
1.55746
-0.776826
-0.400673
1.80631
-0.500117
0.727357
-0.744361
-0.489235
-0.687473
-0.713932
1.36672
1.14536
1.52251
1.48351
0.0412398
1.19121
0.30556
0.000749636
-0.505288
1.48582
1.03348
1.38752
1.40414
0.110558
0.114474
1.40377
-0.320995
-0.525748
-0.719092
-0.700205
0.996755
-0.708999
1.33863
1.0828
-0.501039
1.64287
-0.760105
-0.105763
1.35777
-0.69157
-0.589252
-0.33449
0.899023
-0.730977
-0.88201
1.23355
1.39575
-0.18689
0.47483
-0.440193
-0.510307
-0.733399
-0.931137
0.239999
1.01684
-0.633837
-0.705517
1.59697
0.534501
0.643647
-0.70016
-0.490328
1.37316
1.45551
0.823612
0.9527
-0.695308
-0.552929
-0.338044
0.741498
0.863309
-0.691349
1.1931
0.408259
-0.687177
1.77928
-0.690127
-0.280063
-0.488229
-0.630378
1.25508
-0.706774
-0.791992
-0.535893
0.432834
-0.74631
0.252513
-0.810371
0.242393
1.51813
-0.806198
0.252552
-0.56326
0.0593065
1.67332
1.79812
1.56124
1.3785
1.53685
-0.52598
1.36296
-0.765996
1.45118
-0.528916
-0.511393
1.67258
-0.226195
0.892152
-0.981464
1.78919
0.197506
1.72736
0.897184
1.10571
-0.737103
-0.74851
-0.524202
-0.856144
1.68452
1.53804
1.35894
1.03101
1.36849
1.27913
1.12312
-0.686636
-0.486545
0.520408
0.23305
1.09595
1.37976
0.395253
-0.737881
-0.683272
-0.360077
-0.525867
-1.21752
1.75222
1.39871
1.37509
0.0416737
0.0867905
1.39989
-0.959974
-0.511516
-0.305723
-0.530512
1.08474
-0.720966
-0.695906
0.118153
1.36527
-0.387853
-0.48866
1.36745
1.02461
1.10915
1.36408
-0.515603
1.18278
1.57538
1.24949
-0.51904
1.36392
0.776523
0.740981
-0.658254
-0.711161
1.79726
0.669875
-0.876596
0.463794
1.2245
1.31464
-0.561975
-0.549251
0.0957724
-0.742531
-0.457341
-0.794754
0.0548492
1.3584
-0.804507
1.34817
1.66701
1.50044
1.33983
1.4183
1.48283
1.36837
-0.639217
-0.229879
-0.205379
-0.607168
-0.378868
-0.693533
1.49419
1.37935
-0.506463
1.34772
-0.774669
-0.437816
-0.691133
-1.14047
0.944527
-0.387627
1.35405
1.21586
-0.920711
0.02604
1.70336
-0.353132
-0.310362
-0.389776
-0.795209
-0.657224
1.41645
1.08008
1.4886
-0.553674
-0.839007
-0.490609
-0.150746
-0.509326
-0.282841
-0.800033
-0.45614
1.22613
-0.320852
1.85489
-0.947959
-0.139378
-0.557104
-0.691698
1.31435
-0.565499
-0.581233
-0.466466
0.129278
1.51882
1.61485
-0.506651
-0.861251
1.13247
-0.544453
-0.430325
1.49334
-0.956571
-1.30396
-0.860195
1.05436
0.00145719
-0.514071
1.3586
0.264013
-0.796265
1.36713
-0.743816
-0.787456
-0.807341
-0.7715
0.361651
-0.516952
1.6472
-0.497586
0.583881
-0.528425
1.09724
-0.653196
-0.662318
0.940344
1.15509
1.42706
1.33908
1.52305
-0.704281
1.23354
0.956571
-0.785808
1.27608
-0.166187
-0.684825
-0.405889
1.57327
1.55652
-0.677087
-0.691438
-0.609796
1.32911
-0.747185
0.331446
-0.35992
-0.697952
1.61405
1.33832
-0.742448
-0.80737
-0.746121
-0.728811
1.25534
-0.776058
1.3007
0.495244
1.00356
1.14376
-0.670763
-0.709011
1.2599
-0.695974
0.0391002
1.65046
-0.490651
-0.723964
1.12123
-0.801453
-0.797883
0.244797
-0.563631
1.73099
-0.19426
0.567522
-0.746426
1.71354
-0.756033
-0.807286
0.935201
-0.37047
-0.528388
1.72176
0.966946
1.41672
-0.7955
1.55576
-0.922408
-0.3091
-0.789538
-0.790059
-0.760698
1.58896
0.863088
-0.490438
-0.753561
-0.5237
1.46806
-0.820489
1.68894
-0.526889
1.03953
-0.717093
0.645233
0.823783
0.7873
0.700852
0.602893
-0.808098
1.33656
-0.786432
-0.508531
-0.397825
0.689918
1.72895
0.138504
-0.798163
-0.771547
-0.72052
0.531426
-0.939073
-0.713686
1.25452
0.605627
-0.733427
1.7928
-0.518444
-0.813508
1.74083
-0.723862
0.408769
-0.787768
-0.692576
-0.709887
1.76715
-0.679985
1.66296
-0.707108
-0.735564
1.51451
0.22842
-0.796195
0.852512
-0.554481
0.265577
0.0219596
-0.713949
1.19912
-0.47177
-0.715339
-0.6947
-0.6933
-0.533197
1.23407
0.0802937
0.0221753
-0.737038
1.68811
-0.430518
-0.800672
-0.660021
0.255461
-0.828733
-0.673902
-0.732408
0.345131
1.5714
-0.765701
-0.521514
-0.823093
-0.256455
-0.00571852
-0.538328
1.77458
1.69991
0.691698
-0.704498
-0.530033
0.600813
-0.527692
1.77897
0.471527
1.48175
0.994751
1.69234
0.344645
-0.837007
-0.681104
0.181614
-0.786656
0.181045
0.308545
-0.706625
1.67876
0.174336
0.48421
0.069794
-0.511074
-0.723349
)
;

boundaryField
{
    frontback
    {
        type            empty;
    }
    Top
    {
        type            zeroGradient;
    }
    outlet
    {
        type            fixedValue;
        value           uniform 0;
    }
    bottom
    {
        type            zeroGradient;
    }
    Inlet
    {
        type            zeroGradient;
    }
    rectangle
    {
        type            zeroGradient;
    }
}


// ************************************************************************* //
