/*--------------------------------*- C++ -*----------------------------------*\
| =========                 |                                                 |
| \\      /  F ield         | OpenFOAM: The Open Source CFD Toolbox           |
|  \\    /   O peration     | Version:  2306                                  |
|   \\  /    A nd           | Website:  www.openfoam.com                      |
|    \\/     M anipulation  |                                                 |
\*---------------------------------------------------------------------------*/
FoamFile
{
    version     2.0;
    format      ascii;
    arch        "LSB;label=32;scalar=64";
    class       surfaceScalarField;
    location    "43.1";
    object      phi;
}
// * * * * * * * * * * * * * * * * * * * * * * * * * * * * * * * * * * * * * //

dimensions      [0 3 -1 0 0 0 0];

oriented        oriented;

internalField   nonuniform List<scalar> 
3181
(
-1.04358
0.400645
0.642932
-0.416309
0.384828
0.0314815
0.5464
-0.378629
-0.167771
0.126101
-0.20875
0.0826483
0.0211993
-0.00867758
-0.0125218
0.727453
-0.48029
-0.247162
0.157363
-0.150722
-0.00664098
0.0314863
0.00526809
-0.0367544
0.477787
-0.895494
0.417708
-0.075427
0.143004
-0.0675768
-0.0101552
-0.0488886
0.0590438
0.203917
0.015553
-0.21947
-0.0112823
-0.0241311
0.0354134
-1.10534
0.151459
0.953882
-0.330086
0.738873
-0.408787
-1.11917
0.635488
0.483684
0.0860956
-0.93159
0.845494
-0.238152
0.317474
-0.0793217
0.885651
-1.73779
0.0221013
0.00051978
-0.0226211
0.0292358
-0.0813834
0.0521476
-0.0730789
0.0660687
0.00701017
1.07155
-1.04554
-0.0260093
0.0513866
0.0254169
-0.0768035
-0.959677
0.327413
0.632264
-0.111775
0.237876
0.31113
-0.240345
-0.0707857
0.0313467
0.0665834
-0.0979301
-0.402679
0.331427
0.0712524
-0.0337953
-0.0208728
0.0154986
0.00537418
-0.0367168
-0.922961
-0.00620616
-0.0545877
0.0607939
0.120409
0.834161
-0.95457
-0.0446269
0.0450344
-0.000407517
0.175038
0.270993
-0.446031
1.00211
-0.881704
0.0688555
-0.0396197
1.50616
-0.799101
-0.707061
0.411027
0.316426
-0.0513788
0.0400964
-0.0767882
0.00370933
-0.440982
0.110896
-0.118909
0.0421213
-0.625741
0.12923
0.496512
-0.154869
0.0794418
-0.1801
0.18469
-0.00459048
-0.279573
-0.0823477
0.361921
-0.140018
1.66594
-1.52592
0.0300377
0.183914
-0.213952
0.00122856
-0.0958331
0.101533
-0.00570024
0.507447
0.231425
-0.096214
0.134594
-0.0383799
0.11839
-0.124596
-0.178221
0.205754
-0.0275332
0.169615
0.0695336
-0.239148
0.115421
-0.12173
0.00630862
1.24673
0.259431
-0.854642
-0.188934
0.247113
-1.47084
1.22372
0.545587
0.225178
-0.770765
-0.438767
-0.201141
0.639908
-0.474944
0.885971
-0.266229
0.811816
-0.332737
-0.111136
0.443873
-0.20363
-0.19905
-0.195318
0.164975
0.0303432
0.125182
0.288885
-0.414067
-0.463738
0.941525
-0.0158446
0.047331
-1.77651
2.02363
0.195777
0.115353
-0.185144
-0.114101
0.299245
-0.270929
0.350928
-0.0799995
-0.0859379
0.0945083
-0.00857037
-1.91653
-0.919042
0.00790537
0.911137
-0.0468473
0.00222041
-1.06063
0.772041
0.288592
0.527721
-0.172848
-0.354872
-0.661317
0.186373
1.10384
-0.952381
-0.704997
1.15537
-0.201488
1.06712
0.161537
-0.175806
0.0142691
0.535498
-1.01579
0.566477
-0.566477
-0.00732439
-0.00293661
0.010261
-0.219652
-0.0550234
0.274676
-0.00358534
-0.0209677
0.0245531
-0.455481
0.84266
-0.387179
-0.0127879
-0.245863
0.25865
-1.08935
0.0438125
0.339837
0.0547528
-0.39459
0.130091
-0.84966
1.07484
-0.00879542
0.113204
-0.104409
-0.0182239
-0.159997
-0.563057
0.0492216
0.513835
-0.117983
-0.445074
0.115048
-0.964708
0.331898
-0.787379
0.927337
-0.841242
0.083107
0.0506106
-0.133718
0.0795799
0.0504887
-0.130069
-1.21583
-0.228138
1.44397
-0.253422
0.42165
-0.168229
-0.388036
0.263113
0.124923
-0.46323
-0.597403
0.0753386
-0.0453009
-0.162155
0.155995
0.00616017
-0.0763821
-0.0111627
0.0875449
-0.73068
-0.164814
-0.0301446
0.0184229
0.0117217
-1.49351
-0.634874
2.12839
2.0267
-0.36076
-0.0236657
0.0163413
0.0458453
0.149932
-0.196692
0.37173
0.0145024
0.271448
-0.285951
0.134763
0.0664045
-0.201167
0.0136738
0.445525
-0.459199
-0.594591
-0.52458
-1.52951
0.0359961
-0.0269947
0.0181993
-0.11044
0.190483
-0.0800429
-0.224479
0.0257111
0.131652
-0.0583279
0.0746887
-0.0163608
-0.0999586
-0.0231521
0.123111
0.0817115
-0.0817115
-0.19323
0.218941
0.409738
0.198417
0.10865
0.097104
-1.23372
0.769985
-1.53993
0.101219
1.43871
0.0344614
-0.0311636
-0.00329785
-0.0257622
-0.0488962
0.0746583
0.529907
0.00229387
-0.532201
-0.0309245
0.0311459
-0.000221305
-0.208068
0.0148388
0.163574
0.679085
-0.369183
0.532757
-0.000233155
-1.2156
-0.0489104
0.0701097
0.499982
-0.309351
-0.190631
-0.0198604
0.0227037
-0.00284333
0.051532
-0.331105
0.0246928
-0.943735
0.0509799
-0.16142
-0.296919
-0.415085
0.0653226
1.36242
-0.921351
-0.441069
1.06847
0.293954
0.0719385
0.289983
0.0302185
0.00424294
0.069479
0.0193884
-0.0888674
-0.255275
-0.581949
0.837224
-0.367523
1.42115
-0.326096
-1.41169
0.255304
-0.0147493
0.0128408
0.00190857
-1.16903
0.15514
1.01389
-0.0250794
-1.14395
-0.300597
0.640435
-0.906897
-0.0182665
0.00451522
-0.261768
0.257252
1.43577
-1.55469
0.118921
-0.0158925
-0.0330179
0.565629
-0.820904
0.496188
-0.346797
-0.14939
-0.291254
-0.114914
0.406168
0.240555
-1.01287
-0.076475
0.030312
-0.0529331
-0.546068
0.344927
-0.241089
0.0183042
0.222784
0.0704059
-0.0862985
0.00832807
-0.00832807
-0.115485
0.126419
-0.0109334
-0.286026
-1.25391
0.0256342
0.0181293
-0.0437636
0.0393792
-0.105445
0.0660659
-0.218099
0.0227813
1.63374
-0.496074
-1.13766
-0.197593
0.458846
-0.261253
0.0210958
-0.0207824
-0.00031331
-0.143049
-0.244987
-0.18086
-0.00461536
0.185476
-0.17871
0.303891
-0.0971081
0.0954654
0.00164269
0.0755185
0.00575237
-0.0812708
-0.0722877
0.0642789
0.0080088
0.713274
-0.238526
-0.474748
-0.232074
-0.052261
0.284335
-0.699085
0.663252
0.0358323
-0.010227
0.0356439
-0.0251265
0.0280938
-0.00296731
-0.0338511
-0.0429525
0.838017
1.18868
0.175575
-0.884447
0.708871
-0.0426056
2.05675
-2.01414
0.388846
-0.0294462
0.595923
0.0582118
0.199332
-0.0645696
-0.0681427
-0.0276903
0.244221
0.152581
-0.0730014
0.737768
-0.410354
0.0631654
0.21151
0.0458839
-0.160401
0.114517
-0.771106
-0.122844
0.89395
-0.0158586
0.0158586
0.0285193
-0.261504
0.532497
0.00947919
-0.241553
0.283035
0.0344388
-0.025426
-0.00156873
0.131742
-0.141897
-0.348015
0.335227
-0.0242403
0.118096
-0.0938554
0.403511
-0.387958
-0.384422
0.139736
0.244686
-0.214693
0.286632
0.194693
-0.504044
-0.208393
0.609037
0.171816
-0.0364677
0.0364677
0.357558
0.198431
-0.555988
0.393742
0.0279081
-0.0288975
0.0316551
-0.00275759
-0.100748
-0.0050587
-0.0250859
-0.0484502
0.180192
-0.175995
0.236059
-0.0600639
0.124982
0.0275994
-0.395743
0.155399
0.185741
-0.0607588
-0.0442244
-0.0528837
-0.033583
0.0416821
-0.00809917
0.15558
-0.110037
-0.0455435
-0.0101698
0.388261
-0.378091
-0.0572291
0.0413845
0.0999458
-0.104079
0.00413343
0.0233371
-0.348751
-0.0356715
-0.0772977
0.0125
0.0647976
-0.0591646
0.0268373
0.0323272
-0.0878858
0.0990449
-0.720816
0.621771
-0.0257445
-1.30532
-0.106503
1.41182
0.999846
0.949343
-1.94919
0.087888
-0.0532179
0.498743
0.271939
0.247885
-0.519824
-0.205124
0.251008
0.14706
-0.891515
0.744455
-0.0321249
-0.0270397
0.0133559
0.0169561
-0.992142
0.447119
0.545023
0.921351
-0.806303
-1.47881
1.25067
-1.43577
1.53698
0.0411973
-0.0795772
0.00345713
-0.0285837
0.013748
0.805848
-0.658789
0.127455
-0.0764751
0.416175
0.739194
-0.0342993
-1.70349
1.66088
-0.751084
-0.48264
-0.240216
-0.385525
-0.0171327
-0.172167
0.223699
-0.575966
-0.383838
0.186245
0.800206
-0.270299
-0.793951
-0.684861
0.741204
0.0305931
-0.062718
0.290617
0.0412553
-0.0412553
0.672335
0.146625
-0.81896
-0.223368
0.895703
0.350699
-1.58974
1.23904
0.201244
-0.0028269
0.00171173
0.0154833
-0.017195
-1.47084
-1.48769
1.12693
1.04941
0.584324
-0.0372973
-0.142802
-0.289922
0.797369
-0.1931
-0.0479887
-0.00321103
-0.0827269
-0.0507911
0.10128
0.372633
-0.243403
-0.751317
-0.281099
-0.0470205
0.0163725
0.0306481
-0.637228
0.607782
-0.0724884
0.0401653
0.0323231
0.0427123
-0.0124938
-0.0324896
0.00358536
0.0289042
0.0146492
0.429224
-0.00120748
-0.0186529
-0.0134836
-0.0211642
0.0346479
-0.0157903
-0.16507
-0.717026
0.366596
0.35043
1.26414
-1.35683
0.0926924
0.134624
-0.15517
0.0205459
0.0015285
0.0738101
-0.366597
-0.19988
-0.0443801
0.0118905
-0.0325666
-0.0127343
0.140358
-0.33705
-1.8274
1.14756
0.679843
0.0249339
0.0974527
0.0581277
-0.771106
0.716328
-0.00305409
0.052299
-0.0487136
0.0429592
-0.638687
-0.0603972
0.0597027
0.126038
-0.381575
0.050212
-0.464279
0.128451
0.341031
-0.286278
-0.122975
0.0230163
0.221691
0.83513
-1.05682
0.104407
-0.715906
0.611499
-0.942584
0.819741
-0.673942
0.448983
0.224959
-0.0188915
0.0193467
-0.000455177
0.164479
-0.455733
0.19918
-0.1163
-0.0828795
0.0457081
-0.0188708
-0.0418626
-0.00515791
-0.00753054
0.00944273
-0.0432938
0.0209954
0.0724715
-0.0934669
1.35054
-0.00553901
0.00514178
0.000397232
0.0540982
-0.0127137
0.857179
-0.0126127
-0.0204052
-0.497592
-0.990094
0.112263
0.088981
0.00768339
0.0897693
-0.224959
0.19988
-0.0527937
-0.202253
0.255046
-0.246673
0.0708673
0.119197
-0.104928
-0.00157654
0.0960848
-0.0256565
-0.845191
-0.982209
-0.0382267
0.0592222
0.738854
-0.25517
-0.133069
0.172448
0.339311
-0.0012767
-0.0276208
-0.00887139
0.0905829
0.148409
0.20252
0.155247
-0.325151
0.169904
0.110187
0.568898
-0.0452618
-0.109607
0.883234
-0.191521
-0.691713
-0.673942
0.0989135
1.16523
1.00211
-0.605466
0.616586
-0.0111202
0.352013
-0.0767929
-0.27522
-0.264083
-0.397234
-0.0686368
0.0692107
-0.000573853
-0.229
-0.0870062
0.316006
0.117957
-0.981246
0.863289
0.0402822
0.658706
-0.698989
-0.0467741
-0.115381
-0.036817
-0.0404807
0.521804
-0.164246
-0.0165073
-0.00238423
0.231916
-0.0644056
-0.16751
0.0725289
-0.00304992
0.00937064
0.0333417
-0.0960696
0.14668
0.0260818
0.00201203
0.192936
-0.438798
-0.515749
1.46509
0.0143682
0.0014904
-0.995138
-0.017736
-0.0224743
-0.0755601
-0.0474148
0.232433
0.263754
0.497001
-0.088483
-0.408518
0.172003
-0.0597399
-0.938124
-0.0142567
-0.0113995
-0.647554
0.746599
-0.0184138
0.19023
0.0691118
-1.65885
0.18463
-0.45194
0.26731
-0.0123502
0.283798
0.0134419
-0.0141072
0.000665231
-0.0350074
-0.0372803
-0.021811
-0.138186
0.745741
-0.641334
-0.0638567
0.0404054
4.05193e-05
0.306244
-0.150997
-0.141661
0.893745
0.139174
-1.03292
-0.117301
0.135605
-0.503872
-0.213154
-0.559617
0.612583
-0.597455
-0.015128
-0.0661723
0.00231562
-1.70349
0.541556
-0.541556
-1.21934
1.21934
0.805848
-0.421612
-0.411547
0.833159
-0.901003
-0.0941349
0.620245
-0.362792
-0.257453
0.169413
-0.249456
-0.0150809
-0.00858477
-0.88564
-0.0790687
-0.932728
0.211912
0.0335905
-0.017218
0.697146
-0.110471
-0.586675
0.934689
0.0674239
-0.00160514
0.0150471
-0.964133
-0.17463
0.314366
-0.074167
-0.601757
0.675924
-0.0125892
-0.861111
-0.693575
0.217699
-0.81229
-0.89395
1.30679
-0.412843
-0.151662
0.292083
-0.140421
-0.0240232
0.721169
-0.105
-0.930251
0.930251
-1.70146
1.12608
0.575383
-0.00417029
-0.00136873
0.0265544
-0.433058
0.80724
-0.0351984
-0.0821942
-0.0380443
0.045999
0.00918452
0.0119112
1.6597
-1.21072
-0.320941
0.39646
-0.63377
1.00496
-0.371186
-0.0476201
0.00324001
0.120079
-0.0536746
0.376542
0.00568796
-0.0298191
0.352878
0.0353827
0.0417975
-0.242385
0.200588
0.147652
0.037038
0.0943169
0.176421
1.29738
0.726245
0.516781
-0.168094
-0.348687
-0.94387
1.09901
0.176732
-0.13461
0.0790649
-0.768355
0.68929
0.0951684
0.136272
-0.484287
-0.0755905
0.138404
-0.0628133
0.137849
-0.213439
-0.441582
-0.104486
-0.0682933
0.071153
-0.00285966
0.0109759
0.0151059
-0.124416
-0.000179601
0.658789
-0.611499
-0.0472899
-0.304632
0.314111
0.875412
0.597841
-0.245828
-0.0114966
0.0296259
0.230815
-0.577612
0.170113
-0.584339
0.414226
-0.0130271
-0.00108006
-0.603303
0.470141
0.133163
0.00471601
-0.0105313
0.0058153
-0.0228472
0.0151091
0.00773817
-0.290508
-0.725281
-0.231034
-1.07429
-0.193697
-0.806303
1.53698
1.25067
-0.200385
-0.18386
0.131599
-0.0602196
0.0654412
-0.00522165
0.520963
0.170844
-0.691806
0.54721
0.0730345
0.000499671
-0.0135268
0.117654
-0.381953
0.0380443
-0.0427456
0.00451883
-0.460902
0.691717
0.0109479
-0.0363738
-0.295771
0.699281
1.06847
0.468586
-0.0652699
0.00149439
0.0637755
1.45037
-0.199699
-0.0640667
-0.0576631
-0.965331
0.159027
0.541127
-0.300573
-0.472825
-0.12638
0.599205
0.815874
-0.362153
-0.453722
0.365248
0.131753
-1.66088
0.190048
0.01743
0.0108887
-0.0283187
0.330268
1.72648
-0.198174
0.199886
-0.260769
2.17529
-0.638306
-0.679549
0.0553309
0.624218
0.37893
-0.0143673
-0.345531
0.510285
0.813045
0.521222
0.0810947
-0.0229671
-1.54552
-0.194415
1.73993
1.37968
-0.0354418
0.0219581
-0.0496637
-0.355345
0.10099
-0.306114
0.852254
0.0414912
-0.0482389
-0.0179334
0.0147235
-0.620189
-0.0242253
0.0139983
0.117783
-0.159024
0.0412417
-0.30912
0.322502
-0.0133821
0.679762
-0.540588
-1.83826
1.01158
0.82668
-0.0333935
-0.0621265
0.09552
0.266294
0.0399504
0.56651
0.149819
-0.659562
0.659562
1.22372
0.934689
-0.715906
0.323702
0.489343
-0.484672
-0.0713161
0.906963
-0.359753
0.00802647
-0.87188
0.863853
0.138373
0.00463043
0.0263341
0.433999
0.132511
0.054035
-0.173476
-0.122283
0.29576
0.549781
-0.525018
0.351542
-1.08513
-0.281763
-0.651535
-0.0148594
0.00317073
0.00197105
-0.224161
0.0575886
-0.0269405
0.034561
-0.141092
0.106531
-1.56119
-0.140274
-0.00620404
0.0727874
-0.287046
0.204952
0.0820938
-0.581232
0.390602
-0.242963
0.361059
0.238781
0.0178319
-0.00447604
-0.946091
0.450017
0.0330181
0.0669276
-0.0552618
0.0553023
0.191991
0.00718873
-0.423774
0.647296
0.4718
0.265905
0.86793
-0.788865
0.779942
-0.44063
-0.604114
0.171056
0.15138
-0.789499
0.762237
0.0272619
0.759381
0.0928735
-0.191662
-0.129279
0.00527893
-0.0262467
0.953585
-0.838402
-0.115183
-0.17748
0.104478
0.028292
0.127703
0.87711
-0.18061
-0.783087
0.963697
-0.330807
-0.0530312
0.539354
-0.8264
0.312312
1.13166
1.4466
-0.511914
0.170883
0.554851
-0.725734
-0.351643
0.0478587
0.0209729
-0.00314101
-0.506201
-0.097913
0.132278
-0.0618716
-0.182708
0.134257
-0.543311
0.282058
-0.991723
0.109416
-0.285829
-0.536353
1.52708
-0.0883653
-0.283399
0.274132
-0.735033
-0.177843
0.294061
0.058817
1.05792
-0.939968
-0.185069
0.12431
-0.660436
0.423608
0.236829
0.0277274
-0.0102974
0.0465768
-0.0631743
-0.245945
-0.125905
0.697891
-0.419982
-0.27791
0.411737
0.139921
-0.100618
-0.0393031
0.240323
0.0537379
-0.636442
-1.31275
-0.0931601
0.136119
0.512661
-0.69327
-0.161896
0.194224
-0.0194503
0.023181
-0.00373072
-0.00189271
-0.0292709
-0.23801
0.0776096
0.00996944
-0.573539
0.421877
0.0183422
0.0899328
-0.123326
-0.69242
0.932106
-0.890614
0.0156475
-0.188656
0.173009
-0.138834
-0.541665
0.6805
0.0776638
-0.716351
-0.700879
-1.13738
-0.0305014
0.00114801
0.0293533
-0.271367
-0.612583
-0.158522
-0.146176
-1.54552
-0.226118
0.161549
-0.493888
-1.13499
-0.443873
0.0554744
0.388399
0.271459
0.118885
0.477584
0.157978
-0.635562
0.104224
-0.0736306
0.188134
0.426582
-0.614716
-0.223892
0.344439
0.75457
-0.236703
0.176639
-0.375382
0.719821
0.560899
-0.511677
-0.0178425
0.0315905
-0.0107242
0.21504
0.0508647
0.726612
0.0892619
-1.45936
0.614165
0.237072
0.669891
0.940035
-0.0568011
-0.0181312
-1.4466
-0.651535
-0.714199
0.722105
0.0346711
-0.793951
0.658706
0.606907
-0.932536
0.963852
-0.00510149
-0.784397
-0.315668
0.63823
-0.774759
0.136529
0.0843833
0.0555378
-0.0672093
-0.034529
2.21324
-2.17872
-0.0047025
0.00787324
-0.258104
0.210116
0.715893
0.228996
-0.214157
-0.192731
1.46585
-2.10073
0.620643
0.212516
-0.0583403
0.197734
-0.139393
-1.75896
1.56455
0.56716
-0.362208
0.188718
1.7054
-1.73993
-0.00134102
0.212471
-0.0481473
-0.041961
0.0194867
0.00787024
-0.043716
0.0358458
-1.02116
-0.0356572
0.317786
-0.803466
-1.32319
1.56848
-0.245291
0.371027
0.633929
-0.0527691
0.0566238
-0.00385473
-0.623028
2.08888
-0.719428
1.83129
0.309309
-1.6325
0.308116
-0.0956444
-0.586449
-0.405274
-0.209753
0.151413
-0.0586676
-0.876981
-1.89166
-0.122484
1.7054
0.04999
-0.853456
0.829818
-0.644284
-0.185534
-0.981825
0.395376
0.0185552
0.128641
0.00243785
-0.131079
-0.971521
0.566247
-0.220392
0.913354
-0.92761
0.187951
-0.203741
-0.0936308
0.233988
0.279828
0.0675741
-0.0447366
-1.12865
0.095726
1.25923
-0.738011
-0.553706
-0.517431
1.07114
0.446294
0.0245415
-0.00905824
-0.734646
0.698989
0.812938
-1.43597
-0.595923
0.734928
-0.139005
1.3209
0.247579
0.777454
-0.811249
-0.493022
-0.450712
-0.470777
-0.500744
0.803144
-0.803144
0.684656
-0.684656
-0.734646
-0.921301
0.921301
-0.734928
0.717576
-1.18753
0.359512
-0.405268
0.405268
0.812938
-1.43597
0.777454
0.767437
-0.767437
0.811249
0.758839
-0.758839
0.506978
0.529223
0.482569
0.407671
-0.499256
-0.549288
1.07851
-0.946895
-0.338056
0.128303
0.792798
-0.225638
-0.269436
-0.00419568
-0.00841701
-0.885157
0.0943993
0.790758
-0.0591742
0.0420415
-0.996941
0.586586
0.917611
-0.593909
-0.127505
0.0160488
-0.00960686
-0.805185
-0.0792611
-0.545023
0.014549
0.00240716
0.883852
-0.0527593
0.00404568
0.169705
0.00165311
-0.0108657
0.00921255
-0.809757
0.0670458
0.742711
-0.170667
0.450495
-0.533843
0.409421
0.124422
0.916028
-0.740871
-0.175158
0.0776883
0.294042
-0.013394
-0.0548993
-0.0541539
-0.0144829
0.149922
-0.78715
-0.834977
0.10211
-0.741195
0.79554
-0.0543452
0.123767
-0.899821
0.776054
-0.802963
0.906284
-0.103321
-0.0474989
0.0456062
0.0196006
-0.281368
0.3114
-0.159987
-0.0955417
-0.789615
0.918146
-0.0940514
-0.824095
-0.0172458
-0.0303742
0.622131
0.820487
0.0642375
0.450299
-0.377265
0.103486
-0.893102
0.881704
0.337636
-0.788097
0.00370042
1.01699
-0.893224
1.0823
1.01542
-0.763162
-0.252253
-0.880627
-0.116314
-0.405849
0.0277578
-0.803219
0.394701
-0.785173
0.785173
-0.599709
-0.0870238
-0.863691
0.12282
-0.927883
0.853716
0.0752196
-0.19152
-0.0609526
0.063302
0.0113867
0.190334
0.826658
0.81926
0.770282
0.141354
-0.911636
-1.15841
0.932768
-0.782585
-0.107649
0.890234
0.173155
-0.892583
-0.673357
0.88826
-0.784773
-0.10835
0.459808
-0.0295668
-0.430241
-0.73564
0.641179
0.094461
-0.278748
-0.0401007
0.318849
-0.890936
-0.829552
0.0883572
0.5218
0.258141
-1.84716
-0.5206
-0.574672
0.574672
-0.951421
-0.177224
0.787611
-0.6551
-0.106341
1.11792
0.780611
-0.208284
0.239406
-0.964687
0.209189
-0.906107
0.696918
-0.663329
-0.693505
0.0759331
-0.14299
0.830181
-0.833235
0.303656
0.295645
-0.217957
0.780583
-0.883904
1.62118
-0.688413
-0.150699
0.737286
0.5803
-0.5803
-0.0572154
0.0447216
0.107112
-0.0725511
-0.304597
0.945776
0.224059
0.00502552
0.0100742
-0.0150997
-0.666686
0.693937
-0.0272505
0.211212
-0.974374
0.110353
-0.895126
-1.083
1.41986
-0.336866
0.0156276
0.87501
-1.41276
1.62397
-0.753772
0.599761
-0.660158
-0.65276
0.148888
-0.765185
0.025784
0.100179
-0.577238
-0.187947
0.00562793
-0.614462
0.0706089
0.724931
0.694507
-0.0947459
0.0746843
0.782495
0.923209
0.263054
-1.18626
-0.386305
0.501598
0.0164975
-0.956808
0.723494
0.233315
-0.68537
-0.12692
1.43539
-0.611466
0.44722
-0.0387943
0.486434
0.513566
-0.769746
-0.114158
-1.034
-0.045239
-0.48849
-0.518275
0.39992
0.60008
-0.0638126
0.0510989
-0.863797
-0.0704586
-0.589699
-0.178775
-0.245307
0.424081
-0.0231706
-0.00248587
0.109814
0.070378
-0.12869
-0.10932
0.758697
-0.641923
0.716607
-1.22837
0.651132
0.305161
-1.24111
0.935947
-0.747349
-0.192058
0.939407
-0.251991
0.237694
-0.026184
-0.0483051
-0.0379934
0.0133034
0.706254
-0.131581
0.128621
0.11016
-0.735263
0.0685768
0.267011
-0.802408
0.795277
-0.55059
0.175081
-0.28677
1.02596
-0.00560282
0.153924
-0.414693
-0.0165395
0.0219238
-0.0291275
1.03008
-0.763071
0.816632
0.475603
-1.29223
0.847054
-0.0354383
-0.00391154
0.0393498
0.125461
-0.0165718
6.45137e-05
0.234347
-0.116564
1.17228
-1.27862
-0.361734
1.17837
0.00717139
0.298164
-0.765506
-0.964144
1.28126
-0.317114
-0.780353
0.83782
-0.0574669
-1.19497
0.51352
0.0473791
-0.065791
0.725485
-0.452743
-0.0811
0.278615
0.462839
0.183495
-0.646334
0.398709
0.041895
0.652042
-0.574049
0.559031
0.0150181
0.260522
-0.438365
0.0352237
-0.0385358
0.0033121
0.696355
-0.0101555
-0.0828803
0.0200606
1.56426
-0.562457
-0.632512
0.000321017
0.109212
-0.171339
0.150104
-0.0799976
-0.0701062
0.0269251
-0.0190548
0.453133
-0.0265507
0.0772831
0.227539
-0.0274256
-0.092133
0.219276
0.0969304
0.00155872
0.0470609
0.766964
0.347244
0.960481
-1.30773
0.887307
0.576857
-1.46416
0.645762
0.136299
0.000746361
-0.013543
0.0127966
-0.187859
-1.05625
0.150139
-0.00214943
0.743354
0.714499
0.311387
-0.75717
0.689961
0.818917
-0.0855672
-0.0560939
-0.877496
0.022264
-0.276002
0.0381066
-0.184694
0.691959
0.0750049
0.0125575
0.925364
-0.411844
0.247843
0.164697
0.0323032
-0.113687
0.423583
-0.0566695
-1.03721
-0.0759211
0.199162
-0.100765
0.988072
-0.156532
0.427772
-0.0548575
-0.111607
0.0193294
0.000113066
-0.0194424
-0.693533
0.255168
-0.0103321
0.888774
-0.234401
-0.614612
0.634984
-0.0203712
0.552008
0.760536
-0.283276
1.21922
0.076346
-0.169977
0.631426
0.129109
0.536239
0.0715429
-0.265685
0.715984
-1.07017
0.307101
-0.606644
0.351535
0.255108
0.89509
-0.0709485
0.0450789
0.0613088
-0.0450354
1.15837
0.737728
0.0811882
0.616762
0.220463
-0.86981
-0.0805911
-0.672496
0.676196
-0.0229566
-0.604302
0.425527
0.874258
0.673321
0.120593
0.0979782
-0.167519
-0.316768
0.625959
0.306147
-0.715378
-0.0327947
-0.814109
1.12121
0.59908
1.52931
-0.0757058
0.405115
-0.744563
0.934112
-0.189549
-0.413821
-0.192822
0.0323803
-0.0397209
-0.194221
0.737015
-0.0282609
0.00709673
0.628019
0.292237
-0.842827
0.602863
-0.133998
0.241763
0.748238
0.238622
-0.98686
0.27805
-0.922334
0.00312017
-0.893735
-0.181044
0.772982
-0.591937
-0.665158
-0.014368
-0.0339371
-0.054399
-0.199846
0.0270602
-0.0465105
1.41916
0.292617
-0.205387
-0.0872301
-0.0326197
-0.575966
-0.159548
0.313472
-0.568868
-0.00233724
0.00399034
-1.34789
-0.0531097
-0.589399
0.0153497
0.567888
0.30637
0.613814
0.798009
-0.247831
-0.385803
0.633634
-0.415055
-0.61761
0.61761
-0.231065
-0.908513
1.13958
0.0293776
-0.146678
0.686285
-0.118397
-0.22969
0.124516
0.322704
-0.0696061
1.18619
0.313739
0.17084
-0.105517
-1.15352
0.484269
0.0747624
0.0522696
0.0165858
-1.20542
-1.04208
-0.71995
0.693068
0.306932
-1.04208
0.693068
-0.127834
-0.334542
-0.127834
-0.696209
0.696209
0.303791
-0.0150995
-0.0660805
-0.0751538
0.176552
0.0709832
-0.457347
0.641482
-0.0386195
0.661652
-0.505241
-0.156411
-0.0617741
0.0620654
-0.000291269
-0.0214084
0.0264339
-0.387409
0.0201422
-0.0700051
-0.435416
-0.34722
0.123059
0.0441118
0.830883
-0.276032
-0.444573
-0.290461
-0.0103743
-0.126376
-0.00968909
0.677754
0.0656
-0.450727
0.0363216
-0.00167376
-0.00709348
0.087042
0.566964
-0.476918
-0.0900464
1.14031
0.546736
-1.23861
0.892827
0.0106774
-0.0595736
0.103396
-0.593737
0.059348
1.11573
-0.367496
0.00965757
-0.0245169
0.401014
-1.20051
0.0243437
-0.0243437
0.0181327
-0.0181327
0.00635218
-0.00635218
0.0143682
0.364311
0.459376
0.0882322
-0.737936
0.467637
0.200123
0.0342235
-0.0814655
-0.485099
0.878013
0.110744
-0.796115
-1.40733
-0.251515
0.0267283
0.0189116
-0.00380249
-0.012533
0.012533
0.700788
-0.013681
0.013681
0.699738
0.0879596
0.0296306
0.00669105
0.00717496
-0.0724449
-0.0245775
0.0245775
0.00799025
-0.00799025
-0.0203646
0.0203646
-0.0119046
0.0119046
0.0590513
-0.293482
-0.0858777
0.222346
-0.0122553
0.0122553
-0.374142
0.517083
-0.142941
0.516368
-0.224285
0.310043
-0.754616
0.561754
0.12867
0.0726159
0.562368
0.565317
-0.00981385
0.00981385
-0.403348
0.0226271
-0.0226271
-0.012521
0.012521
0.75037
-1.37676
0.0336349
-0.154863
0.625004
0.00775752
-0.00775752
-0.00758142
0.00758142
0.0169292
-0.0169292
0.0254785
-0.0254785
-0.0215227
0.0215227
0.0326708
-0.0326708
0.480654
-0.0294867
0.0294867
-0.00782203
0.00782203
0.0221508
-0.0221508
0.0103602
-0.0103602
0.0100352
-0.0100352
-0.0943656
-0.023201
0.023201
0.218655
0.0217711
-0.0368042
0.0368042
-0.00739292
0.00739292
-0.00519898
0.00519898
0.0311294
-0.0311294
0.0279796
-0.0279796
0.00764445
-0.00764445
0.0122971
-0.0122971
0.342556
-0.278831
0.00940495
-0.00940495
-0.00736685
0.00736685
-0.0355891
0.0355891
-0.0303585
0.0303585
-0.00991664
0.00991664
-0.411938
0.649011
0.310782
-0.0298889
0.0298889
-0.0245116
0.006833
-0.006833
-0.00687617
0.00687617
0.0404006
-0.0404006
0.145304
-0.201398
-0.0125059
0.0125059
-0.0252868
0.0252868
-0.493969
0.0466356
-0.222566
-0.034092
0.034092
-0.450919
0.0360913
0.0205325
-1.01462
-0.444732
-0.0344417
0.0344417
-0.194833
0.138163
-0.0446735
-0.00656285
0.00656285
0.00864323
0.0435044
0.264451
-0.328431
-0.285705
0.614136
0.200315
0.0118005
-0.0118005
-0.409106
0.139849
0.269257
0.778325
-0.398361
-0.379964
-0.453257
-0.663375
-0.627165
0.336705
-0.704744
0.318439
-0.574797
-0.0116092
0.193986
-0.83207
0.0136139
-0.0136139
-0.00494734
0.00494734
0.0288514
-0.0288514
0.0284314
-0.0284314
0.00545521
-0.00545521
-0.00386727
0.00386727
0.0899412
-0.26279
0.181278
-0.308783
-0.00723084
0.00723084
-0.0485736
0.0485736
-0.0379014
0.0379014
-0.00242504
0.208421
-0.205996
-0.00444442
0.320991
-0.555391
0.00874752
-0.00874752
0.00248969
-0.00248969
-0.0903924
-0.304766
-0.322399
-0.0045325
0.0045325
0.0591077
0.0192079
0.931956
-0.483052
-0.0755029
0.558555
-0.633329
-0.46578
-0.337439
-0.0419326
0.0419326
-0.681832
0.288803
0.0468552
-0.0468552
-0.637072
0.379619
0.272129
0.113461
0.00373143
-0.00373143
-0.828468
0.00176038
-0.00176038
0.311795
0.409374
-0.00786081
-0.0506613
0.0506613
-0.00447984
0.00447984
-0.0398816
0.0398816
-0.0582033
0.0582033
0.00136314
-0.00136314
-0.0643634
0.0643634
0.000776979
-0.000776979
-0.0430864
0.0430864
0.00984645
-0.049264
0.049264
0.00596927
-0.00596927
0.0455294
-0.0455294
-0.000169496
0.000169496
0.0513984
-0.0513984
-0.206338
-0.00202437
0.00202437
-0.00389965
0.00389965
-0.0572216
0.0905829
-0.00971495
0.00971495
0.00501536
-0.00501536
-0.0561957
0.0561957
0.29107
-0.0174531
0.0174531
-0.0631573
0.0631573
-0.00821101
0.00821101
-0.063718
0.063718
-0.0147571
0.0147571
-0.0762553
0.0762553
-0.0208114
0.0208114
-0.104399
0.104399
-0.686089
-0.240908
-0.526014
0.505642
-0.861111
-0.139854
-0.581492
0.396798
0.165461
0.246276
0.00370379
-0.00370379
0.287908
-0.726792
0.0401867
-0.0236009
-0.851504
0.918928
-0.28914
0.271061
-0.0208438
-0.0192522
-0.406493
-0.573444
-0.037247
0.392447
-1.26015
-0.0161728
0.0161728
-0.759089
0.0228897
-0.0228897
0.0118261
-0.0118261
0.304046
-0.142329
-0.00303266
0.00303266
0.0208046
0.0156631
0.597497
-0.188973
-0.0253199
-0.0107978
-0.0073334
-0.0913312
0.486798
-0.395467
0.0279582
0.0479749
0.0110376
0.944392
0.0108688
0.060047
-0.406834
0.434592
-0.482337
-0.922456
-0.293141
-0.0679704
0.0171793
-0.492293
0.452193
0.0199133
-0.00255888
0.00559994
0.780099
-0.561707
-0.0336564
0.0659596
-0.0347139
-0.282805
0.216724
0.42813
0.235123
-0.182425
0.231605
0.00762719
-0.00187482
-0.257481
-0.00890518
-0.302997
0.0976101
-0.0207228
-0.95145
-0.0705224
0.261337
-0.349431
0.384813
0.315754
-0.852107
0.0459269
0.0408719
-0.0712462
-0.344484
0.468906
-0.0458895
0.0240436
0.0218459
-0.0250105
0.0250105
0.179457
-0.425285
-0.147778
0.042333
-0.0754881
0.0525315
-0.0679324
-0.00707103
0.0750035
-0.0410439
-0.149099
0.106787
0.102342
-0.297442
-0.361952
0.659394
0.0136685
0.0555422
0.154005
-0.0253847
-0.165153
0.0642808
-0.152243
0.303623
0.00740899
0.0319408
-0.0310975
0.185103
0.00315333
0.254099
-0.0111885
0.0111885
-0.935365
1.53444
0.0853237
-0.165915
-0.0241736
0.0115844
1.43084
0.193132
0.000850016
-0.00917809
-0.532258
0.00624441
0.279613
0.0851615
-0.670689
0.310936
-0.0645181
0.380922
-0.678364
0.195752
0.527742
-0.0849705
0.0849705
0.00243785
-1.28785
-0.101445
1.38929
-0.206524
0.152125
-0.447246
0.352444
-0.893032
-0.0353341
0.0298216
-0.0263645
0.930558
0.443217
-0.322624
-0.0683605
-1.39417
-0.238325
-0.0520899
-0.308362
0.818646
0.591642
-0.270651
-0.384675
0.68284
0.424343
0.192243
-0.273333
0.0568678
-0.470485
0.327544
0.138623
-0.138623
0.00501761
-0.0691398
0.0641222
0.00183518
0.011353
0.023181
0.262334
-0.450192
0.235691
-0.189051
-0.0466401
0.551851
-1.06107
0.146238
-1.13633
0.698817
-0.126123
-0.18266
-0.046269
-0.0796358
-0.479824
0.0444088
-0.280515
0.00177648
-0.0207228
0.370865
-0.00506826
0.0011532
-0.00035071
0.0124066
-0.0106701
-0.00173647
-0.106879
-0.0160312
-0.161414
0.177445
-0.132402
-0.338083
0.0208046
0.3454
0.000480816
-0.366454
0.0806249
0.00226252
0.200246
-0.112014
-0.0119842
0.0119842
-0.000943101
0.00040883
-0.0100421
-0.000265747
-0.000130001
0.000900989
-0.00115808
0.0426687
0.221086
-0.0035966
0.0035966
0.0497743
0.51956
0.0014147
-0.312409
0.465144
1.12033
-0.476886
0.340803
-0.437928
-0.121191
-0.026587
0.236182
-0.237731
0.00333971
0.0173925
-0.00408916
-0.0102463
-0.19089
-0.406341
0.873978
0.432206
-0.342265
-0.0150896
-0.00154137
0.293925
-0.278297
0.000748421
0.00191975
0.0154728
0.612534
0.0012151
-0.000191707
0.712799
-0.648518
-0.243395
-0.129612
0.288804
0.000490685
-0.000208773
-0.0446735
-0.00611242
0.817357
-0.430968
0.50573
-0.765189
0.907012
-0.852817
0.595263
-0.198465
0.688467
0.00144025
0.00335825
0.0155533
-0.121239
0.141693
0.0152366
0.00754379
-0.00309702
0.0618196
-0.0468259
-0.0149937
0.000705434
-0.00240626
0.0272175
-0.0248113
-0.0864824
0.0109574
-0.000883234
0.00237267
0.463747
-0.424723
0.00270929
-0.00116911
1.38267
-1.48412
0.401152
-0.00559033
0.00161552
0.361288
-0.284005
-0.0378673
-0.123375
-0.0199035
-0.00345969
0.113759
-0.00655221
-0.00145401
0.412839
-0.000471055
-0.0057247
0.0057247
0.00145757
-0.0122554
-0.00177563
-0.325525
-0.00348777
0.069068
-0.106936
0.277433
-0.120782
-0.0657706
-0.00151669
0.00187528
0.468504
-0.00172378
-0.00493428
0.0373146
-0.00198014
-0.00127185
0.156329
0.0677299
-0.710421
0.455146
-0.861486
0.147426
5.26571e-05
-0.85163
0.108597
0.19506
0.565616
-0.0162707
-0.0957269
-0.00380617
-0.00132575
-0.552723
-0.00320488
-0.000586165
-0.0190086
1.01471
-0.616004
-0.00244298
-0.000946474
-0.00553434
-0.00185488
0.0627123
-0.0241545
0.0241545
0.0173257
-0.0169169
-0.00319566
-0.0075223
-0.00470168
0.00585488
-0.159254
0.0883051
-0.00654613
-0.0125373
0.0457046
-0.0154389
0.0583871
-0.0412078
-0.623453
0.569108
-0.0271434
-0.00131156
0.487438
-0.288275
-0.0750202
-0.692434
-0.0809828
-0.124898
-0.0901022
0.0881221
0.678778
-0.000637611
-0.0282689
0.0280602