/*--------------------------------*- C++ -*----------------------------------*\
| =========                 |                                                 |
| \\      /  F ield         | OpenFOAM: The Open Source CFD Toolbox           |
|  \\    /   O peration     | Version:  2306                                  |
|   \\  /    A nd           | Website:  www.openfoam.com                      |
|    \\/     M anipulation  |                                                 |
\*---------------------------------------------------------------------------*/
FoamFile
{
    version     2.0;
    format      ascii;
    arch        "LSB;label=32;scalar=64";
    class       volScalarField;
    location    "32.2";
    object      p;
}
// * * * * * * * * * * * * * * * * * * * * * * * * * * * * * * * * * * * * * //

dimensions      [0 2 -2 0 0 0 0];

internalField   nonuniform List<scalar> 
2186
(
0.768035
-0.42962
-0.108584
1.0702
-0.797525
0.0440953
0.649379
-1.06082
-1.08352
1.33558
1.1125
-1.05287
-1.0456
1.043
-0.666428
1.05709
1.07496
-0.864316
0.143721
-0.739089
1.4532
-0.737166
1.05329
-1.13465
1.0451
1.04374
1.26866
0.887387
0.665178
1.04399
-0.722289
1.04519
-0.683342
-0.978554
-1.06769
0.196849
-0.96505
1.44505
-0.520715
-0.0223736
-1.05154
-0.703827
-0.785605
-0.855458
0.961953
1.3191
0.300109
0.480598
-1.21213
-0.768689
-0.725883
0.962643
-0.780793
1.38424
-0.750775
0.940505
-0.839306
0.9693
-0.56304
0.809749
-1.10564
0.706436
0.627132
-0.0525612
0.646388
0.419604
0.739076
1.34028
1.23622
-1.13721
-1.06604
-1.14781
1.30231
0.997742
1.23265
1.1614
-1.15668
1.07024
-1.07595
-0.621827
-0.807737
-0.190456
1.03977
0.692259
1.03109
1.04034
1.35339
0.152888
-0.455627
-1.08443
0.943221
-0.739976
0.941189
1.19124
1.05421
0.496707
-0.239487
0.658193
-0.788721
0.984621
-1.03914
-0.964822
0.709404
0.965654
1.07682
-0.708701
1.28251
-0.820519
0.928805
-1.60146
-0.617568
-0.767262
0.506735
1.38569
-1.06584
-0.95608
-0.653589
-1.33529
-1.08473
1.30168
0.0631892
-0.769559
0.923482
-0.929076
1.06143
-0.636917
-0.781179
1.15323
-0.890696
0.628735
1.41125
1.25166
0.184799
0.620273
-0.867226
-0.749859
0.909629
-1.1363
-0.488463
-1.0754
0.868536
-0.292054
-1.05579
0.675504
0.927196
0.969992
-0.777809
-0.804403
0.582349
-0.789418
-0.766053
0.546661
1.07316
1.19441
1.04615
0.491877
1.35334
0.518166
0.428156
0.379631
-1.07777
-1.24863
1.0373
0.987725
0.238627
0.142368
-0.991211
-1.0525
-0.857248
-0.875464
0.439094
0.991031
1.07594
1.1158
0.503206
-0.183211
-0.817062
1.03844
-1.31804
0.92768
-1.04618
1.06005
-0.735905
0.619624
0.604662
-0.829083
-0.892479
1.20497
-0.411631
-1.02219
-0.917563
1.31009
-0.960058
0.981613
-1.07714
-1.60267
0.167503
1.23122
1.1412
-0.734507
-1.13955
-1.39146
0.0196232
1.07292
-1.07268
-0.78141
-1.08738
-1.36445
1.0072
-0.951475
0.485645
-0.34756
1.37148
0.896348
0.990666
0.945576
1.25501
1.04964
0.887397
1.16994
0.33107
-0.928088
-0.72282
0.185558
0.132679
-0.850031
-0.790503
1.11023
1.1604
-1.11648
-1.00364
-1.43035
0.325637
0.628596
0.781291
0.888366
1.12669
-1.05779
0.878524
-1.07108
-0.783321
-0.945315
1.07124
0.800212
1.2236
1.22157
1.18356
1.16253
-1.07451
0.810755
1.1744
-1.0716
1.05832
0.846617
-1.29294
-1.07204
-1.069
1.22537
1.07715
-1.04033
-1.25031
-1.42236
0.94949
-0.927859
0.819846
1.13969
0.875013
-1.07958
-0.722185
1.01825
0.698441
-0.766326
-0.38032
1.40763
-0.780055
-1.06889
0.857041
1.19781
1.03264
-0.800626
-0.886325
-0.991708
0.979852
-1.06641
0.512413
1.01523
1.02966
-0.287918
-0.610485
1.02414
-1.12005
0.92962
1.20848
1.0722
1.06916
-1.60957
-0.731337
-1.1494
-1.0511
-1.36305
-1.0302
0.334421
-0.666954
0.682037
1.18278
1.27964
0.98568
-0.83929
1.20328
-1.18769
-0.418039
-1.1555
-1.07914
-1.01545
0.306661
-0.766307
-0.751746
0.247496
0.992571
-0.28548
0.460611
-0.75972
-0.481321
-0.995601
-0.772499
1.26991
0.0705925
-0.620753
-0.739789
0.772712
0.633368
-0.27927
0.495997
-0.980274
-1.03927
0.733931
1.07086
1.14773
-1.37819
1.20243
0.88032
0.455787
1.26349
1.05363
0.969356
0.325478
-0.948025
-1.07609
0.940128
-0.822814
-1.0849
-1.1978
-0.906506
-1.08761
1.43516
-1.49506
-0.727752
-1.08217
1.05265
-0.822161
-1.32122
-0.70756
0.742286
-0.716373
-1.28829
1.31608
1.37623
1.13613
-1.05566
-0.473699
1.45109
1.05626
-0.91484
0.529036
-1.0724
0.116541
1.24286
1.05561
0.889814
1.33518
-0.631543
-1.00899
-0.341686
-0.873983
-1.46652
-0.722862
-0.1867
1.38308
-0.825823
-1.26228
1.04586
0.553976
-1.07484
-1.07425
-1.0751
-0.806224
-1.20731
-1.07734
-0.709158
-0.783575
1.22778
-1.31131
-0.940287
1.06204
-1.24567
1.28323
-1.2397
-1.38956
-0.664617
1.04464
-1.03643
1.07542
0.837273
-1.63808
1.06195
-0.740854
-1.0825
-1.14313
1.01458
0.974597
-1.08552
-1.07433
-1.16336
1.05562
-1.31714
-1.60335
0.587941
1.01372
0.899773
0.704298
-1.09017
-0.815742
0.896287
-0.97736
0.814287
-1.82542
1.06841
0.0489474
1.14545
-1.08423
0.842455
0.772685
1.08273
-1.16324
1.05319
-0.795894
-1.08192
1.04804
-1.3626
0.232396
-0.922614
-0.0385252
1.05836
0.0315524
0.242402
1.06097
0.324348
-0.248098
-0.0270478
-0.727097
0.182645
-1.05108
0.778765
-0.524368
1.14665
1.14511
-1.08123
-1.079
-1.04648
-0.723372
0.510896
-0.993346
0.909889
-0.125586
-1.03896
1.16516
-1.08475
0.452951
0.24827
-0.806514
0.87279
0.42553
-1.2378
-1.10141
-0.883396
-0.69892
1.0664
-1.74193
1.13802
1.24881
1.23623
0.727041
1.24257
-0.788019
-0.656161
0.922104
0.165836
1.04654
-0.743306
-1.01832
-1.39979
0.791854
-1.07867
-1.7237
-0.746157
-0.781526
0.107751
-1.11387
0.810855
0.779718
-0.494774
-0.928266
0.733401
0.0143976
1.21267
-1.72953
-0.089936
-1.07947
0.836456
-0.542558
1.18721
1.46531
-1.35059
-0.783203
-0.97376
0.385435
-1.03697
1.04265
-0.952111
0.995352
0.830073
-1.13098
0.93956
0.901353
-1.39426
0.897562
-0.995234
-0.740162
-1.04241
-1.04226
-0.918804
-0.986591
-0.603971
1.04764
0.29829
-0.772441
0.562781
1.19589
1.23353
-0.449172
0.751314
-1.24377
0.762026
-0.31982
-1.05855
-0.752107
0.576355
0.887288
1.13411
-1.58546
-1.09742
-1.46937
-1.08542
-0.185865
0.714266
-1.84405
-0.135981
-1.10814
1.01777
-1.06654
1.01409
-1.09474
-0.733014
0.982476
0.650566
-1.11799
-0.0864409
1.02314
1.31971
1.07047
-0.747302
-0.848157
0.791117
-1.07768
0.778146
-0.42765
0.525693
1.02086
-1.01002
-0.724942
1.09316
-1.20892
1.31455
-0.110398
0.869214
-0.400797
0.60336
-1.00854
1.27577
-0.732403
-0.945151
1.03895
0.601641
0.576982
-1.1269
-0.730662
-0.979634
0.846429
-0.669261
-0.729822
-0.492612
1.06658
0.476163
-0.794782
0.821696
0.970523
1.04176
-1.78431
-0.653588
-0.748395
1.06228
1.25085
0.457335
1.05799
-0.814363
1.07229
-0.47339
-0.931372
-0.665515
0.952873
1.00629
-1.38083
0.929798
-0.730231
0.882338
-0.825803
1.07875
0.962076
1.06783
-1.80659
0.998598
-0.859369
-0.570364
1.20885
-1.39557
-1.0443
1.18502
-1.27809
1.18244
-1.2613
-0.739125
1.12227
0.768832
1.3932
1.04761
-0.89473
1.09319
1.15681
-1.39174
0.717336
-0.655358
-1.0327
1.54208
-1.07739
1.20887
-0.767338
0.257641
1.04807
-1.15081
1.04721
-1.4498
1.00346
0.982368
1.05935
-0.291873
-0.99797
-0.708968
0.561066
0.661937
1.0881
-0.375338
0.908363
-1.68673
-0.263496
-1.17981
0.828046
1.16108
-0.632021
-1.12095
-0.45278
1.29687
-0.726823
0.815681
-0.827092
-1.17802
-1.06792
-0.75215
-0.575825
0.87448
-1.32195
-0.242226
-0.219338
-0.667725
-0.76254
-1.17763
-0.405793
1.02865
1.06885
-1.12368
-0.524625
1.04047
0.967033
1.06753
-1.04942
1.03948
1.08263
1.03969
1.06785
-1.34702
-0.328719
-0.723748
0.701433
1.04583
0.689867
0.100475
-0.378048
-1.6536
-0.209393
1.28494
-0.341967
-0.604759
-0.798081
-0.250735
-1.05016
0.86643
-1.10146
-1.29462
-1.07757
1.05549
1.04904
1.06529
-0.21524
0.43543
1.25765
-0.206023
1.04222
-0.379391
-0.206904
0.842715
1.06972
1.17108
-0.225159
1.03639
1.03356
-0.872365
-0.254485
1.0655
1.07658
1.07162
-1.07927
-1.12593
1.07092
0.587097
1.04992
0.299087
-0.0297734
-0.279027
-1.57669
-0.473473
-0.725652
-1.44034
-1.34825
1.07795
1.0827
0.828655
-1.0927
1.05558
-0.0799547
-0.287994
-0.125815
1.04483
1.07425
1.07178
1.08684
1.06506
1.05912
1.05103
-0.549633
-0.320768
-0.164731
-0.222222
0.049517
0.0330741
-0.0801693
0.000448469
-0.000753682
-0.168818
-0.27997
1.03867
1.0611
1.05539
1.07975
1.07852
1.07143
1.07597
1.04967
1.06305
0.0724227
-0.269339
1.07303
1.07075
-0.0252633
1.07278
1.07253
-0.211441
-0.551265
-0.324329
-0.814926
-1.24749
1.05575
-1.08089
1.05063
0.622566
1.09084
-1.07751
1.04915
1.00671
0.987293
-0.723722
-1.19054
-1.05786
-0.219149
0.0533186
-0.72745
1.07051
-0.341568
1.14329
1.05994
-0.0784948
1.25907
1.40412
-0.423986
0.949266
0.647098
1.05339
1.07099
1.05964
-1.07577
0.571179
-0.165214
1.05828
1.06523
-1.01717
-0.319618
1.06051
-0.0298031
-0.232772
1.05891
-1.02615
1.04484
1.07227
-1.07685
1.062
-0.978414
1.05361
1.14691
-1.44844
1.06627
1.0745
-0.133035
0.77267
1.05298
1.06201
0.25931
-0.641031
0.702432
1.38302
1.06858
1.05544
1.06253
-0.632772
1.05669
1.03806
1.06499
1.05798
1.061
1.0545
1.17166
-0.183368
-1.87734
1.05773
1.05466
0.384928
-1.02429
-1.18265
-0.331082
0.945463
-1.46123
-0.681701
-0.0896757
1.05486
0.717332
0.10067
-0.700389
-0.379224
-0.380722
-0.64203
-0.895595
-1.01232
-0.789049
-0.235001
1.06125
-0.458864
1.04909
0.988547
-1.0753
1.32764
-0.110275
-0.714188
0.76065
1.22024
0.546563
-1.08269
1.05772
-1.01747
1.06025
-0.680761
1.05984
-1.26984
1.05292
-0.999178
-1.11883
1.06273
1.07666
1.02265
-0.909144
-1.0841
-0.532819
-0.696793
1.07208
0.974169
-0.780833
1.05527
1.09659
1.05065
-0.823264
-1.33448
-0.777095
-1.39194
0.287787
1.06191
-0.0558118
1.05511
-1.16438
1.05589
1.09447
1.06355
-0.0193707
0.00873136
1.08838
-1.09923
1.06532
1.06991
-0.0486332
-1.05303
1.03424
1.22067
1.05033
1.05161
-0.724943
-1.00518
1.01697
0.378994
1.06457
0.840693
-0.842748
-1.06309
0.924431
1.2874
1.0578
0.306036
-0.31088
-0.843176
-1.45464
-0.990382
1.03232
-1.01964
1.04596
-0.986226
-1.07733
-0.789892
0.55708
-1.1274
0.0990184
-1.5062
1.05187
-1.0796
1.00638
-1.07456
-0.241456
-1.07223
-0.0884983
-1.44926
1.03428
-0.71565
-0.998453
-1.41355
-0.683991
1.03716
-1.39253
0.0584005
-1.26055
1.16701
-0.0732769
-1.07501
1.12491
1.0351
1.0231
0.458455
-1.04097
1.06309
1.09317
-0.76161
-0.765035
1.05078
0.788241
1.33368
1.07428
-1.36838
-1.57561
-0.764556
-1.11897
-0.864176
-1.0801
-0.356183
-1.16703
0.793082
-0.0814965
1.05824
1.28394
1.05383
-1.08456
-1.14789
1.05389
-1.66295
-1.63863
1.0252
-0.380704
-0.835928
-1.23772
-0.229265
1.01965
0.993067
-0.661122
0.853822
0.779084
-1.34585
1.03093
-1.3822
0.897956
-0.711502
1.00435
-1.44719
0.392806
1.05434
1.18646
-1.21235
-1.23435
0.913116
1.43099
1.07545
1.11332
-1.42179
1.26911
-1.07027
-1.51653
-0.934309
0.441999
-1.2868
1.16891
1.18277
-1.0722
-0.849049
1.05402
-0.609155
0.85553
1.0853
1.03798
-1.15447
1.05608
0.0463474
1.07984
0.0263462
-1.02369
-0.0269145
1.05858
-0.289046
-0.35614
-0.125714
1.03486
-0.990796
1.27742
0.220702
1.40595
1.08404
-0.591565
1.02608
-0.747777
1.0404
1.03605
-1.27561
-0.82498
1.21599
1.04893
1.31232
1.02182
0.0304474
1.02864
1.03297
0.953561
1.0641
-1.115
-0.810292
-1.50896
1.13773
-1.16665
-1.75032
-0.735154
-1.08839
-0.384058
-0.580838
0.96968
-0.519703
0.995601
1.04625
-0.769243
-1.24557
-0.633893
-1.34692
-0.638418
-0.747778
1.06422
-1.43737
1.07319
1.26538
1.11074
-0.0625203
1.07995
1.00373
-1.3632
0.997048
1.04568
-0.854695
1.04406
1.04269
-0.0976144
-0.725131
1.50892
-1.4237
-0.997258
-1.07527
0.193454
1.02361
-0.94217
-0.313339
-0.725903
1.20285
-1.73997
0.958647
1.07762
1.02715
-1.27562
1.0043
-1.38598
1.07055
1.0847
-0.298404
1.07358
0.617934
1.0328
0.703688
-1.20192
-0.0165534
-0.162283
-0.280209
1.31934
-0.0528933
1.0953
1.46661
-0.557069
-0.0766993
1.11819
-0.113625
1.11497
0.00929504
0.0126309
1.11934
1.12394
0.394216
-1.36964
0.871966
-0.641071
-0.754578
-0.567379
1.08139
1.03737
1.46231
-1.08268
-1.71509
0.731769
-1.05161
1.14534
1.08183
1.0274
1.05119
1.00038
-1.4873
-1.07779
-1.19
0.911283
0.998394
-1.35131
-0.756149
-1.07721
1.06839
1.07714
-0.976909
-1.20047
1.0948
-1.5322
0.349794
0.884207
1.02786
-0.29911
-1.09192
-0.0812501
-0.99435
-0.725152
-1.82664
-1.46824
1.40666
1.44975
-0.824254
-0.956475
1.06931
1.0453
-0.842246
-0.131249
-0.437899
0.767992
1.15991
-1.449
1.06519
-1.52935
-1.09346
-0.634262
-0.953543
-0.816996
1.02398
-0.982095
-1.5522
1.43976
-1.00235
1.06582
1.31226
-0.759279
1.05846
1.2786
-0.797414
1.33652
-1.02089
-1.11999
1.11029
-0.611364
1.02618
1.06614
-1.03486
1.10099
0.0997633
-1.56277
1.10386
1.04543
-1.01673
-1.23603
1.02469
1.05858
-1.06073
-1.29088
1.37442
-1.04605
0.99062
-0.961689
0.975803
-1.06451
-1.54165
-1.07549
-0.804871
1.19364
1.07413
1.31866
1.30185
1.08366
1.12245
1.1658
-1.07746
1.23235
1.1649
-0.778034
-1.05587
-0.868175
1.41295
-1.43424
-1.11882
-0.475703
1.04526
-0.784973
-0.835377
1.12497
1.03389
-1.0726
-0.760297
-1.10034
-0.200376
-1.32196
-0.790536
-1.07852
1.0005
0.898222
-0.741679
-0.320428
-0.979439
0.954048
-1.04741
-0.814353
-1.07956
0.953736
-1.475
-0.766231
1.3613
0.92915
0.368579
1.22179
-0.96217
0.991554
1.07505
1.16681
1.23503
-0.156953
0.802177
1.1119
0.227359
-1.07991
1.48875
0.997005
0.930252
1.10192
-0.772298
-1.73214
0.873211
0.907738
1.00892
-1.56051
-1.36399
1.03883
-1.07644
0.838656
-0.169278
1.49752
-1.08064
0.854077
0.733538
-0.728195
-1.0815
-0.68504
1.08139
-0.731817
-1.07908
0.693499
0.741991
-1.06486
1.13321
0.847471
-0.736147
-0.8394
1.03647
-1.71179
-1.08212
-1.10961
-0.724675
-0.975321
1.06134
1.05498
-1.52053
0.60708
1.06036
1.4157
0.243215
0.427396
0.165937
0.891385
-0.532946
-0.726473
-1.49645
-0.424863
-0.724971
1.06075
-0.734126
0.321115
-1.0824
0.676879
0.554304
-0.72566
0.627258
-1.67985
0.476853
-0.726327
0.604965
-0.727543
0.364172
-1.08423
0.524287
-0.727369
0.820715
-1.46589
-0.731057
-0.740017
-1.07772
1.07331
0.0436986
-0.767073
-1.0904
0.192113
0.26876
-0.73025
-1.07757
-0.807504
-0.176928
-1.10378
0.0336123
-1.13716
-0.167492
-0.882733
-0.357869
0.976442
-0.308042
-1.5281
1.05636
0.0862638
-0.614448
0.429433
1.01682
-0.905991
-1.45979
-1.08683
-1.18559
0.914396
1.49322
-0.818837
-0.145629
-0.0297708
-0.991159
-0.207832
-0.441232
1.05227
-0.840827
0.995614
-0.888236
1.5604
0.437462
1.45891
-0.754081
1.216
-0.399973
1.03094
-1.04451
-1.0853
1.09365
1.04252
-1.14929
-1.08069
-0.733397
1.06369
-0.589385
1.04944
-0.712993
-1.09732
-1.07388
1.37238
1.11798
1.13269
1.09484
1.07047
-0.0886806
-0.650806
1.30076
-1.86279
-0.952203
1.49596
-0.754893
0.991687
0.977984
1.42898
1.47385
-0.740953
-1.44279
1.08734
0.18889
-0.53923
-0.69747
-0.58267
-1.53135
-0.762389
0.544339
-1.04114
1.22742
-1.11793
1.14559
1.21674
1.12263
-0.803176
-1.06668
-1.00714
1.14271
-0.953791
1.27095
-0.589658
-0.939843
1.33097
1.33814
-1.08199
0.231063
0.989095
-1.07549
-0.886028
0.658531
1.36475
1.2632
-0.794339
0.964516
0.954738
-1.07823
1.27355
0.420436
-0.74776
-1.42556
-0.377902
-0.17549
1.21115
-0.909909
0.398651
-0.876524
-0.688625
-0.871644
-1.08249
1.0623
-1.03665
1.10599
0.0489482
0.0383191
0.690747
0.218065
-1.07511
-0.47545
-1.30837
-0.356778
-0.662212
-0.79341
1.04066
-1.58652
-1.84066
1.09997
-1.07876
-0.778263
1.06962
-1.10458
1.0749
-0.353545
-1.07753
-0.424615
0.795817
-0.970098
-1.59904
0.902341
-1.08708
1.12032
-0.670363
-0.963134
-0.97041
-1.08288
1.53071
-1.30158
1.15555
-0.856334
1.00805
1.25679
0.721123
1.06138
1.25632
0.00654797
-1.22496
1.01291
1.1177
1.40186
-0.991924
1.1202
0.789534
-1.01267
0.786895
1.23459
-0.445679
1.43166
0.278748
-0.830757
0.835208
-1.02783
-0.734386
0.981769
-0.336413
1.10766
1.07097
1.045
-0.821101
1.00554
1.35506
-0.841971
-0.189329
-1.34402
-1.06244
-0.973484
-1.0804
1.38551
0.743513
-0.802405
0.91529
-1.04092
-0.924763
1.2997
1.32002
-0.966679
-1.19354
-1.08381
-1.08253
1.00886
-0.794611
0.0202112
-0.702271
-0.296349
1.11729
-1.05905
1.47414
1.11601
0.894302
1.09913
1.39363
-0.973171
-1.05251
1.0479
1.17136
-0.852937
1.05482
-1.34594
-1.07659
-1.06397
1.18438
1.21273
-1.07438
-0.791419
0.533535
-0.147461
-0.632282
1.05289
1.06674
-1.10604
1.10516
1.14605
-1.30336
-0.78176
-0.811218
-1.07849
-1.06922
1.34539
-1.43898
1.02201
-0.788296
1.33984
0.963496
0.975387
1.04152
-1.65266
-0.894009
-1.07954
0.647935
-0.763346
0.924139
0.25625
-0.409828
0.964927
1.01526
1.09811
1.07976
-0.0545521
1.0942
0.0589482
0.387386
0.89808
-0.436559
-0.775345
-0.821788
-0.571163
1.06787
0.975595
1.06709
-1.63934
-0.91232
-1.07999
-0.678109
1.06895
1.37487
1.08186
-0.769443
-0.879268
-1.00815
-0.422191
-1.08209
-1.08456
-0.0813912
1.06586
-0.839747
-0.738455
-0.565557
-0.160123
0.832438
-1.67151
-1.08131
-1.15714
1.03354
1.48642
-0.534011
1.15053
1.55167
0.773714
1.28714
-0.780166
-0.838465
1.43245
-1.0814
0.273763
-0.757171
-1.06889
-0.731138
-0.729346
1.00709
0.722847
1.2867
1.25013
-0.0419755
0.773593
0.170795
-0.337789
-1.08172
1.16325
0.834013
1.07615
1.09292
0.00511492
-0.14214
1.0854
-1.11805
-1.08516
-0.733186
-0.740998
0.576942
-0.726038
1.00717
0.655872
-1.08023
1.25719
-0.771256
-0.205222
1.0323
-0.885281
-0.962688
-1.78886
0.711559
-0.744314
-0.692881
1.01769
1.08438
-0.546967
-0.0267121
-1.77055
-1.08217
-1.69863
-0.781352
-0.284166
0.582979
-0.99508
-0.725111
1.35311
0.379375
0.47881
-0.725153
-1.06794
1.05731
1.05782
0.642867
0.513772
-0.725642
-0.978693
-0.903583
0.567956
0.416488
-0.726721
0.928403
0.264326
-0.727523
1.52237
-0.732977
-1.74089
-1.06929
-0.678273
0.841134
-0.749357
-0.797372
-1.09392
-0.049147
-0.783922
0.12238
-0.825548
-0.243146
1.2661
-0.838185
-0.244117
-1.12035
-0.0537265
1.42623
1.43349
1.32155
1.06462
1.29944
-0.599067
1.05365
-0.774406
1.05539
-1.08788
-1.09077
1.29037
-1.14974
0.456229
-0.820418
1.44449
0.0814705
1.37784
0.709687
0.869791
-0.750754
-0.763125
-1.08586
-0.659757
1.36619
1.28011
1.05446
0.620118
1.05149
0.867424
0.917113
-0.725323
-1.08384
0.37548
-0.162166
0.89279
1.06939
-0.0896543
-0.756123
-0.725293
-1.40035
-1.08573
-1.17505
1.37584
1.08735
1.06392
0.00917939
-0.12015
1.08183
-0.692171
-1.08188
-1.75449
-1.00904
0.881796
-0.740333
-0.724744
-0.394348
1.07778
-1.54997
-1.0706
1.0521
0.591969
0.720151
1.05463
-1.08342
0.966522
1.22248
0.836013
-1.08304
1.04174
0.321236
0.567066
-0.935066
-0.731598
1.5123
0.202675
-0.685139
-0.0470125
1.00153
1.05328
-0.969744
-1.18829
-0.290842
-0.588995
-1.01549
-0.801339
-0.705264
1.05098
-0.809747
1.0632
1.31547
1.10684
1.07137
1.17482
1.23275
1.05753
-1.11398
-0.763573
-0.295831
-1.1636
-1.01758
-0.726472
1.2291
1.14153
-1.04129
0.990864
-0.855152
-1.30743
-0.730774
-0.212215
0.517754
-1.27426
1.04954
1.00096
-0.698008
-0.486394
1.39606
-1.534
-1.8161
-1.17603
-0.806456
-0.70297
1.08891
0.869666
1.1183
-1.07139
-0.678436
-1.05027
-0.243866
-1.03582
-1.36987
-0.910317
-1.66612
1.00519
-0.893922
1.49288
-0.970031
-0.694216
-1.11511
-0.725901
0.953017
-1.13107
-1.03035
-1.07594
-0.449256
1.28256
1.25198
-1.73578
-0.860135
0.91801
-1.10269
-1.02723
1.13322
-0.740223
-1.15471
-0.595058
0.847566
-0.542207
-1.02859
1.05154
0.153987
-0.660751
1.0689
-0.863936
-1.03532
-0.828682
-0.80132
-0.176794
-1.02715
1.39823
-1.07966
0.10165
-1.08763
0.888013
-0.626715
-0.916359
0.748935
0.762605
1.10775
0.999385
1.25773
-0.743238
0.861522
0.531425
-0.885741
1.01659
-0.261956
-0.617511
-1.67508
1.20818
1.19545
-0.592449
-0.892869
-1.02587
1.10563
-0.856683
0.207664
-1.3193
-0.730662
1.36347
1.10316
-0.757344
-0.816933
-0.760448
-0.745149
0.979123
-0.778076
1.07069
0.341177
0.806648
0.929994
-0.71604
-0.885307
1.03238
-0.727759
-0.544398
1.3353
-1.07791
-0.744482
0.915432
-0.863471
-0.805677
-0.294117
-0.976106
1.40479
-0.759358
0.0778414
-0.760363
1.33342
-0.768667
-0.821937
0.744288
-1.26896
-1.08768
1.38015
0.773269
1.01664
-0.803427
1.31772
-0.126347
-0.958974
-0.795655
-0.7949
-0.771812
1.34872
0.678638
-1.06906
-0.766529
-1.01483
1.20764
-0.837642
1.30805
-1.08694
0.810714
-0.73454
0.479778
0.642706
0.609259
0.5304
0.13529
-0.829813
1.09787
-0.791991
-0.572543
-1.20572
0.229832
1.3515
-0.421667
-0.809298
-0.774703
-0.737444
0.37609
-0.9665
-0.732142
0.841568
0.132195
-0.751592
1.42114
-1.02157
-1.09889
1.40645
-0.742254
0.264784
-0.846355
-0.72815
-0.729501
1.39424
-0.725217
1.31814
-0.728
-0.86681
1.25417
-0.3484
-0.830264
0.668973
-0.981726
0.133779
-0.532542
-0.734449
0.810944
-1.11711
-0.736639
-0.727905
-0.730199
-1.09163
0.852721
-0.0353494
-0.583906
-0.754289
1.34898
-0.984905
-0.809773
-0.714719
-0.245549
-0.854845
-0.720362
-0.748319
-0.208836
1.33193
-0.773161
-1.08018
-0.825578
-0.876081
-0.114948
-1.09673
1.43876
1.37475
0.521863
-0.897596
-1.08898
0.439046
-1.08603
1.45477
0.321633
1.08627
0.798699
1.31366
0.206628
-0.866013
-0.925148
0.0567285
-0.789857
0.0574233
-0.187711
-0.730102
1.34747
-0.416354
0.332557
-0.539369
-1.06818
-0.893634
)
;

boundaryField
{
    frontback
    {
        type            empty;
    }
    Top
    {
        type            zeroGradient;
    }
    outlet
    {
        type            fixedValue;
        value           uniform 0;
    }
    bottom
    {
        type            zeroGradient;
    }
    Inlet
    {
        type            zeroGradient;
    }
    rectangle
    {
        type            zeroGradient;
    }
}


// ************************************************************************* //
