/*--------------------------------*- C++ -*----------------------------------*\
| =========                 |                                                 |
| \\      /  F ield         | OpenFOAM: The Open Source CFD Toolbox           |
|  \\    /   O peration     | Version:  2306                                  |
|   \\  /    A nd           | Website:  www.openfoam.com                      |
|    \\/     M anipulation  |                                                 |
\*---------------------------------------------------------------------------*/
FoamFile
{
    version     2.0;
    format      ascii;
    arch        "LSB;label=32;scalar=64";
    class       surfaceScalarField;
    location    "4.9";
    object      phi;
}
// * * * * * * * * * * * * * * * * * * * * * * * * * * * * * * * * * * * * * //

dimensions      [0 3 -1 0 0 0 0];

oriented        oriented;

internalField   nonuniform List<scalar> 
3181
(
-1.04104
0.422259
0.618782
-0.390347
0.363351
0.0269956
0.517639
-0.358694
-0.158945
0.121121
-0.198606
0.0774851
-0.135478
0.14126
-0.00578176
0.692865
0.47883
-1.1717
0.144898
-0.138811
-0.00608649
0.103469
0.0224365
-0.125905
0.568504
-1.02056
0.452056
-0.0753276
0.136258
-0.0609306
-0.0107869
-0.0512073
0.0619942
0.150957
0.0308289
-0.181786
-0.0535469
-0.0724833
0.12603
-1.02401
0.128824
0.895189
-0.317131
0.695948
-0.378817
-1.1125
0.643447
0.469049
0.0810873
-0.943415
0.862328
-0.248268
0.0867686
0.161499
-0.618635
-0.413474
-0.0026186
0.163965
-0.161347
0.0417034
-0.0895362
0.0478328
-0.036242
0.032443
0.00379899
0.996436
-0.960128
-0.036308
0.0265642
0.0594369
-0.0860012
-0.949604
0.310876
0.638728
-0.104166
0.225288
0.30396
-0.241114
-0.0628462
0.0291577
0.0606483
-0.0898061
-0.412864
0.337638
0.0752255
-0.0275773
-0.0464595
0.056365
-0.00990549
-0.0203226
-0.929281
0.258685
-0.136279
-0.122406
-0.0047639
0.822147
-0.817383
-0.0963933
0.157513
-0.0611192
0.183317
0.272419
-0.455736
0.840259
-0.845023
0.0731893
-0.0314859
1.64403
-0.93199
-0.712045
-0.334528
1.02739
-0.177339
0.123793
-0.00607557
-0.0301664
-0.411506
0.0943755
-0.153497
0.147421
-0.623931
0.128745
0.495186
-0.147782
0.0724539
-0.166049
0.169985
-0.0039363
-0.264685
-0.0786231
0.343308
-0.0589248
0.825476
-0.766552
0.174837
0.117347
-0.292184
-0.0490781
-0.10117
0.107277
-0.00610703
0.49617
0.199778
-0.0936501
0.143174
-0.0495239
-0.0104688
0.269154
-0.167545
0.193584
-0.0260392
0.160695
0.0606345
-0.22133
0.106726
-0.112467
0.00574046
1.07094
0.573091
-0.856872
-0.184169
0.0284414
-0.812635
0.784194
0.540288
0.225882
-0.76617
-0.439936
-0.203396
0.643333
-1.00402
0.669493
-0.261648
0.801937
-0.318331
-0.109052
0.427383
-0.211057
-0.201807
-0.189178
0.167609
0.0215686
0.13192
0.282516
-0.414436
-0.452123
1.02063
-0.0772462
0.180715
-1.01902
1.04746
0.181645
0.122316
-0.177942
-0.105246
0.283188
-0.265846
0.352101
-0.0862554
-0.0803375
0.0878321
-0.0074946
-1.07795
-0.920445
0.018057
0.902388
-0.169229
0.0728361
-1.15488
0.838539
0.316345
0.484472
-0.775486
0.291014
-0.99076
-0.0132614
1.10884
-0.980016
-0.701585
1.08188
-0.186687
1.08852
0.168994
-0.17147
0.00247605
1.13671
-0.657878
1.01491
-1.01491
0.00394423
0.00351111
-0.00745535
-0.209236
-0.0499765
0.259212
0.266195
-0.190751
-0.0754433
-0.43325
0.786532
-0.353282
-0.0299504
-0.226023
0.255974
-1.02644
0.0663166
0.342657
0.0583347
-0.400992
0.127293
-0.829452
1.05533
0.177128
0.0312881
-0.208416
-0.016052
-0.151493
-0.498237
0.803543
-0.305307
-0.862892
0.364656
0.105057
-0.93451
0.307499
-0.740749
0.903403
-0.822315
-0.0405552
0.303548
-0.262993
0.0842369
0.0521108
-0.136348
-1.25313
-0.247067
1.5002
-0.243759
0.39886
-0.155101
0.736319
-0.251488
-0.484831
-0.504389
-0.650496
0.238377
-0.0635399
-0.149581
0.143933
0.00564775
-0.0769823
-0.0153128
0.0922952
-0.750814
-0.269746
-0.108313
0.0555524
0.0527611
-0.985386
0.00491865
0.980467
1.03833
-0.212857
0.00660463
-0.0026604
0.030149
0.151496
-0.200954
0.384271
0.154348
0.00416519
-0.158513
0.138191
0.0692904
-0.207481
0.364534
-0.30533
-0.0592036
-0.584744
-0.527752
-0.807403
-0.177983
-0.0444939
0.221622
-0.105618
0.180279
-0.0746609
0.116266
0.0239592
0.120939
-0.0574953
0.0700931
-0.0125978
-0.0944465
-0.0218913
0.116338
0.0738906
-0.0738906
-0.180958
0.204917
-0.37842
0.271695
0.103069
0.0905146
-1.25708
0.804953
-1.3515
-0.0410271
1.39252
0.123181
-0.101578
-0.0216039
-0.0272023
-0.0520967
0.0792989
0.516993
-0.00857992
-0.508413
-0.106025
0.107075
-0.0010501
-0.195364
0.0144058
0.144403
0.642129
-0.360773
0.505176
-0.0168682
-1.23626
-0.140669
0.00519095
0.485866
-0.297755
-0.18811
0.230518
-0.215987
-0.0145308
0.0482373
-0.312923
0.02338
-0.943825
0.0476867
-0.153305
-0.282108
-0.396954
0.0753441
1.4345
-1.01373
-0.420764
1.082
0.352498
0.0677427
0.275566
0.12517
-0.00198897
0.125198
0.0377444
-0.162943
-0.249522
-0.56756
0.817082
-0.349005
0.518073
0.668388
-1.08186
0.177522
0.0256316
0.00376819
-0.0293998
-0.900081
-0.0520046
0.952085
0.0384568
-0.938537
-0.304781
0.647438
-0.920035
-0.0183275
0.00282173
-0.26757
0.264748
1.37643
-1.54336
0.166929
-0.161154
0.0204846
0.547308
-0.79683
0.292564
-0.247748
-0.0448164
-0.298276
-0.117665
0.41594
0.203153
-0.963634
-0.0628105
-0.089605
-0.0717419
-0.556062
0.352666
-0.248931
0.019522
0.229409
-0.0684739
-0.0926796
0.0235295
-0.0235295
-0.119957
0.131426
-0.0114697
-0.119967
-1.23153
0.0792564
0.0632165
-0.142473
-0.154173
0.0243462
0.129827
-0.21967
0.0304919
1.15417
0.115014
-1.26919
-0.191786
0.432007
-0.240221
0.0427776
-0.0394553
-0.00332235
0.501897
0.234423
-0.189845
-0.00445325
0.194298
-0.175442
0.307362
-0.102275
0.100507
0.00176798
0.0729436
0.0263425
-0.0992861
-0.25111
0.210782
0.0403274
0.363362
-0.775063
0.411701
-0.217517
-0.0489893
0.266506
-0.678863
0.642626
0.0362367
0.0200737
0.0393632
0.0844895
-0.0885187
0.00402922
-0.0270479
-0.0589533
0.585399
0.452934
0.158635
-0.853159
0.694524
-0.194143
1.35579
-1.16165
0.376814
0.220102
0.794812
0.0661916
0.205136
-0.0669452
-0.0720451
-0.0291252
0.233211
0.1581
-0.0738629
0.717317
-0.406441
0.0584582
0.200754
0.0505446
-0.165409
0.114864
-0.845076
-0.0999341
0.94501
-0.0403973
0.0403973
-0.176834
-0.268876
0.541295
0.00960611
-0.227123
-0.0840145
0.170783
0.087896
-0.13239
0.135898
-0.146685
-0.350339
0.320389
-0.124496
0.286602
-0.162106
0.378194
-0.347365
-0.589931
0.37469
0.215241
-0.201321
0.269064
0.187155
-0.48491
-0.190537
0.612796
0.161528
-0.0328428
0.0328428
-0.321539
0.236426
0.0851123
0.374854
0.0240056
-0.104983
0.120066
-0.0150833
-0.260896
-0.044999
-0.0633145
-0.0498683
0.185766
-0.180564
0.243175
-0.0626106
0.129978
0.0281217
-0.382282
0.141168
0.191582
-0.0616043
-0.0462838
-0.0559911
-0.125218
0.164218
-0.0389999
0.143805
-0.102076
-0.0417291
-0.0189691
0.386901
-0.367932
-0.211711
0.134464
0.105182
-0.109624
0.00444188
0.024572
-0.204227
-0.385704
-0.204978
-0.0584649
0.263443
-0.135379
-0.174172
0.309551
-0.091835
0.0926554
-0.71549
0.622835
-0.0980831
-1.32193
-0.0289038
1.35083
0.0613106
0.839672
-0.900983
0.0806868
-0.139026
-0.166305
0.269642
0.255312
-0.524954
-0.206024
0.256569
0.117178
-0.864148
0.74697
0.065734
-0.201113
-0.108348
0.018743
-1.03125
0.46059
0.570661
1.01373
-0.908676
-1.55168
1.30462
-1.37643
1.33541
0.0383507
-0.0878746
0.00976926
0.0747202
0.0554973
0.875645
-0.758467
0.120503
-0.0728159
0.395595
0.686282
-0.203225
-1.15037
0.956224
-0.74338
-0.513696
-0.233598
-0.390333
-0.087918
-0.161454
0.209691
-0.635656
-0.365813
0.174027
0.757797
-0.240804
-0.84485
-0.706834
0.705943
0.256273
-0.190539
0.276906
0.0375351
-0.0375351
0.658608
0.156063
-0.814671
-0.227293
0.885901
0.613154
-0.939775
0.326621
0.226329
0.0453661
0.00535549
0.00902622
-0.0143817
-0.812635
-0.869969
0.657112
0.430612
0.723562
-0.0346441
-0.131405
-0.259057
0.755226
-0.198161
-0.0507698
-0.00313771
-0.0771998
-0.0536366
0.105747
0.371823
-0.243078
-0.760249
-0.284815
-0.107425
0.0121405
0.0952847
-0.728835
0.948937
-0.276629
0.135212
0.141416
0.124352
0.000818597
-0.126661
0.0340007
0.0926602
0.0130551
0.414328
0.122603
0.107915
0.0469934
0.0596022
-0.106596
-0.0176132
-0.172232
-0.716353
0.367407
0.348946
0.563441
-0.980983
0.417542
0.140279
-0.162097
0.0218184
0.0619802
0.176396
-0.173864
-0.84105
-0.147031
0.0203696
-0.169276
0.105736
0.147933
-0.348887
-1.11541
0.704324
0.411083
0.0893605
0.0904817
0.0533237
-0.845076
-0.433801
0.797164
0.185434
-0.151433
0.0450132
-0.628087
-0.0507752
0.0615419
0.130041
-0.273167
0.0438412
-0.458277
0.119672
0.350469
-0.292134
-0.116308
0.0218618
0.192598
0.825206
-1.0178
0.0783195
-0.757323
0.679004
-0.939863
0.839929
-0.762018
-0.0405755
0.802593
-0.0539567
0.0590017
-0.00504501
0.165159
-0.463434
0.2243
-0.132967
-0.0913336
-0.00569722
-0.168475
-0.110354
0.00292854
-0.0168678
0.0135992
-0.0406471
0.0201946
0.0804385
-0.100633
0.674464
-0.00401835
0.00570015
-0.00168181
0.209564
-0.0750994
0.836044
0.0904553
-0.0699707
-0.102614
-0.767355
0.178756
0.0475729
0.00749712
0.0829845
-0.802593
0.84105
-0.0605046
-0.24537
0.305875
-0.251599
0.0801284
0.119361
-0.116884
-0.00155457
0.0893867
-0.0835881
-0.722952
-0.392455
-0.0444341
0.0646287
0.735807
-0.266758
-0.213553
0.0593799
0.338552
0.000625119
-0.105608
-0.00807795
0.0819685
0.143013
0.209088
0.15508
-0.330236
0.175157
0.109902
0.532227
-0.036972
-0.11081
0.876575
-0.210309
-0.666266
-0.762018
-0.128941
0.692381
0.840259
-0.85453
0.828333
0.0261964
0.384212
-0.052967
-0.331245
-0.240802
-0.749958
-0.0733476
0.0742902
-0.000942605
0.262266
-0.161301
-0.100965
0.0550258
-1.05237
0.99734
0.0223287
0.719586
-0.741915
-0.0434629
-0.106118
-0.0376391
-0.167338
-0.272214
-0.0493245
-0.0535923
-0.000364433
-0.0197391
0.129032
-0.109293
0.208807
-0.0836092
-0.00129577
0.125648
0.204145
0.099403
-0.0788423
-0.00967635
0.203273
-0.429296
0.037612
0.80206
0.0352887
0.00510862
-0.951636
-0.0119982
-0.0726094
-0.07171
-0.0445983
0.0277397
0.264825
-0.320415
0.474302
-0.153887
0.097488
0.0812681
-0.972669
-0.00734732
-0.120728
-0.656465
0.749121
-0.0175961
0.179124
-0.356477
-0.583298
0.178541
-0.430272
0.251732
-0.0217955
0.0259607
0.00590018
-0.00422322
-0.00167695
-0.138141
-0.112969
-0.0209895
-0.130503
0.737347
-0.659027
-0.238752
0.164843
-0.0678212
0.311623
-0.156544
-0.223447
0.802594
0.289787
-1.09238
-0.122132
0.141654
-0.497393
-0.21896
-0.556649
0.720482
-0.685108
-0.0353742
-0.209434
-0.0293181
-1.15037
0.647917
-0.647917
-1.23945
1.23945
0.875645
0.710563
-0.523773
-0.18679
-0.875002
-0.0766342
0.630077
-0.35908
-0.270998
0.162759
-0.23742
0.00240432
0.00420032
-0.85798
-0.0765296
-0.933336
0.217846
0.0566885
-0.0445479
0.693076
-0.11043
-0.582646
0.681261
0.158999
0.00950408
-0.0036039
-1.00898
-0.222814
0.597504
-0.13165
-0.563346
0.694996
-0.0618668
-0.868194
-0.675169
0.205627
-0.790371
-0.94501
1.37116
-0.426147
-0.140937
0.277929
-0.136992
-0.0306914
0.723767
-0.105267
-0.978902
0.978902
-1.06487
0.491285
0.573582
0.0044958
-0.00851415
0.0873505
-0.431943
0.938763
-0.100224
-0.0851426
-0.0343973
0.170564
0.0290862
0.0136915
0.900925
-0.941501
-0.355809
0.428753
-0.63457
0.996179
-0.361609
-0.0998494
-0.0471812
0.125584
-0.056294
0.392255
0.0216471
-0.0941304
0.346922
0.039979
0.0440697
-0.251089
0.207019
0.136268
0.0337177
0.0983822
0.184348
0.904728
0.142736
-0.215296
0.794985
-0.579689
-0.890618
0.838613
0.30201
-0.154589
0.0685139
-0.761525
0.693011
0.495267
0.115882
-0.466222
-0.0724621
0.131443
-0.0589806
0.131063
-0.203525
-0.451317
-0.104745
-0.072184
0.0752871
-0.0031031
-0.0190338
-0.0598085
0.256487
0.0126667
0.758467
-0.679004
-0.0794629
-0.288621
0.298227
0.847534
0.658978
-0.274766
-0.0324471
0.0956637
0.0848041
-0.332552
0.137924
-0.541704
0.40378
-0.0033397
-0.000883521
0.123258
0.332838
-0.456096
-0.00258202
-0.00609369
0.00867572
-0.0263692
0.0163984
0.00997077
-1.00285
0.344969
-0.255165
-1.06677
-0.196005
-0.908676
1.33541
1.30462
-0.187866
-0.170131
0.121141
-0.0638174
0.0695366
-0.00571916
-0.160754
0.788997
-0.628243
0.542468
0.0876092
0.0130468
-0.0163865
0.122954
-0.103079
0.0343973
-0.0489412
0.00450711
-0.101755
0.186559
-0.0817991
0.169695
-0.253023
0.631217
1.082
-0.41124
-0.0600495
0.00155141
0.0584981
1.49461
-0.189994
-0.0594176
-0.0530489
-1.07926
0.170583
0.412244
-0.209091
-0.459265
-0.13381
0.593075
0.780116
-0.346244
-0.433872
-0.0994622
-0.220953
-0.956224
0.143589
-0.0481925
-0.124096
0.172288
0.421436
0.934358
-0.176527
0.181883
0.177223
1.69268
-0.357274
-0.674899
0.0573304
0.617569
0.378562
0.0523461
-0.33844
0.49874
0.756706
-0.0885575
0.0739902
-0.0206665
-0.706704
-0.0247955
0.731499
0.852048
0.199539
-0.152546
-0.0483258
-0.359796
0.105594
-0.311619
0.805507
-0.00291308
-0.17705
-0.0323836
-0.0905196
-0.76401
-0.00278903
0.0228628
0.109082
-0.146264
0.0371823
-0.292875
0.306331
-0.0134566
0.877643
-0.587856
-0.957934
0.0425976
0.915337
0.0531322
-0.237573
0.184441
0.272072
0.0395515
0.295888
-0.729689
-0.750322
0.750322
0.784194
0.681261
-0.757323
0.290859
0.465847
-0.0745701
0.159682
0.934462
-0.391994
0.0202775
-0.844341
0.824063
0.130691
0.00556753
0.0284009
-0.524393
0.820281
0.178252
-0.169144
-0.117199
0.286342
0.0221755
-0.50296
0.333816
-1.05196
-0.289313
-0.730044
-0.0498127
0.00553187
0.000168285
-0.224642
0.170018
-0.074733
0.0326597
-0.147252
0.114592
-0.626744
-0.438123
-0.00552097
0.0661693
-0.984322
0.447071
0.537251
-0.564858
0.376748
-0.0802402
0.366842
0.233422
-0.0408471
-0.0675008
-0.928671
1.04368
0.0343987
0.0707831
-0.229541
0.16172
0.214367
0.00993331
-0.431342
0.778222
0.542314
0.270592
0.870334
-0.80182
0.77888
-0.440328
-0.600478
0.168535
0.154407
-0.773089
0.759027
0.0140616
0.797461
0.00804536
-0.221703
-0.134106
-0.184409
-0.00634261
0.974051
-0.857401
-0.11665
-0.184303
0.11044
0.0262739
0.117659
0.911241
0.84388
-0.685478
-0.158402
-0.314555
-0.0512573
-0.552255
-0.432067
0.361885
1.13831
0.835645
-0.154384
0.186662
0.556969
-0.74363
-0.290187
0.0509833
-0.0569846
0.0161374
-0.506816
-0.093662
0.151014
-0.219487
-0.187668
0.1378
-0.510382
0.270161
-0.988818
-0.684527
-0.288278
-1.30709
1.28009
0.112432
-0.288128
0.0926768
-0.194431
0.209308
0.296235
0.0506862
1.10342
-1.04839
-0.190962
0.129358
-0.00348178
-0.0959835
0.0994653
-0.0811983
0.0330058
0.0492996
-0.0590882
-0.233787
-0.118426
0.68825
-0.422478
-0.265771
-0.327606
0.131874
-0.0946805
-0.0371934
0.240147
0.0560881
0.0145973
-0.91558
-0.0970149
0.142028
0.830594
0.0132857
-0.0297554
0.339307
-0.0229405
0.0184726
0.00446792
0.0181244
-0.119702
-0.241557
0.0761487
-0.110252
-0.552158
0.411221
0.0133506
0.225973
-0.172841
-0.67799
0.954897
-0.95781
0.0164417
-0.193259
0.176818
-0.101235
-0.526992
0.628226
0.0814728
-0.70956
-0.859657
-0.0982772
-0.0892148
0.00368772
0.0855271
-0.250811
-0.720482
-0.124594
-0.136015
-0.706704
-0.231376
0.164431
-0.561269
-1.0646
-0.211454
0.162804
0.0486502
0.257655
0.113008
0.402049
0.610342
-1.01239
0.284782
-0.0285083
0.806895
-0.0995638
-0.707331
-0.221107
-0.0561547
0.894768
-0.242229
0.179619
-0.801947
0.745792
0.473402
0.330142
-0.0629784
0.118476
-0.020524
0.863153
-0.592561
0.687397
0.0927194
-0.927448
0.204496
0.27196
0.662502
0.904698
-0.0281236
-0.0289512
-0.835645
-0.730044
-0.704812
0.722869
-0.00356776
-0.84485
0.719586
0.636112
-0.934036
0.738378
0.000931213
-0.77402
-0.31439
0.629675
-0.769111
0.139436
0.0788557
0.0530182
0.324337
0.0144256
0.983509
-0.997935
0.00875023
-0.00321836
-0.264794
0.214024
0.711148
0.216391
-0.201985
-0.178209
0.897593
-0.892674
-0.344357
0.157567
0.591381
0.46666
-1.05804
-0.818234
0.793439
0.99633
-0.549258
0.14445
0.745925
-0.731499
0.000124804
0.219936
-0.167803
-0.143221
0.0706112
-0.016849
-0.0954819
0.112331
-0.998806
-0.018997
0.294839
-0.793179
-0.45397
1.15384
-0.699866
0.363802
0.632377
-0.0489223
0.0524237
-0.00350137
-0.00326671
0.90086
-0.71178
0.88043
0.506589
-0.960559
0.315802
-0.0958665
-0.588872
-0.399946
-0.387516
0.978898
-0.0378028
-0.84341
-1.42792
0.266268
0.745925
0.072615
-0.865794
0.82857
-0.643379
-0.18519
-0.985234
0.396361
0.0277904
0.115893
0.000443723
-0.116337
-0.970902
0.570956
-0.2098
0.928682
-0.936029
0.193615
-0.211228
-0.0965609
0.244494
1.00391
0.169218
-0.21542
-1.12232
0.0299363
0.834495
-0.923053
-0.557719
-0.517056
1.07478
0.442281
0.0161355
-0.00710933
-0.760912
0.741915
0.730414
-0.733681
-0.794812
0.749577
0.045235
0.633525
0.520311
0.822344
-0.849921
-0.490447
-0.453377
-0.473192
-0.49771
0.810556
-0.810556
0.688297
-0.688297
-0.760912
-0.736316
0.736316
-0.749577
-0.53076
-0.341263
-0.392189
-0.846913
0.846913
0.730414
-0.733681
0.822344
0.783604
-0.783604
0.849921
0.767202
-0.767202
0.509553
0.526808
0.482944
-0.116499
-0.50229
-0.546623
1.07343
-0.511844
-1.04372
0.656202
0.529195
0.467134
-0.0122442
-0.0107488
0.101204
-0.886893
0.0968498
0.790043
-0.217174
0.129256
-0.988396
0.581955
0.868281
-0.577421
-0.119349
0.0373978
-0.000599593
-0.786261
-0.0668984
-0.570661
-0.0360154
0.0547584
0.0325489
-0.213491
0.0620582
0.182215
0.00386848
-0.0130241
0.00915565
-0.808439
0.0629308
0.745508
0.467879
0.536031
-0.524294
0.408933
0.115361
0.938586
-0.76935
-0.169236
0.084719
0.299552
-0.0139123
-0.0582717
-0.0595163
-0.0138313
0.236823
-0.965658
-0.80551
0.0965318
-0.74137
0.784304
-0.0429337
0.135312
-0.89569
0.760377
-0.813545
0.919295
-0.105749
-0.178408
0.196533
0.0216797
-0.28925
0.512082
0.466816
-0.101024
-0.785869
0.930195
-0.0995152
-0.83068
0.0501175
-0.149967
0.997074
0.837562
-0.659614
0.470615
-0.383006
0.103878
-0.889746
0.845023
0.394423
-0.771259
-0.00276137
1.0405
-0.905184
1.16684
0.948363
-0.509524
-0.438839
-0.871415
-0.116982
-0.402378
0.0344468
0.118338
-0.272224
-0.795603
0.795603
-0.597635
-0.0977363
-0.88767
0.118321
-0.984875
0.853226
0.0712308
-0.204197
-0.0558267
0.0586733
0.0114199
0.213359
0.827137
0.821558
0.771426
0.133175
-0.904601
-0.479182
0.946317
-0.761847
-0.110167
0.872014
0.165045
-0.876825
-0.674311
0.88643
-0.782552
-0.114471
0.460257
-0.0252295
-0.435027
-0.283169
0.869811
-0.586642
-0.324419
-0.312225
0.636644
-0.876318
-0.826567
0.085197
0.507824
0.271056
-0.926904
0.579984
-0.685323
0.685323
-1.07451
-0.0478048
0.321582
0.498699
-0.818088
0.860686
0.776262
-0.198567
0.906863
-0.561893
0.522631
-0.931249
0.408618
-0.265764
-0.715219
0.301633
0.469181
0.357239
0.439925
-0.122761
0.309406
-0.224687
0.759728
-0.865477
0.557907
0.38841
-0.147208
0.729163
0.683423
-0.683423
-0.19671
0.197529
0.11119
-0.0785305
0.530524
0.339286
0.107229
0.00510699
-0.00762528
0.00251828
-0.660646
0.682632
-0.0219857
0.419089
-0.928613
0.11659
-0.899142
-0.911633
0.885606
0.0260272
0.0267971
0.873112
-0.641719
1.06081
-0.765967
0.589562
-0.640337
-0.640584
0.14319
-0.405982
0.0109388
0.226719
-0.929892
0.52391
-0.00189944
-0.988098
0.0689823
0.715321
0.676167
-0.086605
0.0584517
0.777593
-0.455385
1.01644
-0.561058
0.089195
0.502204
-0.303689
-0.892549
0.685796
0.206753
-0.660222
-0.130149
0.997874
0.202056
-0.25138
-0.0365241
0.491055
0.508945
-0.76111
-0.104367
-0.496633
-0.532833
-0.48603
-0.546514
0.410483
0.589517
-0.251658
0.176558
-0.860625
-0.0564918
-0.583845
-0.16118
-0.239328
0.400508
-0.0764961
-0.00709205
0.112764
0.0730015
-0.126238
-0.115319
0.75613
-0.654137
0.712589
-0.39715
-0.532742
0.852535
-0.349991
-0.502544
-0.724204
-0.197282
0.921485
-0.235965
0.224184
-0.0234304
-0.104527
0.0118476
0.0440963
0.824787
-0.139464
0.118628
0.114794
-0.729605
0.0689589
0.901567
-0.464187
0.676289
-0.461049
0.855938
-0.320963
1.00724
0.00633374
0.226016
-0.0487934
-0.0414442
-0.100833
-0.133851
0.373886
0.52768
-0.446019
0.822211
-0.376192
0.841327
-0.0512116
-0.0289265
0.0801381
0.129206
-0.0508695
-0.00272278
0.216643
-0.107561
0.175
-0.993088
-0.813453
0.367434
-0.0104584
0.332004
0.47222
-1.19456
1.18305
0.0115069
-0.767555
0.824297
-0.0567416
-0.373528
-0.109187
0.582588
-0.0714712
0.904411
-0.453224
-0.0710703
0.283041
0.422646
0.196176
-0.618822
0.422126
0.0236971
0.658935
-0.56726
0.560749
0.00651106
0.844185
-0.634877
-0.106436
0.12548
-0.0190437
0.69412
-0.00874277
-0.0810601
0.0201311
0.728135
-0.784291
0.410762
0.184584
-0.0185512
-0.219022
0.117267
0.0706144
-0.187882
0.0239882
-0.0408372
0.659514
-0.759078
0.210049
0.215442
-0.025123
-0.0919915
0.223142
0.0816699
0.0081498
0.166235
0.763102
-0.354501
0.787566
-0.433065
0.900169
-0.413332
-0.486837
0.627015
0.134052
-0.0917605
0.00304315
0.0887173
0.106072
-0.356084
-0.575165
-0.0196214
0.725565
0.692624
0.251624
-0.402754
0.727091
0.79206
-0.215478
-0.00796883
-0.865214
0.35589
-0.258651
0.273535
-0.175344
0.685459
0.077643
0.0135455
0.670895
-0.780082
-0.0248951
0.17687
0.0225041
-0.11204
0.41831
-0.0576276
-0.37259
-0.0708136
0.337087
0.652929
0.24724
-0.147588
0.568282
-0.0493447
-0.106357
0.0659527
-0.00176339
-0.0641893
-0.88713
0.252252
-0.0142839
0.922818
-0.226054
-0.596325
0.615611
-0.0192859
-0.0417041
0.754418
-0.869097
0.366553
0.0810763
-0.177637
0.632967
0.121451
0.704723
0.244214
-0.257696
0.72831
-0.354275
0.881955
-0.593982
0.353209
0.240773
-0.501663
-0.0697108
0.0419409
0.0651257
-0.0476295
1.18338
0.715739
0.0763203
0.615946
0.201136
-0.853868
-0.0805221
-0.677723
0.674962
-0.0251574
-0.575693
0.414513
0.855175
0.656664
0.310798
-0.0522112
-0.147948
-0.318274
0.717911
0.236986
-0.789523
0.104787
0.522273
0.359682
0.65642
0.324047
-0.078275
0.888826
-0.724
0.895747
-0.171748
-0.40638
-0.187602
-0.120967
-0.0317396
0.0111852
0.97514
0.0797299
-0.0201277
0.628244
0.176704
-0.637752
0.600172
-0.131072
0.222943
0.717195
0.272707
-0.989902
0.272855
-0.916234
-0.0935798
-0.86423
-0.165948
0.726383
-0.560435
-0.663928
-0.138009
0.0334817
-0.0554595
-0.900416
0.0187442
-0.0416847
0.833815
0.0630781
-0.219407
0.156329
-0.129823
-0.635656
0.150475
0.0755417
-0.852405
0.000881757
0.00298672
-0.378761
-0.0545582
-0.5916
0.0243404
0.550973
0.304202
0.51654
0.834294
-0.246327
-0.373101
0.619428
-0.0694705
-0.625366
0.625366
-0.172516
-0.935209
1.10772
0.030939
-0.153071
0.669523
-0.11855
-0.231042
0.203498
-0.454879
0.519423
0.523148
-0.398527
0.177084
-0.10174
-0.743243
0.47769
0.083059
0.0622824
0.0109069
-0.869603
-0.619535
-0.253441
0.696844
0.303156
-0.619535
0.696844
-0.624555
-0.249425
-0.624555
-0.702199
0.702199
0.297801
-0.013746
-0.144867
-0.0777987
0.314677
0.221762
-0.479399
0.636815
-0.0366432
0.652707
-0.503575
-0.149132
-0.0561671
0.0546912
0.00147597
-0.00456582
0.00967282
0.408805
0.0181635
-0.163374
-0.427608
-0.351378
0.126736
0.0348655
0.830775
-0.273806
0.101904
-0.296335
0.0301657
-0.25645
-0.0116302
0.651264
0.0743007
-0.455175
-0.104961
-0.00163445
-0.0135654
0.0717076
0.547908
-0.479702
-0.0682057
1.05913
0.55021
-0.789542
0.871625
0.0115614
-0.063658
0.1074
-0.125853
0.223778
1.10906
-0.391862
0.028751
-0.0785638
0.553224
-0.516007
0.0218473
-0.0218473
0.0207841
-0.0207841
-0.0334636
0.0334636
0.0352887
0.36862
0.463392
-0.10222
-0.695036
0.454232
0.186392
0.0302515
-0.0851754
-0.484372
0.906821
0.120286
-0.780508
-0.770743
0.187445
0.0939549
0.0201548
-0.00375644
-0.0300529
0.0300529
0.859016
-0.0337406
0.0337406
0.696988
0.0960239
-0.0810239
-0.0239373
0.00639992
-0.0664494
-0.0222907
0.0222907
-0.03082
0.03082
-0.022359
0.022359
-0.0301031
0.0301031
0.235371
-0.29529
-0.0804071
0.21159
-0.0320818
0.0320818
-0.360306
0.498514
-0.138208
0.494797
-0.216869
0.270687
-0.168783
0.556721
0.0494245
0.0719388
0.543672
0.570804
-0.0254875
0.0254875
0.127414
0.0249539
-0.0249539
-0.0336296
0.0336296
0.723203
-0.819701
0.0367849
0.553283
-0.220445
0.0164986
-0.0164986
0.0331847
-0.0331847
0.0184152
-0.0184152
0.0231242
-0.0231242
-0.023524
0.023524
0.0353987
-0.0353987
0.485651
-0.0319607
0.0319607
-0.0137758
0.0137758
0.0241344
-0.0241344
-0.0247129
0.0247129
0.0265376
-0.0265376
-0.0673946
-0.0258965
0.0258965
0.317809
0.122402
-0.0398406
0.0398406
0.0206837
-0.0206837
0.032487
-0.032487
0.0337287
-0.0337287
0.0249865
-0.0249865
0.0182619
-0.0182619
-0.0157019
0.0157019
-0.435181
0.330912
-0.0303601
0.0303601
-0.00873076
0.00873076
-0.0385785
0.0385785
-0.027057
0.027057
0.00481555
-0.00481555
-0.394773
0.666733
0.276258
-0.0324715
0.0324715
-0.0763713
-0.0322106
0.0322106
-0.0046843
0.0046843
0.0361762
-0.0361762
0.236256
-0.244225
0.0199291
-0.0199291
-0.0229052
0.0229052
-0.469904
0.0435218
-0.719459
-0.0304357
0.0304357
-0.436076
0.033678
0.0187457
-0.296473
-0.630976
-0.0374101
0.0374101
-0.200202
0.142575
-0.0401729
-0.00136195
0.00136195
-0.00201059
0.0498434
0.258655
-0.308742
-0.27531
0.584051
0.18024
-0.0229069
0.0229069
-0.602827
0.280968
0.321858
0.729019
-0.380961
-0.348058
-0.453458
-0.647679
-0.321284
0.0249485
0.00153761
0.0876574
-0.581986
-0.000177412
0.187315
-0.967621
0.016277
-0.016277
0.00133311
-0.00133311
0.0313582
-0.0313582
0.0253097
-0.0253097
0.0027159
-0.0027159
0.00221663
-0.00221663
-0.711868
-0.0636188
0.174978
-0.294327
-0.000602886
0.000602886
-0.0434732
0.0434732
-0.0411249
0.0411249
0.162876
0.0630263
-0.225902
0.00127889
0.303434
-0.529488
-0.00208035
0.00208035
-0.0284272
0.0284272
-0.0969117
-0.529964
0.20868
0.00389358
-0.00389358
0.216886
0.0261986
0.948318
-0.47807
-0.0879874
0.566057
-0.628835
-0.208926
0.327264
-0.0373867
0.0373867
-0.675837
0.277336
0.050758
-0.050758
-0.649618
0.37862
0.257217
0.11254
0.00451152
-0.00451152
-0.823012
0.00434323
-0.00434323
0.323599
0.400169
0.194148
-0.0549153
0.0549153
0.0049792
-0.0049792
-0.0432512
0.0432512
-0.0522074
0.0522074
0.00602503
-0.00602503
-0.0578551
0.0578551
0.00645604
-0.00645604
-0.0466802
0.0466802
-0.0272652
-0.0441092
0.0441092
-0.00840416
0.00840416
0.049304
-0.049304
0.0057212
-0.0057212
0.0459762
-0.0459762
-0.0539306
0.0020322
-0.0020322
-0.00256267
0.00256267
-0.139064
0.0819685
-0.0112384
0.0112384
0.000249494
-0.000249494
-0.0609707
0.0609707
0.30828
-0.0212092
0.0212092
-0.0568455
0.0568455
-0.00658562
0.00658562
-0.069159
0.069159
-0.013938
0.013938
-0.0829396
0.0829396
-0.0237652
0.0237652
-0.0940278
0.0940278
-0.66232
-0.307603
-0.518222
0.498936
-0.868194
-0.187437
-0.563272
0.387928
0.171321
-0.498927
-0.004312
0.004312
0.190543
-0.689703
0.0441792
-0.0332723
-0.597063
0.756061
0.607938
0.255469
-0.0604638
0.0444555
-0.387397
-0.574981
-0.0799128
0.368756
-1.00292
-0.021039
0.021039
-0.743687
0.0199486
-0.0199486
-0.0118835
0.0118835
0.333537
-0.118448
0.00489304
-0.00489304
0.0185866
0.0142562
0.592598
-0.124737
-0.0334923
-0.0137158
-0.0152354
-0.0905947
0.486255
-0.39566
0.502873
-0.20124
0.0110341
1.20908
0.0398355
0.050725
-0.401409
0.435855
-0.489396
-0.936534
-0.299727
-0.0716395
0.0180029
-0.715672
0.403447
0.060661
-0.00476201
0.000174872
0.766925
-0.53396
-0.0407465
0.0632506
-0.037423
-0.493321
0.348454
0.403617
0.239009
-0.164472
0.213387
0.0271671
-0.000824629
-0.600781
0.0444561
-0.0598681
-0.159539
-0.0187893
-0.910963
-0.0708448
0.259774
-0.345905
0.385884
-0.206161
-1.10093
0.0949672
-0.000605253
-0.149362
-0.340459
0.45582
-0.106458
-0.00403773
0.110496
-0.0272374
0.0272374
0.156279
-0.431045
-0.0981101
0.122456
-0.0801798
0.0550224
-0.0642408
-0.00629802
0.0705388
-0.088353
-0.155272
0.144325
-0.128502
-0.289007
-0.342476
0.631483
0.0151208
0.0591694
0.152486
-0.0338582
-0.131864
0.0608832
-0.155694
0.310101
0.0515681
0.02857
-0.0240366
0.176523
0.00420907
0.260539
0.00840081
-0.00840081
-0.157617
0.814037
0.0900871
-0.170609
-0.0658326
0.0039658
0.46021
0.600597
0.0176874
-0.0412169
-0.524735
0.00651228
-0.535977
0.08995
-0.6869
0.294906
-0.0604673
0.356729
-0.645736
0.196172
0.489624
-0.0932149
0.0932149
0.000443723
-0.929391
0.458144
0.471247
-0.211352
0.155893
-0.361534
0.434704
-1.02256
-0.166941
-0.0921861
0.101955
0.939576
0.573973
-0.263175
-0.0687776
-0.375914
-0.584645
-0.167516
-0.277972
0.776713
0.573518
-0.270084
-0.314181
0.646185
0.66479
0.163543
-0.259327
0.210399
-0.456905
0.318696
0.124279
-0.124279
0.107063
-0.133708
0.0266452
0.00523581
0.0120771
0.0184726
-0.027223
0.133295
0.224776
-0.184374
-0.0404017
0.533449
-1.06703
-0.0854967
-0.681858
0.672958
-0.120808
-0.173519
-0.0376508
-0.0807751
-0.478969
0.0513609
-0.286982
0.00363749
-0.0187893
0.380637
-0.00511234
-0.000976581
-0.00197866
0.0106886
-0.0190565
0.00836792
-0.112523
-0.0198069
-0.170054
0.18986
-0.121493
-0.335411
0.0185866
0.347098
0.00125306
-0.369912
0.0816346
0.00259486
0.122585
-0.224806
-0.0124556
0.0124556
-0.00105792
0.00236471
-0.00911921
-0.00154788
-0.0698703
0.00083355
-0.00116503
0.169598
0.0952268
0.00502945
-0.00502945
0.196834
0.499428
0.000459936
-0.280523
0.631022
1.15218
-0.461952
0.324724
-0.438035
-0.219355
0.121245
0.219059
-0.227165
-0.0107398
0.0562265
-0.0121302
0.00886983
-0.186525
-0.373998
0.82823
0.114283
-0.826151
0.130675
-0.00167008
0.467125
-0.440328
-0.000974129
0.00490466
0.0513219
-0.248589
0.00126208
-0.000218997
0.688344
-0.627461
-0.243177
-0.389228
0.46207
0.00404646
0.00422725
-0.0401729
-0.00544922
0.806745
-0.431021
0.51408
-0.786273
0.892673
-0.79594
0.566737
-0.178809
0.685794
0.00180599
0.00255606
0.0175988
-0.0975075
0.137756
0.0619635
0.00794262
0.00664317
0.065059
-0.0512944
-0.0137646
0.00297782
0.0372511
0.0402658
-0.0775169
-0.0987615
-0.00757502
-5.02559e-05
-0.0033747
0.481767
-0.424509
-0.00405984
0.0027352
0.798143
-0.339999
0.382762
-0.00605191
0.00269506
0.538574
-0.328525
-0.0436953
-0.11738
-0.0165711
-0.00371483
0.121402
0.077509
-0.00189876
0.402265
0.00381833
-0.0133573
0.0133573
0.00990083
-0.0236166
0.00211302
-0.314901
-0.0037134
0.073247
-0.108357
0.222358
0.116781
-0.0703574
0.00268324
0.00459487
0.444959
0.00179561
0.000591782
-0.121559
-0.0021263
0.00358526
-0.287064
0.394292
-0.698388
0.444121
-0.818119
-0.126517
0.00108562
-0.735426
0.207913
-0.330674
0.550258
-0.0148207
-0.0124631
-0.00415731
-0.00145406
-0.554386
-0.00342896
0.000431002
-0.055228
0.98389
-0.561764
-0.00262377
-0.000734835
-0.0060554
-0.003689
0.0802609
-0.021536
0.021536
-0.0716118
0.0739766
-0.00633613
-0.00818829
0.0639946
-0.0649711
-0.164171
0.0944605
-0.00735237
-0.0137805
0.0420933
-0.0166171
0.0619851
-0.0439822
-0.61595
0.573016
0.0765262
-0.00456149
0.53292
-0.195833
-0.06998
-0.648713
-0.0750738
-0.117747
-0.0954715
0.0933452
0.674164
0.00348273
0.0652793
-0.0610521
0.215809
0.0613152
-0.143884
0.0825689
-0.0681474
-0.604632
0.822576
-0.541035
0.0197968
0.0126747
0.0131745