/*--------------------------------*- C++ -*----------------------------------*\
| =========                 |                                                 |
| \\      /  F ield         | OpenFOAM: The Open Source CFD Toolbox           |
|  \\    /   O peration     | Version:  2306                                  |
|   \\  /    A nd           | Website:  www.openfoam.com                      |
|    \\/     M anipulation  |                                                 |
\*---------------------------------------------------------------------------*/
FoamFile
{
    version     2.0;
    format      ascii;
    arch        "LSB;label=32;scalar=64";
    class       volVectorField;
    location    "30.5";
    object      U;
}
// * * * * * * * * * * * * * * * * * * * * * * * * * * * * * * * * * * * * * //

dimensions      [0 1 -1 0 0 0 0];

internalField   nonuniform List<vector> 
2186
(
(1.30437 -0.0636971 2.05782e-19)
(1.63326 -0.948066 -8.58902e-20)
(1.47497 -0.924325 1.88361e-21)
(0.748461 -0.588824 -1.38389e-19)
(-0.100447 0.348369 -1.64401e-19)
(1.48875 -0.103293 0)
(0.735405 -0.679405 0)
(-0.162057 -0.178206 1.05868e-19)
(1.55618 -0.161662 1.88232e-19)
(0.559353 -0.316623 -2.44949e-21)
(0.674181 0.608421 0)
(0.857974 -0.277643 -1.34753e-19)
(-0.174579 -0.146827 -4.12039e-20)
(1.20886 0.0238217 -3.54769e-19)
(1.82253 -0.687765 -9.30137e-20)
(1.01281 -0.00275436 1.68265e-19)
(0.980011 0.0118585 0)
(-0.163408 0.637735 0)
(1.09376 0.229544 0)
(-0.107751 0.224545 -5.89081e-20)
(0.484307 0.0867442 -1.10693e-19)
(-0.177808 0.207846 8.10033e-20)
(1.19562 0.0268227 2.93195e-19)
(-0.191121 -0.0738972 6.5348e-21)
(1.03391 0.00725852 -2.30645e-19)
(0.799453 -0.563934 0)
(0.763223 -0.033999 1.39065e-19)
(0.622992 -0.602523 -1.58309e-19)
(1.20892 0.713012 0)
(0.965891 0.0238235 -3.14863e-19)
(-0.0471921 0.0924445 0)
(1.02634 -0.0111098 1.09067e-20)
(-0.183519 0.0930245 0)
(1.91811 0.0568565 1.43433e-19)
(-0.138075 -0.187077 1.31674e-21)
(1.53443 0.777162 8.09971e-20)
(1.81477 0.0425718 1.13755e-19)
(0.510077 0.135045 -3.30172e-19)
(1.89701 0.258249 -2.45064e-19)
(1.49928 -0.0412288 -4.05781e-21)
(-0.201285 -0.150821 0)
(-0.12723 0.168191 0)
(1.90706 -0.883154 9.062e-20)
(-0.408311 0.157248 0)
(1.10914 0.281602 1.51306e-19)
(0.603229 -0.298589 2.70287e-19)
(0.936485 -0.79758 0)
(1.19868 -0.79606 9.8075e-20)
(2.26971 -0.0382463 0)
(-0.138693 0.551785 1.45353e-19)
(-0.0444112 0.135903 8.70499e-20)
(0.625015 0.576971 7.94813e-20)
(2.09304 -0.756894 1.07823e-19)
(0.592882 0.26939 -2.66201e-19)
(-0.312052 -0.0860755 3.14829e-20)
(0.774307 -0.659351 0)
(1.69442 -0.978002 1.92233e-20)
(0.592668 -0.552374 0)
(2.27115 0.238571 7.28266e-20)
(1.14182 -0.170528 -3.33238e-19)
(2.12894 -0.103984 1.91049e-19)
(1.34835 0.30607 -1.79003e-19)
(1.34712 0.538185 0)
(1.68373 -0.0713026 4.44636e-21)
(1.36745 0.392492 -1.10458e-19)
(1.26385 -0.739964 -1.34136e-19)
(1.16829 0.662838 5.27616e-20)
(0.680019 0.0679341 -5.36177e-19)
(0.8189 0.0539735 0)
(2.33983 -0.111585 -6.5751e-20)
(-0.171466 -0.186983 -1.26259e-19)
(2.52183 0.00863825 -1.98201e-19)
(0.728067 -0.0416537 -2.35696e-19)
(0.884035 -0.524151 0)
(0.825659 0.178022 -8.75608e-20)
(0.557876 -0.518046 -2.81886e-19)
(2.46101 -0.0308761 0)
(1.00693 0.00865536 3.45706e-19)
(-0.136998 -0.212119 0)
(2.00733 0.36912 0)
(0.661662 0.327128 6.95385e-20)
(1.50245 -0.066783 -6.96154e-21)
(1.02284 0.00654795 3.83e-20)
(1.31605 0.417441 2.76823e-20)
(0.97228 0.0234712 4.01292e-19)
(1.04097 0.0280062 -9.52842e-21)
(0.666762 0.172898 -3.21023e-19)
(1.14214 0.0296515 5.25155e-21)
(1.27458 -0.124221 0)
(-0.0708847 -0.0683102 9.97374e-20)
(0.870893 -0.630068 -1.52731e-19)
(-0.149547 0.108356 -1.11856e-21)
(1.1198 -0.0762398 2.32418e-19)
(0.822851 -0.187467 0)
(0.974591 0.0230798 3.84009e-20)
(1.36315 0.647283 0)
(1.6416 -0.959849 0)
(1.30591 0.223837 0)
(-0.154394 0.537465 0)
(0.801541 -0.674364 2.72471e-19)
(0.581604 0.38189 -2.48626e-19)
(0.760856 0.424401 1.46308e-19)
(1.57353 0.196341 0)
(1.1529 -0.101692 -2.12468e-19)
(1.12436 0.0234736 1.71068e-19)
(-0.176447 0.21554 1.05561e-19)
(0.63434 0.502817 0)
(2.19189 -0.143158 -1.19576e-19)
(0.974799 -0.484337 7.61727e-20)
(-1.17554 0.0692247 1.59444e-19)
(1.73429 0.324099 1.08021e-19)
(-0.139793 0.361644 -2.32028e-19)
(0.830062 -0.754405 0)
(0.562768 0.345123 1.61482e-19)
(1.77396 -0.198617 -5.53092e-19)
(-0.110618 0.103159 -3.8265e-19)
(1.70973 0.754065 1.43199e-19)
(1.9324 0.0433571 0)
(-0.0942984 -0.0969025 -2.98125e-19)
(0.712267 -0.0777863 7.44364e-20)
(1.55534 0.881635 0)
(-0.00105625 0.591941 -1.91979e-19)
(0.882811 0.758756 -2.67293e-19)
(-0.306999 0.620105 2.92185e-19)
(1.02926 -0.025245 0)
(1.581 0.625907 -1.80468e-19)
(-0.102918 0.349131 0)
(0.705944 -0.501214 -1.00865e-19)
(-0.208375 0.625576 -1.58252e-19)
(0.802094 -0.732278 0)
(0.441324 -0.282879 3.94709e-19)
(0.550275 -0.463567 2.64715e-19)
(0.421597 -0.38174 0)
(0.996944 -0.79176 -1.13677e-19)
(0.418484 0.251368 0)
(-0.0866519 0.533422 -1.13973e-19)
(0.822635 -0.707557 1.2956e-19)
(2.34352 -0.189261 2.79181e-19)
(2.19024 0.197325 0)
(-0.129971 -0.156299 0)
(0.68026 0.631798 -3.34094e-19)
(1.8033 -0.623809 1.17871e-20)
(-0.129766 -0.137794 0)
(0.996405 -0.816758 -1.24445e-20)
(1.15161 -0.0970998 0)
(1.08528 -0.122654 3.68671e-19)
(2.06506 -0.13462 -1.17369e-19)
(-0.140675 0.488503 0)
(1.23374 -0.558675 -4.9155e-20)
(-0.261991 0.250462 -3.9278e-20)
(-0.0802316 0.100968 0)
(1.10751 -0.823504 1.27337e-20)
(1.00693 0.00437817 -5.77502e-19)
(0.659917 -0.486919 -9.93769e-21)
(0.827101 -0.523024 0)
(1.21322 -0.737847 -8.28891e-20)
(0.65462 0.233097 2.49529e-19)
(1.22601 0.119392 0)
(1.49881 0.086201 -2.56695e-19)
(1.21196 -0.865498 -1.70373e-19)
(-0.126504 -0.155057 -1.07941e-19)
(-0.461549 0.0426012 -1.73797e-19)
(1.06978 0.00628336 2.18268e-19)
(0.928235 -0.47001 -9.5789e-20)
(0.988004 0.093383 -4.86178e-21)
(0.478101 0.37354 -6.39776e-20)
(0.762864 -0.118343 1.20146e-19)
(-0.0918713 -0.0986358 -2.71396e-19)
(1.94729 -0.321251 0)
(2.49613 -0.412879 1.41156e-19)
(1.44438 0.650132 1.3886e-19)
(0.818781 -0.622065 -1.98747e-19)
(0.9951 0.0084065 1.18321e-20)
(0.73053 -0.538082 2.77292e-19)
(1.30045 0.800458 1.2598e-19)
(1.84921 0.0711665 1.27376e-20)
(-0.160728 0.53649 0)
(1.08448 0.0559268 -2.26789e-19)
(-0.692172 0.253496 -1.99513e-19)
(1.06966 0.489859 7.77702e-20)
(0.152775 -0.139121 1.64003e-19)
(1.16364 0.0275766 -4.09497e-20)
(-0.207801 0.104861 -1.42461e-19)
(1.29179 0.583868 -7.68678e-20)
(1.13313 0.883633 0)
(-0.198301 0.601941 -8.80538e-20)
(0.0373807 0.147153 0)
(0.649516 0.558777 -2.67545e-19)
(2.11002 0.190784 -1.7191e-20)
(-0.18047 -0.0853238 1.32902e-19)
(-0.355297 0.511945 -5.20567e-19)
(0.725189 0.0703519 2.35549e-19)
(1.97675 0.175948 -4.1633e-20)
(0.989894 -0.350708 -2.81718e-20)
(-0.0875112 -0.0979397 0)
(-0.783353 0.11494 3.15825e-19)
(1.3205 0.96848 -2.23146e-20)
(0.839154 0.0704128 -1.29326e-19)
(0.550412 0.516655 1.86473e-19)
(0.42566 0.194933 0)
(-0.207456 -0.266848 -2.10223e-19)
(-0.782352 -0.0320804 3.02425e-19)
(1.31421 -0.968926 2.90194e-22)
(0.991045 -0.033596 -1.79263e-19)
(-0.160183 -0.164835 5.76688e-21)
(0.0229256 -0.0175625 1.38618e-19)
(-0.211621 -0.219251 -1.92264e-19)
(1.97218 -0.0519949 0)
(1.13012 0.0458345 -3.05303e-19)
(2.49457 0.153877 2.23458e-19)
(1.28787 -0.624391 8.67757e-20)
(1.00373 -0.0200853 1.84419e-20)
(0.589903 0.324086 0)
(0.939522 0.747296 -1.58485e-20)
(0.678325 0.624194 1.78523e-19)
(0.908123 -0.570921 1.38053e-19)
(0.68173 0.498118 0)
(1.02333 0.00125148 7.6959e-21)
(0.89345 -0.67215 1.96611e-19)
(0.8361 0.420722 -4.39322e-19)
(1.2132 -0.112499 0)
(-0.0150915 0.0451627 -2.6971e-19)
(-0.125037 0.113415 -8.81536e-20)
(1.58437 0.723414 0)
(1.36691 -0.947961 -2.48371e-22)
(-0.116957 0.63106 0)
(-0.0761832 0.234438 1.03398e-19)
(0.732061 0.648838 -9.45924e-20)
(0.855222 -0.221111 0)
(-0.206944 -0.191155 0)
(1.64746 -0.457315 0)
(-0.309545 0.334457 5.39763e-19)
(1.228 -0.893726 1.11752e-19)
(1.18964 -0.61066 5.45865e-20)
(1.05944 -0.172699 -1.50493e-19)
(0.889729 -0.701979 -1.54832e-19)
(0.191754 -0.195705 0)
(-0.585538 0.565569 0)
(1.01306 -0.516991 1.60797e-19)
(-0.139833 -0.163735 0)
(-0.102478 0.585145 0)
(-0.13487 0.1519 3.30127e-19)
(0.788553 0.666943 8.20715e-20)
(1.00829 0.790781 0)
(0.69328 0.550242 -8.1599e-20)
(0.833882 -0.0460474 -2.12006e-19)
(0.742019 0.55871 -2.185e-19)
(0.586042 0.545107 -1.60581e-19)
(-0.167232 -0.208196 -1.43384e-23)
(0.73123 -0.65562 0)
(0.899293 0.172873 -3.08368e-19)
(-0.199581 -0.197398 5.63298e-20)
(0.59737 0.554198 3.62803e-19)
(0.952605 0.793827 0)
(0.0573842 0.0988006 3.69119e-19)
(-0.15847 -0.193615 3.35294e-19)
(-0.156413 -0.0766902 -1.7699e-19)
(0.660229 0.566306 -1.41702e-20)
(0.969085 -0.00825875 5.59885e-20)
(-0.217186 -0.1145 0)
(2.08667 0.0740608 -2.50391e-19)
(1.99762 -0.450423 -4.4319e-19)
(0.664135 -0.614889 -6.98626e-20)
(0.0510186 0.618187 9.97834e-21)
(1.19082 0.460171 1.76455e-19)
(0.883748 0.411685 0)
(1.05869 -0.173008 1.78357e-19)
(-0.0981915 -0.243045 1.21936e-22)
(-0.117961 0.0821556 3.30516e-19)
(0.920499 0.0186374 -4.95312e-20)
(1.12327 0.143027 0)
(1.79865 0.0280066 -2.53179e-19)
(1.90396 0.086985 0)
(0.543797 0.248944 -4.3692e-19)
(0.0195364 -0.0139351 0)
(-0.168225 -0.192252 2.48204e-19)
(0.696618 0.100444 0)
(0.629186 -0.521126 -1.70861e-19)
(1.14265 0.017992 1.96679e-19)
(-0.136723 0.575081 3.58403e-20)
(2.17889 -0.0540427 7.99075e-21)
(2.14417 -0.204699 -1.35172e-19)
(1.11105 0.228953 -2.10845e-19)
(-0.210365 -0.184304 -1.05745e-19)
(1.08867 -0.861307 0)
(0.813789 0.0177594 -1.43159e-19)
(0.936243 -0.382059 -2.69725e-19)
(1.73148 -0.577509 -7.04927e-21)
(1.72984 -0.0195361 2.3053e-19)
(1.07796 -0.00687351 3.64934e-19)
(-0.0920725 -0.235957 -1.61075e-19)
(1.00495 -0.44357 -1.1612e-19)
(0.201576 -0.194046 2.41479e-19)
(1.00796 -0.00812035 0)
(1.0046 -0.00711193 0)
(1.06503 -0.232214 2.03268e-19)
(-0.0977746 0.410929 -7.96759e-20)
(0.193842 -0.116428 -1.45154e-19)
(2.07256 -0.00220623 -6.11965e-21)
(1.1564 0.152179 0)
(1.80556 0.171258 -1.34817e-19)
(0.958971 -0.833979 -6.8063e-20)
(1.81647 -0.563799 -8.14274e-20)
(1.09989 0.833347 0)
(0.481005 -0.462434 0)
(0.601159 0.514447 -1.69391e-19)
(1.09596 0.280815 -3.89377e-19)
(2.21767 -0.207134 4.15658e-22)
(0.862303 0.156631 1.32285e-19)
(-0.158482 -0.284649 -4.57199e-19)
(1.65645 -0.217804 -3.55305e-20)
(-0.35393 -0.120152 0)
(-0.137843 -0.168932 0)
(-0.24203 -0.0117972 0)
(1.35424 -0.729248 -6.89142e-20)
(-0.0954526 0.106146 -1.94477e-19)
(-0.034021 0.00555847 0)
(1.28127 0.970148 -3.4229e-20)
(1.10908 0.150251 -4.04283e-19)
(2.23272 -0.0506747 -7.88189e-20)
(1.07258 0.916018 8.26131e-20)
(-0.157166 0.28512 1.17861e-19)
(1.17452 -0.091486 0)
(-0.243558 0.060385 -2.73876e-19)
(-0.121173 0.272265 2.27609e-19)
(0.777947 0.0282255 1.73771e-19)
(1.52564 0.944659 -7.62108e-21)
(1.43177 0.248152 -1.55034e-19)
(-0.161138 0.096641 -1.62816e-21)
(0.758212 -0.691531 -3.36243e-20)
(1.12432 -0.0177489 0)
(1.72232 -0.0506311 0)
(1.03293 0.0545357 0)
(-1.15261 -0.113139 -2.23355e-19)
(-0.292222 -0.0331429 9.7552e-20)
(1.04121 0.839838 0)
(0.999909 -0.00299999 4.81466e-19)
(0.763758 0.601133 -2.19093e-19)
(-1.17835 -0.254939 -1.37909e-19)
(0.863307 0.0150671 -3.8935e-20)
(0.725687 -0.662171 -2.00796e-19)
(1.38099 0.70875 -3.21413e-20)
(0.57102 -0.457657 -2.75499e-19)
(1.12572 0.00171822 -4.35783e-19)
(0.81016 0.0373266 4.19437e-20)
(1.52785 -0.16594 5.42366e-20)
(1.78755 -0.112442 -1.24813e-19)
(-0.0939696 -0.104851 -4.13118e-22)
(1.07602 0.467612 -2.58581e-19)
(1.3095 0.613601 6.7879e-20)
(-0.179603 -0.135912 0)
(-0.201963 -0.178964 1.66841e-19)
(-0.00288524 0.145789 1.1438e-19)
(-0.154389 -0.162751 -1.38163e-19)
(0.472958 0.311364 0)
(1.54385 -0.514249 0)
(-0.0208097 0.021105 -1.20326e-19)
(-0.190129 -0.221726 -5.71133e-20)
(1.04634 -0.0307328 1.72692e-19)
(-0.14239 0.433982 -4.25011e-20)
(1.45022 0.0913058 -4.53093e-19)
(-0.148967 0.35197 0)
(0.845562 -0.749396 -2.71756e-19)
(1.46643 -0.151641 1.94714e-19)
(-0.655239 0.24442 1.32273e-19)
(0.718057 0.156694 3.12824e-19)
(0.62282 0.132592 1.01118e-19)
(0.510627 -0.483107 1.89441e-19)
(-0.141086 -0.150655 -1.28921e-19)
(1.85346 0.206537 0)
(0.389849 0.341066 -1.85137e-19)
(1.02872 -0.015861 -2.74617e-19)
(-0.362797 0.51573 2.0584e-19)
(1.41447 0.482894 -1.18806e-19)
(-0.146777 -0.179846 -5.13616e-20)
(0.701245 -0.639753 -3.55325e-20)
(0.814287 0.184539 -1.9681e-19)
(0.974217 0.424091 2.20321e-20)
(1.15871 -0.14086 3.19656e-20)
(0.612782 -0.235272 -2.83588e-19)
(2.03305 -0.336983 -1.70004e-19)
(1.92274 -0.0351258 0)
(2.06578 -0.142944 -6.92546e-20)
(1.57271 -0.014471 -3.83658e-21)
(0.846899 -0.036645 1.29863e-19)
(0.920946 0.362099 -1.68385e-19)
(1.7393 -0.102882 1.0038e-20)
(0.414858 0.384494 -2.40427e-19)
(0.139831 0.594392 1.62793e-19)
(2.19675 -0.00400807 0)
(0.939119 0.00699424 0)
(0.886614 -0.784313 5.16472e-20)
(-0.146252 -0.212658 -3.67589e-19)
(-0.239441 0.524902 -2.01087e-19)
(-0.108729 -0.125302 -2.25912e-19)
(-0.106356 0.647505 -1.25573e-19)
(-0.454348 0.0102412 0)
(-0.13542 -0.158768 4.13072e-20)
(-0.134265 0.238237 -8.11276e-20)
(0.0240141 -0.0119449 -3.15861e-19)
(0.808369 -0.113923 0)
(1.71073 -0.504558 1.81929e-19)
(-0.0377842 0.0290286 0)
(0.995541 0.0238008 3.47487e-19)
(-0.288615 -0.122659 1.44678e-20)
(0.547088 -0.429693 3.69257e-19)
(-0.644479 0.263382 3.31073e-19)
(-0.888349 0.212996 0)
(-0.010879 0.307945 8.28968e-20)
(1.00415 0.0226808 -1.0447e-20)
(-0.0203408 -0.157504 0)
(1.00501 -0.00919488 -5.42336e-20)
(0.871073 -0.735496 -2.61669e-19)
(1.55305 -0.285622 0)
(0.941494 -0.274614 1.92704e-19)
(0.0862063 0.519548 1.60301e-19)
(-0.068064 -0.0714051 0)
(-0.22129 -0.249338 -5.89946e-21)
(0.735429 -0.64173 -3.93405e-19)
(0.956878 -0.0229949 -2.48432e-19)
(-0.154211 -0.223009 4.47031e-19)
(-0.15976 -0.200317 1.56619e-19)
(-0.396245 -0.0659087 0)
(0.956018 0.473486 0)
(-0.486332 0.109485 1.75526e-19)
(1.72351 0.182062 -1.50673e-19)
(1.06875 0.891519 1.82867e-20)
(1.07078 0.212671 -1.18458e-19)
(1.13128 0.00734718 -2.04735e-19)
(1.04913 -0.0708902 -7.1462e-20)
(-0.153512 -0.233446 -4.02553e-19)
(1.94328 0.113922 4.2453e-19)
(0.685375 0.0340729 1.99887e-19)
(1.66665 0.0354767 1.18975e-19)
(1.05046 -0.150392 0)
(-0.868718 0.0064246 2.48108e-19)
(1.14429 0.0254061 -4.70903e-19)
(1.7469 0.622158 1.30103e-20)
(0.749115 -0.460344 -1.50612e-19)
(-0.0957837 -0.097321 2.22846e-19)
(0.808724 -0.709213 3.44744e-19)
(1.2391 0.197027 7.22428e-20)
(1.00675 -0.00840098 2.40261e-19)
(-0.0753779 -0.278298 -1.71104e-19)
(1.02322 0.0174972 0)
(1.7491 0.00705982 -2.05076e-19)
(-0.087473 -0.0884252 0)
(1.01377 0.0126469 -1.41273e-19)
(-0.516109 0.0196849 -5.92708e-19)
(1.74582 0.314448 3.6609e-20)
(-0.0671917 0.196914 1.49571e-19)
(1.61729 0.0176657 -5.43947e-22)
(1.01412 -0.0185212 4.98192e-20)
(1.28501 -0.0897609 0)
(1.45684 -0.611486 -1.11267e-19)
(1.02222 0.0355183 -1.47786e-19)
(1.43638 0.788829 -5.92379e-20)
(1.28992 -0.030823 0)
(0.908644 0.474572 2.83251e-20)
(-0.0274536 0.025172 0)
(1.34995 0.0556905 0)
(-0.26766 -0.104187 0)
(1.24306 0.447528 0)
(1.86255 0.284764 4.1426e-20)
(0.737414 0.612759 3.84081e-19)
(0.298576 -0.300359 -2.24242e-19)
(-0.181934 -0.221009 -3.66097e-19)
(-0.093631 -0.105724 0)
(2.51243 -0.387401 1.81313e-19)
(1.32527 0.525456 0)
(1.46106 0.295399 0)
(-0.274484 0.110785 1.20035e-19)
(0.803194 0.709667 1.24516e-19)
(1.67718 -0.00953206 0)
(-0.159727 -0.139856 7.92699e-20)
(0.907429 0.219466 1.80977e-19)
(2.19303 -0.27656 -1.23621e-19)
(1.23597 0.924133 4.47464e-20)
(0.936496 -0.842284 -2.76531e-20)
(1.65568 -0.11454 -7.91241e-20)
(0.789082 0.712937 1.28065e-19)
(1.17256 0.921855 0)
(2.43941 -0.108835 2.20034e-19)
(0.498604 0.449901 0)
(1.473 -0.484386 1.04503e-19)
(1.0107 0.108307 1.77683e-19)
(1.00547 -0.00579452 0)
(-0.767374 0.0262241 2.14293e-19)
(0.894739 -0.17414 4.47667e-20)
(0.636582 -0.413215 0)
(0.676272 -0.386232 1.99253e-19)
(1.23705 0.55761 -3.2774e-20)
(0.470431 0.444002 2.65287e-19)
(0.0196542 0.01302 3.77205e-20)
(0.0574646 -0.0631062 8.72202e-20)
(0.75578 0.0586847 0)
(1.33841 -0.908881 -5.29026e-20)
(1.03283 -0.0447265 3.83631e-19)
(1.50337 0.350323 1.3342e-19)
(-0.160371 -0.0910214 6.7214e-20)
(-0.713277 0.215906 0)
(1.23834 -0.238051 -1.02398e-19)
(-0.0702083 -0.0737427 -1.90014e-19)
(-0.339221 0.419886 -3.183e-20)
(-0.132329 0.0522046 -7.23625e-22)
(-0.202998 0.0957201 2.72658e-19)
(0.348084 -0.00226277 -2.00015e-20)
(2.2862 -0.00534626 3.35355e-19)
(1.19034 0.462128 -2.84552e-19)
(0.865552 -0.0528406 0)
(1.89936 -0.109161 2.04666e-19)
(1.81741 0.058607 1.04603e-19)
(0.922413 -0.774583 1.27102e-19)
(1.17365 -0.98765 -2.54963e-20)
(0.474523 0.440723 1.78379e-19)
(1.20868 0.217381 0)
(1.75552 0.582489 2.34943e-20)
(-0.0827865 -0.0937327 -3.86748e-19)
(0.88001 0.767765 0)
(1.77063 0.458491 0)
(0.299669 -0.299043 -3.93761e-21)
(0.322104 0.30068 0)
(-0.830628 0.242084 -2.99439e-19)
(-0.0285527 0.098471 -1.08383e-19)
(1.7602 -0.429002 0)
(1.26226 0.0840925 1.88643e-19)
(-0.107776 0.595511 1.67183e-19)
(0.543238 -0.515915 -4.3048e-19)
(1.76654 0.00235043 -4.29609e-20)
(0.621747 -0.564053 0)
(1.03605 0.12449 0)
(1.37284 -0.270466 0)
(1.11822 0.22741 -2.25491e-19)
(1.35712 0.109614 3.19835e-19)
(-0.986788 0.309992 0)
(0.881969 -0.0543996 0)
(2.17507 -0.103472 -1.28823e-20)
(-0.0866151 0.0459525 9.20362e-20)
(2.43807 0.0883406 -2.9084e-19)
(1.09825 -0.519655 1.99276e-19)
(1.99806 0.0526572 -3.24359e-19)
(-0.344308 0.560782 -1.24499e-19)
(1.96654 0.088318 -1.7438e-19)
(1.01838 -0.0224153 3.91613e-19)
(1.51512 0.604903 0)
(-0.109721 0.279425 2.94848e-20)
(1.01602 -0.83852 1.53349e-19)
(0.858891 -0.0183634 4.551e-20)
(0.641305 -0.436254 0)
(1.92558 -0.526763 7.52914e-21)
(1.21485 -0.196064 1.33229e-19)
(1.67129 -0.473685 0)
(0.618074 -0.574187 4.01021e-19)
(1.74213 0.0685685 -8.48936e-20)
(2.33183 0.0727651 4.49878e-19)
(-0.0769385 0.0417899 -1.9199e-19)
(1.33052 0.61959 1.47478e-19)
(1.14769 0.407812 3.56424e-21)
(0.903902 0.372979 2.15882e-19)
(1.80202 0.226583 -1.42777e-19)
(-0.14882 -0.248646 -2.16261e-21)
(0.883712 -0.032844 0)
(-0.133946 -0.108868 3.64789e-19)
(1.10961 -0.963966 0)
(1.07438 -0.658354 1.94891e-20)
(0.795425 0.118732 -4.15167e-19)
(1.29343 1.15916 -1.52598e-21)
(-0.50908 0.272097 -3.18493e-19)
(0.986429 0.484348 1.69175e-19)
(-1.07096 -0.221932 2.46661e-19)
(0.695102 -0.0412342 0)
(2.06319 -0.0188586 0)
(1.41652 -0.110862 -1.13107e-21)
(0.780953 -0.0074954 0)
(1.35757 -0.20272 -1.37092e-19)
(-0.638296 0.463615 3.94023e-19)
(1.9316 0.507172 5.02193e-21)
(1.0445 -0.0339624 0)
(0.558406 -0.353256 9.81129e-20)
(1.0094 0.0263881 1.8649e-19)
(0.0725851 0.0318516 -1.11205e-19)
(-0.0357357 0.663329 0)
(1.11701 -0.479128 4.40344e-19)
(2.00792 -0.105755 -6.91273e-22)
(1.1088 -0.501475 -1.91812e-19)
(2.32036 0.270326 1.36916e-19)
(1.28592 0.790581 0)
(0.873322 0.022186 0)
(-0.192006 -0.0371429 -1.64532e-19)
(-0.0227053 0.0178399 1.35401e-19)
(0.949061 0.36745 -1.99953e-19)
(-0.0389203 -0.306363 -1.64524e-19)
(0.645369 0.406725 2.31585e-19)
(0.976844 0.503588 0)
(0.548185 -0.509689 0)
(-0.260417 -0.0330677 -6.3355e-21)
(1.24132 -0.510404 -8.76897e-20)
(0.776985 -0.0790754 1.54301e-20)
(0.735239 -0.156733 1.11726e-19)
(-0.0882263 0.049967 -2.42169e-19)
(0.960044 0.187779 2.01861e-19)
(0.656335 0.611832 0)
(1.26885 0.696343 0)
(1.62281 0.263686 0)
(-0.458326 0.00901684 -1.46735e-19)
(1.24768 0.56051 1.8515e-19)
(1.92203 0.0719523 4.19197e-20)
(0.934074 -0.0110468 0)
(2.49383 -0.428373 0)
(2.15526 -0.0558787 -3.19537e-19)
(-0.12936 -0.136985 1.36053e-19)
(1.00513 0.00290813 -1.86738e-19)
(1.50127 0.482252 0)
(0.0139496 0.625528 0)
(1.2421 0.320201 2.8084e-19)
(1.02215 0.528036 -1.26057e-19)
(1.07042 0.0269804 0)
(1.5192 0.210087 0)
(1.98474 0.675926 -2.71124e-19)
(-0.155954 0.135312 -1.20879e-22)
(0.995839 0.0128462 0)
(0.706272 0.47166 -3.19782e-20)
(0.948855 -0.836037 0)
(1.00125 0.0157669 4.32989e-20)
(0.720842 -1.0193 -1.86567e-19)
(0.910233 -0.324677 2.83576e-19)
(-0.595086 -0.584057 1.20704e-19)
(2.08695 -0.052136 3.39593e-19)
(1.79839 0.0111247 1.07729e-19)
(0.788247 -0.0208183 0)
(1.01384 0.00996376 0)
(-0.685396 0.252085 0)
(0.66049 0.632268 -1.82781e-19)
(-0.0590613 0.0288447 1.63497e-19)
(1.16983 0.350847 -4.49832e-19)
(-0.191364 0.612999 0)
(0.826479 0.641074 1.61823e-19)
(1.01459 -0.336055 0)
(1.00543 -0.00177156 1.09332e-19)
(-0.466133 0.15922 3.04049e-20)
(1.03356 0.405293 2.48812e-19)
(1.29902 0.239647 0)
(2.21075 0.148507 -6.88366e-20)
(0.827975 -0.113572 -3.42334e-19)
(-0.866479 0.270263 -4.00531e-19)
(0.441135 0.132551 0)
(0.878507 0.241951 1.676e-19)
(2.05983 -0.00047083 0)
(0.773798 0.520176 3.4814e-19)
(-0.820792 0.434387 1.66226e-19)
(-0.0494783 0.0169092 0)
(0.586455 0.557604 -6.80403e-20)
(1.0363 -0.646486 -1.36658e-19)
(0.483902 -0.250411 -1.1587e-19)
(1.02062 -0.0144671 0)
(0.0744025 0.588288 -1.48634e-19)
(0.64599 -0.575271 7.5761e-20)
(0.90553 0.289506 0)
(1.92241 -0.236364 2.3684e-19)
(0.978905 0.833849 2.37041e-20)
(0.280665 -0.590022 1.28331e-19)
(0.251296 -0.0553888 -2.85494e-19)
(0.233427 -0.0426237 -5.25527e-19)
(-0.139119 -0.174559 9.77859e-21)
(0.815494 0.357734 2.36785e-19)
(-0.0787853 0.136598 -4.80579e-21)
(1.42533 -0.652261 3.56827e-21)
(1.02381 0.01004 -3.23521e-19)
(-0.534474 0.180595 0)
(1.03122 0.0351056 -3.85258e-19)
(1.90003 0.126026 1.18715e-19)
(0.884838 0.687699 2.72441e-19)
(1.13581 -0.0678248 1.48545e-19)
(1.00625 -0.0271438 1.49717e-19)
(1.11412 1.03131 2.12172e-22)
(-0.112278 -0.0697321 1.46213e-22)
(1.75414 -0.876346 1.577e-20)
(1.13362 -0.132128 -6.76106e-20)
(0.797386 0.0503862 7.73982e-20)
(0.914027 -0.29393 8.36702e-20)
(1.73366 0.00622408 0)
(0.958842 0.732174 0)
(-0.0225958 0.325518 -3.62786e-20)
(2.00561 0.190362 -1.93596e-20)
(-0.684116 0.316564 1.44104e-19)
(1.03866 -0.54398 -4.6817e-19)
(0.623901 -0.539388 3.64884e-19)
(1.18079 0.190621 -1.021e-19)
(0.0394413 -0.214986 1.86076e-20)
(1.26688 -0.328039 0)
(0.753002 0.112732 -6.41191e-21)
(1.56402 -0.357423 -1.82684e-19)
(1.03638 0.759381 0)
(0.720046 -0.649078 0)
(0.757044 0.402734 0)
(-0.148902 -0.17356 -6.09204e-20)
(-0.127649 0.186034 0)
(0.881024 -0.109887 1.50472e-19)
(1.22339 0.18148 6.18547e-21)
(-0.980081 0.260433 2.19756e-19)
(1.70118 0.091783 6.58533e-20)
(1.82728 0.46339 -5.62297e-20)
(2.10258 -0.294662 -3.76787e-20)
(-0.17346 0.0199948 -1.91436e-19)
(-0.253761 -0.22325 4.39951e-21)
(1.74202 0.0768839 0)
(0.67704 -0.0357251 0)
(1.00061 -0.000136713 2.18474e-22)
(-0.515171 0.126668 0)
(1.39538 0.0601532 -1.03793e-19)
(0.677846 -0.0320333 0)
(1.05237 0.00612918 1.19309e-19)
(0.989234 0.0147609 -4.24001e-20)
(1.15507 0.258795 1.29693e-19)
(1.06185 -0.0177879 -8.79802e-22)
(0.952568 -0.191632 -5.0575e-20)
(1.02525 -0.0307326 3.46591e-19)
(0.679505 -0.616844 1.70628e-19)
(-0.708993 0.0970869 -2.80967e-19)
(1.85799 0.203812 6.53954e-20)
(-0.0270263 0.0217099 0)
(1.12203 0.792609 0)
(1.02945 -0.00481048 0)
(1.01222 -0.781145 -9.36472e-20)
(1.05402 -0.902244 2.74563e-20)
(1.89231 0.514858 -1.31636e-20)
(-0.701773 0.252503 -4.85285e-19)
(0.12112 0.190367 -6.28466e-21)
(0.591628 -0.386568 -5.95127e-19)
(2.04446 -0.0352133 -1.34098e-19)
(-0.268429 -0.0607772 1.43862e-19)
(2.09797 -0.283735 1.18468e-19)
(1.63332 0.0857609 -6.882e-20)
(-0.173854 -0.15863 -1.22457e-19)
(1.11192 0.552735 1.92279e-19)
(-0.186551 -0.247502 0)
(-0.176903 -0.144198 3.70425e-19)
(-0.146191 -0.164232 -5.03309e-23)
(1.02695 -0.0457207 3.14135e-19)
(1.02432 0.00220146 -8.02889e-21)
(1.10594 -0.0101318 -8.67829e-20)
(1.12728 0.902064 -1.07633e-20)
(1.63052 0.321939 6.02555e-20)
(0.405891 -0.380151 -2.94911e-19)
(1.42983 0.536944 6.37362e-21)
(1.03543 0.00333723 -2.28606e-19)
(2.21456 0.335978 -6.73682e-20)
(1.13409 0.918435 0)
(1.108 0.591178 -3.60718e-19)
(1.00267 -0.00439634 8.92027e-20)
(0.671949 0.601154 2.48436e-19)
(1.04566 -0.241205 -2.94952e-22)
(1.06602 -0.00990571 -2.87057e-20)
(1.1253 0.0160784 8.12699e-22)
(2.35277 0.13468 1.56529e-20)
(1.60068 0.178503 0)
(1.04287 -0.0409907 0)
(1.04861 -0.0351094 5.49768e-19)
(1.00248 -0.00281315 0)
(-0.115724 -0.132058 0)
(0.979666 -0.59197 0)
(1.00101 -0.000782613 -5.18749e-19)
(1.16721 -0.687981 7.3231e-20)
(1.02393 -0.00324693 1.08565e-20)
(1.33844 0.953959 -2.74063e-20)
(1.52116 1.00217 1.17505e-20)
(-0.0242128 -0.461893 1.21148e-20)
(1.25732 0.190687 1.07229e-19)
(1.64114 -0.101156 0)
(-0.181595 0.232087 0)
(2.0925 0.181941 3.17996e-19)
(1.33359 -0.634018 0)
(0.999807 -0.00526551 -1.6086e-19)
(1.01072 -0.00118976 3.12494e-19)
(1.45951 0.14412 -6.7746e-20)
(0.00879178 -0.113841 2.83707e-19)
(0.97791 0.00149858 1.70208e-19)
(1.01577 0.137508 -1.03821e-20)
(0.911614 -0.00424153 -2.29697e-20)
(1.13078 0.943902 -6.7917e-23)
(0.930535 0.0174928 -1.70197e-19)
(1.00363 0.00377247 2.01455e-19)
(1.00034 -0.000725444 1.19071e-20)
(0.789112 -0.0134799 0)
(0.726649 -0.0271912 0)
(0.722141 -0.0276362 6.41872e-22)
(0.698255 -0.0300103 0)
(1.36617 -0.193571 0)
(1.0035 -0.0955676 0)
(0.804815 -0.0254116 1.78287e-20)
(0.892523 0.0112619 -1.11504e-20)
(1.50886 0.0174548 0)
(1.32741 0.734209 4.51913e-20)
(1.03938 0.847783 0)
(0.610355 0.0967972 0)
(0.869102 0.200343 0)
(1.29042 0.24488 1.72143e-20)
(1.74675 0.0938252 1.50077e-19)
(0.776978 0.0235943 0)
(0.786247 0.0200973 0)
(0.968325 0.0204027 -2.09924e-19)
(0.814472 0.00785016 3.92647e-19)
(1.0079 -0.00131417 0)
(1.00021 -0.000615747 3.72384e-19)
(1.00022 -0.000710918 -3.67899e-22)
(0.785231 0.0224066 3.33135e-19)
(0.996986 -0.00526447 -1.95367e-19)
(0.654646 0.0930133 0)
(0.864809 -0.041032 2.29875e-20)
(1.00066 -0.00167433 -1.88413e-19)
(0.999509 0.000819177 -3.22999e-19)
(0.678476 0.569321 0)
(0.999092 0.0014934 0)
(0.999676 0.00013248 0)
(1.60281 -0.233533 6.02349e-21)
(0.273878 0.390045 -1.33144e-20)
(1.74688 0.403986 0)
(-0.104325 0.299699 1.97566e-19)
(-0.927327 -0.0561178 -2.09457e-19)
(1.01943 -0.0153538 -2.51032e-19)
(-0.256366 -0.186656 -1.04107e-19)
(1.01933 0.00346681 -2.01621e-19)
(1.17377 -0.219184 -8.78177e-20)
(0.805334 -0.476416 2.81658e-19)
(-0.103057 -0.118564 -9.23552e-20)
(1.03114 0.0125245 0)
(1.05735 -0.0120465 -5.53398e-20)
(0.852772 0.021323 0)
(-0.0907906 0.063793 2.38903e-19)
(0.920492 -0.741419 0)
(-0.347262 -0.00117479 -2.52711e-19)
(1.37501 0.135339 -8.12566e-21)
(1.65343 0.686977 -1.60126e-20)
(-0.063289 0.010505 0)
(1.05224 -0.0384201 1.7001e-19)
(-0.326813 0.0914214 -1.33691e-21)
(0.928143 -0.00935521 2.66813e-19)
(1.01196 -0.00853281 -1.71166e-19)
(1.67057 0.863063 3.12648e-20)
(0.51882 0.487286 0)
(0.443608 0.399215 1.93646e-19)
(2.32231 -0.324052 -7.4012e-21)
(1.14908 0.126535 1.87332e-19)
(1.09669 -0.717803 0)
(1.02276 0.00405278 0)
(0.999769 -0.0183613 -3.94319e-19)
(1.01903 0.0154485 -3.82995e-19)
(-0.15434 -0.196851 0)
(1.21821 0.820294 -1.28604e-19)
(1.04403 -0.0720633 3.14019e-22)
(1.01602 0.00362353 1.47773e-19)
(1.01213 0.0132745 -1.85004e-19)
(-0.336226 0.129978 -2.47653e-20)
(-0.16883 0.0815269 5.43476e-20)
(1.01806 -0.014418 6.30911e-19)
(1.32722 -0.0830997 0)
(1.85517 0.65191 -3.72638e-20)
(1.01548 -0.0111575 -1.96356e-19)
(1.88808 0.0647448 -1.10736e-19)
(1.06146 0.00956565 -4.54903e-22)
(1.00925 -0.0101817 3.93188e-20)
(2.0656 -0.116682 -2.8441e-19)
(1.01633 0.00676819 1.90088e-19)
(0.455341 0.39436 1.99514e-20)
(1.01865 0.00356509 0)
(0.933827 0.150531 4.73729e-20)
(-1.07258 0.376656 4.33283e-21)
(1.00028 0.0218847 1.88744e-19)
(1.04087 0.0208497 -6.26918e-22)
(0.708212 -0.222386 -1.53064e-20)
(1.25969 0.318016 4.04e-19)
(0.99662 0.0156959 1.29617e-19)
(1.01675 -0.0136816 4.51125e-22)
(1.74921 0.255383 -2.42178e-20)
(1.76318 0.941108 -9.6774e-20)
(0.785326 -0.704623 5.24575e-20)
(0.454179 -0.326175 -2.89042e-19)
(1.00697 -0.0102584 0)
(1.02091 0.00298587 4.72334e-20)
(1.01096 -0.00877478 9.98135e-20)
(0.621187 0.580785 2.05617e-20)
(1.01466 0.00593715 -1.97903e-19)
(1.02927 -0.0224286 2.25703e-19)
(1.00771 -0.00854216 -1.86646e-19)
(1.01362 0.0052701 -4.8462e-22)
(1.01298 0.00243474 -3.28211e-22)
(1.0258 0.0137791 1.89368e-19)
(0.901993 0.0857256 4.84798e-19)
(1.34016 -0.254139 0)
(0.0668799 0.220422 1.44029e-19)
(1.01154 -0.00337643 0)
(1.02101 -0.0170173 -5.50331e-20)
(1.53364 0.445615 -8.40082e-20)
(1.56687 0.0267137 0)
(2.34829 -0.196104 -1.89391e-19)
(0.783645 -0.137706 -3.1581e-20)
(0.761863 -0.0180678 0)
(1.94438 0.0998488 0)
(-0.588131 -0.22854 -1.81501e-19)
(1.16712 0.83352 -1.92186e-20)
(1.01769 -0.00424448 -1.99622e-19)
(1.12632 -0.568037 -5.41493e-20)
(-0.103308 -0.0411961 -2.4325e-20)
(0.515434 0.251409 0)
(1.42856 -0.259986 0)
(1.88686 -0.184572 0)
(-0.153581 0.115048 7.11341e-20)
(0.757907 0.772268 -1.56423e-19)
(-1.2913 -0.213176 0)
(0.166156 0.533734 -1.91199e-19)
(1.69509 0.967577 -4.59369e-20)
(1.0082 -0.00294044 -3.8993e-19)
(0.767992 0.789845 -2.95602e-21)
(1.02128 0.00884603 2.57988e-19)
(0.691602 -0.0436761 0)
(-0.157247 -0.19513 -2.8855e-20)
(0.61284 0.432729 -3.26623e-19)
(1.34484 -0.128077 1.62441e-19)
(0.0633615 0.422775 0)
(0.789227 0.0751415 7.00631e-20)
(0.51609 0.493672 4.9647e-20)
(1.18307 0.88287 -3.48663e-20)
(-0.0826956 -0.0863689 1.41147e-19)
(1.02127 0.0134103 0)
(0.67885 0.501704 -1.2068e-19)
(1.01195 -0.00199507 1.46491e-19)
(2.3084 0.178819 0)
(1.01229 0.0073168 2.45491e-19)
(-0.0806007 -0.194031 -1.78621e-19)
(1.01882 0.0107289 -1.52023e-19)
(1.5316 0.802842 0)
(2.54641 -0.180932 7.47629e-22)
(1.00904 0.00348604 -1.01995e-19)
(0.995999 -0.0270026 2.69282e-19)
(1.09174 0.0978915 -2.40203e-21)
(0.438048 0.109996 1.31045e-19)
(-0.118222 -0.130284 3.71521e-19)
(2.00369 0.258797 1.45599e-19)
(-0.0471605 -0.251983 -1.43692e-19)
(0.799393 0.014671 -3.67993e-19)
(0.811055 0.0285935 0)
(0.421306 0.190675 -5.3283e-20)
(1.02125 -0.0142764 -2.95904e-20)
(0.971793 0.0285476 0)
(1.05045 0.00268999 -1.88259e-19)
(-0.442656 -1.0156 1.30931e-19)
(-0.929797 0.293448 1.73836e-19)
(2.1718 -0.568463 0)
(-0.514505 0.323358 -6.72787e-19)
(1.51996 -0.344744 0)
(1.03994 -0.0180784 5.51482e-20)
(0.86259 0.619451 -1.52858e-21)
(1.01425 -0.00134398 1.5827e-19)
(-0.538944 0.521818 3.63194e-19)
(1.01922 0.00258145 0)
(0.994231 0.00360275 -3.82331e-19)
(1.00884 0.00760204 2.01353e-19)
(1.55592 -0.0700986 0)
(0.387065 0.261698 9.54311e-21)
(0.956164 -0.00127526 -1.72304e-19)
(-0.217995 -0.230909 3.82662e-19)