/*--------------------------------*- C++ -*----------------------------------*\
| =========                 |                                                 |
| \\      /  F ield         | OpenFOAM: The Open Source CFD Toolbox           |
|  \\    /   O peration     | Version:  2306                                  |
|   \\  /    A nd           | Website:  www.openfoam.com                      |
|    \\/     M anipulation  |                                                 |
\*---------------------------------------------------------------------------*/
FoamFile
{
    version     2.0;
    format      ascii;
    arch        "LSB;label=32;scalar=64";
    class       volScalarField;
    location    "33.9";
    object      p;
}
// * * * * * * * * * * * * * * * * * * * * * * * * * * * * * * * * * * * * * //

dimensions      [0 2 -2 0 0 0 0];

internalField   nonuniform List<scalar> 
2186
(
0.837329
-0.343723
-0.0255819
1.13153
-0.773007
-0.004992
0.721329
-1.0241
-0.987598
1.38737
1.14552
-0.957992
-1.02908
1.09488
-0.57769
1.10381
1.12494
-0.817379
0.212008
-0.761493
1.50076
-0.761815
1.10452
-1.03963
1.09634
1.10612
1.31795
0.953706
0.684557
1.09556
-0.743362
1.0964
-0.704999
-1.10606
-0.972175
0.206008
-0.979905
1.49212
-0.483046
-0.0916597
-1.02877
-0.726535
-0.695539
-0.889404
0.99092
1.37172
0.377724
0.557182
-0.817141
-0.751096
-0.746942
0.990952
-0.691181
1.42888
-0.791344
1.00552
-0.749082
1.03346
-0.504326
0.877048
-0.800023
0.726747
0.645443
-0.116795
0.66522
0.497415
0.759997
1.38772
1.28314
-1.01524
-1.02453
-0.83748
1.35202
1.062
1.27508
1.21918
-0.809116
1.11985
-0.980529
-0.615594
-0.662878
-0.246117
1.09116
0.712503
1.08358
1.09187
1.3982
0.290106
-0.43896
-0.989925
1.00887
-0.747632
1.00206
1.24657
1.10524
0.511432
-0.154894
0.677288
-0.764719
1.04847
-0.69052
-0.697768
0.730739
1.02795
1.12695
-0.728498
1.32252
-0.724283
0.995545
-2.00971
-0.619381
-0.74988
0.581647
1.42988
-0.969924
-1.0095
-0.554582
-0.844248
-0.99047
1.35248
0.069546
-0.74242
0.950579
-0.875342
1.10838
-0.492702
-0.759422
1.2118
-0.850332
0.701186
1.45999
1.3059
0.264809
0.693019
-0.673385
-0.735402
0.975681
-1.02055
-0.389726
-0.999275
0.894139
-0.202797
-1.01733
0.747332
0.990366
1.03298
-0.674022
-0.782046
0.658022
-0.824972
-0.755367
0.621745
1.12282
1.25139
1.10864
0.56803
1.39731
0.536784
0.446812
0.457459
-0.999373
-1.15809
1.0793
1.05234
0.155161
-0.135422
-0.889236
-0.951629
-0.932377
-0.866529
0.452648
1.05503
1.1258
1.17557
0.518918
-0.136901
-0.791581
1.0797
-1.28249
0.954167
-0.947355
1.11079
-0.757293
0.637352
0.623005
-0.804899
-1.0239
1.24168
-0.342152
-1.02823
-0.91504
1.35685
-0.638052
1.04641
-0.995806
-2.13699
0.175847
1.27624
1.17531
-0.758259
-1.03754
-1.5085
0.100898
1.12528
-0.98053
-0.764364
-0.989036
-0.841206
1.04644
-0.638206
0.563535
-0.304657
1.41523
0.922471
1.01992
1.01139
1.29364
1.10038
0.954467
1.20538
0.414963
-1.01644
-0.740654
0.1941
0.212889
-0.798884
-0.770286
1.1432
1.21725
-1.0041
-0.908689
-1.24361
0.403522
0.702914
0.850959
0.955277
1.18585
-1.01376
0.946897
-1.00713
-0.757782
-1.00386
1.10292
0.823489
1.26085
1.27222
1.21918
1.19766
-1.01554
0.879234
1.21489
-1.02409
1.08962
0.871247
-1.24855
-0.982833
-0.967079
1.26286
1.12515
-1.03091
-1.21688
-1.1458
1.01417
-0.854757
0.842615
1.17406
0.940628
-0.982496
-0.738276
1.07239
0.720206
-0.698733
-0.300886
1.45303
-0.763218
-1.01778
0.92287
1.25463
1.08568
-0.773433
-0.639526
-0.88673
1.01029
-1.03002
0.587364
1.06864
1.09296
-0.196865
-0.540088
1.0637
-1.01228
0.996664
1.26488
1.12054
1.11757
-1.10525
-0.725718
-1.0538
-0.74361
-0.853277
-0.666154
0.411341
-0.576965
0.70222
1.23965
1.31964
1.01544
-0.743189
1.24525
-1.06302
-0.404678
-1.07655
-0.997011
-1.02847
0.386397
-0.755708
-0.751686
0.25779
1.02516
-0.240614
0.47577
-0.748688
-0.487719
-1.02023
-0.755707
1.31782
0.0769528
0.0921187
-0.753202
0.842227
0.652715
-0.218158
0.574746
-1.30471
-1.03582
0.75553
1.12205
1.18205
-1.37869
1.25056
0.946894
0.469787
1.31739
1.09965
1.02777
0.408389
-0.834098
-1.00418
0.967137
-0.843503
-0.983311
-1.09072
-1.00506
-0.992172
1.48184
-1.22489
-0.745105
-1.0241
1.09888
-0.800705
-0.843479
-0.717495
0.812594
-0.694206
-1.22844
1.36024
1.42229
1.19486
-1.02082
0.0929484
1.49855
1.10326
-0.909684
0.544554
-1.01108
0.197183
1.28454
1.08664
0.954424
1.38714
-0.534121
-0.843618
-0.188738
-0.863106
-1.25264
-0.747124
-0.220824
1.42786
-0.764933
-1.16776
1.09114
0.628118
-0.987709
-0.984707
-1.00625
-0.767714
-1.14531
-0.992392
-0.743471
-0.766391
1.28113
-1.15356
-1.02274
1.11254
-1.13586
1.33622
-1.2286
-1.74404
-0.665775
1.09566
-0.938984
1.12348
0.905351
-1.05553
1.12325
-0.71666
-0.993433
-1.04624
1.07736
1.03298
-0.997202
-1.01099
-1.08859
1.08646
-1.237
-1.68005
0.605989
1.04761
0.963045
0.778521
-1.00428
-0.610763
0.925561
-0.935519
0.882768
-2.42069
1.11874
0.0540625
1.20448
-0.990435
0.910217
0.795575
1.1307
-1.05213
1.09732
-0.774647
-0.991677
1.09895
-1.23017
0.248554
-0.997371
-0.00644421
1.10559
0.116573
0.324902
1.10504
0.335814
-0.156476
-0.15878
-0.744893
0.267969
-1.03506
0.801435
-0.517703
1.18096
1.20352
-1.01714
-0.996152
-0.848953
-0.745819
0.527159
-1.01586
0.936757
-0.0423324
-1.02896
1.20385
-0.954742
0.467575
0.326803
-0.744549
0.898534
0.439822
-0.912169
-1.88671
-0.980983
-0.757722
1.11516
-2.41555
1.19538
1.30381
1.29187
0.747447
1.28107
-0.768502
-0.677436
0.98389
0.246284
1.09178
-0.76871
-1.02849
-1.37447
0.864201
-0.99111
-2.26898
-0.771589
-0.806573
-0.170006
-1.07361
0.83349
0.805188
-0.383645
-0.867356
0.803923
0.0955959
1.24952
-2.17603
-0.0874336
-0.992845
0.860928
-0.175878
1.24406
1.51373
-1.36322
-0.763787
-0.880104
0.403692
-0.924205
1.10422
-0.905494
1.05863
0.857226
-1.02659
0.969786
0.931062
-1.50062
0.961429
-0.70014
-0.748682
-0.69271
-0.948919
-0.652771
-0.937991
-0.458395
1.09908
0.308679
-0.757429
0.636703
1.24563
1.28903
-0.35719
0.825099
-1.17625
0.831808
-0.149485
-0.704792
-0.752533
0.593191
0.912414
1.16858
-1.71194
-1.01127
-1.25387
-0.991199
-0.102682
0.785849
-1.77191
-0.302036
-1.09584
1.04727
-1.25693
1.0548
-0.818403
-0.671572
1.03948
0.726507
-1.10389
-0.0824689
1.06557
1.37176
1.12068
-1.07982
-0.781229
0.862396
-0.839992
0.849615
-0.394616
0.541634
1.06293
-1.02806
-0.740966
1.12605
-1.07376
1.35561
-0.292937
0.936278
-0.392802
0.678966
-0.886829
1.32782
-0.74624
-0.605183
1.06971
0.619368
0.594189
-1.07908
-0.754427
-0.940618
0.874435
-0.699854
-0.542951
-1.11171
1.11562
0.490903
-0.757817
0.845803
0.998346
1.08476
-2.00305
-0.668895
-0.749103
1.11249
1.28926
0.532823
1.10844
-1.13654
1.13405
-0.666563
-0.840169
-0.56071
1.01335
1.06257
-1.29773
0.957246
-0.742193
0.908539
-0.799176
1.11051
1.02702
1.11643
-2.34975
1.02779
-0.606747
-0.45618
1.26162
-1.50864
-1.94012
1.2236
-1.16369
1.21796
-1.26994
-0.746217
1.15574
0.839336
1.44265
1.09821
-0.818533
1.15328
1.19304
-1.07407
0.738619
-0.777205
-0.928776
1.58862
-1.00412
1.24592
-0.753524
0.339842
1.09876
-1.11926
1.09057
-1.57042
1.03257
1.04238
1.11102
-0.502541
-1.02253
-0.619798
0.639526
0.738561
1.14899
-0.225798
0.934642
-2.30936
-0.217867
-1.17463
0.89793
1.21903
-0.609003
-1.01457
-0.715116
1.34188
-0.919132
0.839143
-0.941209
-0.702168
-1.01782
-0.77566
-0.991944
0.901913
-1.6352
0.196682
-0.21735
-0.569419
-0.787981
-1.07688
-0.314614
1.0716
1.11832
-1.08657
-0.439943
1.08511
1.027
1.11766
-0.655894
1.08325
1.14212
1.09319
1.12882
-1.22049
-0.0116325
-0.738625
0.721848
1.09924
0.761918
0.180873
-0.25139
-2.43984
-0.395817
1.33814
-0.141992
-0.545522
-0.698946
-0.0308742
-1.02354
0.890981
-0.994891
-1.15866
-0.987681
1.10181
1.10006
1.1119
-0.524128
0.450519
1.31179
-0.231968
1.09457
-0.0573105
-0.546872
0.866316
1.11838
1.20642
-0.700391
1.07815
1.07702
-0.592961
-0.0575376
1.11237
1.12418
1.12014
-0.994113
-1.03186
1.11988
0.661504
1.10051
0.310267
-0.0256021
-0.455862
-1.91914
-0.436896
-0.737084
-1.46505
-1.33735
1.12626
1.13094
0.85401
-0.997566
1.10184
-0.0939231
-0.1913
-0.297119
1.09649
1.12383
1.12071
1.13456
1.11217
1.10568
1.09679
-0.55007
-0.230511
-0.183566
-0.208086
-0.0175917
-0.0143952
-0.153181
-0.0849101
-0.0451373
-0.0770957
-0.0798003
1.09079
1.11186
1.10634
1.12988
1.12832
1.12052
1.12439
1.10102
1.10991
0.00565308
-0.182507
1.12159
1.11997
-0.0988443
1.12214
1.12126
-0.406658
-0.461614
-0.0956745
-0.789798
-1.66734
1.10401
-1.0349
1.10063
0.697907
1.1518
-1.00297
1.09982
1.04682
1.04292
-0.741087
-1.27124
-1.04581
-0.0801446
0.0588822
-0.749644
1.11787
-0.569406
1.19186
1.10778
-0.0750843
1.29829
1.44957
-0.435249
0.980631
0.720193
1.10091
1.11888
1.10954
-1.00252
0.588508
-0.547915
1.1064
1.11503
-1.02785
-0.644074
1.10829
-0.167493
-0.231802
1.10739
-1.02345
1.08946
1.12016
-0.982861
1.11194
-0.772729
1.10329
1.18728
-2.06068
1.11682
1.12471
-0.757239
0.794927
1.10346
1.11011
0.272024
-0.654568
0.773418
1.4324
1.11642
1.10566
1.11118
-0.825489
1.10634
1.09072
1.11307
1.10703
1.10938
1.10468
1.21526
-0.141939
-1.99149
1.10752
1.10266
0.399351
-1.04015
-0.894756
-0.287854
0.979941
-1.37118
-0.921581
-0.186565
1.10408
0.790027
-0.197159
-0.205996
-0.602616
-0.42984
-0.686351
-0.817181
-0.99406
-0.738919
-0.236382
1.11087
-0.562125
1.09861
1.02657
-0.993435
1.36928
-0.0760479
-0.709696
0.831502
1.2577
0.563405
-0.990504
1.10375
-0.692372
1.10949
-0.50568
1.10937
-1.1246
1.10177
-0.772978
-0.829493
1.11181
1.12658
1.0574
-0.317917
-0.9893
-0.529177
-0.475247
1.12243
1.01095
-0.692162
1.10288
1.14532
1.09649
-0.806122
-1.46508
-0.685539
-1.28859
0.371527
1.10938
-0.309167
1.10507
-1.03665
1.10388
1.14241
1.11304
-0.0377426
0.00976883
1.13819
-1.02917
1.11487
1.11915
0.0367054
-1.02636
1.06475
1.25849
1.09925
1.09769
-0.30577
-0.772349
1.07084
0.455839
1.11378
0.90911
-0.826518
-1.01884
0.9576
1.3402
1.10467
0.385338
-0.282943
-0.492525
-0.925751
-0.622618
1.08542
-0.686083
1.09102
-0.965272
-0.997733
-0.769842
0.574444
-1.0177
0.413225
-1.11962
1.10038
-0.986756
1.0357
-1.00838
-0.157609
-0.798392
-0.221349
-0.969568
1.07819
-0.777488
-0.882327
-1.17608
-0.560982
1.08994
-0.953941
0.22807
-0.686562
1.20317
-0.0842837
-1.00712
1.1728
1.08748
1.07694
0.539123
-0.945677
1.10934
1.13767
-1.33618
-0.755616
1.09949
0.857586
1.3757
1.12172
-0.919382
-1.16625
-0.752861
-1.11031
-0.845725
-0.99118
-0.748737
-1.03969
0.862566
0.000634648
1.10911
1.32663
1.10042
-0.990457
-1.03661
1.10213
-0.995703
-1.44841
1.07886
-0.296281
-0.822065
-1.18372
0.116737
1.05818
1.03003
-1.03152
0.919373
0.800771
-0.990031
1.08471
-1.27607
0.927771
-0.756149
1.06745
-0.975372
0.472818
1.10292
1.22239
-0.778401
-1.2422
0.9448
1.47884
1.12372
1.14631
-0.988394
1.32262
-0.960506
-1.43783
-0.841049
0.517866
-0.842468
1.21634
1.24051
-1.01304
-1.21972
1.10087
-0.47057
0.924882
1.13334
1.07661
-0.706065
1.10408
-0.0171303
1.12968
-0.127269
-0.501147
-0.0225207
1.10694
-0.399399
-0.359968
-0.0470094
1.09364
-0.626873
1.31695
0.299767
1.45124
1.11621
-0.492401
1.08103
-0.752726
1.08158
1.08009
-1.38766
-0.409214
1.25287
1.09393
1.35356
1.06331
0.116632
1.06794
1.08792
0.984333
1.11162
-1.00385
-0.782184
-1.10681
1.19372
-1.45341
-1.38323
-0.747495
-1.50984
-0.122581
-0.710552
0.998203
-0.0752389
1.05259
1.10367
-0.757203
-1.12883
-0.491785
-1.24901
-0.585349
-0.750015
1.10954
-0.930396
1.12103
1.32
1.16014
-0.0508748
1.1277
1.04344
-1.46035
1.05503
1.08942
-0.842605
1.08881
1.07307
-0.289837
-0.51226
1.55573
-0.912743
-1.00122
-1.04035
0.272734
1.07681
-0.92337
-0.207811
-0.747506
1.24643
-1.32279
0.986333
1.12203
1.08318
-1.27386
1.06423
-0.929043
1.11789
1.13229
-0.288777
1.12166
0.636744
1.08829
0.776955
-0.936518
-0.111598
-0.299344
-0.544147
1.36189
-0.225991
1.1385
1.51388
-0.602064
-0.141496
1.16828
-0.183983
1.16502
-0.00944281
0.0234304
1.16721
1.1718
0.470329
-1.23034
0.896964
-0.662381
-0.745165
-0.57889
1.12827
1.09401
1.5083
-0.990067
-1.227
0.802227
-1.04574
1.18737
1.11477
1.08548
1.097
1.05635
-1.68149
-0.989784
-1.1483
0.938634
1.03521
-0.962047
-0.753147
-1.00708
1.11819
1.13203
-1.18373
-1.185
1.142
-0.957098
0.365182
0.910352
1.05824
-0.0803074
-1.05713
-0.0635623
-1.02487
-0.762393
-1.98851
-0.890516
1.45392
1.49795
-0.8002
-1.0255
1.11857
1.09513
-0.815143
-0.0398019
-0.35218
0.789993
1.20517
-1.28257
1.11267
-0.951151
-1.05219
-0.523292
-0.945258
-0.842578
1.0807
-1.02944
-1.39291
1.48633
-1.02853
1.11334
1.35378
-0.753875
1.1195
1.33141
-0.774966
1.37947
-1.02998
-1.06029
1.1448
-0.26107
1.08873
1.11446
-1.02929
1.15638
0.183412
-1.94377
1.14987
1.10704
-0.924155
-1.1926
1.06184
1.10598
-1.01983
-0.770087
1.41908
-1.02739
1.02645
-0.562876
1.0354
-0.966098
-2.23088
-1.01085
-0.781175
1.2302
1.13006
1.36967
1.34306
1.11584
1.16877
1.20074
-1.00716
1.27046
1.22254
-0.762409
-1.02548
-0.854337
1.45926
-0.883994
-1.04778
-0.867427
1.076
-0.766067
-0.817264
1.15851
1.09584
-1.01484
-0.754471
-1.03665
-0.213662
-0.949706
-0.770121
-1.00337
1.02992
0.964283
-0.746319
-0.32553
-0.888685
0.982046
-1.02661
-0.789327
-1.0002
1.01859
-1.35715
-0.75691
1.41047
0.990826
0.451115
1.27738
-1.09286
1.05487
1.12062
1.2208
1.29019
0.405954
0.825627
1.14479
0.306375
-0.996914
1.53688
1.05827
0.996059
1.15853
-0.759597
-1.55949
0.940515
0.934235
1.06429
-1.6532
-1.66203
1.09076
-0.997616
0.908503
0.319235
1.54712
-0.994693
0.879107
0.803453
-0.740291
-0.992969
-0.616855
1.14261
-0.741749
-0.987277
0.765074
0.763848
-1.06851
1.17813
0.916789
-0.743618
-0.844922
1.07298
-1.79578
-0.991652
-1.02815
-0.748551
-0.909522
1.09857
1.11018
-2.19451
0.67974
1.11026
1.46196
0.324571
0.441711
0.17377
0.958854
-0.445482
-0.740224
-0.954866
-0.421602
-0.740588
1.10376
-0.750572
0.332949
-0.990396
0.697027
0.628599
-0.743765
0.700909
-2.12048
0.552468
-0.746398
0.623336
-0.741766
0.44074
-0.990313
0.540687
-0.749443
0.88977
-1.37295
-0.754902
-0.765654
-0.98734
1.12167
0.125135
-0.79308
-0.995457
0.200862
0.284477
-0.751429
-0.990641
-0.833074
-0.0943657
-1.00858
0.0385806
-1.04153
-0.167863
-0.908632
-0.27243
1.00917
-0.277143
-1.50409
1.09597
0.111628
-0.605703
0.50944
1.07168
-0.766644
-1.9446
-0.992025
-1.16495
0.979678
1.5416
-0.881941
0.204002
0.0549303
-1.02341
-0.179694
-0.352928
1.0899
-0.827294
1.05359
-0.595744
1.61047
0.51783
1.50418
-0.751876
1.27182
-0.406701
1.09405
-0.975085
-0.990598
1.1533
1.09692
-0.861192
-0.988922
-0.756528
1.09718
-0.612522
1.09413
-0.52905
-1.0179
-1.01162
1.41941
1.15694
1.19184
1.13408
1.12042
0.210006
-0.555133
1.34176
-1.81852
-1.02088
1.54524
-0.751942
1.0274
1.04174
1.47728
1.52083
-0.741208
-1.26508
1.13975
0.272525
-0.452865
-0.72496
-0.718641
-2.42796
-0.754983
0.622546
-1.04138
1.28301
-1.22283
1.17969
1.25662
1.15941
-0.584749
-0.974978
-1.01932
1.19289
-0.984526
1.31049
-0.601287
-0.943969
1.37314
1.38897
-0.98375
0.240807
1.04609
-1.07685
-0.869771
0.734007
1.40856
1.31766
-0.764542
0.998502
0.982104
-0.984064
1.32772
0.434529
-0.749108
-1.02478
-0.576816
-0.456326
1.24787
-0.961059
0.411935
-0.935732
-0.877828
-0.94475
-0.985288
1.10343
-0.825764
1.14315
0.0560156
0.12037
0.765257
0.304587
-0.97843
-0.484513
-1.20987
-0.0718169
-0.873564
-0.556898
1.07096
-1.49042
-1.63156
1.13487
-1.06491
-0.761842
1.11875
-0.985013
1.10645
-0.690457
-0.996566
-0.330699
0.867091
-0.863606
-1.38447
0.969518
-1.01456
1.17418
-0.58111
-0.978491
-1.029
-0.989318
1.57435
-1.25186
1.21391
-0.985362
1.06279
1.30106
0.794469
1.11986
1.29535
0.0290937
-0.782785
1.07032
1.17769
1.45123
-1.02857
1.1622
0.811929
-1.03084
0.857618
1.28909
-0.452605
1.4788
0.289242
-0.80709
0.90396
-1.02964
-0.758155
1.04207
-0.33955
1.16059
1.1313
1.08063
-0.793779
1.03544
1.39892
-0.809633
-0.180519
-1.05916
-1.09121
-0.993284
-0.989885
1.43371
0.814419
-0.777738
0.980825
-1.02856
-0.960281
1.35156
1.36211
-0.779898
-1.17797
-0.99054
-1.00832
1.06931
-0.772419
0.108763
-0.714773
-0.280938
1.16884
-1.02272
1.52307
1.15936
0.961805
1.13979
1.43916
-0.980127
-1.02802
1.10789
1.22957
-0.904597
1.10887
-1.5275
-1.00916
-1.01649
1.22003
1.25012
-1.01326
-0.772792
0.611209
-0.0551171
-0.57216
1.09473
1.09822
-1.10905
1.13804
1.18034
-1.14426
-0.764296
-0.784814
-1.00571
-1.01735
1.39627
-1.30618
1.05212
-0.767822
1.38996
0.996677
1.00409
1.07314
-2.13344
-1.08286
-1.00204
0.666932
-0.755708
0.989538
0.334198
-0.394145
0.993592
1.07784
1.14605
1.12167
-0.132935
1.14419
0.00635224
0.468995
0.926087
-0.440778
-0.761001
-0.845065
-0.584982
1.11702
1.0397
1.11646
-1.4325
-0.820641
-0.998725
-0.70342
1.11613
1.41863
1.12939
-0.758289
-0.906661
-1.01267
-0.428364
-0.989452
-0.991107
-0.0777264
1.10779
-0.827189
-0.744664
-0.826898
-0.075363
0.856756
-2.32711
-0.996743
-1.02729
1.06531
1.53399
-0.725976
1.20334
1.59947
0.79638
1.32898
-0.76415
-0.310372
1.47885
-0.994133
0.357486
-0.753184
-1.01859
-0.754895
-0.74009
1.06908
0.79364
1.32702
1.28899
-0.0469477
0.842993
0.180078
-0.643481
-0.992103
1.21416
0.858438
1.12405
1.14067
0.00176232
-0.208716
1.1355
-1.12502
-0.990972
-0.741913
-0.765244
0.654404
-0.738639
1.06185
0.727868
-0.99337
1.31079
-0.758573
-0.205403
1.08476
-0.935323
-1.00051
-1.64756
0.732586
-0.747445
-0.674032
1.04784
1.13225
-0.742174
0.0639209
-1.7411
-0.99072
-1.57108
-0.722472
-0.19058
0.656551
-1.00101
-0.739585
1.39631
0.39255
0.494251
-0.741977
-1.02185
1.10663
1.11897
0.662154
0.588746
-0.744685
-1.02677
-0.805254
0.585388
0.492547
-0.747724
0.959801
0.2748
-0.750719
1.57206
-0.757918
-1.50192
-1.01556
-0.698259
0.908503
-0.775344
-0.777341
-0.998927
0.0327259
-0.809852
0.129465
-0.808086
-0.37502
1.30526
-0.863813
-0.160313
-1.02481
-0.0509623
1.47287
1.48081
1.36343
1.1132
1.34037
-0.627814
1.10058
-0.760792
1.11702
-0.992955
-0.988104
1.34285
-1.05299
0.536605
-0.715363
1.49276
0.0928818
1.42814
0.730731
0.896099
-0.750451
-0.755537
-0.991369
-0.671499
1.41468
1.32025
1.0998
0.696701
1.10126
0.93418
0.944493
-0.747183
-1.00405
0.389722
-0.634312
0.919447
1.11704
-0.00715855
-0.752793
-0.748488
-1.21717
-0.990898
-0.77902
1.42468
1.13525
1.11145
-0.0339083
-0.258569
1.13192
-0.89665
-0.990629
-2.10318
-1.02687
0.907647
-0.746417
-0.74353
-0.307376
1.11835
-1.41029
-1.01544
1.10137
0.665345
0.793539
1.10154
-0.990681
0.994276
1.27816
0.904351
-0.989344
1.09393
0.398467
0.584548
-0.950178
-0.743211
1.56088
0.288393
-0.588633
0.046882
1.0305
1.08741
-1.02191
-1.1646
-0.56494
-0.617749
-0.92272
-0.778358
-0.79729
1.09721
-0.778664
1.10234
1.36799
1.16648
1.10705
1.21014
1.27051
1.10511
-1.11324
-0.674589
-0.299458
-1.06709
-0.917769
-0.746039
1.26855
1.17549
-1.02677
1.0528
-0.868394
-1.31239
-0.753579
-0.160043
0.597182
-1.12015
1.09503
1.03041
-0.665705
-0.399498
1.44383
-1.35958
-1.32608
-1.04107
-0.783981
-0.727306
1.14266
0.894213
1.17826
-1.06386
-0.771775
-0.957306
-0.243806
-1.02766
-1.40079
-0.88765
-1.57856
1.03424
-0.793134
1.53753
-0.997548
-0.599574
-1.02089
-0.746439
1.01664
-1.04035
-1.0377
-0.971685
-0.356768
1.32274
1.30708
-1.94656
-1.10188
0.94424
-1.00785
-0.925773
1.19202
-0.613314
-0.739155
-0.610593
0.87154
-0.447064
-1.02829
1.09778
0.172731
-0.658563
1.11229
-0.878003
-1.02579
-0.793721
-0.826479
-0.0773836
-1.02599
1.44321
-0.994903
0.189573
-0.993025
0.913261
-0.67067
-0.940053
0.771047
0.835297
1.15881
1.05744
1.29804
-0.767058
0.928383
0.610236
-0.863471
1.04952
-0.263659
-0.683464
-1.52152
1.26497
1.25249
-0.608319
-0.910264
-1.03415
1.1386
-0.853831
0.230538
-1.15192
-0.750075
1.40672
1.13575
-0.753266
-0.793774
-0.754239
-0.748203
1.0134
-0.759669
1.10211
0.353357
0.830305
0.956515
-0.740243
-0.891267
1.06244
-0.747676
-0.822432
1.38366
-1.00074
-0.748576
0.942377
-0.829527
-0.784483
-0.200874
-1.01613
1.45368
-0.662201
0.16589
-0.75444
1.3838
-0.757901
-0.800571
0.766254
-1.12815
-0.992889
1.43017
0.796028
1.07903
-0.780376
1.35962
0.323925
-0.858523
-0.774434
-0.773893
-0.759287
1.392
0.698931
-1.01447
-0.756936
-1.02842
1.24536
-0.826132
1.35977
-0.992457
0.834396
-0.743508
0.495342
0.662101
0.627813
0.547081
0.217478
-0.81591
1.1304
-0.771859
-0.582614
-1.07606
0.314898
1.4015
-0.328948
-0.78953
-0.759307
-0.745195
0.389284
-0.990563
-0.742407
0.909524
0.218836
-0.750987
1.46828
-1.02781
-1.08837
1.45564
-0.747033
0.275482
-0.848438
-0.749217
-0.742035
1.4427
-0.750286
1.37006
-0.741324
-0.860965
1.29365
-0.245189
-0.814297
0.688988
-1.02089
0.141254
-0.437491
-0.744439
0.881972
-1.02031
-0.746099
-0.748106
-0.751929
-0.996932
0.922037
-0.0318545
-0.489292
-0.752123
1.39966
-0.892897
-0.788119
-0.729946
-0.159464
-0.878879
-0.744205
-0.749652
-0.103995
1.37434
-0.758849
-0.985848
-0.785672
-0.777182
-0.113012
-1.00207
1.48713
1.42389
0.538347
-0.900026
-0.99445
0.453657
-0.991892
1.50287
0.333595
1.14649
0.822034
1.36551
0.216097
-0.890148
-0.93436
0.0623599
-0.770945
0.0634172
-0.100868
-0.744111
1.39765
-0.31415
0.344768
-0.447207
-0.975671
-0.888275
)
;

boundaryField
{
    frontback
    {
        type            empty;
    }
    Top
    {
        type            zeroGradient;
    }
    outlet
    {
        type            fixedValue;
        value           uniform 0;
    }
    bottom
    {
        type            zeroGradient;
    }
    Inlet
    {
        type            zeroGradient;
    }
    rectangle
    {
        type            zeroGradient;
    }
}


// ************************************************************************* //
