/*--------------------------------*- C++ -*----------------------------------*\
| =========                 |                                                 |
| \\      /  F ield         | OpenFOAM: The Open Source CFD Toolbox           |
|  \\    /   O peration     | Version:  2306                                  |
|   \\  /    A nd           | Website:  www.openfoam.com                      |
|    \\/     M anipulation  |                                                 |
\*---------------------------------------------------------------------------*/
FoamFile
{
    version     2.0;
    format      ascii;
    arch        "LSB;label=32;scalar=64";
    class       volScalarField;
    location    "29";
    object      p;
}
// * * * * * * * * * * * * * * * * * * * * * * * * * * * * * * * * * * * * * //

dimensions      [0 2 -2 0 0 0 0];

internalField   nonuniform List<scalar> 
2186
(
1.03445
-0.0823085
0.223047
1.34661
-0.784549
0.120104
0.945233
-0.626785
-0.686801
1.59695
1.28793
-0.672934
-0.604699
1.2759
-0.307769
1.28184
1.30489
-0.814381
0.141683
-0.678993
1.67151
-0.656269
1.28492
-0.750252
1.27646
1.32058
1.50061
1.17352
0.820356
1.27632
-0.660103
1.27663
-0.620576
-0.450031
-0.706557
0.322113
-0.506118
1.65727
-0.515518
0.0747658
-0.609571
-0.63394
-0.422476
-0.765623
1.15091
1.57788
0.613859
0.782471
-1.29529
-0.712008
-0.665802
1.13036
-0.416795
1.58496
-0.646504
1.2237
-0.474734
1.25178
-0.586589
1.07179
-0.969454
0.874401
0.783854
0.0708918
0.807811
0.723295
0.899539
1.56308
1.45891
-0.689616
-0.63168
-0.976926
1.53646
1.27305
1.44357
1.43629
-1.13047
1.29957
-0.718289
-0.574511
-0.848009
0.0490383
1.27194
0.855632
1.26489
1.27288
1.56423
0.141394
-0.177773
-0.7095
1.22384
-0.670055
1.19148
1.44023
1.28558
0.643486
0.0983572
0.825961
-0.748702
1.26563
-1.14926
-1.01857
0.885354
1.20931
1.30673
-0.653186
1.46613
-0.377632
1.20375
-1.07903
-0.549103
-0.719166
0.809446
1.57733
-0.716256
-0.603135
-0.0642856
-1.49297
-0.709444
1.53997
0.180406
-0.717889
1.08987
-0.917298
1.28682
-0.205415
-0.75109
1.42516
-0.85583
0.925912
1.67277
1.52359
0.502285
0.917555
-0.963654
-0.707369
1.19397
-0.59805
-0.450727
-0.681282
1.03164
0.0463483
-0.630171
0.969759
1.17998
1.21872
-0.359755
-0.782743
0.875217
-0.722486
-0.710847
0.84591
1.30263
1.46553
1.32065
0.792961
1.55686
0.673403
0.572685
0.687156
-0.687527
-0.730105
1.25481
1.26113
0.131103
0.190989
-0.618793
-0.701066
-0.416985
-0.499493
0.583382
1.27034
1.30568
1.39037
0.648039
-0.113869
-0.797689
1.25639
-0.766772
1.10297
-0.68513
1.29086
-0.669801
0.775799
0.75371
-0.787617
-0.671555
1.38422
-0.368344
-0.591339
-0.75247
1.53121
-1.05754
1.24906
-0.688674
-1.04885
0.289531
1.45094
1.31788
-0.661355
-0.690361
-1.28686
0.345006
1.30712
-0.690974
-0.749183
-0.716172
-1.45408
1.22072
-1.00194
0.783955
-0.136793
1.5662
1.06171
1.16004
1.22425
1.43859
1.28008
1.17126
1.35874
0.63643
-0.605987
-0.644305
0.31091
0.452939
-0.797204
-0.760992
1.28602
1.41076
-0.798634
-0.629904
-1.57191
0.636584
0.920019
1.04518
1.17313
1.40324
-1.07631
1.15708
-0.663131
-0.730926
-0.613987
1.24552
0.960743
1.40542
1.45616
1.36449
1.33994
-0.655086
1.09957
1.38306
-0.634041
1.2312
1.00939
-1.54956
-0.711259
-0.754457
1.40595
1.30382
-0.597056
-0.492913
-0.860098
1.2329
-0.930909
0.992298
1.32749
1.1292
-0.725291
-0.664234
1.2549
0.872227
-0.287625
-0.338697
1.61113
-0.742757
-0.644791
1.11045
1.47014
1.26674
-0.767847
-0.862405
-0.532937
1.17353
-0.621331
0.814505
1.25097
1.29569
0.0532837
-0.179919
1.23964
-0.750622
1.2011
1.48155
1.29947
1.29665
-0.735163
-0.684641
-0.772067
-1.00052
-1.62121
-1.09716
0.646097
-0.304438
0.835833
1.45692
1.46183
1.17471
-0.421722
1.41612
-0.752912
-0.144519
-0.670979
-0.691478
-0.589656
0.616235
-0.70609
-0.691465
0.375296
1.1906
-0.862418
0.601281
-0.697285
-0.294248
-0.589936
-0.723169
1.49549
0.187986
-0.682401
-0.662636
1.06345
0.79903
-0.227328
0.787577
-0.976441
-0.5939
0.890359
1.30356
1.3262
-1.20464
1.42835
1.16626
0.599164
1.53397
1.27719
1.21197
0.629375
-0.67311
-0.675359
1.11847
-0.765571
-0.758189
-0.729997
-0.631013
-0.71526
1.62713
-1.17249
-0.667531
-0.648655
1.27671
-0.808413
-1.47767
-0.671046
1.03425
-0.418668
-0.732291
1.52811
1.58881
1.41213
-0.625159
-0.964055
1.64042
1.28141
-0.770327
0.680047
-0.659594
0.437381
1.4494
1.24157
1.14584
1.58859
-0.266112
-0.720489
-0.738869
-0.548491
-0.822105
-0.637822
0.0379058
1.56779
-0.807076
-0.640036
1.26801
0.854324
-0.709927
-1.12007
-0.670245
-0.747168
-0.702247
-0.69547
-0.644961
-0.752577
1.47136
-0.542733
-0.590344
1.29283
-0.754262
1.55278
-0.769691
-1.34774
-0.660714
1.27587
-0.683824
1.30229
1.1242
-1.44425
1.31824
-0.714258
-0.702377
-0.684844
1.29426
1.21633
-0.722769
-0.663273
-0.668927
1.23912
-0.758164
-0.41502
0.735551
1.21523
1.1515
0.972346
-0.707561
-0.809922
1.09438
-0.469365
1.07463
-0.614365
1.29866
0.167799
1.41538
-0.708839
1.12965
0.954214
1.30937
-0.729152
1.27411
-0.570722
-0.702347
1.27907
-1.50175
0.355591
-0.637647
0.0520495
1.28346
0.368214
0.554752
1.28202
0.458369
0.126094
0.208485
-0.667492
0.505837
-0.602212
0.949029
-0.484821
1.32406
1.42122
-0.658886
-0.691893
-0.799644
-0.653201
0.659635
-0.596821
1.07496
0.230189
-0.600741
1.369
-0.773813
0.593413
0.56402
-0.505075
1.0361
0.564226
-0.992985
-0.469831
-0.453583
-0.58705
1.29433
-0.651486
1.38621
1.51644
1.50161
0.890192
1.42247
-0.759507
-0.581463
1.16939
0.484262
1.26909
-0.645293
-0.584432
-0.792748
1.05958
-0.696207
-0.643266
-0.67808
-0.719993
0.255587
-0.462678
0.980402
0.959712
-0.465221
-0.372905
1.02526
0.340487
1.39153
-0.468908
0.0207325
-0.695628
0.998215
-0.428643
1.46158
1.65502
-0.893449
-0.758997
-0.606419
0.521948
-1.05973
1.32242
-0.387811
1.27669
1.01602
-0.784579
1.13329
1.095
-1.42239
1.14804
-0.936435
-0.676389
-1.1078
-0.668227
-0.873025
-0.939418
-0.594456
1.27936
0.433696
-0.731549
0.862681
1.42715
1.50292
-0.0967716
1.01979
-0.314973
1.05321
-0.423108
-1.1182
-0.686939
0.727646
1.06494
1.32467
-0.432658
-0.7027
-0.829535
-0.707397
0.149341
1.00484
-0.300313
0.113772
-0.657671
1.197
-0.900234
1.23015
-0.923612
-0.556248
1.22347
0.928825
-1.05939
0.0258414
1.24122
1.58479
1.30076
-0.745573
-0.800746
1.07224
-0.864218
1.05841
-0.391148
0.672542
1.23837
-0.583932
-0.665716
1.28299
-0.774859
1.50499
0.251431
1.15615
-0.156812
0.893074
-0.723173
1.51854
-0.669327
-1.06045
1.21072
0.753225
0.736787
-0.637027
-0.668471
-0.425862
1.0374
-0.231337
-0.729901
-0.611539
1.29488
0.62377
-0.737605
0.997667
1.14695
1.26185
-0.47372
-0.579439
-0.676785
1.2924
1.43648
0.762701
1.28846
-0.205881
1.33393
-0.0741245
-0.449086
-0.681985
1.19728
1.24396
-0.751683
1.09563
-0.672409
1.06351
-0.776728
1.25419
1.22733
1.29569
-0.635638
1.18196
-0.92328
-0.561789
1.44777
-0.923327
-0.438269
1.38631
-0.606916
1.36516
-1.16084
-0.679797
1.29812
1.05604
1.65271
1.27787
-0.888003
1.37041
1.35436
-1.05471
0.872318
-0.0164609
-0.715307
1.77706
-0.676396
1.40032
-0.718485
0.568502
1.27856
-0.657098
1.26769
-0.380845
1.1754
1.22358
1.29229
0.0754812
-0.584265
-0.349843
0.845095
0.931541
1.34522
-0.550788
1.07521
-0.544586
-0.197446
-0.864279
1.1085
1.4353
-0.673984
-0.773538
-0.154377
1.51368
-0.340852
0.977901
-0.183176
-1.24191
-0.643598
-0.671686
-0.666016
1.06535
-1.21406
-0.962131
-0.115464
-0.284539
-0.697082
-0.698889
-0.545006
1.24759
1.29789
-0.635227
-0.109779
1.26173
1.21
1.29764
-1.18374
1.25983
1.33413
1.27407
1.3461
-1.55875
-0.321065
-0.666828
0.857271
1.27978
0.982625
0.422345
0.135363
-0.850282
0.0545677
1.55229
-0.586439
-0.0370419
-0.404002
-0.185106
-0.615053
1.03758
-0.775394
-0.777258
-0.702907
1.27949
1.27998
1.2901
0.0274541
0.576243
1.53026
0.24567
1.2753
-0.208158
0.0943555
1.01095
1.29765
1.34913
0.13084
1.25515
1.2533
-0.926407
-0.0148391
1.29052
1.30267
1.29927
-0.693466
-0.752832
1.29916
0.883172
1.28043
0.43055
0.0802747
0.167192
-0.462062
-0.516897
-0.664744
-0.415182
-0.400937
1.30502
1.30951
1.01595
-0.717924
1.27922
0.292383
-0.0231685
0.0107306
1.27761
1.30354
1.29999
1.31294
1.29008
1.28332
1.27394
-0.381863
-0.0960295
0.027884
0.0363253
0.0540042
0.037974
-0.0156499
0.243891
0.326043
0.23597
-0.353557
1.27213
1.29243
1.28717
1.31008
1.30781
1.29998
1.30336
1.2819
1.28777
0.28285
-0.00810295
1.3007
1.29954
-0.000829607
1.30186
1.30043
0.063751
0.02232
0.0432691
-0.811907
-0.579849
1.28297
-0.626929
1.27994
0.90181
1.36225
-0.678818
1.27946
1.22108
1.22628
-0.664104
-0.684293
-0.603685
0.131582
0.170566
-0.662711
1.29615
0.0803456
1.37135
1.28642
0.0302909
1.43956
1.59057
-0.10272
1.14617
0.940862
1.27915
1.29704
1.28934
-0.680162
0.719485
0.113805
1.28552
1.29466
-0.606037
0.160994
1.28706
0.0927565
-0.137113
1.28655
-0.463161
1.26664
1.2989
-0.509444
1.29173
-0.229321
1.28249
1.35734
-1.04064
1.29726
1.30501
0.22474
0.947594
1.28352
1.28891
0.383871
-0.569449
0.995921
1.64746
1.29522
1.28555
1.29037
0.0111029
1.28564
1.27132
1.29191
1.28594
1.28847
1.28451
1.38932
-0.984203
-0.418163
1.28706
1.28144
0.52397
-0.475143
-0.905734
-0.973344
1.15136
-0.550151
-1.13961
0.132801
1.28293
1.00346
0.254828
-0.840541
-0.0534936
-0.810986
-0.637913
-0.184839
-1.25447
-0.752691
-0.135276
1.29045
0.124486
1.27789
1.20051
-0.695004
1.51614
-1.13337
-0.688821
1.02464
1.39927
0.692527
-0.706209
1.28205
-0.401409
1.28856
-0.725964
1.28878
-0.810177
1.28057
-0.264388
-0.903847
1.29096
1.30561
1.22726
-0.577608
-0.709198
-0.510222
-0.531996
1.30279
1.18421
-0.292766
1.28112
1.32409
1.27443
-0.307338
-1.06421
-0.410989
-1.54253
0.600839
1.28752
0.0629929
1.28451
-1.24686
1.28242
1.32111
1.29244
0.0258044
0.0193826
1.31845
-0.656002
1.29446
1.29798
0.281188
-0.617114
1.20631
1.41573
1.27839
1.27575
-0.778294
-0.960672
1.25308
0.687726
1.29309
1.12622
-0.784671
-0.638321
1.12784
1.53399
1.28318
0.616833
-1.22085
-0.226518
-1.658
-1.22225
1.26715
-1.0362
1.26844
-0.886205
-0.685713
-0.766821
0.709986
-0.730166
-1.46658
-0.997255
1.27945
-0.70774
1.17764
-0.66617
0.0955987
-0.738575
0.258231
-1.22907
1.25444
-0.24555
-0.696861
-0.947121
-0.724325
1.27031
-1.12434
0.287183
-1.33171
1.36201
-1.41259
-0.671475
1.35169
1.26871
1.25921
0.752007
-0.682429
1.2877
1.31388
-0.474935
-0.710721
1.27889
1.07732
1.52786
1.30025
-1.24799
-1.14129
-0.700513
-0.672262
-0.775091
-0.70087
-0.164647
-0.813361
1.08127
0.248991
1.28965
1.49122
1.27873
-0.70741
-0.708191
1.28115
-1.35237
-0.969784
1.25956
0.0111355
-0.807073
-1.26043
-1.13232
1.23254
1.20443
-0.494328
1.11152
0.943429
-1.54672
1.26517
-0.790779
1.09341
-0.639179
1.26427
-1.80496
0.695351
1.28202
1.36471
-1.35886
-0.943788
1.11272
1.65554
1.3025
1.2909
-1.17496
1.54136
-0.754881
-1.25112
-0.562173
0.747723
-1.50679
1.39366
1.44899
-0.65734
-0.504764
1.27889
-0.614901
1.12984
1.31199
1.25018
-1.331
1.28272
0.0558389
1.3096
0.0547858
-1.17861
0.0831774
1.28562
0.00102987
-0.26645
-1.58283
1.28159
-1.35097
1.46648
0.536772
1.59701
1.25821
-0.61059
1.26158
-0.67982
1.25652
1.25677
-0.91692
-1.4737
1.40138
1.27175
1.49768
1.23889
0.352432
1.2421
1.26871
1.14865
1.28981
-0.803648
-0.765268
-1.50387
1.38164
-0.394787
-0.71871
-0.671567
-0.441749
-1.50294
0.00473532
1.13881
-1.3462
1.23492
1.2899
-0.716586
-0.723529
-0.66024
-0.54665
-0.67869
-0.685053
1.28718
-1.60736
1.29946
1.5264
1.33926
0.0392659
1.30617
1.21797
-0.377925
1.24042
1.26692
-0.76562
1.26595
1.21704
0.0667077
-0.771896
1.74904
-1.66199
-0.78362
-0.616625
0.511091
1.25861
-0.834742
-0.83299
-0.660345
1.42041
-0.948021
1.1287
1.29811
1.2647
-0.465224
1.24877
-1.56169
1.29598
1.31069
-0.210014
1.30053
0.76721
1.2706
0.987014
-1.34964
0.107658
0.0117081
0.108701
1.51977
0.2753
1.31365
1.67141
-0.617433
5.35833e-05
1.34802
0.00268991
1.34511
0.039217
0.109842
1.34559
1.35033
0.702683
-0.82554
1.03757
-0.589192
-0.691569
-0.485286
1.30611
1.27765
1.72317
-0.707073
-1.09607
1.02421
-0.607017
1.36013
1.27373
1.27026
1.27498
1.23814
-0.797558
-0.70109
-0.684012
1.09645
1.20833
-1.56973
-0.696905
-0.67394
1.2979
1.3146
-0.417047
-1.0166
1.32027
-1.65533
0.484088
1.04804
1.19913
-0.773994
-0.620347
0.0165352
-0.583105
-0.614992
-0.317074
-1.69039
1.67612
1.63492
-0.829133
-0.582226
1.29812
1.27455
-0.780858
0.202996
-0.091865
0.928172
1.38099
-0.744838
1.29072
-1.49699
-0.625822
-0.660394
-0.796033
-0.759035
1.26418
-0.576956
-0.66468
1.63912
-0.580188
1.29205
1.50861
-0.698699
1.33764
1.55156
-0.778307
1.51819
-0.588059
-0.650421
1.30626
-1.12121
1.30597
1.29356
-0.597581
1.34126
0.420684
-0.835535
1.32718
1.32496
-0.644993
-0.701508
1.23356
1.28454
-0.631408
-1.48219
1.55702
-0.60851
1.19796
-0.36991
1.22242
-0.710728
-0.721558
-0.662468
-0.792808
1.37117
1.31475
1.59072
1.48303
1.25742
1.34615
1.34351
-0.67093
1.41149
1.44015
-0.73752
-0.619628
-0.765141
1.59689
-1.53721
-0.657002
0.0172556
1.21739
-0.751372
-0.857949
1.30064
1.31398
-0.653354
-0.705169
-0.646825
0.217131
-1.47234
-0.764754
-0.678279
1.17034
1.18404
-0.684459
-0.222046
-0.60546
1.12123
-0.611499
-0.810585
-0.684581
1.23676
-0.785562
-0.71437
1.63225
1.17622
0.67392
1.49422
-0.477199
1.27342
1.29766
1.40651
1.50789
-1.16353
0.961857
1.29086
0.543978
-0.689918
1.70915
1.24366
1.19036
1.34561
-0.725333
-0.662321
1.13436
1.08963
1.24682
-0.713728
-1.06773
1.27096
-0.690556
1.10369
-1.19122
1.68621
-0.694776
1.0166
1.02667
-0.671856
-0.698914
-0.750106
1.35028
-0.67532
-0.709282
0.987275
0.898189
-0.714767
1.35416
1.11906
-0.679147
-0.930877
1.24422
-0.598798
-0.702721
-0.674861
-0.660512
-0.437164
1.26891
1.29307
-0.974032
0.905605
1.29003
1.62602
0.555532
0.565167
0.292964
1.17188
-0.180875
-0.669468
-1.52565
-0.350234
-0.667616
1.27997
-0.667808
0.452578
-0.704962
0.829331
0.85502
-0.665152
0.922213
-0.450852
0.781265
-0.663349
0.753261
-0.670659
0.674552
-0.709014
0.667839
-0.661564
1.10844
-0.753102
-0.663262
-0.671083
-0.709897
1.30061
0.368166
-0.701225
-0.714808
0.315894
0.395244
-0.667078
-0.705888
-0.746079
0.15849
-0.72804
0.147852
-0.761631
-0.0649381
-0.826416
-0.0159498
1.17883
-4.03709e-05
-0.72652
1.27023
0.191066
-0.145596
0.727216
1.25363
-0.905465
-0.949738
-0.711652
-0.791486
1.17337
1.69542
-0.474626
-1.44542
0.299533
-0.581593
-0.127796
-0.0922282
1.26174
-0.798043
1.23555
-0.976422
1.75643
0.73247
1.72495
-0.697359
1.48923
-0.309834
1.30066
-0.46988
-0.710789
1.37195
1.27817
-1.19806
-0.705677
-0.668224
1.26009
-0.597073
1.27197
-0.769285
-0.681095
-0.66079
1.59099
1.32561
1.40771
1.30364
1.3004
-1.49148
-0.244973
1.48317
-0.427368
-0.587895
1.68856
-0.687213
1.20129
1.2359
1.66027
1.7244
-0.674943
-0.82868
1.32047
0.502436
-0.187644
-0.619426
-0.667139
-0.764811
-0.703456
0.830318
-0.828747
1.50058
-0.429233
1.32735
1.41872
1.3251
-0.858344
-0.719007
-0.62143
1.37402
-0.628841
1.45171
-0.502229
-0.718979
1.51553
1.60662
-0.716616
0.358925
1.22848
-0.681943
-0.785879
0.940118
1.54917
1.51297
-0.742649
1.16821
1.12841
-0.708789
1.52667
0.559762
-0.690194
-1.18468
0.129979
0.0320848
1.3987
-0.668996
0.536169
-0.143943
-0.103737
-0.777703
-0.72786
1.27891
-1.09508
1.3102
0.166305
0.363083
0.968583
0.533429
-0.710848
-0.390343
-0.930266
-0.519582
-0.0143921
-0.863038
1.21607
-0.713895
-0.447315
1.29837
-0.622745
-0.740027
1.29821
-0.832544
1.25268
0.112063
-0.694938
-0.0715234
1.06895
-0.636594
-0.760571
1.16936
-0.672866
1.35762
-0.315403
-0.658268
-0.576582
-0.708507
1.78865
-1.39641
1.41302
-0.123716
1.24652
1.47297
1.00009
1.30843
1.43741
0.107299
-1.36783
1.252
1.38311
1.65606
-0.576402
1.33547
0.952197
-0.581913
1.07106
1.5088
-0.35782
1.61607
0.412813
-0.851476
1.11968
-0.591272
-0.666831
1.22341
-0.242589
1.34219
1.3505
1.2491
-0.82463
1.19228
1.53703
-0.785001
-0.090908
-1.54481
-1.0099
-0.633945
-0.702702
1.65573
1.03358
-0.786865
1.20014
-0.602362
-0.653087
1.57236
1.50145
-0.989214
-0.742487
-0.708255
-0.679595
1.25737
-0.771579
0.345556
-0.648842
-0.216493
1.34949
-0.625639
1.6609
1.33441
1.158
1.31134
1.57659
-0.703067
-0.613221
1.29875
1.43484
-0.848102
1.29056
-1.23958
-0.665804
-0.640933
1.36236
1.39102
-0.656862
-0.769458
0.825448
0.190842
-0.688391
1.27
1.23972
-0.802101
1.27987
1.3227
-0.81079
-0.743421
-0.802823
-0.674352
-0.647407
1.61134
-0.902951
1.19289
-0.759257
1.6114
1.16855
1.14378
1.23186
-0.712139
-0.418101
-0.681438
0.801136
-0.709532
1.2086
0.57224
-0.354839
1.15121
1.29621
1.32447
1.29602
0.0298572
1.3242
0.0754361
0.686753
1.08767
-0.350419
-0.730553
-0.765551
-0.485869
1.29652
1.25801
1.29606
-0.744344
-0.54889
-0.687157
-0.599489
1.29433
1.5632
1.30755
-0.719482
-0.736687
-0.733205
-0.331083
-0.705502
-0.709078
0.0264921
1.28342
-0.878542
-0.681628
-0.0190331
0.175075
0.993743
-0.943412
-0.692905
-0.791581
1.22546
1.71799
0.0658014
1.38691
1.76663
0.931689
1.48924
-0.747081
-0.739605
1.70052
-0.696885
0.580275
-0.70103
-0.642647
-0.663274
-0.673648
1.2605
1.016
1.46768
1.42993
0.0309922
1.06396
0.295768
0.0354807
-0.700801
1.39633
0.995514
1.30243
1.31917
0.219046
0.0410396
1.31556
-0.450772
-0.711622
-0.677131
-0.67417
0.86468
-0.670696
1.24461
0.951559
-0.697862
1.53078
-0.723553
-0.104647
1.26634
-0.717796
-0.610896
-0.544902
0.866015
-0.687193
-0.701844
1.18844
1.31072
-0.215016
0.308539
-0.560219
-0.703882
-0.638957
-0.761631
0.0638954
0.882746
-0.675705
-0.669187
1.5385
0.514291
0.619652
-0.666673
-0.637901
1.28609
1.3373
0.793318
0.816477
-0.66421
-0.580182
-0.553657
0.714091
0.723971
-0.662402
1.12918
0.392389
-0.659841
1.71558
-0.663891
-0.675954
-0.647274
-0.609543
1.12958
-0.681143
-0.782713
-0.718016
0.279719
-0.720223
0.241936
-0.825142
0.240049
1.45749
-0.779064
0.0938531
-0.744894
0.0552366
1.61298
1.69525
1.50461
1.29239
1.48129
-0.513361
1.27903
-0.731825
1.33347
-0.712609
-0.78679
1.56198
-0.539893
0.75433
-0.835003
1.69297
0.195367
1.62869
0.864158
1.05459
-0.693487
-0.709388
-0.711379
-0.68121
1.5973
1.47495
1.2771
0.901427
1.28094
1.15459
1.08219
-0.660772
-0.691235
0.510626
0.253198
1.0562
1.29514
0.240751
-0.690347
-0.657889
-0.889243
-0.711028
-1.29123
1.64472
1.31364
1.29014
0.178846
0.0358128
1.31179
-0.589381
-0.703968
-0.448775
-0.586658
1.04524
-0.68113
-0.66393
-0.0476815
1.29114
-0.768062
-0.650636
1.28062
0.890997
0.988879
1.28007
-0.707194
1.13803
1.47382
1.12398
-0.707798
1.27386
0.63385
0.71343
-0.679914
-0.672946
1.72298
0.515781
-0.725679
0.290472
1.17697
1.25152
-0.585894
-0.703591
0.17639
-0.595689
-0.638282
-0.789716
-0.0588387
1.27531
-0.758905
1.27538
1.56687
1.38403
1.2738
1.36174
1.42324
1.28361
-0.746914
-0.402836
-0.200892
-0.789154
-0.663923
-0.663553
1.42851
1.32521
-0.606247
1.24268
-0.811704
-0.955665
-0.664062
-0.990648
0.809842
-0.824399
1.2722
1.17125
-0.737104
-0.138697
1.62022
-0.833712
-1.00553
-0.820638
-0.794917
-0.635176
1.32401
1.03809
1.37978
-0.635069
-0.581256
-0.670555
-0.146591
-0.599732
-0.446825
-0.83031
-0.658346
1.17937
-0.552727
1.75394
-0.917554
-0.331513
-0.736853
-0.662955
1.20745
-0.743603
-0.634176
-0.805397
-0.0703043
1.46386
1.51006
-0.600908
-0.548115
1.08865
-0.726762
-0.685811
1.38833
-0.786081
-1.28975
-0.66551
1.01384
-0.184307
-0.594187
1.27558
0.266404
-0.658397
1.28831
-0.776941
-0.883746
-0.776741
-0.744472
0.174239
-0.594207
1.58649
-0.693825
0.426189
-0.711726
1.05559
-0.573216
-0.680753
0.905712
1.03421
1.33848
1.24117
1.45708
-0.679815
1.12146
0.820544
-0.80475
1.2141
-0.163749
-0.580243
-0.679518
1.4672
1.45171
-0.567314
-0.713812
-0.66181
1.28058
-0.77443
0.327146
-0.863981
-0.666932
1.55308
1.28548
-0.700888
-0.814544
-0.699569
-0.686864
1.18692
-0.740505
1.25003
0.475839
0.966666
1.10017
-0.647216
-0.730256
1.21042
-0.666161
0.0404171
1.56443
-0.68254
-0.684265
1.08047
-0.801509
-0.795954
0.0596692
-0.588613
1.64099
-0.399003
0.404375
-0.705843
1.60427
-0.719523
-0.822117
0.900775
-0.835873
-0.712609
1.62597
0.93138
1.29737
-0.792223
1.49974
-0.999158
-0.586709
-0.777971
-0.778992
-0.725439
1.53182
0.831295
-0.651093
-0.715422
-0.586423
1.40456
-0.854268
1.57901
-0.711454
0.99169
-0.676787
0.620996
0.793349
0.758093
0.674672
0.454199
-0.832099
1.2824
-0.770259
-0.494326
-0.808976
0.540812
1.62072
-0.055432
-0.79727
-0.731634
-0.679549
0.51113
-0.910825
-0.67429
1.12928
0.452414
-0.692969
1.68751
-0.591082
-0.930747
1.64782
-0.683212
0.392858
-0.819916
-0.663926
-0.67179
1.66098
-0.656962
1.56539
-0.670055
-0.758336
1.45065
0.0214636
-0.816723
0.821087
-0.583512
0.254378
-0.17367
-0.675303
1.08024
-0.712073
-0.675051
-0.665095
-0.665476
-0.71534
1.118
0.0752373
-0.18987
-0.696182
1.59291
-0.606868
-0.80371
-0.64201
0.093458
-0.80046
-0.650824
-0.690323
0.149621
1.51475
-0.729608
-0.70323
-0.777914
-0.508856
-0.00834835
-0.720338
1.68142
1.61008
0.665775
-0.724383
-0.712481
0.578031
-0.708706
1.6901
0.453339
1.36454
0.958215
1.58313
0.331017
-0.809528
-0.703
0.173063
-0.771374
0.172906
0.1476
-0.669725
1.58644
-0.038271
0.465373
-0.145442
-0.685021
-0.744064
)
;

boundaryField
{
    frontback
    {
        type            empty;
    }
    Top
    {
        type            zeroGradient;
    }
    outlet
    {
        type            fixedValue;
        value           uniform 0;
    }
    bottom
    {
        type            zeroGradient;
    }
    Inlet
    {
        type            zeroGradient;
    }
    rectangle
    {
        type            zeroGradient;
    }
}


// ************************************************************************* //
