/*--------------------------------*- C++ -*----------------------------------*\
| =========                 |                                                 |
| \\      /  F ield         | OpenFOAM: The Open Source CFD Toolbox           |
|  \\    /   O peration     | Version:  2306                                  |
|   \\  /    A nd           | Website:  www.openfoam.com                      |
|    \\/     M anipulation  |                                                 |
\*---------------------------------------------------------------------------*/
FoamFile
{
    version     2.0;
    format      ascii;
    arch        "LSB;label=32;scalar=64";
    class       surfaceScalarField;
    location    "29";
    object      phi;
}
// * * * * * * * * * * * * * * * * * * * * * * * * * * * * * * * * * * * * * //

dimensions      [0 3 -1 0 0 0 0];

oriented        oriented;

internalField   nonuniform List<scalar> 
3181
(
-1.01579
0.389926
0.625862
-0.386083
0.361713
0.0243693
0.515603
-0.355032
-0.160571
0.11634
-0.194129
0.0777894
-0.0250152
0.0430055
-0.0179903
0.921494
0.766424
-1.68792
0.146254
-0.140041
-0.00621277
0.000235727
0.0048295
-0.00506523
0.539333
-0.795709
0.256376
-0.0762231
0.132056
-0.0558329
-0.0104714
-0.0528041
0.0632755
0.132579
0.0442778
-0.176857
-0.0149995
0.00637144
0.00862803
-1.10039
0.153582
0.946811
-0.320478
0.691532
-0.371054
-1.1227
0.640341
0.482358
0.084745
-0.930833
0.846088
-0.104211
0.198373
-0.094162
-0.779789
-0.535664
0.00334294
0.0579564
-0.0612994
0.0463889
-0.0917823
0.0453934
-0.0699318
0.0645322
0.00539961
1.06577
-1.04235
-0.0234197
0.0379823
0.0292949
-0.0672772
-0.958272
0.330847
0.627424
-0.107143
0.223483
0.303996
-0.252635
-0.0513605
0.029023
0.0612589
-0.0902819
-0.420715
0.347236
0.0734784
-0.0346197
-0.0192559
0.0214926
-0.00223673
-0.0403447
-0.917927
0.05802
-0.0576116
-0.000408433
0.295451
1.10804
-1.40349
-0.0614991
0.0574313
0.00406784
0.182968
0.282746
-0.465714
1.61667
-1.32122
0.0749387
-0.0285498
1.57112
-0.828205
-0.742912
-0.653506
1.575
-0.00744773
-0.00755174
-0.0628336
-0.00709818
-0.406105
0.0856271
-0.146015
0.0831809
-0.643007
0.126054
0.516953
-0.142803
0.06658
-0.16649
0.170639
-0.00414968
-0.265331
-0.0766393
0.34197
0.203211
1.31049
-1.5137
0.0545638
0.119606
-0.17417
-0.015913
-0.102742
0.109
-0.00625793
0.50251
0.189022
-0.0945812
0.148059
-0.053478
0.0880581
-0.030038
-0.167083
0.192605
-0.0255212
0.160591
0.0579451
-0.218536
0.106654
-0.112494
0.00584068
1.26256
0.30856
-0.835641
-0.180147
-0.00188608
-1.73902
1.74091
0.561175
0.238012
-0.799187
-0.453412
-0.212321
0.665733
-1.55127
0.897764
-0.279841
0.841015
-0.316372
-0.103631
0.420003
-0.211039
-0.209676
-0.185438
0.169944
0.0154945
0.14749
0.278873
-0.426364
-0.290761
0.830094
-0.0175995
0.0178352
-2.15112
2.14923
0.177435
0.126561
-0.171561
-0.111232
0.282793
-0.267584
0.36318
-0.0955966
-0.0783355
0.0868041
-0.00846857
-1.94791
-0.919703
0.0101695
0.909533
-0.0389047
-0.0225944
-1.09896
0.813109
0.285855
0.355844
-0.159429
-0.196415
-1.46121
-0.0900579
1.10185
-0.94827
-0.733253
1.14858
-0.201767
1.06151
0.174868
-0.171346
-0.00352233
1.3758
-0.609379
1.37723
-1.37723
-0.00730915
-0.0025878
0.00989696
-0.2055
-0.0534013
0.258902
0.0674522
-0.0632327
-0.00421951
-0.456744
0.827101
-0.370357
-0.0284416
-0.224442
0.252883
-1.08525
0.042892
0.355397
0.0562706
-0.411667
0.129521
-0.877761
1.11577
0.0460471
0.0859094
-0.131957
-0.0179828
-0.149101
-0.352179
0.0311692
0.32101
-0.0976915
-0.254488
0.122962
-1.00072
0.319288
-0.776032
0.925535
-0.84079
0.0310491
0.0803809
-0.11143
0.0883897
0.0534467
-0.141836
-1.297
-0.142258
1.43926
-0.236544
0.401268
-0.164723
-0.982792
0.264984
0.717808
-0.483271
-0.615693
0.0908043
-0.0362405
-0.150657
0.145096
0.00556128
-0.0785072
-0.0171796
0.0956868
-0.601822
-0.193887
0.0444457
-0.0073701
-0.0370756
-0.977609
-0.692236
1.66984
1.8547
-0.544213
-0.0219882
0.0146791
0.0273825
0.150053
-0.205537
0.388505
0.00594867
0.167132
-0.17308
0.142827
0.0701433
-0.21297
-0.0730322
0.321082
-0.24805
-0.594333
-0.528366
-1.44677
0.469161
-0.0311946
0.0772417
-0.0999404
0.178352
-0.0784117
-0.177243
0.0242372
0.122017
-0.0566718
0.0660652
-0.00939337
-0.0920393
-0.0201436
0.112183
0.0738838
-0.0738838
-0.181587
0.205824
0.258152
0.125555
0.101747
0.090858
-1.22668
0.935916
-1.59331
0.105538
1.48777
0.0226017
-0.0224949
-0.000106859
-0.0273304
-0.0527132
0.0800436
0.522608
-0.0157353
-0.506873
-0.00895892
0.00824566
0.000713267
-0.195761
0.0141746
0.166811
0.66029
-0.357109
0.523921
-0.101814
-1.19519
-0.0994048
0.0743896
0.476764
-0.295362
-0.181402
0.0536455
-0.0535873
-5.81888e-05
0.0478183
-0.31315
0.0233834
-0.943086
0.0487094
-0.14865
-0.278705
-0.393011
0.0802867
1.41933
-0.95677
-0.462555
1.11019
0.309132
0.0662754
0.275695
0.0175389
0.00506277
0.073575
0.0811467
-0.154722
-0.248797
-0.593882
0.842679
-0.347776
0.596014
0.297216
-0.832881
0.170562
0.0366235
-0.0294305
-0.007193
-1.96932
0.218528
1.75079
-0.125117
-1.8442
-0.311635
0.667031
-0.907449
-0.0157769
0.00558117
-0.274292
0.268711
1.49239
-1.61477
0.122379
-0.0479913
-0.0514135
0.57814
-0.826937
0.358963
-0.342133
-0.0168305
-0.300237
-0.124268
0.424505
0.207185
-1.01066
-0.0745873
-0.00966522
-0.0516342
-0.570764
0.358443
-0.253071
0.0189006
0.234171
0.0958777
-0.143869
-0.0434368
0.0434368
-0.123792
0.136017
-0.012225
-0.295729
-1.29758
-0.0200226
0.00980421
0.0102184
0.0701961
-0.124789
0.0545932
-0.227513
0.0420745
1.49503
-0.42885
-1.06618
-0.181794
0.438288
-0.256494
0.0152729
-0.0155049
0.000232013
-0.831593
-0.151199
-0.190188
-0.00492724
0.195115
-0.165473
0.312963
-0.104886
0.103167
0.00171886
0.0777623
0.0109909
-0.0887532
-0.0635158
0.0275245
0.0359913
0.0344958
0.830032
-0.864527
-0.216438
-0.0498917
0.26633
-0.686642
0.663102
0.0235408
-0.00926592
0.0385608
0.00191518
-0.0018001
-0.000115084
-0.0282402
-0.039037
1.10105
0.753647
0.170628
-0.892616
0.721988
0.0153064
2.09307
-2.10837
0.373133
0.394938
0.982293
0.0695521
0.210047
-0.0672201
-0.0733803
-0.0293615
0.229392
0.163477
-0.0750873
0.735611
-0.404764
0.059848
0.199053
0.0548919
-0.172078
0.117186
-0.74974
-0.129791
0.879531
0.0252756
-0.0252756
-0.0265625
-0.272405
0.555151
0.0114959
-0.227934
0.204376
-0.00600291
0.0165905
-0.0477851
0.140759
-0.151231
-0.347234
0.318792
0.0086853
0.0806827
-0.089368
0.382392
-0.338114
0.026758
-0.082168
0.05541
-0.20268
0.268956
0.184306
-0.479668
-0.203305
0.593231
0.161595
-0.0328948
0.0328948
0.230747
0.0761601
-0.306907
0.373158
0.0281095
-0.0172198
0.0165217
0.000698057
-0.0882604
0.0672673
-0.0228216
-0.0503547
0.191114
-0.18581
0.248174
-0.0623639
0.135374
0.0281031
-0.384951
0.132316
0.197789
-0.0624156
-0.0472582
-0.0576274
-0.00777883
0.0245912
-0.0168124
0.144772
-0.102725
-0.0420472
-0.0272336
0.406504
-0.379271
-0.0211331
0.00353361
0.107587
-0.112023
0.0044356
0.0242365
0.0471881
-0.0204301
-0.0727861
0.0263251
0.046461
-0.0694829
0.0655015
0.00398144
-0.0956886
0.0972143
-0.720214
0.623
-0.0274704
-1.35659
-0.324081
1.68067
0.615744
1.06722
-1.68296
0.0811325
0.0812103
0.239872
0.287229
0.254607
-0.541836
-0.209662
0.264554
0.137105
-0.868456
0.731351
-0.0713787
0.00189577
-0.0239007
0.0142355
-0.98413
0.442849
0.54128
0.95677
-0.833809
-1.56935
1.42709
-1.49239
1.59793
0.0378297
-0.0913077
-0.000824997
0.00274018
0.0100564
0.780635
-0.64353
0.117828
-0.0691185
0.412163
0.736415
-0.057567
-1.76041
1.77571
-0.684248
-0.542429
-0.242016
-0.400991
-0.0286849
-0.162299
0.210117
-0.571966
-0.363077
0.181283
0.760246
-0.237638
-0.830553
-0.738798
0.748769
-0.00816498
-0.0632137
0.273565
0.0370391
-0.0370391
0.670068
0.149293
-0.819361
-0.225683
0.895751
0.505477
-0.990633
0.485156
0.116812
0.00874219
0.0053361
0.00819266
-0.0135288
-1.73902
-1.10374
0.559527
1.0653
0.429728
-0.0342665
-0.132223
-0.244661
0.747171
-0.203291
-0.0497809
-0.00282348
-0.075512
-0.056282
0.109729
0.383177
-0.257123
-0.786062
-0.294818
-0.0816298
0.0832219
-0.00159209
-1.18694
1.58188
-0.0859879
0.0242771
0.0617108
0.0354475
-0.0179085
0.0313653
-0.0459688
0.0146035
0.0107073
0.409296
0.0285564
0.0250891
0.00197546
0.0089185
-0.010894
-0.0164959
-0.173692
-0.7357
0.380644
0.355055
1.32188
-2.12081
0.798921
0.141918
-0.163637
0.0217185
0.0224475
0.0683568
-0.123635
-1.2536
-0.000346877
0.0317122
-0.0657407
0.0295002
0.147277
-0.352815
-1.82274
0.583743
1.23899
0.0408897
0.0909481
0.0538243
-0.74974
0.801033
-0.766537
0.00434994
-0.0503187
0.0448837
-0.640972
-0.0456708
0.0624721
0.135317
-0.00156122
0.0295102
-0.455874
0.119881
0.355864
-0.299594
-0.111198
0.0191589
0.220165
0.839914
-1.06008
0.105445
-0.706592
0.601147
-0.919726
0.789935
-1.55196
0.173248
1.37871
-0.0110033
0.0107551
0.000248268
0.176478
-0.476715
0.214014
-0.124971
-0.0890428
0.060668
0.00483348
-0.118911
0.0372809
-0.0181613
0.0120393
-0.0402794
0.0199675
0.0852187
-0.105186
1.12122
0.0024894
-0.00235894
-0.000130461
0.0318173
-0.0282837
0.860506
0.0163869
-0.0678003
-0.482403
-0.621338
0.0649996
0.0518129
0.00730616
0.083642
-1.37871
1.2536
0.023789
-0.266988
0.243199
-0.259441
0.0880958
0.119858
-0.12338
-0.00132087
0.088125
-0.00412942
-1.68451
-0.138225
-0.0484448
0.0684122
0.740843
-0.258485
-0.0889182
0.159114
0.354099
-0.00723088
-0.00998891
-0.00773989
0.0816236
0.143031
0.22015
0.156809
-0.340358
0.183549
0.104289
0.556
-0.0328432
-0.10996
0.895252
-0.232982
-0.66227
-1.55196
-0.253316
1.5752
1.61667
-0.244245
0.271043
-0.0267985
0.373876
-0.0762143
-0.297662
-0.263214
-1.198
-0.076973
0.0781281
-0.00115513
-0.200309
0.0434954
0.156813
0.337538
-0.949419
0.611882
0.0391693
0.663968
-0.703137
-0.0435255
-0.107131
-0.0504405
-0.0223456
0.244872
-0.014125
-0.00786103
-0.00314229
0.169013
-0.0556456
-0.113368
0.108742
-0.0351666
0.0105593
0.0248881
-0.0248705
0.105251
-0.00202224
0.000222137
0.201301
-0.425743
-0.253159
1.32038
-0.0103265
-0.0149491
-0.99201
-0.0186479
-0.037764
-0.0698817
-0.0413166
0.111221
0.247742
0.467826
-0.654988
0.187162
0.0893779
-0.0243783
-0.937132
-0.0111383
-0.0207452
-0.649038
0.746252
-0.0171558
0.17875
0.0458792
-1.03651
0.186983
-0.434624
0.247641
0.0135256
0.153606
0.0115616
-0.0122257
0.000664121
-0.061558
-0.00195777
-0.0200749
-0.129026
0.735673
-0.630227
-0.0485447
0.0173603
0.0227538
0.319552
-0.162743
-0.130933
0.997439
-0.158232
-0.839207
-0.12395
0.14285
-0.508223
-0.227477
-0.549169
0.590987
-0.57733
-0.0136565
-0.0677014
0.0191567
-1.76041
0.560892
-0.560892
-1.59408
1.59408
0.780635
-0.331078
0.122812
0.208266
-0.899893
-0.0921175
0.645678
-0.37743
-0.268247
0.154757
-0.233169
-0.0141238
-0.00786438
-0.913824
-0.0868992
-0.932993
0.21278
0.0638082
0.0194138
0.69626
-0.101556
-0.594704
1.42628
0.19039
-0.00220333
0.0137649
-0.960551
0.390004
-0.472172
-0.0813451
-0.620868
0.702213
0.0491061
-0.896112
-0.718661
0.220349
-0.814681
-0.879531
1.30004
-0.420512
-0.138426
0.275099
-0.136673
-0.0334616
0.729722
-0.10985
-0.948363
0.948363
-0.686487
0.748029
-0.0615421
0.00107903
0.00141037
-0.0231204
-0.446024
0.852643
-0.0395346
-0.0887585
-0.0342156
0.0150049
0.00560923
0.00966369
2.09736
-1.92411
-0.341539
0.419301
-0.653218
1.0397
-0.386484
-0.0580833
0.0577364
0.127627
-0.0574836
0.35168
0.00358727
0.00278417
0.357304
0.0492007
0.0437316
-0.254182
0.21045
0.137007
0.0336325
0.100296
0.18565
1.86832
0.280911
-0.0728589
0.170764
-0.0979054
-1.15932
1.37785
0.233349
-0.150168
0.0754551
-0.766475
0.69102
-0.403937
0.119156
-0.46639
-0.0748584
0.129491
-0.0546325
0.123646
-0.198504
-0.459309
-0.111455
-0.0745173
0.0777741
-0.00325677
-2.30996e-05
-0.00199914
-0.0140994
-0.0159386
0.64353
-0.601147
-0.0423836
-0.286402
0.297898
0.879083
0.633439
-0.259563
0.00922446
0.000579747
-0.0231496
-0.318983
0.163206
-0.567054
0.403849
-0.0115392
-0.000686497
-0.0395115
-0.186371
0.225883
0.0052213
-0.0115978
0.00637653
-0.0248631
0.0167079
0.0081552
-0.691081
0.0817016
-0.137528
-1.21906
-0.204702
-0.833809
1.59793
1.42709
-0.188455
-0.170289
0.120397
-0.0655491
0.071441
-0.00589195
-0.0771886
0.414603
-0.337414
0.567774
0.0779038
-0.000955687
-0.0105835
0.124533
-0.863026
0.0342156
-0.0528147
0.00436992
-0.406185
0.383036
-0.0130747
0.0296652
-0.237124
0.619516
1.11019
0.326082
-0.0597312
0.00114036
0.0585908
1.73161
-0.304517
-0.0594908
-0.0530036
-0.997025
0.163216
0.425767
-0.218582
-0.481982
-0.138628
0.62061
0.837625
-0.376898
-0.460726
0.0267331
0.441093
-1.77571
0.0366943
-0.0013396
-0.0323937
0.0337333
0.181856
1.91121
-0.171205
0.176541
-0.17189
2.2437
-0.645773
-0.673094
0.0459546
0.627139
0.394626
0.011501
-0.355441
0.515585
0.789068
0.161055
0.0747796
-0.0209554
-1.55681
0.0798868
1.47692
1.24716
0.0366132
-0.0346378
-0.053224
-0.365358
0.112682
-0.322344
0.570969
0.42647
-0.0201687
-0.0475327
0.150941
-0.395186
-0.0246959
0.01543
0.109154
-0.145692
0.0365377
-0.292712
0.305217
-0.0125049
0.24374
-0.401972
-1.82686
0.751902
1.07496
-0.0242748
-0.0815049
0.10578
0.280317
0.0392354
0.245897
0.555136
-0.66904
0.66904
1.74091
1.42628
-0.706592
0.315394
0.473674
-0.296129
-0.0107781
0.942748
-0.374974
0.0105383
-0.880205
0.869666
0.124514
0.00754187
0.0256424
0.31844
-0.0725429
0.00406708
-0.16734
-0.115253
0.282593
0.188944
-0.501292
0.333952
-1.12393
-0.294012
-0.658502
0.0248219
-0.00231453
-4.44113e-05
-0.227676
-0.0678607
0.0662686
0.0325803
-0.152007
0.119427
-0.72558
0.0390933
-0.00559
0.0668489
0.277506
-0.185126
-0.0923804
-0.555026
0.373624
-0.136322
0.217005
0.228684
-0.00132036
-0.0225804
-0.820057
0.391207
0.0355889
0.0719982
-0.0499229
0.0726767
0.205942
0.00807205
-0.436133
1.62715
0.483297
0.489204
0.866327
-0.790872
0.80863
-0.454531
-0.628293
0.182269
0.156049
-0.794509
0.772821
0.0216876
0.807962
-0.236993
-0.205013
-0.136526
-0.0457507
-0.0174819
0.951083
-0.838584
-0.112498
-0.190254
0.115167
0.0268301
0.118265
0.876495
-0.0709882
-0.566736
0.637724
-0.319262
-0.0438149
0.448458
-0.170952
0.19552
1.24374
1.81012
-0.383841
0.165312
0.550408
-0.715719
-0.283818
0.0515161
-0.00766297
0.00634261
-0.520763
-0.10753
0.153666
-0.0577888
-0.193587
0.143232
-0.521193
0.264698
-0.992159
0.0456237
-0.293166
-0.561905
1.55867
-0.0708988
-0.293427
-0.113609
-0.292576
0.316698
0.309417
0.0478871
1.18913
-0.851592
-0.197066
0.134651
-0.338249
0.0905706
0.247679
-0.00871867
0.00737907
0.0503627
-0.0608304
-0.231882
-0.112505
0.698311
-0.425421
-0.27289
0.283367
0.129662
-0.0935824
-0.0360791
0.244444
0.0649725
-0.133155
-1.54981
-0.0987419
0.143626
0.145252
-0.21624
-0.038401
0.0423824
-0.0248701
0.0153034
0.00956669
-0.00911541
-0.0133794
-0.249341
0.0772626
-0.0240871
-0.545213
0.406787
0.025217
0.102984
-0.127258
-0.695438
1.40166
-0.975195
0.0156286
-0.199118
0.18349
-0.14412
-0.531865
0.675985
0.0671067
-0.708078
-0.907923
-0.918934
0.00859924
0.00230331
-0.0109026
-0.245514
-0.590987
-0.158753
-0.132279
-1.55681
-0.238084
0.170864
0.00611211
-1.1752
-0.334586
0.116175
0.21841
0.257905
0.109359
0.476161
0.215503
-0.691664
-0.0498268
0.0416618
1.02855
0.0682758
-1.09683
-0.217367
0.143268
1.23458
-0.248594
0.18623
-0.473471
0.616739
0.378844
-0.347675
-0.00327414
0.0133306
-0.0116821
0.780494
-0.29129
0.750607
0.0870172
-1.70185
0.0173419
0.246707
0.696041
0.900153
-0.00490123
-0.0196418
-1.81012
-0.658502
-0.712834
0.723003
0.0530606
-0.830553
0.663968
0.591552
-0.930702
0.712217
-0.00135312
-0.793156
-0.315467
0.638844
-0.766016
0.127172
0.0784253
0.0512363
-0.473733
-0.257225
2.08606
-1.82884
-0.000653713
-0.00166082
-0.270605
0.220824
0.70595
0.216638
-0.202463
-0.178029
0.880115
-1.57235
0.382434
-0.174168
0.338877
0.104197
-0.443074
-1.73161
1.8115
0.0606728
-0.245798
0.114091
1.21969
-1.47692
0.0035628
0.219803
-0.0287
0.0646082
-0.102372
0.010145
-0.042382
0.032237
-1.02545
-0.0346269
0.31019
-0.805103
-1.13325
1.26948
-0.136229
0.381607
0.658095
-0.0476615
0.0509592
-0.0032977
-0.338013
1.21813
-0.720062
1.22304
-0.0850032
-1.04824
0.322494
-0.102691
-0.584658
-0.407501
-0.729451
1.06833
-0.0541158
-0.881558
-1.93031
-0.17806
1.21969
0.0508763
-0.85598
0.830529
-0.645667
-0.184861
-0.981798
0.39714
0.0161686
0.11326
0.000352687
-0.113612
-0.97159
0.56409
-0.208705
0.91317
-0.924308
0.196914
-0.21341
-0.0982386
0.245516
0.0118168
0.470547
-0.059617
-1.26436
0.425155
1.18641
-1.02535
-0.55302
-0.518239
1.07126
0.44698
0.0182331
-0.0100405
-0.737764
0.703137
0.532366
-0.870379
-0.982293
0.835676
0.146617
1.39474
-0.125266
0.773734
-0.808353
-0.493294
-0.449793
-0.471627
-0.499963
0.803903
-0.803903
0.686888
-0.686888
-0.737764
-0.745618
0.745618
-0.835676
-1.02209
-1.00597
0.27002
-0.333794
0.333794
0.532366
-0.870379
0.773734
0.765461
-0.765461
0.808353
0.758467
-0.758467
0.506706
0.528373
0.481761
0.198572
-0.500037
-0.550207
1.07858
-0.784547
-1.60652
0.877072
0.271669
-0.210996
-0.349315
-0.0129331
0.02932
-0.884743
0.0904317
0.794311
-0.0246232
-0.00406167
-0.994642
0.589879
0.894968
-0.579574
-0.123947
0.0106482
-0.00475673
-0.81555
-0.0770657
-0.54128
-0.00641198
0.0206475
0.712938
-0.0100765
-0.0402422
0.177721
-6.64835e-05
-0.00825037
0.00831685
-0.811569
0.067846
0.743723
-0.154501
0.166317
-0.52812
0.421271
0.106849
0.915522
-0.743575
-0.171948
0.081846
0.306659
-0.0140401
-0.0604772
-0.0633036
-0.0136694
0.577973
-1.76491
-0.85888
0.0965118
-0.745166
0.795124
-0.0499573
0.121489
-0.900195
0.778706
-0.803434
0.903642
-0.100207
-0.0341664
0.025051
0.020011
-0.294303
0.543565
0.524763
-0.0922837
-0.792459
0.915933
-0.0910134
-0.824919
-0.0673315
0.00924823
0.117168
0.823239
-1.14435
0.47029
-0.392386
0.100062
-0.892522
1.32122
0.272862
-0.792018
-0.00113819
1.01703
-0.895546
1.13144
0.688904
-0.920538
0.231635
-0.882805
-0.111837
-0.421632
0.0423614
-0.350962
0.538124
-0.784109
0.784109
-0.616918
-0.084056
-0.863547
0.119972
-0.967227
0.885882
0.077993
-0.202964
-0.0563991
0.0542457
0.0118195
0.187449
0.829586
0.819586
0.77255
0.138124
-0.910674
-0.964913
0.753917
-0.783842
-0.10372
0.887562
0.165741
-0.885802
-0.676097
0.886695
-0.786633
-0.104722
0.460291
-0.0128274
-0.447463
-0.674912
1.36632
-0.691408
-0.0128598
0.165837
-0.152978
-0.888565
-0.829187
0.0840207
0.540661
0.267969
-2.05726
0.105581
-0.590092
0.590092
-0.865049
-0.399312
0.475848
-0.548391
-0.541323
1.29322
0.782975
-0.197074
0.310114
-0.228412
0.874715
-0.734286
-0.140429
-0.672168
-1.44864
0.0645074
-0.276009
0.197133
-0.963671
0.170339
0.309986
-0.22814
0.781694
-0.881901
1.17533
-0.421417
-0.14566
0.735539
0.591974
-0.591974
-0.047982
0.0300735
0.11486
-0.0822793
0.670575
0.695745
0.129228
0.00448777
0.00925102
-0.0137388
-0.6735
0.692278
-0.0187784
-0.259027
-0.661511
0.106871
-0.893504
-1.10941
1.44702
-0.337611
-0.00325248
0.873407
-1.56773
1.3087
-0.75538
0.608114
-0.653784
-0.66934
0.161118
0.213204
0.0267183
0.109731
0.226429
-0.0132256
0.00188271
-0.0141638
0.0645734
0.73055
0.689596
-0.0814825
0.0714795
0.789027
0.461941
-0.421069
-0.040872
-0.451859
0.510047
0.0739213
-0.927609
0.708401
0.219209
-0.685409
-0.129272
0.663026
-0.301518
0.287393
-0.0348757
0.486014
0.513986
-0.770954
-0.110947
-0.552912
-0.907318
0.121521
-0.330582
0.400743
0.599257
-0.0403822
0.0120985
-0.861967
-0.0591596
-0.594625
-0.157355
-0.239854
0.397209
-0.00460098
0.000471555
0.116675
0.0744388
-0.128331
-0.121009
0.76157
-0.646802
0.718281
0.293766
-0.0673362
-0.755706
0.227059
0.528648
-0.745727
-0.186429
0.932156
-0.236947
0.224673
-0.0256193
-0.071245
-0.072624
0.00497151
0.727018
-0.136926
0.115281
0.113403
-0.734422
0.0609224
0.581429
-0.0273894
0.206294
-0.150884
-0.351258
-0.282182
1.0186
-0.00299101
0.0818657
-0.253755
-0.0104422
-0.0130978
0.000594432
0.561457
0.0199725
0.810664
-0.971363
0.160698
0.84559
-0.0363048
-0.00295977
0.0392646
0.132304
-0.00844872
0.000587695
0.214913
-0.105759
0.522767
-1.06409
0.936615
-0.125951
0.00546582
0.289445
-0.744304
-0.99515
1.29769
-0.302537
-0.779325
0.831137
-0.0518117
-0.0270555
0.383209
-0.00436506
-0.0779002
1.23203
-0.463018
-0.0651014
0.27287
0.445001
0.183511
-0.628512
0.400934
0.0322614
0.660017
-0.572463
0.570665
0.00179737
0.878458
-0.561761
-0.0148689
0.0152957
-0.000426815
0.69993
-0.00970488
-0.0824554
0.0189596
1.38196
0.679423
-0.706479
0.0510039
0.0926839
-0.174189
0.163578
-0.121964
-0.0416131
0.0253579
-0.0152129
0.468775
-0.400499
0.0164418
0.214968
-0.0252945
-0.0809388
0.231126
0.0940411
0.0020224
0.0469382
0.764504
0.50787
-0.0339932
-0.473877
0.00124986
0.253425
-0.254675
0.644708
0.11781
-0.0103519
-0.0462327
0.0565846
-0.210947
0.143834
-0.87812
-0.0100816
0.75885
0.723871
0.587169
-0.150967
-0.322767
0.810449
0.050466
-0.181399
-0.896859
0.091152
-0.273552
0.0553277
-0.17208
0.696546
0.0679579
0.0138136
0.637274
-0.254065
0.0484502
0.166126
0.0185388
-0.110321
0.422221
-0.0582697
-0.185104
-0.0678051
0.178604
-0.146202
0.147452
-0.149092
0.154871
-0.0346029
-0.109523
0.00775067
0.000579796
-0.00833046
-1.16982
0.608055
-0.0038721
0.912898
-0.227727
-0.619707
0.650121
-0.0304144
0.458152
0.757468
0.640823
-0.112176
0.0805012
-0.17874
0.637729
0.119739
1.05138
0.530494
-0.27496
0.74525
-0.163615
0.183588
-0.592216
0.352149
0.240067
0.514873
-0.0708272
0.0410219
0.0680391
-0.0487472
1.19166
0.736825
0.0736235
0.629788
0.21289
-0.876092
-0.0818995
-0.678994
0.677855
-0.0269768
-0.573455
0.416101
0.863997
0.66999
0.0840443
0.0960995
-0.145901
-0.32049
0.699268
0.702396
0.414123
0.0111529
0.0356783
0.147909
0.302309
1.36754
-0.0806662
-0.0764974
-0.734104
0.92596
-0.191856
-0.414742
-0.177474
-0.0149271
-0.119325
-0.196508
0.784721
0.00956913
-0.00065063
0.626556
0.263853
-0.414738
0.610831
-0.131924
0.226578
0.773157
0.24983
-1.02299
0.277196
-0.922863
0.22558
-1.20078
-0.169711
0.759313
-0.589602
-0.67375
0.0024363
-0.0736813
-0.0558859
-1.40757
0.0131493
-0.0380194
0.823381
0.222345
-0.156017
-0.0663277
-0.0477436
-0.571966
-0.133426
0.215292
-1.36358
-0.0034073
0.00334081
-0.292356
-0.0545942
-0.599582
0.0271197
0.568444
0.295553
0.905052
0.77562
-0.23429
-0.388955
0.623246
-0.259867
-0.619041
0.619041
-0.23834
-0.945871
1.18421
0.0310224
-0.154972
0.67567
-0.107226
-0.221074
0.167015
0.120377
0.287253
1.34498
0.0257005
0.183171
-0.102884
-0.527008
0.482581
0.0880844
0.0673565
0.00758219
-1.83248
-0.526754
-0.209311
0.693133
0.306867
-0.526754
0.693133
-0.0659918
0.124321
-0.0659918
-0.696414
0.696414
0.303586
-0.0139576
-0.0519062
-0.0777304
0.21741
0.077099
-0.479973
0.637804
-0.0269731
0.649033
-0.505959
-0.143074
-0.0514299
0.0486102
0.00281964
-0.0201948
0.0246826
-0.326349
0.0183806
-0.0774081
-0.43446
-0.363233
0.135558
0.0392879
0.822083
-0.271675
-0.411713
0.119137
-0.0174939
-0.162425
-0.00381032
0.687103
0.0717474
-0.280297
-0.0116251
0.000731135
-0.0168061
0.0846141
0.554987
-0.479192
-0.0757952
1.81044
0.556321
-0.427998
0.922268
0.0116097
-0.0643229
0.110028
-0.156409
0.0324345
1.15446
-0.381302
0.00574012
0.0190818
0.23088
-0.37267
0.0205253
-0.0205253
0.0217565
-0.0217565
-0.000318705
0.000318705
-0.0103265
0.365746
0.462649
0.105789
-0.704625
0.466987
0.18567
0.029243
-0.0843751
-0.482066
0.762822
0.112257
-0.797666
-1.20436
0.167845
-0.0153091
0.0202698
-0.00356192
0.00458795
-0.00458795
0.36351
0.00228463
-0.00228463
0.700314
0.100716
-0.0110003
-0.000624818
0.00648096
-0.0662121
-0.0218252
0.0218252
0.00111383
-0.00111383
-0.0229428
0.0229428
0.000405248
-0.000405248
0.0464017
-0.298261
-0.0795656
0.219653
-0.000865337
0.000865337
-0.377513
0.503477
-0.125964
0.490588
-0.215489
-0.272686
-0.139027
0.558119
0.080774
0.082701
0.56742
0.564754
-0.0031351
0.0031351
-0.284662
0.02571
-0.02571
-0.00195027
0.00195027
0.769804
-1.09856
0.0366861
-0.575112
0.38874
0.00369759
-0.00369759
-0.00089556
0.00089556
0.0187307
-0.0187307
0.0224114
-0.0224114
-0.0241047
0.0241047
0.0358787
-0.0358787
0.493017
-0.0325443
0.0325443
-0.00428528
0.00428528
0.0246227
-0.0246227
0.00112466
-0.00112466
0.00242183
-0.00242183
-0.119528
-0.0268651
0.0268651
0.45071
0.0444439
-0.0403143
0.0403143
-0.00100958
0.00100958
0.00285992
-0.00285992
0.0342632
-0.0342632
0.0252094
-0.0252094
0.00311779
-0.00311779
0.000385215
-0.000385215
0.111244
-0.117646
0.00123172
-0.00123172
-0.00453355
0.00453355
-0.0389322
0.0389322
-0.0274879
0.0274879
-5.65463e-05
5.65463e-05
-0.425348
0.672054
0.262168
-0.0326743
0.0326743
-0.00103818
0.000620893
-0.000620893
-0.00473958
0.00473958
0.0366374
-0.0366374
-0.0115792
-0.16982
-0.000571588
0.000571588
-0.0219435
0.0219435
-0.482608
0.0430644
0.596852
-0.0307967
0.0307967
-0.439328
0.0324476
0.0185116
-0.363596
-1.33826
-0.0374936
0.0374936
-0.206485
0.148215
-0.0402513
-0.00497159
0.00497159
-0.00765896
0.0530524
0.266137
-0.32374
-0.269518
0.593258
0.182988
0.000836245
-0.000836245
-0.0391508
-0.126105
0.165256
0.758837
-0.382984
-0.375853
-0.472888
-0.66048
-0.215594
0.334731
-0.265438
-0.186421
-0.575612
-0.0229311
0.191783
-1.01635
0.0173866
-0.0173866
-0.00405174
0.00405174
0.0314771
-0.0314771
0.0257443
-0.0257443
-0.000113365
0.000113365
-0.00336524
0.00336524
-0.00413084
-0.155298
0.166493
-0.29044
8.79281e-05
-8.79281e-05
-0.0441249
0.0441249
-0.0411578
0.0411578
0.0162851
0.163299
-0.179584
0.0109509
0.304819
-0.532546
-2.30437e-05
2.30437e-05
-0.0117698
0.0117698
-0.10192
0.107025
-0.322619
-0.00402937
0.00402937
0.0480898
0.0143944
0.939221
-0.48669
-0.0888619
0.575552
-0.622266
0.192678
-0.54364
-0.0379121
0.0379121
-0.675563
0.272623
0.0505842
-0.0505842
-0.662595
0.394348
0.257501
0.1162
-0.000154
0.000154
-0.854033
-0.00010959
0.00010959
0.321584
0.408138
0.0520426
-0.0546504
0.0546504
-0.00405552
0.00405552
-0.0432387
0.0432387
-0.0527973
0.0527973
2.08722e-05
-2.08722e-05
-0.0583586
0.0583586
-7.61787e-05
7.61787e-05
-0.0466203
0.0466203
-0.0070657
-0.044401
0.044401
0.00544216
-0.00544216
0.0491983
-0.0491983
-0.000613151
0.000613151
0.0466997
-0.0466997
-0.295398
-0.00242778
0.00242778
-0.00436841
0.00436841
-0.0563986
0.0816236
-0.0107449
0.0107449
0.00458124
-0.00458124
-0.0605693
0.0605693
0.301401
-0.0189001
0.0189001
-0.0563291
0.0563291
-0.0072259
0.0072259
-0.06855
0.06855
-0.0131761
0.0131761
-0.081939
0.081939
-0.0223399
0.0223399
-0.0928668
0.0928668
-0.697763
0.0157476
-0.538746
0.508332
-0.896112
-0.137759
-0.554366
0.382287
0.155703
0.127664
0.00356178
-0.00356178
0.227397
-0.706724
0.0466321
-0.0390499
-1.29171
1.4821
0.868436
0.250733
0.0143394
-0.0207422
-0.38679
-0.58861
-0.0829759
0.394095
-1.24424
-0.0235692
0.0235692
-0.736216
0.018123
-0.018123
0.000242513
-0.000242513
0.319902
-0.279843
-0.00285435
0.00285435
0.0187285
0.0141663
0.598725
-0.227298
-0.0231546
-0.0101127
-0.00952909
-0.103705
0.504443
-0.400738
0.0769915
-0.0124842
0.00410492
0.960076
0.0279211
0.0465641
-0.409002
0.451363
-0.497864
-0.956527
-0.238658
-0.0747699
0.0184879
0.0135761
0.152261
-0.0223192
-0.00618262
0.00525315
0.795618
-0.54307
-0.0425734
0.0611123
-0.0382806
0.00406796
-0.0559741
0.418832
0.24427
-0.166669
0.210039
0.0130006
-0.0020097
-0.776407
0.00429546
-0.20214
0.0461233
-0.0185275
-1.17791
-0.0718341
0.268037
-0.352765
0.401966
0.284161
-0.846065
0.0512944
0.0841925
-0.0749442
-0.353226
0.460075
-0.0445914
0.0795062
-0.0349148
-0.0278794
0.0278794
0.181979
-0.441542
-0.146088
0.0212987
-0.0841144
0.0571376
-0.0617875
-0.00502228
0.0668098
-0.04623
-0.155901
0.108969
0.117501
-0.287669
-0.346915
0.634583
0.0163371
0.061791
0.150516
-0.0352347
-0.143906
0.0720414
-0.161641
0.31769
0.00954388
0.0297207
-0.0210254
0.171541
0.00295946
0.265751
-0.000128365
0.000128365
-0.69112
0.993429
0.09429
-0.176189
-0.0212978
0.0704039
1.43239
-0.12369
0.0543339
-0.0108971
-0.534474
-0.00427216
0.0987843
0.0985981
-0.695749
0.320775
-0.057134
0.370203
-0.657872
0.204964
0.503436
-0.0913711
0.0913711
0.000352688
-1.15638
-0.172961
1.32934
-0.217992
0.162106
-0.27965
0.112529
-0.514502
-0.0243475
-0.0129673
0.0121423
0.929836
0.267676
-0.183632
-0.0697764
-1.03252
-0.0157214
-0.0452767
-0.268536
0.78412
0.567988
-0.263169
-0.295457
0.584902
0.120052
0.150991
-0.267848
0.042926
-0.460658
0.334694
0.12211
-0.12211
-0.0396011
-0.0663398
0.105941
-0.00573854
0.0105587
0.0153034
0.0437252
-0.254672
0.221023
-0.186513
-0.0345104
0.535136
-1.09996
0.266543
-0.88788
0.689648
-0.113232
-0.177208
-0.0325631
-0.0799417
-0.493532
0.0590723
-0.294051
-0.00187939
-0.0185275
0.387979
-0.00510865
0.00254122
-0.00127058
0.0135385
-0.0110664
-0.00247207
-0.100046
-0.0173758
-0.170456
0.187832
-0.117621
-0.343037
0.0187285
0.348075
0.0009396
-0.382878
0.0897113
0.00276727
0.167177
-0.0613883
-0.0128044
0.0128044
-0.00141823
0.000218271
-0.00914944
-0.00108494
0.0582084
0.000586159
-0.00116191
0.0934148
0.154327
-0.00325466
0.00325466
0.02612
0.506204
0.000117889
-0.288524
0.503265
1.16347
-0.470848
0.32541
-0.438791
-0.0969708
-0.0491172
0.219669
-0.222755
0.0425641
0.00599913
-0.00102762
-0.00477954
-0.180743
-0.37604
0.843027
0.363881
-0.368012
0.0252567
-0.00161548
0.0227305
-0.025983
0.000274668
0.00101031
0.00498882
0.0958677
0.00138209
-0.000467875
0.730733
-0.658692
-0.24732
0.249713
0.518728
-0.000206027
-0.000186369
-0.0402513
-0.00558726
0.817572
-0.430986
0.51907
-1.11663
0.906124
-0.20626
0.568885
-0.186598
0.707627
-0.000288419
0.00343972
0.0168301
-0.121639
0.138964
0.0809012
0.00849735
0.00131854
0.0677773
-0.0543697
-0.0134075
-0.000264659
-0.0595068
0.0876498
-0.028143
-0.0919938
0.0100519
-0.000800857
0.0021875
0.48438
-0.435258
0.0089099
-7.95886e-05
1.05516
-1.22812
0.380254
-0.00601647
0.000919853
0.117858
-0.101416
-0.0456783
-0.104634
-0.0140025
-0.00366419
0.128242
0.0166979
-0.00240225
0.402216
-0.000142705
-0.00210748
0.00210748
0.00274954
-0.0128622
-2.54352e-05
-0.323401
-0.00377477
0.0740272
-0.107488
0.267802
0.218864
-0.0653339
-6.48856e-05
0.00194063
0.453841
-4.06347e-05
0.00132695
-0.0162541
-0.00208094
-7.1822e-05
0.0755173
0.0537103
-0.710084
0.460297
-0.836337
0.259286
-2.61482e-05
-0.158807
0.0687513
0.101588
0.574491
-0.0148852
-0.115457
-0.0040662
-0.00138593
-0.555824
-0.00338154
-9.70506e-05
0.00860082
0.93963
-0.538696
-0.00257801
-0.000536974
-0.0059189
-0.00181463
0.0694164
-0.0218979
0.0218979
-0.00378901
0.00400728
-0.00264466
-0.00798068
0.0199295
-0.0173882
-0.169754
0.0989268
-0.00595018
-0.013389
0.0392168
-0.0176323
0.0642519
-0.045764
-0.623919
0.573962
0.00245176
-0.00101947
0.377519