/*--------------------------------*- C++ -*----------------------------------*\
| =========                 |                                                 |
| \\      /  F ield         | OpenFOAM: The Open Source CFD Toolbox           |
|  \\    /   O peration     | Version:  2306                                  |
|   \\  /    A nd           | Website:  www.openfoam.com                      |
|    \\/     M anipulation  |                                                 |
\*---------------------------------------------------------------------------*/
FoamFile
{
    version     2.0;
    format      ascii;
    arch        "LSB;label=32;scalar=64";
    class       volVectorField;
    location    "29";
    object      U;
}
// * * * * * * * * * * * * * * * * * * * * * * * * * * * * * * * * * * * * * //

dimensions      [0 1 -1 0 0 0 0];

internalField   nonuniform List<vector> 
2186
(
(1.28931 -0.0626605 2.47788e-19)
(1.61148 -0.931868 -3.2159e-20)
(1.45441 -0.908749 6.49547e-21)
(0.732144 -0.570854 -1.60477e-19)
(-0.168321 0.356151 -1.60156e-19)
(1.58765 -0.159237 0)
(0.721369 -0.666015 0)
(-0.0670355 -0.0192305 7.50083e-20)
(1.61245 -0.063526 1.37087e-19)
(0.545583 -0.293311 -2.33496e-21)
(0.691125 0.624696 0)
(0.860647 -0.279263 -9.98662e-20)
(-0.0606359 0.0319939 -2.91207e-20)
(1.2058 0.025427 -4.06007e-19)
(1.79915 -0.676964 -4.18863e-20)
(1.01401 -0.000663356 1.91479e-19)
(0.980513 0.0120298 0)
(0.0224573 0.665565 0)
(1.29185 0.00743475 0)
(-0.090727 0.257191 -5.42977e-20)
(0.487769 0.117667 -1.21645e-19)
(-0.191158 0.202661 7.39173e-20)
(1.19382 0.028556 3.34959e-19)
(-0.189567 -0.100426 6.66772e-21)
(1.03159 0.0108847 -2.63655e-19)
(0.782942 -0.546347 0)
(0.761225 -0.0155472 1.5639e-19)
(0.60989 -0.589294 -1.88266e-19)
(1.23049 0.728847 0)
(0.964503 0.0249695 -3.597e-19)
(-0.0320941 0.0881383 0)
(1.02506 -0.00872107 1.24682e-20)
(-0.130673 0.172804 0)
(1.99176 -0.0723136 8.73947e-20)
(-0.174955 -0.186567 -1.10193e-22)
(1.56133 0.792147 1.07991e-19)
(1.86441 0.00888406 7.96444e-20)
(0.516088 0.16537 -3.62824e-19)
(1.92557 0.26556 -2.20486e-19)
(1.53488 -0.141572 -9.70583e-21)
(-0.0852075 0.034813 0)
(-0.146623 0.173332 0)
(1.88235 -0.866034 6.69737e-20)
(-0.41635 0.1923 0)
(1.12287 0.290883 1.70887e-19)
(0.591252 -0.275834 3.03088e-19)
(0.920106 -0.783088 0)
(1.17911 -0.780444 1.29598e-19)
(2.37478 -0.120972 0)
(-0.185195 0.436414 1.35921e-19)
(-0.0261515 0.144157 8.02595e-20)
(0.64029 0.591237 8.94729e-20)
(2.06801 -0.737152 6.66487e-20)
(0.603291 0.294016 -2.92811e-19)
(-0.297436 0.00851879 2.85837e-20)
(0.758184 -0.643667 0)
(1.6723 -0.960442 1.87714e-20)
(0.57952 -0.53939 0)
(2.32728 0.245435 6.97961e-20)
(1.12622 -0.163319 -4.00801e-19)
(2.06408 -0.0852387 1.65983e-19)
(1.36993 0.312915 -2.07042e-19)
(1.36757 0.54931 0)
(1.61027 -0.160048 1.06337e-20)
(1.38618 0.399199 -1.2998e-19)
(1.24426 -0.724008 -1.84392e-19)
(1.18915 0.677369 6.04014e-20)
(0.681551 0.0884905 -5.94882e-19)
(0.820256 0.0712036 0)
(2.25155 -0.0606909 -4.39105e-20)
(-0.0949855 -0.0236176 -8.96422e-20)
(2.50821 -0.0992838 -1.6138e-19)
(0.725609 -0.0208398 -2.62407e-19)
(0.868057 -0.507353 0)
(0.8325 0.194957 -9.74906e-20)
(0.543432 -0.502426 -3.2278e-19)
(2.41434 -0.107332 0)
(1.00704 0.00926906 3.93518e-19)
(-0.182622 -0.196127 0)
(2.04008 0.386488 0)
(0.610146 0.315182 6.76919e-20)
(1.46803 -0.122687 6.40288e-21)
(1.02233 0.00792225 4.37981e-20)
(1.33629 0.429042 3.22635e-20)
(0.970189 0.0245519 4.59293e-19)
(1.03916 0.0296875 -1.08926e-20)
(0.672856 0.194775 -3.54863e-19)
(1.24777 -0.0343381 4.35467e-21)
(1.33036 -0.0838448 0)
(-0.0727748 -0.0770132 7.49253e-20)
(0.854208 -0.613361 -1.81192e-19)
(-0.161801 0.200728 -1.29706e-21)
(1.1102 -0.0697739 2.70552e-19)
(0.813526 -0.170645 0)
(0.973951 0.0233219 4.38293e-20)
(1.38641 0.660013 0)
(1.61798 -0.942125 0)
(1.32344 0.228922 0)
(-0.21643 0.472815 0)
(0.784408 -0.656983 3.19364e-19)
(0.329852 0.322908 -2.47465e-19)
(0.660313 0.332276 1.37547e-19)
(1.59457 0.200661 0)
(1.14536 -0.0963889 -2.47331e-19)
(1.12453 0.0237957 1.94599e-19)
(-0.146792 0.246798 9.73445e-20)
(0.652239 0.523571 0)
(2.10829 -0.120779 -6.94984e-20)
(0.959286 -0.468011 8.9427e-20)
(-1.24147 -0.187474 1.35684e-19)
(1.76257 0.326839 9.50031e-20)
(-0.20507 0.335386 -2.15388e-19)
(0.815108 -0.740323 0)
(0.578401 0.36946 1.77006e-19)
(1.76484 -0.135301 -4.11605e-19)
(0.0643687 0.307139 -3.02027e-19)
(1.56511 0.941538 4.66489e-20)
(2.0033 -0.0645599 0)
(-0.0969599 -0.110744 -2.23905e-19)
(0.707811 -0.0571438 8.30284e-20)
(1.58273 0.898161 0)
(-0.0629466 0.470389 -1.80142e-19)
(0.902513 0.776837 -3.00016e-19)
(0.00478199 0.672228 2.69028e-19)
(1.03017 -0.0239011 0)
(1.60144 0.893224 -5.87994e-20)
(-0.198736 0.340509 0)
(0.690193 -0.482534 -1.15874e-19)
(0.014598 0.692849 -1.45729e-19)
(0.787223 -0.71809 0)
(0.426197 -0.25404 4.40386e-19)
(0.533916 -0.444053 3.00639e-19)
(0.413926 -0.374591 0)
(0.97929 -0.776393 -1.46457e-19)
(0.27594 0.29527 0)
(-0.141089 0.40795 -1.06541e-19)
(0.805868 -0.691094 1.54186e-19)
(2.25635 -0.132457 1.75407e-19)
(2.22396 0.192803 0)
(-0.117221 -0.09478 0)
(0.696202 0.646812 -3.77667e-19)
(1.77616 -0.607437 -1.17373e-20)
(-0.0492385 -0.03305 0)
(0.978657 -0.80051 -1.57151e-20)
(1.14086 -0.0933241 0)
(1.07727 -0.115481 4.28096e-19)
(2.02435 -0.109902 -6.6233e-20)
(-0.192913 0.489532 0)
(1.21483 -0.545227 -6.26839e-20)
(-0.21533 0.318246 -3.56661e-20)
(-0.159346 0.176601 0)
(1.08979 -0.807459 1.23847e-20)
(1.00676 0.00441445 -6.57314e-19)
(0.643845 -0.467498 -1.13518e-20)
(0.811085 -0.505165 0)
(1.19422 -0.722465 -1.08534e-19)
(0.664789 0.254853 2.74574e-19)
(1.24866 0.118317 0)
(1.5224 0.0901041 -3.20082e-19)
(1.19346 -0.849441 -2.46922e-19)
(-0.121619 -0.10488 -7.93313e-20)
(-0.441413 0.00546186 -1.18014e-19)
(1.07495 0.00959308 2.48064e-19)
(0.912369 -0.453577 -1.12461e-19)
(1.26437 -0.0392692 -4.03155e-21)
(0.526677 0.321252 -6.04561e-20)
(0.767604 -0.13217 8.98972e-20)
(-0.0698993 -0.122424 -2.07867e-19)
(1.81382 -0.28971 0)
(2.4077 -0.284809 1.0177e-19)
(1.46751 0.663911 1.68199e-19)
(0.802254 -0.604972 -2.32936e-19)
(0.994762 0.00883806 1.34653e-20)
(0.71381 -0.520142 3.18579e-19)
(1.32431 0.816636 1.49762e-19)
(1.88967 0.0651673 8.60319e-21)
(-0.172042 0.562612 0)
(1.08885 0.0608191 -2.57758e-19)
(-0.668433 0.434799 -1.47161e-19)
(1.08775 0.502354 8.75779e-20)
(0.178837 -0.162301 1.25618e-19)
(1.16272 0.0284843 -4.66998e-20)
(-0.187542 0.179391 -1.31266e-19)
(1.31307 0.596548 -9.05694e-20)
(1.15566 0.901946 0)
(-0.162073 0.702793 -8.39649e-20)
(0.15294 0.284337 0)
(0.667149 0.576268 -2.9562e-19)
(2.14669 0.202803 -1.46344e-20)
(-0.0360425 0.107676 9.6055e-20)
(-0.214388 0.669554 -4.54595e-19)
(0.727135 0.0914699 2.61439e-19)
(2.02559 0.139173 -4.06028e-20)
(0.975522 -0.336953 -3.27742e-20)
(-0.0867667 -0.0822529 0)
(-0.986941 -0.299564 2.76177e-19)
(1.34623 0.987304 -3.79645e-20)
(0.842286 0.0886701 -1.44177e-19)
(0.564935 0.53076 2.0652e-19)
(0.431288 0.19388 0)
(-0.253415 -0.0542805 -1.48739e-19)
(-1.0535 -0.652387 2.61427e-19)
(1.29439 -0.952932 6.20282e-22)
(0.988547 -0.0246659 -2.04583e-19)
(-0.148845 -0.17184 4.94739e-21)
(-0.012249 0.00852121 1.31908e-19)
(-0.191749 -0.241036 -1.45821e-19)
(2.02281 -0.211187 0)
(1.13756 0.0491614 -3.47424e-19)
(2.54253 0.130364 2.08023e-19)
(1.26818 -0.609436 1.1813e-19)
(1.04421 -0.0471025 8.88281e-21)
(0.603441 0.348503 0)
(0.959577 0.764795 -1.78553e-20)
(0.694416 0.639648 1.99726e-19)
(0.891596 -0.554141 1.6346e-19)
(0.699263 0.517632 0)
(1.02222 0.00444138 8.78709e-21)
(0.876466 -0.655538 2.33227e-19)
(0.851112 0.436803 -4.87262e-19)
(1.1983 -0.107894 0)
(0.0844029 0.1593 -2.21839e-19)
(-0.0987349 0.193852 -8.04363e-20)
(1.61119 0.73841 0)
(1.34594 -0.931482 -5.30846e-22)
(0.0340508 0.624035 0)
(-0.167946 0.24821 9.92836e-20)
(0.75017 0.666474 -1.05135e-19)
(0.846728 -0.205359 0)
(-0.204073 -0.185941 0)
(1.63819 -0.450622 0)
(-0.0464919 0.203248 5.19239e-19)
(1.20816 -0.877734 1.61568e-19)
(1.17107 -0.595096 6.96177e-20)
(1.04499 -0.164361 -1.83037e-19)
(0.872013 -0.685476 -1.84822e-19)
(0.186805 -0.190391 0)
(-0.254644 0.648556 0)
(0.996144 -0.501745 1.94084e-19)
(-0.0975595 -0.0718311 0)
(-0.159665 0.478178 0)
(0.0319235 0.376854 2.62514e-19)
(0.8071 0.684544 9.12297e-20)
(1.02883 0.808399 0)
(0.711182 0.569445 -9.01358e-20)
(0.831247 -0.0285898 -2.37621e-19)
(0.759756 0.576949 -2.41886e-19)
(0.601435 0.560374 -1.77794e-19)
(-0.127977 -0.0643009 -4.11556e-22)
(0.716948 -0.642185 0)
(0.906713 0.187964 -3.44455e-19)
(-0.125053 -0.0226565 3.98369e-20)
(0.612371 0.568534 4.03582e-19)
(0.972909 0.811807 0)
(-0.0131827 -0.0769382 3.68318e-19)
(-0.240331 -0.132708 2.52349e-19)
(-0.213634 -0.0260482 -1.36436e-19)
(0.678212 0.58523 -1.56344e-20)
(0.968957 -0.00765418 6.37031e-20)
(-0.0952231 0.0892298 0)
(2.01508 0.0108826 -1.3473e-19)
(1.73584 -0.554648 -2.87239e-19)
(0.649742 -0.600664 -8.26794e-20)
(0.209429 0.635204 9.29054e-21)
(1.20872 0.471914 2.01614e-19)
(0.898592 0.426877 0)
(1.04497 -0.165528 2.10101e-19)
(-0.237763 -0.151583 3.12522e-21)
(-0.106914 0.128785 3.04576e-19)
(0.915831 0.0195445 -5.6897e-20)
(1.14193 0.145038 0)
(1.74575 0.0303924 -1.23688e-19)
(1.94598 0.0831374 0)
(0.553792 0.274828 -4.7946e-19)
(-0.0349566 0.0213187 0)
(-0.0997337 -0.0486501 1.76174e-19)
(0.684296 0.0959221 0)
(0.612613 -0.501998 -1.95449e-19)
(1.13889 0.0200748 2.25596e-19)
(-0.184598 0.532819 3.39729e-20)
(2.17277 -0.0660866 5.60576e-21)
(2.09171 -0.163046 -9.16912e-20)
(1.12508 0.237378 -2.38245e-19)
(-0.129024 0.012681 -7.41207e-20)
(1.07046 -0.845299 0)
(0.810781 0.0173305 -1.64127e-19)
(0.921943 -0.366352 -3.11421e-19)
(1.7093 -0.568828 -6.86241e-22)
(1.67518 -0.016587 9.44938e-20)
(1.08486 -0.00432436 4.14865e-19)
(-0.196709 -0.0961147 -1.19354e-19)
(0.989748 -0.42834 -1.37708e-19)
(0.195997 -0.188443 2.75392e-19)
(1.00795 -0.00741996 0)
(1.00459 -0.00605433 0)
(0.755304 -0.352165 1.05841e-19)
(-0.14344 0.336188 -7.4357e-20)
(0.197727 -0.113843 -1.11321e-19)
(2.0424 -0.0422146 -2.70963e-21)
(1.2031 0.0745143 0)
(1.89084 0.129137 -1.26247e-19)
(0.942573 -0.818789 -9.81585e-20)
(1.79242 -0.557189 -5.03288e-20)
(1.12154 0.851159 0)
(0.467828 -0.448204 0)
(0.61892 0.533969 -1.86342e-19)
(1.11076 0.290301 -4.39723e-19)
(2.16863 -0.178062 2.46834e-22)
(0.868812 0.171611 1.47769e-19)
(-0.299901 -0.0875301 -3.23009e-19)
(1.58268 -0.146706 -1.47228e-20)
(-0.329912 0.0235183 0)
(-0.147323 -0.116117 0)
(-0.0965388 0.205892 0)
(1.3339 -0.714657 -1.09761e-19)
(-0.168809 0.186992 -1.79065e-19)
(-0.0762902 0.0810796 0)
(1.30586 0.989132 -4.43598e-20)
(1.12183 0.157798 -4.57921e-19)
(2.47023 0.00362929 -1.0681e-19)
(1.0943 0.934942 1.00412e-19)
(-0.204824 0.292968 1.09276e-19)
(1.20383 -0.0193235 0)
(-0.0789921 0.270336 -2.04731e-19)
(-0.210134 0.289907 2.11662e-19)
(0.779247 0.0461108 1.94127e-19)
(1.5537 0.962335 -2.80439e-20)
(1.55954 0.617021 -1.24764e-19)
(-0.178443 0.190649 -2.0185e-21)
(0.74329 -0.677418 -4.1181e-20)
(1.14471 -0.0142134 0)
(1.74379 -0.0410628 0)
(0.999389 0.0491919 0)
(-0.800014 -0.396858 -1.96327e-19)
(-0.15875 0.181965 6.92245e-20)
(1.06257 0.858043 0)
(0.997468 0.00347144 5.48961e-19)
(0.782085 0.619697 -2.42628e-19)
(-1.13177 -0.516478 -1.11756e-19)
(0.865045 0.0306479 -4.37614e-20)
(0.711156 -0.647766 -2.40066e-19)
(1.40465 0.722955 -4.0012e-20)
(0.554438 -0.436117 -3.11525e-19)
(1.12791 0.00343455 -4.95777e-19)
(0.80293 0.0387194 4.85869e-20)
(1.49854 -0.164629 8.49102e-20)
(1.64391 -0.115614 -9.26755e-20)
(-0.0729922 -0.0686811 -3.87174e-22)
(1.09292 0.480773 -2.91324e-19)
(1.33827 0.627591 5.99988e-20)
(-0.218752 -0.0625618 0)
(-0.336105 -0.0560158 1.17697e-19)
(0.13622 0.349007 9.52168e-20)
(-0.147545 -0.186271 -1.04027e-19)
(0.49003 0.339908 0)
(1.63192 -0.612313 0)
(-0.010511 0.0138128 -1.10993e-19)
(-0.158504 -0.0448464 -3.94336e-20)
(1.0483 -0.0293916 1.96506e-19)
(-0.154845 0.46611 -4.22803e-20)
(1.43227 0.085178 -4.4178e-19)
(-0.157182 0.302268 0)
(0.829713 -0.734533 -3.34884e-19)
(1.36982 -0.109766 1.36713e-19)
(-0.615048 0.308229 9.1754e-20)
(0.724564 0.176803 3.45949e-19)
(0.628428 0.158142 1.1131e-19)
(0.497387 -0.469362 2.17465e-19)
(-0.052493 -0.0246951 -9.12071e-20)
(1.97554 0.609523 0)
(0.406792 0.36775 -2.02071e-19)
(1.02978 -0.0139844 -3.1251e-19)
(-0.19372 0.676229 1.80915e-19)
(1.43651 0.494472 -1.43917e-19)
(-0.100932 -0.0703193 -3.68166e-20)
(0.688781 -0.628001 -7.4504e-20)
(0.823762 0.200748 -2.18691e-19)
(0.989604 0.43721 2.47087e-20)
(1.14629 -0.133418 3.78004e-20)
(0.602779 -0.212296 -3.1809e-19)
(2.00495 -0.306199 -9.29955e-20)
(1.76365 -0.0533774 0)
(2.21629 -0.0959333 -7.96407e-20)
(1.71411 -0.0911278 4.99761e-21)
(0.763396 0.0960358 8.51901e-20)
(0.946631 0.36148 -1.50955e-19)
(1.6872 -0.138344 -1.19358e-20)
(0.430588 0.40374 -2.63139e-19)
(0.149999 0.524464 1.50478e-19)
(2.06207 0.0595521 0)
(0.942668 0.00791402 0)
(0.870599 -0.769476 6.67154e-20)
(-0.224597 -0.131549 -2.76909e-19)
(0.143153 0.606411 -1.92015e-19)
(-0.0795599 -0.0721976 -1.63844e-19)
(-0.078022 0.572252 -1.14501e-19)
(-0.42831 0.018221 0)
(-0.147485 -0.123356 3.07148e-20)
(-0.0133771 0.279027 -7.46387e-20)
(-0.00810434 0.0103049 -3.01031e-19)
(0.800991 -0.0965233 0)
(1.4804 -0.503122 1.08844e-19)
(0.0889265 0.191821 0)
(0.994851 0.0241451 3.96001e-19)
(-0.356495 -0.0397988 1.08743e-20)
(0.530785 -0.408005 4.17617e-19)
(-0.666115 0.442346 2.44367e-19)
(-0.957725 -0.146773 0)
(-0.0167658 0.270558 8.00033e-20)
(1.00261 0.024816 -1.19304e-20)
(0.00749193 -0.169669 0)
(1.00492 -0.00890582 -6.16309e-20)
(0.854251 -0.719574 -3.16246e-19)
(1.5289 -0.534062 0)
(0.930557 -0.260944 2.22786e-19)
(-0.0145428 0.38674 1.50353e-19)
(-0.0799499 -0.0814075 0)
(-0.264857 -0.0397912 -4.08763e-21)
(0.719338 -0.625365 -4.58337e-19)
(0.946808 -0.0208673 -2.87901e-19)
(-0.247614 -0.127632 3.36701e-19)
(-0.124689 -0.0780067 1.12366e-19)
(-0.35898 0.0311956 0)
(0.971753 0.487318 0)
(-0.472155 0.10003 1.20252e-19)
(1.49927 -0.045246 -7.84304e-20)
(1.09002 0.910219 2.14033e-20)
(1.08049 0.221137 -1.33984e-19)
(1.12192 0.00825714 -2.41177e-19)
(1.03451 -0.0644491 -8.72217e-20)
(-0.246362 -0.108982 -2.98996e-19)
(1.97724 0.0839611 3.85647e-19)
(0.697226 0.0378077 2.2869e-19)
(1.6489 0.00204068 7.11918e-20)
(1.03846 -0.14276 0)
(-0.24213 -0.0314428 1.95958e-19)
(1.14411 0.0264023 -5.36553e-19)
(1.77516 0.634521 2.85524e-20)
(0.733404 -0.441666 -1.72051e-19)
(-0.101744 -0.112686 1.67383e-19)
(0.792925 -0.694107 4.14153e-19)
(1.25453 0.201982 8.33066e-20)
(1.007 -0.00822384 2.72909e-19)
(-0.2566 -0.0545262 -1.24013e-19)
(1.02714 0.0218419 0)
(1.89889 -0.0205301 -1.61646e-19)
(-0.10113 -0.0992792 0)
(1.0138 0.0143405 -1.6126e-19)
(-0.693459 -0.346145 -5.58225e-19)
(1.76533 0.324302 5.0044e-20)
(0.0988925 0.422587 1.29721e-19)
(1.64141 0.0221721 1.07398e-20)
(1.01491 -0.0173824 5.664e-20)
(1.26908 -0.0900442 0)
(1.43532 -0.599502 -1.71123e-19)
(1.02547 0.0409975 -1.67694e-19)
(1.46159 0.804668 -8.18964e-20)
(1.27289 -0.0405558 0)
(0.582109 0.486018 3.2518e-20)
(-0.014656 0.0167401 0)
(1.30778 0.0561099 0)
(-0.140395 0.10553 0)
(1.26048 0.457229 0)
(1.89121 0.290957 3.59749e-20)
(0.755826 0.630612 4.25501e-19)
(0.290946 -0.292394 -2.57447e-19)
(-0.158084 -0.0679236 -2.60926e-19)
(-0.0975437 -0.0914822 0)
(2.44953 -0.389903 1.41112e-19)
(1.35499 0.531998 0)
(1.48182 0.301516 0)
(-0.124785 0.328001 8.93697e-20)
(0.821286 0.72617 1.40501e-19)
(1.63348 -0.00311495 0)
(-0.0330096 0.03672 5.62233e-20)
(0.91735 0.234283 2.02091e-19)
(2.09392 -0.238336 -9.02821e-20)
(1.25972 0.942537 5.37145e-20)
(0.920123 -0.827095 -4.41826e-20)
(1.49512 -0.122874 -5.06879e-20)
(0.80703 0.729449 1.45055e-19)
(1.19537 0.940121 0)
(2.34589 -0.175828 1.79169e-19)
(0.30471 -0.0964402 0)
(1.45525 -0.347461 6.72087e-20)
(1.01414 0.105563 1.55133e-19)
(1.00568 -0.00445186 0)
(-0.660721 -0.315592 1.63058e-19)
(0.886575 -0.159225 5.11628e-20)
(0.621215 -0.392607 0)
(0.661931 -0.365465 2.25381e-19)
(1.25703 0.570238 -3.76237e-20)
(0.484344 0.458013 2.92074e-19)
(-0.0184079 0.0361724 3.62796e-20)
(0.124348 -0.0291434 7.84633e-20)
(0.746092 0.0581602 0)
(1.31873 -0.892966 -1.04695e-19)
(1.03494 -0.0440558 4.3651e-19)
(1.52622 0.346826 1.19588e-19)
(-0.0217647 0.0927137 4.75223e-20)
(-0.710684 0.448418 0)
(1.22338 -0.229812 -1.24106e-19)
(-0.0818145 -0.0794968 -1.40902e-19)
(-0.668012 -0.34909 -1.99267e-20)
(-0.133833 0.0464341 -6.91143e-22)
(-0.20938 0.0952416 2.53693e-19)
(0.603216 0.0586009 -1.89053e-20)
(2.15483 -0.0274749 1.80471e-19)
(1.20962 0.473222 -3.25132e-19)
(0.882835 -0.0540706 0)
(1.91356 -0.100081 1.80505e-19)
(1.73785 0.0506825 5.40614e-20)
(0.905335 -0.758883 1.56392e-19)
(1.15531 -0.970846 -5.65929e-20)
(0.48812 0.453986 1.97025e-19)
(0.720355 0.0715645 0)
(1.78424 0.591083 1.12652e-20)
(-0.0937797 -0.093325 -2.86734e-19)
(0.898751 0.784854 0)
(1.72466 0.743394 0)
(0.291502 -0.290558 -3.81161e-21)
(0.338442 0.326214 0)
(-0.752318 0.34162 -2.51523e-19)
(-0.113806 0.137093 -1.02599e-19)
(1.74264 -0.42658 0)
(1.29179 0.078842 2.37504e-19)
(0.141044 0.58302 1.59552e-19)
(0.530379 -0.502946 -5.00509e-19)
(1.70647 0.0107739 -2.40547e-20)
(0.607931 -0.550432 0)
(1.05253 0.129054 0)
(1.37025 -0.274837 0)
(1.1292 0.235605 -2.56334e-19)
(1.37429 0.113497 3.6551e-19)
(-0.909556 -0.0424257 0)
(0.871549 -0.0504597 0)
(2.14812 -0.10357 -1.05201e-20)
(-0.115149 0.123859 8.48084e-20)
(2.4467 0.0247153 -2.71558e-19)
(1.08582 -0.508388 1.45818e-19)
(2.00391 0.009711 -2.892e-19)
(-0.0196727 0.64616 -1.16025e-19)
(2.00947 0.08391 -1.51871e-19)
(1.01699 -0.0168625 4.47173e-19)
(1.53981 0.616601 0)
(-0.198904 0.288299 2.78016e-20)
(0.998096 -0.822787 1.97091e-19)
(0.857101 -0.0025033 5.11508e-20)
(0.625312 -0.416069 0)
(1.89571 -0.504516 7.32882e-22)
(1.19859 -0.188457 1.64413e-19)
(1.46289 -0.345212 0)
(0.605471 -0.561978 4.91275e-19)
(1.80771 0.13183 -6.58303e-20)
(2.41502 0.0137297 4.30281e-19)
(-0.124276 0.1334 -1.76723e-19)
(1.3531 0.633371 1.73784e-19)
(1.16475 0.418487 4.03479e-21)
(0.917844 0.387684 2.4034e-19)
(1.6594 0.0278754 -6.64733e-20)
(-0.241943 -0.0907864 -4.4923e-22)
(0.811059 0.0615534 0)
(-0.126709 -0.111703 2.72257e-19)
(1.0921 -0.947724 0)
(1.05596 -0.64281 2.39636e-20)
(0.468491 0.0887417 -1.29659e-19)
(1.51501 1.01613 -2.17167e-20)
(-0.439001 0.289923 -2.27543e-19)
(1.00372 0.498223 1.89354e-19)
(-1.02629 -0.617468 2.1674e-19)
(0.700726 -0.0412805 0)
(1.98191 -0.0394046 0)
(1.65817 -0.155886 -9.0335e-21)
(0.775449 -0.00783912 0)
(1.3406 -0.197215 -1.6918e-19)
(-0.370593 0.594944 3.65133e-19)
(1.96224 0.512749 -1.75282e-20)
(1.04915 -0.0329271 0)
(0.543264 -0.330181 1.11782e-19)
(1.00908 0.0261499 2.124e-19)
(0.105706 -0.543069 -1.2555e-19)
(0.0317619 0.622576 0)
(1.09939 -0.465162 5.34895e-19)
(1.89235 -0.0888803 -5.57408e-22)
(1.09193 -0.486391 -2.32709e-19)
(2.36567 0.263261 1.2101e-19)
(1.3083 0.80731 0)
(0.879107 0.0235282 0)
(-0.0404657 0.165111 -1.19093e-19)
(-0.0127451 0.0134629 1.24891e-19)
(0.963602 0.380262 -2.23591e-19)
(-0.247563 -0.134118 -1.22161e-19)
(0.660428 0.427641 2.54358e-19)
(0.720345 0.488789 0)
(0.536154 -0.498262 0)
(-0.313068 0.111911 -2.52428e-21)
(1.22246 -0.495859 -1.10157e-19)
(0.831652 -0.0772682 1.23388e-20)
(0.729942 -0.135795 1.25355e-19)
(-0.0965624 0.106144 -2.23481e-19)
(1.04649 0.170202 2.04547e-19)
(0.672591 0.627476 0)
(1.29115 0.71097 0)
(1.64693 0.267775 0)
(-0.342759 0.11762 -1.00863e-19)
(1.27632 0.575301 1.70125e-19)
(1.85489 0.0481613 2.34733e-20)
(0.948105 -0.013575 0)
(2.34818 -0.301356 0)
(2.17014 -0.0646238 -2.91105e-19)
(0.0588212 -0.432966 1.57782e-19)
(1.00531 0.00425054 -2.12552e-19)
(1.52277 0.490388 0)
(-0.0144435 0.52937 0)
(1.26051 0.329854 3.20445e-19)
(1.03973 0.541845 -1.41938e-19)
(1.07399 0.0305541 0)
(1.16766 -0.0131347 0)
(2.02314 0.687312 -2.41665e-19)
(-0.17668 0.220981 -4.61459e-22)
(0.99466 0.0138966 0)
(0.722637 0.491351 -3.53038e-20)
(0.932034 -0.820545 0)
(1.00162 0.0162919 4.93789e-20)
(-0.227336 -0.627457 -6.67045e-20)
(0.89729 -0.309993 3.28431e-19)
(-0.330069 -0.754965 5.3272e-20)
(2.02883 -0.0404677 1.95606e-19)
(1.98201 0.0434766 9.35939e-20)
(0.781488 -0.0190736 0)
(1.00848 0.0117432 0)
(-0.650396 0.405472 0)
(0.676202 0.647632 -2.05245e-19)
(-0.0623023 0.0651858 1.50896e-19)
(1.18501 0.360088 -5.12657e-19)
(-0.142478 0.683072 0)
(0.845198 0.659128 1.7991e-19)
(1.00089 -0.322326 0)
(1.00533 -0.00094104 1.24403e-19)
(-0.244883 -0.0541495 2.12474e-20)
(1.0498 0.41733 2.80375e-19)
(1.30201 0.247306 0)
(2.25354 0.157096 -6.29495e-20)
(0.823596 -0.0967483 -3.86631e-19)
(-0.781591 0.292508 -3.32732e-19)
(0.323758 -0.018156 0)
(0.889096 0.256843 1.86446e-19)
(1.93801 0.00655239 0)
(0.790805 0.538323 3.85316e-19)
(-0.6807 0.392286 1.52111e-19)
(-0.0702748 0.0758438 0)
(0.601693 0.572643 -7.55344e-20)
(1.01897 -0.630654 -1.6743e-19)
(0.469441 -0.222235 -1.28961e-19)
(1.02034 -0.010438 0)
(0.167589 0.56477 -1.39877e-19)
(0.630597 -0.559179 8.72786e-20)
(0.917478 0.30368 0)
(1.89029 -0.318681 1.61902e-19)
(0.999112 0.85181 2.70342e-20)
(0.622142 -0.258771 2.55102e-20)
(0.257483 -0.00240015 -2.25433e-19)
(0.221656 0.00574699 -5.7833e-19)
(-0.120317 -0.0925139 7.09966e-21)
(0.830243 0.374103 2.62594e-19)
(-0.167258 0.199329 -4.46296e-21)
(1.40369 -0.637462 3.54773e-21)
(1.02304 0.0152711 -3.69476e-19)
(-0.471048 0.151118 0)
(1.03385 0.0403732 -4.37899e-19)
(1.81305 -0.0731798 5.5273e-20)
(0.904047 0.705447 3.04816e-19)
(1.12908 -0.0626668 1.72041e-19)
(1.00365 -0.0203746 1.70921e-19)
(1.37896 1.00881 1.88467e-20)
(0.0297285 0.0939076 5.35956e-22)
(1.73186 -0.86009 1.54173e-20)
(1.1177 -0.126586 -8.51078e-20)
(0.773925 0.0462999 9.80792e-20)
(0.902387 -0.279837 9.5774e-20)
(1.9281 0.0722637 0)
(0.978811 0.75001 0)
(0.0697177 -0.0944475 -2.53427e-20)
(2.03855 0.197061 -1.30759e-20)
(-0.64377 0.422296 1.24528e-19)
(1.02214 -0.528051 -5.6072e-19)
(0.608144 -0.521962 4.16948e-19)
(1.24117 0.199815 -1.00383e-19)
(-0.132703 -0.0645963 1.41052e-20)
(1.49991 -0.220646 0)
(0.7567 0.132865 -7.12172e-21)
(1.57634 -0.197547 -1.22009e-19)
(1.057 0.776903 0)
(0.677297 -0.319195 0)
(0.745503 0.400334 0)
(-0.0806422 -0.0481615 -4.33528e-20)
(-0.1402 0.175903 0)
(0.840489 -0.442329 1.80611e-19)
(1.23763 0.18629 7.07146e-21)
(-0.727544 -0.12834 2.00099e-19)
(1.87486 0.417853 6.55945e-20)
(1.85346 0.4722 -3.62275e-20)
(2.06701 -0.276016 -2.4162e-20)
(-0.177779 0.0114284 -1.7666e-19)
(-0.302954 -0.0522042 3.0487e-21)
(1.92611 0.14218 0)
(0.680984 -0.0356915 0)
(1.00062 0.00027377 2.05938e-22)
(-0.401781 0.157291 0)
(1.37078 0.0502145 -3.68835e-20)
(0.680304 -0.0321044 0)
(1.0455 0.00863434 1.38377e-19)
(0.989589 0.0154803 -4.82971e-20)
(1.15101 0.218662 1.26178e-19)
(1.06647 -0.0153714 -1.00104e-21)
(0.943004 -0.180366 -5.78014e-20)
(1.02214 -0.0252723 3.96712e-19)
(0.663813 -0.600088 1.9786e-19)
(-0.689969 -0.310398 -2.60508e-19)
(1.82164 0.449176 3.79118e-20)
(-0.0166016 0.0241569 0)
(1.14359 0.810046 0)
(1.02582 0.00108882 0)
(0.994987 -0.765064 -1.17613e-19)
(1.03659 -0.886989 6.0936e-20)
(1.5612 0.595437 3.37806e-20)
(-0.768237 -0.143771 -3.80911e-19)
(0.186549 0.196368 1.42596e-20)
(0.575753 -0.363783 -6.70718e-19)
(2.10502 0.133741 -1.40692e-19)
(-0.136324 0.0570862 5.67315e-20)
(2.06224 -0.24262 6.87738e-20)
(1.55208 0.119819 -4.39178e-20)
(-0.0606318 0.00120383 -8.65012e-20)
(1.13027 0.566298 2.18467e-19)
(-0.242214 -0.217194 0)
(-0.27917 -0.0682513 2.50833e-19)
(-0.16903 -0.149488 5.25424e-23)
(1.02805 -0.0448897 3.57362e-19)
(1.02319 0.00632694 -9.16734e-21)
(1.10741 -0.00902263 -9.87004e-20)
(1.14952 0.805825 1.01803e-20)
(1.65813 0.327019 7.52436e-20)
(0.392781 -0.366418 -3.34591e-19)
(1.10686 0.573604 -7.20196e-20)
(1.03284 0.00795389 -2.61609e-19)
(2.06399 0.554798 -3.90573e-20)
(1.03529 0.8341 0)
(1.1272 0.605338 -4.10342e-19)
(1.00264 -0.00416354 1.0148e-19)
(0.689652 0.618926 2.7445e-19)
(1.04693 -0.193148 -2.31995e-21)
(1.07134 -0.00716356 -3.26535e-20)
(1.12978 0.0184128 9.24691e-22)
(2.3905 0.0943012 1.51489e-20)
(1.49166 0.283515 0)
(1.04321 -0.0405132 0)
(1.0483 -0.0347831 6.2443e-19)
(1.00256 -0.00258009 0)
(-0.12512 -0.110108 0)
(0.968618 -0.581239 0)
(1.00089 -0.000542343 -5.90249e-19)
(1.14823 -0.672216 9.58865e-20)
(1.0232 -0.00113328 1.23981e-20)
(1.36363 0.972258 -3.63938e-20)
(1.54907 1.02125 6.19369e-20)
(0.201514 -0.239524 -2.20947e-20)
(1.09226 -0.0758779 6.60179e-20)
(1.90428 -0.0934813 0)
(-0.159789 0.260383 0)
(1.92867 0.164559 1.34492e-19)
(1.19915 -0.320219 0)
(0.999798 -0.0048612 -1.82654e-19)
(1.0108 -0.00118033 3.54999e-19)
(1.47838 0.148265 -7.81214e-20)
(0.0132926 -0.110279 2.13598e-19)
(0.980172 0.00210542 1.93584e-19)
(0.74161 0.12396 -4.72826e-20)
(0.94823 -0.0389095 -2.50446e-21)
(1.13546 0.852257 8.7412e-23)
(0.928434 0.0180123 -1.94491e-19)
(1.00363 0.00406877 2.29257e-19)
(1.00033 -0.000359551 1.35466e-20)
(0.789528 -0.0134297 0)
(0.727819 -0.0270213 0)
(0.723402 -0.0274488 6.95257e-22)
(0.700002 -0.0299149 0)
(1.31135 -0.103117 0)
(1.16127 -0.0981934 0)
(0.901585 -0.0546345 -1.09787e-20)
(0.875341 -0.0434923 5.38087e-21)
(1.61096 -0.197086 0)
(1.32101 0.535114 3.61147e-20)
(1.1386 0.711592 0)
(0.399993 0.195367 0)
(0.638488 0.127739 0)
(1.06879 0.261563 1.31465e-20)
(1.80171 0.186021 1.07605e-19)
(0.774968 0.0240853 0)
(0.785867 0.0201137 0)
(0.966769 0.0208717 -2.39683e-19)
(0.814635 0.00774613 4.46707e-19)
(1.00778 -0.0012603 0)
(1.00016 -0.000507305 4.23754e-19)
(1.00027 -0.000692615 -3.39822e-22)
(0.784317 0.0225334 3.8054e-19)
(0.998211 -0.00485859 -2.22162e-19)
(0.428183 0.114074 0)
(1.02354 -0.0624371 2.50636e-21)
(1.00061 -0.00116091 -2.14222e-19)
(0.999576 0.00112642 -3.67556e-19)
(0.670324 0.493753 0)
(0.999005 0.00156342 0)
(0.999668 0.000218458 0)
(1.66791 -0.248895 -6.90232e-21)
(0.259065 0.415176 3.02197e-20)
(1.54328 0.60299 0)
(-0.12393 0.301998 1.96607e-19)
(-0.480991 -0.0745003 -1.6014e-19)
(1.01994 -0.0120246 -2.8594e-19)
(-0.173899 0.0237868 -7.25157e-20)
(1.01857 0.00711008 -2.30035e-19)
(1.15719 -0.210655 -1.16673e-19)
(0.789952 -0.458402 3.24834e-19)
(-0.0863992 -0.0796052 -6.74395e-20)
(1.03014 0.0143752 0)
(1.06382 -0.0104676 -6.30186e-20)
(0.847399 0.023412 0)
(-0.0737474 0.0816466 2.2003e-19)
(1.11775 -0.535044 0)
(-0.208419 0.199054 -1.79446e-19)
(1.14064 0.125629 3.00561e-20)
(1.68186 0.698794 -5.38176e-20)
(-0.0568965 -0.00558903 0)
(1.05211 -0.038115 1.9319e-19)
(-0.180938 0.230718 2.69952e-21)
(0.929428 0.00267688 3.01498e-19)
(1.01225 -0.00735473 -1.94813e-19)
(1.70008 0.879029 1.42063e-20)
(0.534209 0.503226 0)
(0.460713 0.422391 2.11527e-19)
(2.14891 -0.279351 -2.96039e-21)
(1.16209 0.1313 2.12961e-19)
(1.07874 -0.702065 0)
(1.02377 0.00602342 0)
(0.999885 -0.0178109 -4.48259e-19)
(1.01872 0.0166555 -4.36603e-19)
(-0.147327 -0.103653 0)
(1.24078 0.837674 -1.52873e-19)
(1.12674 -0.0954304 2.46989e-21)
(1.01617 0.00591029 1.68332e-19)
(1.01175 0.0143668 -2.10692e-19)
(-0.192672 0.328507 -1.80092e-20)
(0.0938979 0.0753757 -4.2201e-20)
(1.01852 -0.0119799 7.18087e-19)
(1.39446 -0.0830108 0)
(1.88582 0.665567 -1.78677e-20)
(1.01586 -0.00939749 -2.23594e-19)
(1.85803 0.0165959 -6.71306e-20)
(1.06393 0.0127685 -5.17537e-22)
(1.00943 -0.00952604 4.46967e-20)
(1.98586 -0.0646249 -1.71269e-19)
(1.0162 0.00718606 2.16649e-19)
(0.766559 0.788115 1.03719e-20)
(1.01824 0.00663555 0)
(0.941294 0.163667 5.31447e-20)
(-0.929166 0.0126187 3.31054e-21)
(0.999164 0.0224646 2.15019e-19)
(1.0401 0.0212291 -6.09933e-22)
(0.754963 -0.156712 -1.97798e-20)
(1.27567 0.325102 4.66111e-19)
(0.995214 0.0169647 1.47989e-19)
(1.01712 -0.0123661 4.71644e-22)
(1.78111 0.258412 -3.31057e-20)
(1.79998 0.960965 -9.12141e-20)
(0.770462 -0.690667 6.48578e-20)
(0.438 -0.299563 -3.23816e-19)
(1.00741 -0.00910334 0)
(1.0204 0.00425645 5.38125e-20)
(1.01129 -0.0078025 1.13632e-19)
(0.900927 0.741698 2.11475e-20)
(1.0147 0.00796374 -2.25629e-19)
(1.0272 -0.0185741 2.58225e-19)
(1.0081 -0.0074295 -2.12405e-19)
(1.01377 0.00719811 -4.93268e-22)
(1.01291 0.00338362 -3.40173e-22)
(1.02501 0.0158617 2.15993e-19)
(0.906286 0.100874 5.43935e-19)
(1.55341 -0.312757 0)
(-0.31549 -0.025205 6.44743e-20)
(1.01124 -0.00122013 0)
(1.0219 -0.0139706 -6.27065e-20)
(1.55852 0.456367 -1.05833e-19)
(1.58243 -0.0251731 0)
(2.24125 -0.211138 -1.47398e-19)
(0.932829 -0.350631 -4.38767e-20)
(0.773191 -0.0191262 0)
(1.77886 0.0236289 0)
(-0.369706 -0.556419 -2.83317e-19)
(1.35276 0.730263 -3.77927e-20)
(1.01797 -0.00162279 -2.27464e-19)
(1.10862 -0.553247 -6.62621e-20)
(0.154342 0.0262505 -4.75959e-20)
(0.763327 0.668276 0)
(1.42036 -0.210041 0)
(2.06215 -0.166545 0)
(-0.10706 0.162939 6.895e-20)
(0.810532 0.78999 -4.48616e-20)
(-1.20291 -0.903581 0)
(0.0946554 0.424878 -1.76734e-19)
(1.72447 0.985813 -2.08709e-20)
(1.00777 -0.00188044 -4.44267e-19)
(0.823476 0.759235 2.75633e-20)
(1.02106 0.0124665 2.94347e-19)
(0.699646 -0.0448776 0)
(-0.181734 -0.127698 -2.14901e-20)
(0.62916 0.454403 -3.59123e-19)
(1.59605 -0.145218 2.70424e-19)
(-0.039674 0.333108 0)
(0.772126 0.0751003 8.55062e-20)
(0.530476 0.508441 5.47498e-20)
(1.20562 0.900989 -4.18504e-20)
(-0.0942802 -0.101996 1.05619e-19)
(1.02295 0.0183895 0)
(0.743747 0.685139 -5.96896e-20)
(1.01201 -0.000479124 1.66872e-19)
(2.3647 0.15688 0)
(1.01211 0.00902816 2.79726e-19)
(-0.164069 -0.0426641 -1.21515e-19)
(1.01856 0.0135024 -1.73342e-19)
(1.60207 1.06005 0)
(2.49915 -0.286687 6.02857e-22)
(1.00886 0.00443673 -1.16149e-19)
(0.996461 -0.0194265 3.06304e-19)
(1.1022 0.104224 -2.76248e-21)
(0.791807 0.633097 1.05748e-19)
(-0.109357 -0.146017 2.79261e-19)
(2.04053 0.275995 1.32066e-19)
(-0.0015735 0.248658 -1.19464e-19)
(0.799535 0.0145728 -4.19113e-19)
(0.819396 0.0308639 0)
(0.485615 0.354786 -1.22699e-20)
(1.02255 -0.0100836 -3.37017e-20)
(0.971522 0.0365653 0)
(1.05199 0.00500654 -2.1422e-19)
(-1.04386 -0.241896 7.39967e-20)
(-0.838349 0.171161 1.30574e-19)
(2.14533 -0.54296 0)
(-0.172367 0.0992221 -6.67807e-19)
(1.49469 -0.33537 0)
(1.04081 -0.0169746 6.27444e-20)
(0.711089 0.590993 -1.38668e-21)
(1.01374 0.00168343 1.80444e-19)
(-0.133978 0.511189 3.49464e-19)
(1.01955 0.00472891 0)
(0.994394 0.00361256 -4.33676e-19)
(1.00882 0.0082009 2.29384e-19)
(1.45544 -0.213199 0)
(0.215313 0.256133 8.7882e-21)
(0.956267 -0.00127359 -1.95913e-19)
(-0.197038 -0.037663 2.69888e-19)