/*--------------------------------*- C++ -*----------------------------------*\
| =========                 |                                                 |
| \\      /  F ield         | OpenFOAM: The Open Source CFD Toolbox           |
|  \\    /   O peration     | Version:  2306                                  |
|   \\  /    A nd           | Website:  www.openfoam.com                      |
|    \\/     M anipulation  |                                                 |
\*---------------------------------------------------------------------------*/
FoamFile
{
    version     2.0;
    format      ascii;
    arch        "LSB;label=32;scalar=64";
    class       volVectorField;
    location    "18.1";
    object      U;
}
// * * * * * * * * * * * * * * * * * * * * * * * * * * * * * * * * * * * * * //

dimensions      [0 1 -1 0 0 0 0];

internalField   nonuniform List<vector> 
2186
(
(1.34363 -0.0760937 2.07437e-19)
(1.64116 -0.965439 -8.05345e-20)
(1.48615 -0.941018 2.25193e-21)
(0.764498 -0.606764 -1.3823e-19)
(-0.353088 0.38648 -1.52918e-19)
(1.37205 -0.130999 0)
(0.745159 -0.689265 0)
(-0.286739 -0.455876 1.13086e-19)
(1.46773 -0.262622 1.84333e-19)
(0.57289 -0.342333 -2.40387e-21)
(0.659308 0.593563 0)
(0.805978 -0.285453 -1.31252e-19)
(-0.350394 -0.548652 -4.58082e-20)
(1.19797 0.0231256 -3.54945e-19)
(1.82886 -0.711344 -8.84253e-20)
(1.01199 -0.0068017 1.67737e-19)
(0.985984 0.0122858 0)
(-0.654917 0.417763 0)
(1.29934 -0.0094853 0)
(-0.0789749 0.2013 -5.69348e-20)
(0.480682 0.0518611 -1.10653e-19)
(-0.20323 0.159064 7.75731e-20)
(1.18491 0.0266139 2.93069e-19)
(-0.219423 -0.0158292 5.58782e-21)
(1.03329 0.00625759 -2.30503e-19)
(0.815165 -0.58179 0)
(0.763577 -0.0556473 1.38805e-19)
(0.633026 -0.612762 -1.58689e-19)
(1.18527 0.695211 0)
(0.966656 0.0226721 -3.14719e-19)
(-0.03436 0.0507241 0)
(1.02494 -0.0136262 1.09008e-20)
(-0.0647386 0.193728 0)
(2.66979 0.147552 2.47694e-19)
(-0.121848 -0.197789 3.03867e-21)
(1.50492 0.763572 7.94474e-20)
(1.91072 0.127284 1.52649e-19)
(0.503329 0.100667 -3.30201e-19)
(1.86736 0.311366 -2.7941e-19)
(1.1274 -0.0231077 1.78973e-20)
(-0.399131 -0.603377 0)
(-0.160984 0.117209 0)
(1.90593 -0.909219 8.72551e-20)
(-0.387543 0.123922 0)
(1.09375 0.269658 1.49419e-19)
(0.61501 -0.323814 2.68972e-19)
(0.945586 -0.807511 0)
(1.2153 -0.813388 9.99262e-20)
(2.3533 -0.159456 0)
(-0.319812 0.536918 1.62675e-19)
(-0.0250783 0.0977818 8.41415e-20)
(0.61326 0.565831 7.91662e-20)
(2.10487 -0.794472 1.0444e-19)
(0.580823 0.239281 -2.66336e-19)
(-0.250812 0.0219752 2.93839e-20)
(0.789288 -0.674941 0)
(1.68728 -0.992922 1.85688e-20)
(0.602898 -0.562821 0)
(2.26713 0.28097 9.09501e-20)
(1.15814 -0.176927 -3.35922e-19)
(2.02172 -0.116083 1.77635e-19)
(1.33497 0.301086 -1.74777e-19)
(1.31798 0.520184 0)
(0.760597 0.00315011 -1.96036e-20)
(1.3386 0.382672 -1.06996e-19)
(1.27668 -0.755019 -1.37652e-19)
(1.14449 0.645971 5.22251e-20)
(0.674776 0.0417844 -5.35268e-19)
(0.816173 0.0344666 0)
(2.12268 -0.245663 -6.72734e-20)
(-0.277768 -0.509847 -1.31825e-19)
(2.11627 -0.160075 -1.75454e-19)
(0.728405 -0.0677286 -2.35141e-19)
(0.897872 -0.540086 0)
(0.816528 0.156926 -8.73103e-20)
(0.57105 -0.532816 -2.80799e-19)
(2.63094 -0.158982 0)
(1.00476 0.00924141 3.45174e-19)
(-0.114821 -0.264454 0)
(1.92753 0.411271 0)
(0.721779 0.400645 1.12319e-19)
(0.884603 -0.0672727 -3.15004e-20)
(1.0291 0.005411 3.82888e-20)
(1.29851 0.41416 2.69657e-20)
(0.970716 0.0237937 4.01532e-19)
(1.04431 0.0288384 -9.52333e-21)
(0.65796 0.144461 -3.20556e-19)
(1.32064 -0.031731 -2.1827e-22)
(0.824227 -0.174226 0)
(-0.067018 -0.0421414 9.52893e-20)
(0.886509 -0.646518 -1.53259e-19)
(-0.0731438 0.344889 -1.12752e-21)
(1.12748 -0.0847313 2.33829e-19)
(0.830636 -0.207056 0)
(0.975862 0.0218071 3.83803e-20)
(1.33604 0.633773 0)
(1.65571 -0.980975 0)
(1.28336 0.218122 0)
(-0.382241 0.494955 0)
(0.818831 -0.692224 2.72667e-19)
(0.334066 0.303733 -3.43638e-19)
(0.671873 0.281024 2.18031e-19)
(1.53734 0.193959 0)
(1.156 -0.105867 -2.13755e-19)
(1.1174 0.0224696 1.70839e-19)
(-0.0371535 0.476567 1.05384e-19)
(0.616374 0.479937 0)
(2.23269 -0.190652 -1.33179e-19)
(0.985902 -0.498532 7.64382e-20)
(-1.45105 0.247581 2.68543e-19)
(1.69029 0.31947 1.01447e-19)
(-0.236217 0.546449 -2.33715e-19)
(0.839857 -0.764548 0)
(0.546365 0.316184 1.61879e-19)
(1.68175 -0.268104 -5.32221e-19)
(-0.481769 -0.459571 -4.36115e-19)
(1.31439 0.292979 1.9365e-20)
(1.95624 -0.217198 0)
(-0.0894741 -0.0508457 -2.8536e-19)
(0.71487 -0.102535 7.42246e-20)
(1.5256 0.865911 0)
(-0.294218 0.630387 -2.56796e-19)
(0.864503 0.742082 -2.66269e-19)
(-0.859641 0.334811 3.94187e-19)
(1.02783 -0.0252001 0)
(1.48358 0.33958 -2.44018e-20)
(-0.309993 0.482292 0)
(0.721665 -0.52076 -1.00612e-19)
(-0.782286 0.371579 -2.09722e-19)
(0.813098 -0.74318 0)
(0.456815 -0.314928 3.91786e-19)
(0.566204 -0.483772 2.63202e-19)
(0.423492 -0.383688 0)
(1.012 -0.807485 -1.15226e-19)
(0.680619 0.330935 0)
(-0.152504 0.621676 -1.27582e-19)
(0.838479 -0.723865 1.2997e-19)
(2.4583 -0.273492 2.97119e-19)
(2.27938 0.192618 0)
(-0.100337 -0.172338 0)
(0.667036 0.619888 -3.32528e-19)
(1.81335 -0.650353 9.52211e-21)
(-0.179443 -0.238196 0)
(1.01307 -0.833484 -1.25834e-20)
(1.15825 -0.102392 0)
(1.09946 -0.133365 3.71073e-19)
(2.16694 -0.199985 -1.2548e-19)
(-0.388434 0.387875 0)
(1.2465 -0.570455 -4.99596e-20)
(-0.258483 0.274256 -3.66769e-20)
(-0.192255 0.418431 0)
(1.12202 -0.839581 1.2519e-20)
(1.00691 0.00413098 -5.76579e-19)
(0.675628 -0.507007 -9.90004e-21)
(0.841181 -0.540338 0)
(1.22813 -0.753112 -8.43588e-20)
(0.641931 0.205631 2.49593e-19)
(1.21259 0.116074 0)
(1.47103 0.0957621 -2.41679e-19)
(1.22602 -0.881802 -1.75488e-19)
(-0.0903402 -0.154742 -1.05434e-19)
(-0.0781186 -0.421161 -1.9373e-19)
(1.06496 0.00555572 2.16943e-19)
(0.940726 -0.486162 -9.612e-20)
(1.3685 -0.0391428 2.02086e-22)
(1.26561 -0.0573004 -1.03355e-20)
(0.718645 -0.113785 1.16291e-19)
(-0.184582 -0.0623212 -2.56859e-19)
(1.64285 -0.483902 0)
(1.70371 -0.517896 6.04132e-20)
(1.41688 0.637262 1.35703e-19)
(0.834711 -0.639187 -1.98906e-19)
(0.995264 0.0078476 1.18128e-20)
(0.746542 -0.556842 2.76583e-19)
(1.2749 0.785789 1.245e-19)
(1.83408 0.115231 1.63181e-20)
(-0.429533 0.295465 0)
(1.08027 0.0492274 -2.24946e-19)
(-0.770728 -0.200173 -2.71121e-19)
(1.05089 0.475257 7.70385e-20)
(0.0451315 -0.116085 1.55225e-19)
(1.15412 0.0266204 -4.09168e-20)
(-0.146141 0.144531 -1.38095e-19)
(1.26683 0.571686 -7.56879e-20)
(1.11105 0.866966 0)
(-0.48696 0.289626 -8.19142e-20)
(-0.225713 -0.24221 0)
(0.633299 0.541051 -2.67576e-19)
(2.02084 0.240679 -2.00528e-20)
(-0.450828 -0.583047 1.54832e-19)
(-0.788575 0.0945473 -5.77566e-19)
(0.720529 0.0439702 2.35127e-19)
(2.06668 0.140039 -5.56873e-20)
(1.00038 -0.365895 -2.82597e-20)
(-0.0392877 -0.05415 0)
(-1.0258 0.281722 4.07047e-19)
(1.29458 0.950381 -2.26529e-20)
(0.834546 0.0515074 -1.28931e-19)
(0.539069 0.505168 1.8633e-19)
(0.418028 0.189081 0)
(-0.062313 -0.542055 -2.21541e-19)
(-0.620931 0.392618 2.35246e-19)
(1.32589 -0.98308 3.14943e-22)
(0.993185 -0.0448537 -1.7907e-19)
(-0.182109 -0.143639 7.29986e-21)
(-0.13636 0.175213 1.27276e-19)
(-0.299129 -0.15252 -1.85253e-19)
(1.95821 -0.281676 0)
(1.13008 0.0401947 -3.02328e-19)
(2.25203 0.146517 2.50524e-19)
(1.30045 -0.639407 8.89522e-20)
(0.390667 -0.15932 6.47185e-21)
(0.575571 0.29534 0)
(0.920391 0.730743 -1.57735e-20)
(0.665329 0.611545 1.78006e-19)
(0.922236 -0.586743 1.38609e-19)
(0.663437 0.475326 0)
(1.02375 -0.00177551 7.6919e-21)
(0.909033 -0.688469 1.97307e-19)
(0.818091 0.397676 -4.3812e-19)
(1.2679 -0.11167 0)
(-0.215956 -0.25007 -2.96667e-19)
(0.00919586 0.310015 -8.42561e-20)
(1.55309 0.711037 0)
(1.38169 -0.965676 -2.69565e-22)
(-0.659929 0.451199 0)
(-0.324333 0.443028 9.69678e-20)
(0.714959 0.631686 -9.44185e-20)
(0.861745 -0.240754 0)
(-0.199567 -0.180829 0)
(1.61249 -0.478548 0)
(-1.22649 -0.0491833 6.035e-19)
(1.24357 -0.910418 1.14963e-19)
(1.20263 -0.624684 5.54755e-20)
(1.08089 -0.183012 -1.52678e-19)
(0.907287 -0.719699 -1.55426e-19)
(0.194001 -0.198504 0)
(-1.07675 0.180107 0)
(1.02616 -0.531734 1.62305e-19)
(-0.142245 -0.237683 0)
(-0.314821 0.540547 0)
(-0.457342 -0.432382 3.71993e-19)
(0.770494 0.649427 8.19107e-20)
(0.988342 0.774688 0)
(0.674995 0.528944 -8.15825e-20)
(0.834033 -0.0667942 -2.11581e-19)
(0.72378 0.538114 -2.18215e-19)
(0.573377 0.532048 -1.60494e-19)
(-0.239043 -0.49491 1.63523e-21)
(0.742818 -0.667542 0)
(0.897277 0.156436 -3.07069e-19)
(-0.327801 -0.601282 5.99825e-20)
(0.586062 0.542961 3.62159e-19)
(0.933032 0.777069 0)
(-1.02175 -0.0290651 4.19674e-19)
(-0.10572 -0.380628 3.18439e-19)
(-0.027651 -0.264874 -1.64164e-19)
(0.642728 0.546498 -1.41793e-20)
(0.969501 -0.0081588 5.5848e-20)
(-0.414308 -0.609613 0)
(2.41366 -0.0713697 -3.26443e-19)
(1.85559 -0.581189 -2.61335e-19)
(0.675857 -0.626972 -6.99747e-20)
(-0.500932 0.292537 1.38162e-20)
(1.17114 0.451203 1.7386e-19)
(0.867282 0.389246 0)
(1.06215 -0.180387 1.79827e-19)
(0.0708087 -0.414408 -5.2956e-21)
(-0.0666086 0.0859332 3.20413e-19)
(0.930372 0.0195547 -4.95475e-20)
(1.10921 0.140393 0)
(1.98975 -0.0762331 -3.06466e-19)
(1.90052 0.12897 0)
(0.532457 0.218995 -4.37432e-19)
(-0.147342 0.207247 0)
(-0.257426 -0.456049 2.58776e-19)
(0.706528 0.108107 0)
(0.646142 -0.541291 -1.70223e-19)
(1.13445 0.0152845 1.96859e-19)
(-0.424865 0.43222 3.60806e-20)
(2.18742 -0.0969856 4.74187e-21)
(2.12918 -0.283307 -1.34801e-19)
(1.09935 0.220055 -2.08359e-19)
(-0.345224 -0.628453 -1.18145e-19)
(1.1044 -0.877605 0)
(0.810984 0.0152003 -1.43317e-19)
(0.94645 -0.398515 -2.70286e-19)
(1.76212 -0.597207 -6.44818e-21)
(1.77525 0.032285 2.71662e-19)
(1.07745 -0.00732661 3.6189e-19)
(0.0839128 -0.420868 -1.5765e-19)
(1.01589 -0.457908 -1.16897e-19)
(0.204586 -0.197066 2.4036e-19)
(1.00677 -0.00855347 0)
(1.00569 -0.00710482 0)
(1.01867 -0.480229 1.21732e-19)
(-0.0737868 0.594826 -8.65279e-20)
(0.172561 -0.121508 -1.38598e-19)
(2.03952 -0.0543802 6.97472e-21)
(1.16747 -0.0777329 0)
(1.93749 0.117385 -1.62685e-19)
(0.968401 -0.84472 -6.9829e-20)
(1.82478 -0.585084 -7.88872e-20)
(1.0787 0.817438 0)
(0.492336 -0.474985 0)
(0.58393 0.493808 -1.69726e-19)
(1.08203 0.273869 -3.8454e-19)
(2.32026 -0.280692 4.2721e-22)
(0.852375 0.139866 1.31772e-19)
(0.0907504 -0.480527 -4.7135e-19)
(1.06829 -0.409784 -1.85911e-20)
(-0.186544 -0.464419 0)
(-0.109339 -0.18655 0)
(-0.500238 -0.536283 0)
(1.3688 -0.746386 -7.22491e-20)
(-0.192132 0.42555 -1.86506e-19)
(-0.0612846 0.144133 0)
(1.25655 0.952564 -3.40485e-20)
(1.09854 0.137381 -3.9936e-19)
(1.95699 0.513426 -4.33117e-20)
(1.05151 0.899104 8.20134e-20)
(-0.198735 0.552404 1.20187e-19)
(0.657859 -0.18021 0)
(-0.502868 -0.476944 -3.21634e-19)
(-0.261327 0.521115 2.25693e-19)
(0.772983 0.00678539 1.73402e-19)
(1.49684 0.929027 -8.25952e-21)
(1.74595 0.528411 4.03142e-21)
(-0.103033 0.317621 -2.06006e-21)
(0.769427 -0.703148 -3.3866e-20)
(1.09985 -0.0112604 0)
(1.70998 -0.0868784 0)
(1.06182 0.0544057 0)
(-1.2298 0.581085 -2.45016e-19)
(-0.44138 -0.534597 1.17981e-19)
(1.02063 0.8231 0)
(1.00343 -0.01264 4.8118e-19)
(0.745492 0.58094 -2.18908e-19)
(-1.70095 0.32093 -2.37166e-19)
(0.858543 -0.000899807 -3.88713e-20)
(0.738427 -0.675095 -2.01507e-19)
(1.35359 0.693827 -3.15765e-20)
(0.587682 -0.480322 -2.73661e-19)
(1.12741 -0.00280853 -4.34081e-19)
(0.818485 0.0415488 4.20763e-20)
(1.57033 -0.182046 5.6453e-20)
(1.44627 -0.14274 -5.44385e-20)
(-0.0595461 -0.0795303 -7.10134e-23)
(1.05953 0.451475 -2.56071e-19)
(1.2806 0.595591 6.50168e-20)
(-0.0964905 -0.334101 0)
(0.0634587 -0.46571 1.75334e-19)
(-0.303445 -0.353958 1.24436e-19)
(-0.192426 -0.0964663 -1.322e-19)
(0.455937 0.279455 0)
(1.36426 -0.577737 0)
(0.00408058 -0.000831217 -1.16611e-19)
(-0.267703 -0.621382 -6.63159e-20)
(1.04554 -0.0306626 1.72028e-19)
(-0.362148 0.276233 -3.69972e-20)
(1.48346 -0.0227624 -5.52084e-19)
(-0.0819407 0.620217 0)
(0.858904 -0.762884 -2.73914e-19)
(1.05814 -0.157042 6.38273e-20)
(-0.37851 -0.306457 1.70117e-19)
(0.708701 0.130325 3.12327e-19)
(0.614666 0.101948 1.01099e-19)
(0.521808 -0.495217 1.88809e-19)
(-0.201841 -0.299089 -1.37767e-19)
(1.44011 0.471506 0)
(0.373039 0.312352 -1.8608e-19)
(1.02731 -0.0167504 -2.73752e-19)
(-0.849814 0.0985735 2.24749e-19)
(1.38915 0.477557 -1.16096e-19)
(-0.164873 -0.298788 -5.20902e-20)
(0.704358 -0.643793 -3.85995e-20)
(0.801781 0.162362 -1.96271e-19)
(0.958871 0.406645 2.18509e-20)
(1.16692 -0.146717 3.22141e-20)
(0.622102 -0.261705 -2.8222e-19)
(2.04979 -0.383666 -1.66822e-19)
(1.67972 -0.141454 0)
(1.53761 0.403153 -2.92722e-20)
(1.92041 0.101769 -1.82307e-20)
(0.83608 -0.267425 1.32262e-19)
(0.89159 0.340607 -1.59973e-19)
(0.926019 -0.152129 5.10356e-20)
(0.40037 0.365126 -2.41398e-19)
(-0.220853 0.312741 2.36883e-19)
(1.95489 -0.219962 0)
(0.929098 0.00218165 0)
(0.898012 -0.795943 5.23596e-20)
(-0.104548 -0.440134 -3.48478e-19)
(-0.820703 0.141948 -2.70263e-19)
(-0.0808037 -0.117445 -2.24464e-19)
(-0.447042 0.572227 -1.51697e-19)
(-0.267377 -0.405546 0)
(-0.0917543 -0.14768 3.98275e-20)
(0.190491 0.463956 -8.04636e-20)
(-0.154215 0.194485 -2.90374e-19)
(0.813159 -0.135855 0)
(1.61539 -0.632595 1.06991e-19)
(-0.270608 -0.337347 0)
(0.995885 0.024359 3.47137e-19)
(-0.0212987 -0.47366 2.22401e-20)
(0.563148 -0.452324 3.66779e-19)
(-0.809327 -0.194778 4.49295e-19)
(-1.56657 0.0222237 0)
(0.207931 0.571608 9.66178e-20)
(1.00805 0.0212863 -1.0435e-20)
(-0.144396 -0.148032 0)
(1.00553 -0.00851821 -5.41121e-20)
(0.887329 -0.751267 -2.63067e-19)
(1.50482 -0.506859 0)
(0.948052 -0.291033 1.934e-19)
(0.0574123 0.595166 2.14448e-19)
(-0.0242437 -0.0228116 0)
(-0.0951554 -0.512574 -6.41249e-21)
(0.751132 -0.657822 -3.9304e-19)
(0.96484 -0.030577 -2.49415e-19)
(-0.0839021 -0.474691 4.29058e-19)
(-0.207379 -0.413366 1.58688e-19)
(-0.233857 -0.45488 0)
(0.937723 0.453777 0)
(-0.280127 -0.46443 2.15124e-19)
(1.85187 -0.0411364 -2.4893e-19)
(1.04774 0.874506 1.81505e-20)
(1.05829 0.200077 -1.17131e-19)
(1.15567 0.000188758 -2.06415e-19)
(1.06609 -0.0804479 -7.25762e-20)
(-0.0689884 -0.510443 -3.94116e-19)
(2.00942 0.107241 4.81991e-19)
(0.668815 0.0259236 1.96491e-19)
(2.04931 -0.111527 1.6414e-19)
(1.0663 -0.151033 0)
(-0.0568606 0.463852 5.41752e-19)
(1.13533 0.0254448 -4.70387e-19)
(1.71028 0.61215 1.21186e-20)
(0.763691 -0.479728 -1.50225e-19)
(-0.0751925 -0.046734 2.13377e-19)
(0.822708 -0.723613 3.4624e-19)
(1.22216 0.190488 7.05644e-20)
(1.00584 -0.00758692 2.39751e-19)
(0.116668 -0.496114 -1.73107e-19)
(1.01971 0.0159936 0)
(1.6751 0.143705 -2.33439e-19)
(-0.037969 -0.0321151 0)
(1.01909 0.0123334 -1.41117e-19)
(-1.54692 -0.0289633 -6.72292e-19)
(1.66712 0.314218 3.35889e-20)
(-0.426534 -0.393339 1.53884e-19)
(1.60106 -0.00642799 -6.52494e-21)
(1.01243 -0.0190769 4.9646e-20)
(1.36333 -0.0902186 0)
(1.4745 -0.62787 -1.16377e-19)
(1.01914 0.029818 -1.46963e-19)
(1.40897 0.773175 -5.80548e-20)
(1.41211 -0.0620983 0)
(0.700225 0.0160887 -1.44968e-20)
(0.00231064 -0.000571611 0)
(1.38062 0.0498608 0)
(-0.424856 -0.574149 0)
(1.22094 0.431823 0)
(1.81914 0.310308 4.41485e-20)
(0.719544 0.594269 3.83705e-19)
(0.303052 -0.305062 -2.23468e-19)
(-0.245539 -0.573114 -3.79258e-19)
(-0.0419627 -0.0573462 0)
(1.87891 -0.427048 1.11273e-19)
(1.29288 0.507631 0)
(1.42841 0.296899 0)
(-0.528565 -0.439314 1.42024e-19)
(0.787177 0.695221 1.23959e-19)
(1.72129 -0.0258084 0)
(-0.359901 -0.494888 8.75598e-20)
(0.90188 0.203074 1.80256e-19)
(2.01456 -0.42909 -5.03016e-20)
(1.2123 0.90748 4.43415e-20)
(0.944949 -0.851337 -2.87683e-20)
(1.38167 -0.191479 -1.28701e-20)
(0.773543 0.698956 1.27424e-19)
(1.14982 0.905314 0)
(2.49911 -0.248416 1.94822e-19)
(1.03858 0.751065 0)
(1.42435 -0.655319 3.13667e-20)
(0.909293 0.0974175 1.62308e-19)
(1.00456 -0.00653807 0)
(0.176044 0.464699 5.06249e-19)
(0.89911 -0.192027 4.48525e-20)
(0.652046 -0.435617 0)
(0.689782 -0.408543 1.98421e-19)
(1.21365 0.542897 -3.23594e-20)
(0.459421 0.432258 2.65764e-19)
(-0.181494 0.253899 3.43374e-20)
(0.0108884 -0.0146217 8.22419e-20)
(0.762409 0.0640376 0)
(1.35191 -0.925658 -5.68336e-20)
(1.03244 -0.0438599 3.81864e-19)
(1.45182 0.333071 1.26807e-19)
(-0.396208 -0.539073 7.58805e-20)
(-0.891646 -0.231933 0)
(1.24745 -0.257604 -1.03916e-19)
(-0.023486 -0.0247382 -1.83493e-19)
(-0.000951732 -0.0202712 -6.10302e-20)
(-0.124217 0.0408613 -6.01497e-22)
(-0.194127 0.0865059 2.62262e-19)
(1.39818 -0.171894 -5.92428e-21)
(2.42711 -0.0699729 4.37096e-19)
(1.16946 0.451139 -2.8036e-19)
(0.847518 -0.0465866 0)
(1.91099 -0.142416 2.4613e-19)
(1.89682 0.115463 1.28618e-19)
(0.938004 -0.789933 1.28088e-19)
(1.18156 -0.998509 -2.78666e-20)
(0.464119 0.430074 1.7841e-19)
(1.49272 0.385747 0)
(1.72122 0.574176 2.39173e-20)
(-0.0313663 -0.0398085 -3.73885e-19)
(0.862645 0.752582 0)
(1.35104 0.416075 0)
(0.304619 -0.304568 -3.85468e-21)
(0.306445 0.274039 0)
(-1.18145 -0.110908 -4.19588e-19)
(-0.254292 0.381598 -1.01654e-19)
(1.75822 -0.443943 0)
(1.2371 0.104392 1.73315e-19)
(-0.623925 0.176191 2.25643e-19)
(0.553819 -0.526545 -4.29898e-19)
(2.03503 -0.0993515 -5.67128e-20)
(0.632977 -0.575857 0)
(1.02118 0.117888 0)
(1.36677 -0.259359 0)
(1.10126 0.216076 -2.22249e-19)
(1.32748 0.103609 3.14578e-19)
(-1.36652 -0.0377097 0)
(0.894452 -0.0647145 0)
(2.15065 -0.129723 -3.25873e-21)
(-0.0646946 0.14547 8.86442e-20)
(2.6115 -0.0212941 -3.29537e-19)
(1.07608 -0.524798 1.9083e-19)
(2.03058 0.0207868 -3.47462e-19)
(-1.03171 0.231132 -1.74542e-19)
(1.97692 0.131901 -2.08756e-19)
(1.01736 -0.0275533 3.9128e-19)
(1.48607 0.594857 0)
(-0.297103 0.479581 2.72141e-20)
(1.03121 -0.853752 1.55351e-19)
(0.858928 -0.0351074 4.54362e-20)
(0.656944 -0.458029 0)
(1.93401 -0.560267 6.88789e-21)
(1.22748 -0.205227 1.35642e-19)
(1.72745 -0.633961 0)
(0.627135 -0.583212 4.03877e-19)
(0.687382 0.0790938 -2.18584e-20)
(2.42025 -0.00318136 5.64269e-19)
(-0.0960388 0.238089 -1.82792e-19)
(1.30508 0.604773 1.45195e-19)
(1.12984 0.395544 3.52212e-21)
(0.890689 0.352597 2.14905e-19)
(1.9507 0.0375292 -2.79878e-19)
(-0.0737907 -0.539735 -4.66138e-21)
(0.794651 -0.215745 0)
(-0.154632 -0.101559 3.512e-19)
(1.11402 -0.971135 0)
(1.08896 -0.673482 1.96716e-20)
(1.1783 -0.157849 -7.41323e-19)
(1.44774 0.0764102 -1.30758e-20)
(-0.585888 -0.260698 -4.02608e-19)
(0.968356 0.464588 1.68105e-19)
(-0.170898 0.714311 2.71012e-19)
(0.690813 -0.0383534 0)
(1.90928 -0.100727 0)
(1.56108 0.169344 2.48346e-20)
(0.778839 -0.0130353 0)
(1.38996 -0.223382 -1.39574e-19)
(-1.47202 0.138001 5.34975e-19)
(1.88966 0.496387 6.37381e-21)
(1.04027 -0.0320445 0)
(0.573049 -0.378765 9.76873e-20)
(1.01011 0.0262194 1.86246e-19)
(0.331254 0.749226 -2.32048e-19)
(-0.462351 0.568142 0)
(1.13069 -0.493041 4.44789e-19)
(1.78622 -0.12635 -5.0597e-22)
(1.11964 -0.513943 -1.93714e-19)
(2.30689 0.27092 1.59442e-19)
(1.26075 0.773597 0)
(0.860991 0.0177568 0)
(-0.456467 -0.562015 -1.91013e-19)
(0.00278925 -0.00106582 1.31193e-19)
(0.936038 0.35242 -1.98575e-19)
(0.272505 -0.405638 -1.54606e-19)
(0.628816 0.381382 2.31981e-19)
(0.928617 0.0325253 0)
(0.556596 -0.517873 0)
(0.829551 -0.257997 5.23041e-21)
(1.25073 -0.523434 -8.90305e-20)
(0.661008 -0.0439019 1.35438e-20)
(0.739987 -0.181515 1.11441e-19)
(-0.0468337 0.0776339 -2.34857e-19)
(1.20487 0.168222 2.76184e-19)
(0.643436 0.599413 0)
(1.24349 0.68042 0)
(1.58933 0.262152 0)
(-0.368772 -0.413749 -1.75913e-19)
(1.21809 0.541605 1.78586e-19)
(2.06071 0.0678464 5.53123e-20)
(0.920013 -0.00752916 0)
(1.62465 -0.501629 0)
(2.20054 -0.099313 -3.67512e-19)
(0.529199 0.445979 2.65674e-19)
(1.00506 0.00388133 -1.86408e-19)
(1.4648 0.462354 0)
(-0.338435 0.562074 0)
(1.22873 0.315784 2.75634e-19)
(1.00155 0.508847 -1.24889e-19)
(1.06622 0.0212763 0)
(1.72826 0.115851 0)
(1.92856 0.663524 -2.62103e-19)
(-0.0825333 0.429632 -2.15954e-21)
(0.997454 0.0110365 0)
(0.688603 0.447776 -3.19642e-20)
(0.959938 -0.847729 0)
(1.00737 0.0150322 4.32641e-20)
(0.812988 -0.571426 1.57302e-20)
(0.918505 -0.341544 2.84333e-19)
(0.928157 -0.374611 -7.90918e-20)
(2.23416 -0.155332 3.72668e-19)
(1.32689 0.132002 9.5957e-20)
(0.792674 -0.0253679 0)
(1.01962 0.010193 0)
(-0.607002 -0.330001 0)
(0.648358 0.620655 -1.82119e-19)
(-0.0240857 0.0423952 1.5844e-19)
(1.15159 0.339094 -4.41812e-19)
(-0.552589 0.316383 0)
(0.807804 0.621684 1.61445e-19)
(1.02371 -0.352032 0)
(1.00535 -0.00149207 1.09094e-19)
(0.274047 0.0965448 7.59704e-20)
(1.01822 0.392362 2.46389e-19)
(1.33448 0.223589 0)
(2.14372 0.192141 -8.39016e-20)
(0.831494 -0.132147 -3.42206e-19)
(-1.18555 -0.119811 -5.86846e-19)
(1.10172 0.256955 0)
(0.872351 0.223861 1.67021e-19)
(2.03922 -0.191719 0)
(0.755543 0.497952 3.47716e-19)
(-1.52881 0.0439686 2.34594e-19)
(-0.0347176 0.082336 0)
(0.574508 0.545716 -6.79392e-20)
(1.05068 -0.661256 -1.38066e-19)
(0.49762 -0.281476 -1.14889e-19)
(1.01921 -0.0199764 0)
(-0.433452 0.294311 -2.20257e-19)
(0.660624 -0.590967 7.557e-20)
(0.89751 0.271316 0)
(1.6866 -0.540318 1.40613e-19)
(0.959604 0.817808 2.35563e-20)
(0.992537 -0.563906 -1.68038e-20)
(0.200577 -0.188904 -2.59429e-19)
(0.242418 -0.0928029 -5.22696e-19)
(-0.127813 -0.232563 9.69842e-21)
(0.79844 0.333494 2.36115e-19)
(-0.214917 0.449453 -4.62119e-21)
(1.43751 -0.667633 3.49854e-21)
(1.02339 0.00441084 -3.23274e-19)
(-0.449347 -0.362281 0)
(1.02784 0.0301584 -3.82982e-19)
(2.20447 0.192697 2.32693e-19)
(0.865666 0.669369 2.71319e-19)
(1.14071 -0.0762198 1.49358e-19)
(1.00614 -0.0363619 1.49581e-19)
(1.52028 0.0924614 1.18425e-20)
(-0.355253 -0.427232 -6.33841e-22)
(1.75695 -0.89578 1.54646e-20)
(1.17186 -0.138496 -6.92441e-20)
(0.811086 0.0469906 7.92811e-20)
(0.922388 -0.311427 8.3782e-20)
(0.958564 0.210087 0)
(0.939356 0.714445 0)
(0.839218 0.217065 -9.05656e-20)
(2.07194 0.18875 -2.48009e-20)
(-1.08587 -0.0662922 1.94615e-19)
(1.05038 -0.557173 -4.71584e-19)
(0.639358 -0.557003 3.63394e-19)
(1.16151 0.2408 -1.35757e-19)
(0.253719 -0.39815 1.7862e-20)
(1.43353 -0.562816 0)
(0.74611 0.0882998 -6.39852e-21)
(1.50709 -0.614708 -5.57022e-20)
(1.01609 0.742163 0)
(1.28318 -0.68559 0)
(0.43729 0.126427 0)
(-0.197548 -0.329025 -6.27945e-20)
(-0.123843 0.165681 0)
(1.5848 0.666999 3.19178e-19)
(1.20747 0.175635 6.07911e-21)
(-1.26922 0.0711671 2.55376e-19)
(1.8059 0.586186 1.1152e-20)
(1.78895 0.466671 -5.66137e-20)
(2.18542 -0.34491 -3.90959e-20)
(-0.166065 0.0100065 -1.8404e-19)
(-0.111897 -0.50359 4.77775e-21)
(1.00859 0.103456 0)
(0.67439 -0.0332531 0)
(1.00156 0.000355384 2.49762e-22)
(-0.40361 -0.399528 0)
(1.56283 -0.00667885 -1.21151e-19)
(0.676415 -0.0312024 0)
(1.0633 0.00657794 1.19649e-19)
(0.995034 0.0161862 -4.23464e-20)
(1.08536 0.218031 1.73803e-19)
(1.06019 -0.0193461 -8.74646e-22)
(0.960886 -0.207961 -5.06716e-20)
(1.0243 -0.0345064 3.46882e-19)
(0.694677 -0.633144 1.70393e-19)
(-1.0754 0.019557 -2.77081e-19)
(1.14664 0.398568 1.84062e-20)
(0.00183016 0.00517387 0)
(1.10061 0.775864 0)
(1.02873 -0.0104581 0)
(1.02807 -0.797681 -9.47603e-20)
(1.0625 -0.911882 3.00122e-20)
(0.909892 0.22141 -2.52878e-20)
(0.0373806 0.169952 -1.06361e-18)
(1.29657 -0.465612 1.89821e-20)
(0.606567 -0.410806 -5.91452e-19)
(1.26987 0.407971 -3.79981e-20)
(0.899023 -0.172347 -9.66245e-20)
(2.10486 -0.345389 1.1815e-19)
(0.431464 0.0926858 -1.66927e-20)
(-0.320531 -0.48938 -1.3151e-19)
(1.09178 0.534753 1.90093e-19)
(-0.0984494 -0.341169 0)
(0.246916 -0.457019 3.92128e-19)
(-0.0982385 -0.137479 -1.21694e-22)
(1.02891 -0.0439683 3.12974e-19)
(1.02451 -0.00193232 -8.02469e-21)
(1.1079 -0.0115775 -8.65206e-20)
(1.45477 0.0757548 1.34165e-21)
(1.59932 0.319038 5.67976e-20)
(0.416859 -0.392057 -2.93229e-19)
(0.82769 0.151945 4.65638e-20)
(1.0351 -0.000378858 -2.28768e-19)
(1.09376 0.280075 -1.89479e-20)
(1.40823 0.122392 0)
(1.08611 0.574084 -3.56659e-19)
(1.00234 -0.00339093 8.90736e-20)
(0.655774 0.584021 2.485e-19)
(1.30518 -0.346125 -2.17827e-22)
(1.06374 -0.0112574 -2.84957e-20)
(1.12931 0.0122616 8.07936e-22)
(2.51352 0.0730733 2.02046e-20)
(0.36011 0.105153 0)
(1.04755 -0.0392313 0)
(1.05383 -0.0346263 5.48267e-19)
(1.00242 -0.00259193 0)
(-0.0655219 -0.0926002 0)
(0.96373 -0.591444 0)
(1.00062 -0.000958115 -5.17871e-19)
(1.18108 -0.702788 7.45297e-20)
(1.02157 -0.0055452 1.0844e-20)
(1.31266 0.937254 -2.71809e-20)
(1.49194 0.985114 1.3567e-20)
(1.15247 -0.266288 -2.8513e-20)
(1.56259 0.200702 2.58647e-19)
(1.36996 0.254107 0)
(0.0214017 0.513284 0)
(2.19276 -0.106219 5.41938e-19)
(1.25019 -0.75876 0)
(0.999572 -0.00569666 -1.60515e-19)
(1.00956 -0.00112951 3.11836e-19)
(1.42456 0.139343 -6.61717e-20)
(-0.003739 -0.124052 2.71525e-19)
(0.96934 -0.00155663 1.69617e-19)
(0.172442 -0.0053047 2.7243e-20)
(0.205781 -0.0583046 -3.02066e-20)
(1.54225 0.0973671 -6.66941e-23)
(0.927212 0.0165279 -1.70139e-19)
(1.00249 0.00345255 2.01108e-19)
(1.00074 -0.000841323 1.1886e-20)
(0.78962 -0.0129643 0)
(0.727746 -0.0263811 0)
(0.724377 -0.0268552 6.55849e-22)
(0.699808 -0.0291774 0)
(1.04333 -0.173986 0)
(0.319842 -0.0538247 0)
(-0.0498431 -0.0749944 5.31656e-20)
(0.209467 0.08572 -3.01361e-20)
(1.18794 0.0505897 0)
(1.2902 0.0030746 5.27069e-21)
(1.52505 0.0674466 0)
(0.0222111 0.0591727 0)
(-0.0608844 -0.000148834 0)
(0.0952363 0.0402418 -3.31334e-21)
(0.673268 0.145823 3.7657e-20)
(0.790763 0.0237136 0)
(0.793052 0.0204948 0)
(0.965087 0.0192643 -2.09838e-19)
(0.818763 0.00849077 3.9211e-19)
(1.00693 -0.00142616 0)
(0.999873 -0.000513658 3.71718e-19)
(0.999764 -0.000943177 -3.77989e-22)
(0.795517 0.0219291 3.33015e-19)
(0.990222 -0.00751469 -1.94706e-19)
(0.160438 0.0331259 0)
(-0.0329517 0.000281622 3.02288e-20)
(1.00137 -0.00218481 -1.88014e-19)
(0.999913 0.000307187 -3.22422e-19)
(1.23616 -0.0027936 0)
(0.999433 0.00183876 0)
(0.999358 0.000102956 0)
(1.47031 -0.48029 1.26165e-20)
(0.839888 -0.136051 2.58947e-20)
(0.976512 0.294971 0)
(-0.324639 0.28253 1.72735e-19)
(-0.566566 0.565881 -4.94448e-19)
(1.01906 -0.015988 -2.50419e-19)
(-0.330616 -0.604629 -1.21825e-19)
(1.01881 0.000959498 -2.01411e-19)
(1.19101 -0.229172 -8.96331e-20)
(0.819028 -0.494434 2.8151e-19)
(-0.0659516 -0.0916638 -9.08164e-20)
(1.02963 0.00855605 0)
(1.05103 -0.0134612 -5.48555e-20)
(0.859277 0.0221123 0)
(-0.0404505 0.0456246 2.31694e-19)
(1.18968 -0.647398 0)
(-0.466326 -0.469869 -3.08508e-19)
(0.240213 0.0371237 -2.16383e-20)
(1.62124 0.67542 -1.4403e-20)
(-0.0566055 -0.0233101 0)
(1.05847 -0.0387526 1.69482e-19)
(1.20433 -0.259528 3.52442e-21)
(0.926066 -0.0218199 2.66219e-19)
(1.01218 -0.00893645 -1.70705e-19)
(1.6382 0.849152 3.0093e-20)
(0.505723 0.472942 0)
(0.427146 0.374729 1.94575e-19)
(1.55259 -0.474174 -2.41391e-21)
(1.1382 0.118916 1.84632e-19)
(1.1115 -0.732751 0)
(1.02026 0.0013938 0)
(0.99783 -0.0187912 -3.93418e-19)
(1.01744 0.0155902 -3.82448e-19)
(-0.169065 -0.347651 0)
(1.19511 0.803624 -1.27101e-19)
(1.45452 -0.321499 2.3192e-22)
(1.01497 0.00559492 1.47411e-19)
(1.01198 0.0112506 -1.84703e-19)
(-0.55996 -0.406558 -3.02347e-20)
(1.158 -0.115787 -7.65164e-20)
(1.01692 -0.015815 6.29266e-19)
(1.25422 -0.185131 0)
(1.81792 0.646225 -3.79329e-20)
(1.01545 -0.0133292 -1.9589e-19)
(2.04364 0.103724 -1.49003e-19)
(1.0594 0.00527312 -4.52575e-22)
(1.01013 -0.0114288 3.92278e-20)
(2.103 -0.270214 -3.12121e-19)
(1.01575 0.00514929 1.89812e-19)
(1.07128 0.19347 2.99132e-21)
(1.01745 -0.000165216 0)
(0.931018 0.137128 4.71067e-20)
(-1.2682 -0.05027 6.55282e-21)
(0.998892 0.0212834 1.8855e-19)
(1.0399 0.01906 -5.83841e-22)
(1.30155 -0.182775 -4.52134e-21)
(1.23586 0.30985 3.94978e-19)
(0.99961 0.0156342 1.29485e-19)
(1.01531 -0.015372 4.60022e-22)
(1.70728 0.263834 -2.22209e-20)
(1.72319 0.917819 -9.31477e-20)
(0.79656 -0.716063 5.28809e-20)
(0.470101 -0.355117 -2.86802e-19)
(1.00699 -0.0110482 0)
(1.01911 0.00252156 4.71439e-20)
(1.01296 -0.010218 9.95724e-20)
(1.08407 0.0402634 4.69953e-21)
(1.01404 0.00499804 -1.97611e-19)
(1.02988 -0.028631 2.25737e-19)
(1.00906 -0.00869546 -1.86214e-19)
(1.01674 0.00411008 -4.71546e-22)
(1.01214 0.000210453 -3.41816e-22)
(1.02373 0.0140573 1.89133e-19)
(0.894786 0.071942 4.83077e-19)
(1.72358 0.645506 0)
(0.528744 -0.202692 2.89142e-19)
(1.01287 -0.00425852 0)
(1.02097 -0.022105 -5.49138e-20)
(1.51231 0.446325 -7.88511e-20)
(1.91967 -0.00965608 0)
(2.29056 -0.331963 -1.16227e-19)
(1.22305 0.586471 -5.17457e-20)
(0.754484 -0.0130353 0)
(1.92496 -0.142589 0)
(0.0417429 0.314897 -1.65384e-19)
(1.32733 0.0100947 -1.23952e-20)
(1.01858 -0.00490159 -1.99264e-19)
(1.13867 -0.580877 -5.47347e-20)
(1.2356 -0.10064 -2.23689e-20)
(1.39373 0.446709 0)
(1.33866 -0.493178 0)
(1.85781 0.477422 0)
(0.126306 0.482366 8.27502e-20)
(1.18466 0.136907 7.9703e-20)
(-0.0998688 0.414954 0)
(-0.102827 0.507051 -2.77582e-19)
(1.66179 0.951199 -4.42202e-20)
(1.00731 -0.0026893 -3.89378e-19)
(1.14613 0.0313026 1.92322e-20)
(1.01999 0.00584234 2.5772e-19)
(0.684427 -0.039416 0)
(-0.150559 -0.308776 -2.7718e-20)
(0.595516 0.407392 -3.27023e-19)
(1.75863 0.630116 8.06949e-20)
(0.0579137 0.577374 0)
(0.796687 0.0775486 7.11625e-20)
(0.504597 0.481277 4.96939e-20)
(1.16047 0.866987 -3.4554e-20)
(-0.0426828 -0.0333631 1.35525e-19)
(1.02002 0.00997112 0)
(1.29399 0.252462 4.57579e-20)
(1.01286 -0.00532197 1.46207e-19)
(2.39942 0.167983 0)
(1.00969 0.00714236 2.4515e-19)
(0.2924 -0.447829 -1.8509e-19)
(1.02047 0.0107065 -1.51715e-19)
(1.34562 0.269905 0)
(2.03385 -0.321289 5.47238e-22)
(1.01069 0.00309636 -1.01792e-19)
(0.994796 -0.0387472 2.68804e-19)
(1.08291 0.0850034 -2.47434e-21)
(1.10843 0.312816 -4.71005e-20)
(-0.149343 -0.0792845 3.55479e-19)
(1.94009 0.320826 1.65918e-19)
(0.585455 0.118335 5.46321e-20)
(0.804391 0.0155633 -3.67604e-19)
(0.795679 0.0249789 0)
(0.685411 -0.0365813 5.27256e-20)
(1.02104 -0.019013 -2.95146e-20)
(0.972462 0.0151461 0)
(1.04964 0.000325428 -1.87534e-19)
(0.328639 -0.536582 -3.79751e-20)
(-1.47331 -0.0751297 2.64847e-19)
(2.18845 -0.611005 0)
(-1.06137 -0.0476043 -7.71764e-19)
(1.53899 -0.354375 0)
(1.03941 -0.0179337 5.50067e-20)
(1.09753 0.0545026 1.71096e-21)
(1.01511 -0.00365878 1.58036e-19)
(-0.986999 0.0977221 4.68732e-19)
(1.01742 0.00219679 0)
(0.99159 0.00376196 -3.81449e-19)
(1.00636 0.00803819 2.01051e-19)
(0.844445 0.111282 0)
(0.717288 -0.077644 -9.21163e-21)
(0.958262 -0.00160195 -1.71997e-19)
(-0.232676 -0.600266 4.12885e-19)