/*--------------------------------*- C++ -*----------------------------------*\
| =========                 |                                                 |
| \\      /  F ield         | OpenFOAM: The Open Source CFD Toolbox           |
|  \\    /   O peration     | Version:  2306                                  |
|   \\  /    A nd           | Website:  www.openfoam.com                      |
|    \\/     M anipulation  |                                                 |
\*---------------------------------------------------------------------------*/
FoamFile
{
    version     2.0;
    format      ascii;
    arch        "LSB;label=32;scalar=64";
    class       volScalarField;
    location    "19.5";
    object      p;
}
// * * * * * * * * * * * * * * * * * * * * * * * * * * * * * * * * * * * * * //

dimensions      [0 2 -2 0 0 0 0];

internalField   nonuniform List<scalar> 
2186
(
0.951473
-0.156155
0.143035
1.2452
-0.774565
-0.0267719
0.853886
-0.817365
-0.855457
1.48783
1.19659
-0.72624
-0.828859
1.18131
-0.380385
1.18264
1.20871
-1.11783
0.0201807
-0.741829
1.57782
-0.722551
1.18976
-0.804253
1.1816
1.22064
1.40263
1.07615
0.720434
1.18128
-0.728087
1.18153
-0.677986
-1.15815
-0.736262
0.227477
-1.07743
1.56606
-0.614861
-0.109699
-0.843595
-0.704323
-0.486739
-0.826774
1.04286
1.47134
0.528358
0.696523
-1.37578
-0.860188
-0.733762
1.03697
-0.486819
1.49602
-0.703372
1.12529
-0.534703
1.15236
-0.697352
0.987356
-0.984015
0.76275
0.680047
-0.0949103
0.69661
0.638683
0.79882
1.46681
1.36165
-0.890982
-0.82127
-1.0456
1.43799
1.1769
1.34569
1.32988
-1.18449
1.20306
-0.743094
-0.633976
-1.19412
-0.159689
1.17701
0.747239
1.17093
1.17753
1.47022
0.0206156
0.00484259
-0.751227
1.12756
-0.73401
1.10101
1.34291
1.18981
0.541392
0.0208992
0.711901
-0.837212
1.1662
-1.24609
-1.26955
0.768954
1.1253
1.21045
-0.72902
1.37998
-0.632638
1.11198
-1.91605
-0.613063
-0.811092
0.721276
1.49279
-0.803835
-0.766121
-0.0356567
-1.49758
-0.752527
1.44102
0.0908517
-0.982421
0.995489
-1.25145
1.18771
-0.0175064
-0.801663
1.32149
-1.15686
0.834968
1.55886
1.41301
0.420843
0.827154
-1.23319
-0.872587
1.09677
-0.897742
-0.559762
-0.775765
0.937297
-0.0264684
-0.799394
0.878673
1.09183
1.13215
-0.550454
-0.791098
0.790075
-0.780684
-0.764482
0.758249
1.20605
1.35971
1.222
0.706621
1.46536
0.553638
0.453574
0.601989
-0.776602
-1.07973
1.15223
1.16661
0.00528381
0.0329161
-0.647659
-0.706504
-0.272511
-0.296013
0.480711
1.17193
1.20939
1.28734
0.55039
-0.230668
-0.769864
1.15233
-1.33714
1.00062
-0.705235
1.19492
-0.735383
0.674169
0.658224
-0.79924
-0.67185
1.29586
-0.475626
-0.830139
-0.901912
1.43487
-1.21609
1.15767
-0.77086
-1.85811
0.201546
1.35231
1.22732
-0.730486
-0.921529
-1.38658
0.264084
1.21265
-0.747371
-0.767804
-0.743739
-1.36653
1.11529
-1.07769
0.700387
0.0246119
1.47925
0.966524
1.067
1.12907
1.35047
1.18416
1.07594
1.26322
0.554176
-0.721526
-0.708663
0.213908
0.370192
-1.11082
-0.792213
1.19437
1.31508
-0.725005
-0.681326
-1.55312
0.551241
0.833696
0.96463
1.07715
1.29826
-1.34012
1.06614
-0.786016
-0.872161
-0.758059
1.15293
0.864516
1.31635
1.35891
1.27362
1.25041
-0.80743
1.00476
1.28346
-0.837862
1.13891
0.913746
-1.63107
-0.751422
-0.723126
1.31795
1.20551
-0.849291
-1.18112
-0.819956
1.13387
-1.26505
0.887119
1.23099
1.04631
-0.782363
-0.731239
1.16152
0.755389
-0.593138
-0.45306
1.5219
-0.769025
-0.808035
1.0248
1.36345
1.1731
-0.829427
-0.950106
-0.736987
1.06512
-0.85498
0.726281
1.15808
1.2025
-0.0227336
-0.422084
1.13396
-0.844263
1.11137
1.37373
1.20186
1.19903
-1.14258
-0.835789
-0.813127
-1.02586
-1.66371
-1.2211
0.559653
-0.381093
0.739542
1.3494
1.37649
1.0682
-0.584127
1.31663
-0.965596
-0.0364137
-0.989028
-0.774349
-0.845684
0.53329
-0.763322
-0.749426
0.285067
1.08311
-0.398577
0.507553
-0.797462
-0.00395751
-0.825737
-0.796709
1.39854
0.0998497
0.0233797
-0.722967
0.969692
0.680356
-0.339628
0.712
-1.12428
-0.876993
0.794454
1.20783
1.23489
-1.59214
1.33128
1.06936
0.499063
1.42356
1.17767
1.12127
0.544007
-0.486792
-0.782348
1.01573
-0.826965
-0.734878
-1.00368
-0.694354
-0.754088
1.54631
-0.886197
-0.733895
-0.84362
1.17708
-0.750544
-1.54094
-0.820521
0.941302
-0.193349
-1.17145
1.43237
1.4958
1.30675
-0.806024
-0.109272
1.56226
1.18251
-0.94861
0.576218
-0.793529
0.356519
1.35292
1.1406
1.05912
1.48376
-0.357769
-0.608346
-0.37415
-0.940733
-1.24944
-0.71144
-0.132663
1.48803
-1.13168
-1.13141
1.16808
0.765444
-0.761156
-1.32668
-0.786461
-1.00304
-1.06355
-0.765824
-0.710867
-0.76157
1.37381
-0.686631
-0.736706
1.19689
-1.06191
1.44142
-1.27428
-1.81258
-0.819139
1.18036
-0.704407
1.20423
1.02934
-1.38143
1.22675
-1.00009
-0.762261
-0.934481
1.19373
1.12588
-0.792684
-0.79625
-1.00484
1.13941
-1.18345
-1.7308
0.640827
1.10799
1.0646
0.892409
-0.812735
-0.898349
0.979974
-0.983048
0.993864
-2.19164
1.20286
0.0714646
1.31339
-0.753773
1.03424
0.837811
1.21091
-0.940446
1.17319
-0.860275
-0.759746
1.18332
-1.52466
0.244719
-0.72554
-0.0660379
1.18522
0.264036
0.473975
1.18079
0.361702
-0.000380148
-0.0722978
-0.734183
0.413049
-0.874553
0.84076
-0.558444
1.23336
1.31522
-0.822936
-0.770663
-0.595492
-0.720755
0.552958
-0.835684
0.981124
0.103452
-0.824673
1.26935
-0.551352
0.499005
0.479788
-0.301273
0.941817
0.470718
-1.05343
-1.78018
-0.300728
-0.665233
1.19693
-2.07568
1.2925
1.4092
1.39653
0.786992
1.33631
-0.765142
-0.646741
1.08239
0.401376
1.16922
-0.70545
-0.817699
-1.4969
0.978319
-0.762525
-2.21094
-0.746881
-0.786121
0.088635
-1.02403
0.87568
0.846653
-0.581668
-0.798587
0.932775
0.25992
1.3036
-2.02044
-0.0733663
-0.764714
0.903121
-0.0616153
1.35386
1.5782
-1.52907
-0.777116
-0.659932
0.408675
-1.29613
1.2199
-0.848435
1.17631
0.903706
-0.77196
1.0238
0.984882
-1.67511
1.06219
-1.00223
-0.736594
-1.17434
-0.717085
-0.94711
-1.27917
-0.707228
1.18397
0.333494
-0.791312
0.773493
1.33009
1.39563
-0.175686
0.939172
-0.548704
0.959739
-0.132255
-1.21726
-0.743167
0.626091
0.95956
1.22658
-1.77921
-0.830029
-1.20428
-0.756213
0.0723445
0.914452
-1.80667
0.0914866
-1.01947
1.09762
-1.28598
1.12534
-0.875071
-0.718504
1.13264
0.843508
-1.36225
-0.0695637
1.13811
1.47422
1.20451
-1.13626
-1.12692
0.984999
-0.781093
0.97194
-0.493686
0.573126
1.13492
-0.825822
-0.732967
1.18268
-0.978961
1.41646
-0.132545
1.05972
0.273067
0.808683
-0.606747
1.41931
-0.735206
-1.15963
1.11834
0.652626
0.624352
-0.98339
-0.736465
-0.931917
0.925156
-0.101592
-0.836567
-1.23974
1.1975
0.516438
-1.02594
0.887378
1.04644
1.15889
-1.97073
-0.650664
-0.736104
1.19614
1.34687
0.674774
1.1925
0.0234151
1.24045
0.252916
-0.746717
-0.556145
1.10948
1.15382
-1.31274
1.00218
-0.737909
0.954546
-0.842217
1.16102
1.13749
1.198
-2.15752
1.07984
-1.09854
-0.671267
1.35156
-1.70267
-1.84228
1.28824
-1.11278
1.27311
-1.52844
-0.742924
1.20716
0.965114
1.54092
1.18161
-1.23624
1.26664
1.25489
-0.94282
0.777097
-0.0233186
-0.695692
1.67487
-0.785863
1.30553
-0.770021
0.487245
1.18239
-1.04443
1.16532
-1.59483
1.08047
1.13608
1.19679
0.108297
-0.797552
-0.415376
0.768319
0.850007
1.25263
-0.225412
0.979221
-2.19342
-0.310077
-1.31642
1.01913
1.32948
-0.7782
-0.854313
-0.083517
1.41676
-0.188064
0.880633
-0.222504
-1.19391
-0.805486
-0.741416
-1.22185
0.952257
-1.75615
-0.165735
-0.206819
-0.404639
-0.764494
-0.995522
-0.307591
1.14468
1.20101
-0.996439
-0.310921
1.16118
1.12196
1.20166
-1.2742
1.15799
1.24202
1.18057
1.24328
-1.39673
-0.112881
-0.733588
0.75948
1.18665
0.892101
0.340831
-0.0826874
-2.25678
0.128638
1.44239
-0.139826
0.378142
-0.527768
-0.0854081
-0.815619
0.934586
-0.726454
-1.10018
-0.757865
1.18005
1.18437
1.19075
0.0193819
0.473295
1.41916
-0.126578
1.18072
-0.0838803
-0.0112363
0.909353
1.20011
1.25952
0.0468035
1.15145
1.15123
-1.04061
-0.0672816
1.19138
1.20407
1.20164
-0.768035
-0.797384
1.2018
0.795513
1.18471
0.338164
-0.00431856
0.19939
-1.8862
-0.456508
-0.740045
-1.53308
-0.592459
1.20738
1.21192
0.901003
-0.762455
1.17996
-0.117251
-0.0309067
0.00787031
1.18244
1.207
1.2027
1.21454
1.19127
1.18434
1.17418
-0.0647369
0.0367052
-0.119568
-0.134138
-0.0105284
0.0229806
0.014877
-0.0981483
-0.125392
-0.097038
-0.101297
1.17721
1.1968
1.19144
1.214
1.21135
1.20286
1.20569
1.18634
1.18896
-0.128287
-0.0698358
1.20302
1.20249
-0.00682075
1.20467
1.20288
0.0209879
0.284557
-0.10651
-0.738301
-1.71928
1.18499
-0.885861
1.18358
0.814965
1.26264
-0.781934
1.18387
1.11668
1.13373
-0.731638
-0.32159
-0.911137
-0.0788395
0.0760112
-0.729234
1.1975
0.184162
1.27394
1.18835
-0.0560982
1.35409
1.51087
-0.00165507
1.03602
0.851786
1.18082
1.19941
1.19289
-0.781335
0.622193
0.0590918
1.18724
1.19824
-0.881293
0.213529
1.18866
-0.013355
-0.225423
1.18888
-1.07327
1.16547
1.20057
-0.87732
1.19518
0.344627
1.18596
1.25642
-2.01643
1.2015
1.20865
0.111075
0.835942
1.18759
1.19102
0.292277
-0.637103
0.903701
1.53309
1.19673
1.18935
1.1929
0.350961
1.18935
1.17712
1.19382
1.18888
1.19062
1.18824
1.28972
-0.800435
-2.13369
1.19083
1.18345
0.417253
-1.06995
-0.828318
-0.886522
1.04117
-1.39473
-0.752555
0.102772
1.18599
0.916559
0.141328
0.125805
-0.0509728
-0.610523
-0.739568
0.287339
-0.808464
-1.12957
-0.216967
1.19378
0.190189
1.18112
1.09307
-0.76586
1.42957
-0.538879
-0.919437
0.943955
1.31212
0.596973
-0.756068
1.1821
0.25515
1.19166
-0.855071
1.19212
-1.05402
1.18346
0.17104
-0.865982
1.19397
1.20979
1.11905
0.22137
-0.750308
-0.591381
0.235955
1.20681
1.07585
0.267758
1.18265
1.22724
1.1745
0.344647
-1.69545
-0.482747
-1.52694
0.507885
1.18939
-0.0602565
1.18836
-1.40333
1.18448
1.22321
1.19585
-0.0708037
-0.0469507
1.22144
-0.879538
1.19799
1.2013
0.198906
-0.816063
1.11337
1.31999
1.18116
1.17598
0.365469
0.171069
1.15947
0.601262
1.19622
1.03241
-0.781153
-0.804445
1.01742
1.43396
1.18416
0.533252
-0.843539
0.473825
-1.5952
-0.755917
1.17277
-1.09506
1.16773
-1.20299
-0.774317
-0.773009
0.599306
-0.866016
-0.575549
-0.568756
1.18154
-0.754362
1.08349
-0.789127
0.0197918
0.0704681
0.130874
-0.5848
1.15303
0.149665
-0.615799
-0.256344
-0.840969
1.17691
-0.770419
0.105137
-1.32467
1.26392
-0.363245
-0.786258
1.25375
1.17392
1.16501
0.671669
-0.71745
1.18773
1.21365
-1.4925
-0.75494
1.18106
0.983756
1.43862
1.20154
-1.24944
-0.902624
-0.767906
-1.05422
-0.882967
-0.761378
-0.0311439
-0.916205
0.988187
0.170121
1.19385
1.39572
1.17949
-0.753539
-0.921079
1.18316
-1.24739
-0.661842
1.16705
-0.152208
-0.705549
-1.48316
0.0937115
1.12622
1.09635
-1.28935
1.02727
0.841525
-1.53585
1.1721
-1.24307
0.982056
-0.674282
1.17394
-1.68789
0.613585
1.18426
1.27583
-1.46804
-1.41433
1.00178
1.55903
1.20476
1.19821
-1.09
1.42944
-0.707934
-0.358336
-0.62092
0.660335
-1.58696
1.29599
1.34683
-0.794361
-1.4647
1.17998
-0.726421
1.0426
1.21376
1.14449
-1.39887
1.18449
-0.0515788
1.21313
-0.0298347
-0.266257
-0.000867537
1.18789
-0.0371606
-0.353375
-0.511961
1.19076
-0.500609
1.37653
0.452803
1.51462
1.16639
-0.720309
1.16929
-0.740213
1.15324
1.15529
-0.257548
-0.510415
1.30973
1.17083
1.41232
1.1352
0.274672
1.13715
1.17693
1.04026
1.19138
-0.803464
-0.86499
-1.26047
1.28774
-1.53793
-0.777506
-0.735679
-1.62377
-0.258299
-0.0109105
1.04482
-0.0634039
1.14459
1.19838
-0.759258
-1.05155
-0.77939
-1.23199
-0.807274
-0.743093
1.18662
-1.59346
1.20142
1.42189
1.24292
-0.0643071
1.20805
1.11263
-1.44125
1.14978
1.16471
-0.788564
1.16504
1.12253
-0.0294975
-0.901232
1.64336
-1.80313
-1.06162
-0.898185
0.427765
1.16574
-1.10719
-0.85531
-0.727741
1.32096
-1.06232
1.03279
1.19786
1.17355
-1.26155
1.15984
-1.53802
1.19737
1.21206
-0.30063
1.20245
0.672475
1.1786
0.901524
-1.33309
0.0508644
0.0420642
0.0985096
1.42778
-0.135941
1.21251
1.58441
-0.673792
-0.061662
1.25195
-0.0822764
1.24872
-0.0373832
-0.0609891
1.24759
1.25208
0.615281
-1.17882
0.940416
-0.634777
-0.800992
-0.558246
1.20755
1.18631
1.60556
-0.755881
-1.12224
0.931452
-0.917698
1.25944
1.1723
1.17992
1.17478
1.14656
-1.90599
-0.763275
-1.07226
0.987024
1.10083
-1.63031
-0.747962
-0.791401
1.20171
1.22205
-1.30119
-1.43224
1.22192
-1.28403
0.369206
0.954016
1.10649
-0.2232
-0.943742
-0.0894129
-0.805711
-0.672454
-1.96571
-1.5965
1.55601
1.5601
-0.710501
-0.758527
1.20108
1.17794
-0.888951
0.123864
-0.162927
0.829854
1.28209
-1.24114
1.19256
-1.37766
-0.93155
-0.770564
-1.03944
-0.823956
1.17308
-0.790565
-1.37671
1.55395
-0.804953
1.19332
1.41745
-0.748731
1.23455
1.43819
-0.763046
1.43743
-0.817036
-0.950242
1.20481
0.157573
1.20503
1.19575
-0.820143
1.24816
0.3393
-2.07629
1.22818
1.22262
-0.696104
-1.13363
1.12732
1.18598
-0.807892
-1.37778
1.47823
-0.818745
1.09017
0.10455
1.13214
-0.726905
-2.15832
-0.793233
-0.752934
1.28359
1.2222
1.47497
1.40005
1.16588
1.24756
1.25355
-0.787808
1.3252
1.3333
-0.767542
-0.817735
-0.835604
1.51982
-1.66991
-0.928327
0.141018
1.12476
-0.771181
-0.675759
1.20985
1.21195
-0.799023
-0.755448
-0.899709
0.198269
-1.33632
-0.767452
-0.781976
1.07725
1.08634
-0.745096
-0.313309
-0.666468
1.02773
-0.817633
-0.737408
-0.776907
1.1382
-1.36928
-0.759472
1.51425
1.08929
0.585468
1.38554
0.0312556
1.17282
1.19809
1.31165
1.39825
-0.230297
0.866694
1.19721
0.460581
-0.771185
1.61536
1.15571
1.10481
1.25282
-0.764306
-1.70439
1.04908
0.98231
1.15457
-1.93204
-1.82953
1.17636
-0.773192
1.01998
-0.0371343
1.61206
-0.766639
0.921845
0.932721
-0.737433
-0.762625
-1.05899
1.25241
-0.739698
-0.75708
0.895985
0.803066
-1.0586
1.25493
1.03327
-0.741938
-0.609806
1.13727
-2.12213
-0.759179
-0.880962
-0.729341
-0.835619
1.16405
1.20076
-2.13452
0.814659
1.19335
1.53449
0.473882
0.472699
0.196445
1.07861
-0.252491
-0.735739
-1.47443
-0.43737
-0.734031
1.17795
-0.729909
0.361651
-0.756068
0.734351
0.766341
-0.7318
0.833572
-2.06425
0.693978
-0.730074
0.658692
-0.736694
0.587466
-0.752521
0.573958
-0.72845
1.01494
-1.41769
-0.730801
-0.739406
-0.754444
1.20292
0.288533
-0.769053
-0.757105
0.227157
0.281162
-0.72562
-0.762917
-0.81239
0.0801544
-0.771155
0.0623209
-0.802685
-0.146404
-0.890881
-0.0871565
1.06825
-0.0876252
-1.65417
1.16537
0.0823905
-0.103704
0.647527
1.16094
-1.23261
-2.00946
-0.752896
-1.25087
1.08595
1.61182
-1.00056
-0.181372
0.217263
-0.794478
-0.234993
-0.169505
1.15605
-0.724217
1.1459
-1.12836
1.68002
0.648685
1.60398
-0.751804
1.38048
-0.397465
1.20549
-0.905028
-0.750886
1.26698
1.18611
-1.33086
-0.756361
-0.735548
1.15571
-0.716553
1.17097
-0.899918
-0.84425
-0.79447
1.4963
1.2238
1.30342
1.20148
1.20441
-0.0455994
-0.429237
1.39916
-2.03859
-0.753932
1.61139
-0.747908
1.09195
1.14797
1.56102
1.61352
-0.752017
-1.22184
1.22624
0.422183
-0.258042
-0.691895
-1.13666
-2.34124
-0.751819
0.743908
-1.15147
1.39147
-1.24698
1.23382
1.32244
1.22291
-1.04351
-0.736837
-0.889674
1.2774
-0.794977
1.36655
-0.573284
-0.900032
1.43198
1.49242
-0.743278
0.266844
1.13742
-1.03235
-0.949638
0.858525
1.46813
1.41384
-0.924299
1.05889
1.02946
-0.750351
1.4254
0.464135
-0.747905
-1.15965
-0.0833259
-0.0525773
1.30563
-0.717411
0.441835
0.125067
-0.101021
-0.646165
-0.74415
1.17532
-1.30266
1.20741
0.072004
0.281468
0.886324
0.446146
-0.740145
-0.465238
-0.962189
-0.102746
0.142456
-1.01727
1.12074
-1.64666
-1.67989
1.19553
-0.957814
-0.768748
1.20101
-0.796492
1.1578
-0.00703432
-0.776681
-0.153181
0.985211
-0.63307
-1.42739
1.08233
-0.820951
1.26362
-0.375763
-0.854773
-0.777365
-0.753196
1.67023
-1.52376
1.31619
0.183154
1.15318
1.3751
0.916958
1.21692
1.35131
-0.00125751
-1.43429
1.16242
1.28495
1.54681
-0.79788
1.23441
0.852616
-0.81407
0.98164
1.39751
-0.433339
1.54001
0.312627
-0.694311
1.0269
-0.819134
-0.734342
1.13687
-0.319931
1.24815
1.24612
1.14362
-0.726255
1.08895
1.45743
-0.960605
-0.186266
-1.40516
-1.07336
-0.841504
-0.758601
1.53664
0.942069
-0.76002
1.10199
-0.820816
-0.759028
1.45762
1.41958
-1.29939
-1.16781
-0.75384
-0.803452
1.16797
-0.766581
0.264544
-0.684441
-0.313812
1.25455
-0.814839
1.58643
1.23353
1.07343
1.20973
1.49887
-0.934533
-0.822015
1.20786
1.33477
-0.632826
1.19795
-1.70809
-0.791738
-0.800156
1.27324
1.30419
-0.797654
-0.779044
0.743459
0.107499
-0.9586
1.16711
1.14763
-1.18042
1.18874
1.23241
-1.0837
-0.769648
-0.746289
-0.786187
-0.801409
1.49846
-0.66904
1.10014
-0.772591
1.49452
1.05619
1.05053
1.12905
-2.23589
-1.19396
-0.780423
0.702637
-0.758721
1.11033
0.486626
-0.447759
1.04481
1.19481
1.2265
1.19395
-0.0639846
1.22746
-0.0385466
0.607914
0.976508
-0.435589
-0.767058
-0.828466
-0.558587
1.19927
1.15848
1.19928
-1.46496
-0.601426
-0.77487
-0.672394
1.19548
1.47983
1.20916
-0.763048
-0.702167
-1.00876
-0.408604
-0.754789
-0.754245
-0.0623101
1.18046
-0.651545
-0.743996
0.0943564
0.095692
0.898744
-2.07198
-0.770076
-0.92052
1.12094
1.6177
0.15723
1.29199
1.67683
0.836521
1.39533
-0.771429
0.0856658
1.57987
-0.765183
0.50244
-0.7546
-0.806083
-0.731174
-0.738867
1.17167
0.923581
1.38351
1.34433
0.0207049
0.970044
0.197075
0.0671872
-0.760427
1.30005
0.900545
1.20454
1.22071
-0.112082
-0.138399
1.21941
-1.15167
-0.755595
-0.741299
-0.741852
0.782891
-0.736702
1.15161
0.860308
-0.764916
1.41835
-0.759385
-0.185537
1.17225
-0.68272
-0.793198
-1.82947
0.77089
-0.747312
-0.939058
1.09583
1.21248
-0.113494
0.219389
-2.01668
-0.757077
-0.813861
-1.12306
-0.0218207
0.793051
-0.921531
-0.735099
1.45598
0.422433
0.526405
-0.733189
-0.811795
1.18899
1.23426
0.6985
0.728452
-0.730696
-0.786172
-0.588207
0.619747
0.636656
-0.728711
1.01611
0.302328
-0.726878
1.63941
-0.731792
-1.53024
-0.801309
-0.680801
1.03305
-0.749633
-0.75822
-0.761357
0.200323
-0.787384
0.154515
-0.706665
-0.0720216
1.36572
-0.844682
0.0184973
-0.786869
-0.0284247
1.5349
1.57914
1.4215
1.19501
1.3975
-0.589923
1.17993
-0.762832
1.23181
-0.753719
-0.760866
1.44882
-0.973043
0.668697
-1.21066
1.58485
0.0898211
1.52255
0.769053
0.943413
-0.750513
-0.753733
-0.75187
-0.854575
1.49846
1.3827
1.17704
0.820179
1.18414
1.0575
0.989092
-0.728052
-0.797593
0.419082
0.192831
0.963121
1.19722
0.161508
-0.745867
-0.726485
-1.18489
-0.751145
-1.39123
1.52729
1.21547
1.19159
-0.0874568
-0.122942
1.21536
-1.13508
-0.75771
-2.23625
-0.80801
0.951039
-0.741751
-0.731458
-0.124532
1.18848
-1.4489
-0.799792
1.18338
0.801156
0.907283
1.18078
-0.754928
1.04124
1.37582
1.02923
-0.751956
1.1801
0.547436
0.618989
-0.821355
-0.737868
1.63531
0.429855
-0.882927
0.199826
1.0794
1.14705
-0.774966
-1.11274
-0.0718244
-0.662846
-0.693424
-0.7621
0.0417043
1.1757
-0.919053
1.17071
1.46391
1.27956
1.16947
1.26709
1.33001
1.18521
-1.13145
-0.465071
-0.279254
-0.82731
-0.730637
-0.730868
1.33277
1.23039
-0.815739
1.15407
-0.665663
-0.135629
-0.731492
-0.404147
0.727057
-1.04185
1.17203
1.07791
-1.05266
-0.206137
1.52374
-1.35133
-1.17806
-0.905498
-0.765482
-0.704893
1.23083
0.938181
1.28351
-0.968898
-0.939611
-0.729459
-0.231258
-0.816865
-1.41479
-1.10035
-1.79317
1.08287
-0.579898
1.63499
-0.979986
-0.404038
-0.786199
-0.730316
1.11976
-0.808895
-0.935477
-0.76858
-0.200818
1.37931
1.40775
-2.24106
-1.30135
0.990039
-0.770589
-0.710493
1.29342
-0.970999
-1.40358
-0.828962
0.914456
-0.264314
-0.816766
1.1759
0.162384
-0.74369
1.18682
-0.693645
-1.22214
-0.969288
-0.806701
0.0811028
-0.816414
1.50506
-0.767637
0.338611
-0.754924
0.957431
-0.588648
-0.768792
0.810536
0.951937
1.24344
1.15183
1.36257
-0.747186
1.03661
0.739882
-1.01712
1.10714
-0.243107
-0.599137
-1.63081
1.36708
1.35339
-0.637628
-0.742593
-0.963274
1.18944
-0.7284
0.204033
-1.06762
-0.735267
1.46828
1.18946
-0.751948
-0.730527
-0.752333
-0.745437
1.07552
-0.776451
1.15393
0.380722
0.871557
1.00231
-0.713182
-0.770637
1.11289
-0.732633
0.0456037
1.4664
-0.777975
-0.742477
0.986813
-1.02117
-0.746795
-0.0356985
-0.793024
1.54012
-0.461654
0.310974
-0.75399
1.4882
-0.757536
-0.724491
0.805619
-1.02387
-0.753856
1.52195
0.836256
1.19575
-0.755306
1.41728
-0.276045
-0.680808
-0.76249
-0.766461
-0.760817
1.45074
0.736341
-0.796537
-0.75803
-0.812418
1.30763
-0.66977
1.46498
-0.754203
0.879069
-0.740243
0.527628
0.698542
0.663385
0.580584
0.372575
-0.696356
1.1849
-0.764484
-0.564618
-0.945184
0.46014
1.50488
-0.162991
-0.750738
-0.772579
-0.741878
0.419227
-0.973215
-0.738763
1.03399
0.36827
-0.74687
1.56879
-0.814312
-1.31427
1.54474
-0.743219
0.302922
-0.681657
-0.730569
-0.737417
1.54408
-0.726902
1.46365
-0.736212
-0.76017
1.35652
-0.090436
-0.719083
0.726105
-0.792764
0.166512
-0.261805
-0.738689
0.997317
-0.865759
-0.73885
-0.731456
-0.732078
-0.760023
1.03481
-0.00908924
-0.342157
-0.749232
1.49091
-0.669297
-0.740294
-0.711746
0.0155525
-0.86269
-0.717542
-0.747302
0.0531623
1.43257
-0.763171
-0.749941
-1.02169
-0.593102
-0.0912054
-0.765494
1.57641
1.51006
0.571606
-0.813722
-0.757151
0.485034
-0.757466
1.58844
0.362299
1.26054
0.862996
1.47002
0.242273
-0.874337
-0.841182
0.0865433
-0.764791
0.0870556
0.0699526
-0.736348
1.4862
-0.170387
0.373742
-0.315972
-0.746844
-0.849263
)
;

boundaryField
{
    frontback
    {
        type            empty;
    }
    Top
    {
        type            zeroGradient;
    }
    outlet
    {
        type            fixedValue;
        value           uniform 0;
    }
    bottom
    {
        type            zeroGradient;
    }
    Inlet
    {
        type            zeroGradient;
    }
    rectangle
    {
        type            zeroGradient;
    }
}


// ************************************************************************* //
