/*--------------------------------*- C++ -*----------------------------------*\
| =========                 |                                                 |
| \\      /  F ield         | OpenFOAM: The Open Source CFD Toolbox           |
|  \\    /   O peration     | Version:  2306                                  |
|   \\  /    A nd           | Website:  www.openfoam.com                      |
|    \\/     M anipulation  |                                                 |
\*---------------------------------------------------------------------------*/
FoamFile
{
    version     2.0;
    format      ascii;
    arch        "LSB;label=32;scalar=64";
    class       volScalarField;
    location    "39.2";
    object      p;
}
// * * * * * * * * * * * * * * * * * * * * * * * * * * * * * * * * * * * * * //

dimensions      [0 2 -2 0 0 0 0];

internalField   nonuniform List<scalar> 
2186
(
1.29246
0.358924
0.625889
1.60119
-1.04161
-0.360383
1.25732
-0.236253
-0.00829935
1.80359
1.30206
-0.159893
-0.256769
1.43689
0.162032
1.41742
1.45675
-1.21243
-0.224432
-1.01417
1.79226
-0.97112
1.44244
-0.22724
1.43386
1.57832
1.65301
1.45582
0.767965
1.43606
-0.982043
1.43413
-0.955854
-0.151581
-0.171074
0.192357
-0.246061
1.7655
-0.803411
-0.302947
-0.259058
-0.937032
0.0617983
-1.11884
1.18272
1.78306
0.971702
1.11545
-0.298335
-1.07351
-0.994237
1.11986
0.0699015
1.66939
-0.994671
1.49799
0.0151013
1.52295
-0.894783
1.31766
0.0472153
0.850686
0.731849
-0.216423
0.7712
1.06304
0.860288
1.69473
1.58973
0.0294384
-0.226814
0.0317321
1.69312
1.53278
1.5434
1.68
-0.290359
1.44964
-0.173405
-0.864283
-1.49918
-0.216333
1.43048
0.824567
1.42904
1.43248
1.66725
-0.398518
0.429914
-0.179392
1.49544
-0.988836
1.40209
1.63592
1.44229
0.566043
0.517296
0.798763
-1.05405
1.53353
-1.70468
-1.66187
0.872482
1.41465
1.45914
-0.988116
1.50985
0.182192
1.46895
-0.793599
-0.829164
-1.04335
1.14039
1.64357
-0.0382123
-0.447354
0.291379
-0.165348
-0.179842
1.70616
0.0289596
-1.16395
1.07434
-1.35813
1.424
0.194533
-1.04157
1.66596
-1.22458
1.24138
1.87219
1.75399
0.872311
1.23397
-1.54957
-1.09504
1.47254
0.0410309
-0.446571
-0.181605
1.00677
0.480951
-0.228308
1.27873
1.40137
1.43295
0.196863
-1.03622
1.1917
-1.08167
-1.01162
1.17075
1.453
1.70118
1.57491
1.12421
1.64555
0.627802
0.506938
1.03299
-0.17919
-0.202785
1.36784
1.51881
-0.329325
-0.106043
-0.105202
-0.182395
0.718959
0.774521
0.497865
1.53589
1.45694
1.63831
0.568723
-0.220682
-1.03381
1.36802
-0.475335
1.10411
-0.177753
1.44606
-1.00141
0.719761
0.687048
-1.01749
-0.666898
1.41321
-0.449518
-0.302845
-0.847309
1.6585
-1.15957
1.49804
-0.176044
-0.972832
0.149846
1.57118
1.3366
-0.986952
-0.184507
-1.077
0.732831
1.47205
-0.170189
-1.02752
-0.184181
0.133547
1.31989
-0.520024
1.11466
0.242938
1.63748
1.04222
1.15484
1.49309
1.47952
1.43474
1.45153
1.40289
0.993405
-0.494838
-0.984509
0.17996
0.828208
-1.22732
-1.03669
1.30068
1.61268
-0.233378
-0.116841
-1.23444
0.989006
1.23125
1.30163
1.45442
1.65282
-1.35873
1.43178
-0.195158
-1.07627
-0.485122
1.25462
0.926243
1.44031
1.6164
1.39433
1.36226
-0.207057
1.39141
1.47488
-0.229049
1.23674
0.981914
-1.42974
-0.165229
-0.149853
1.43908
1.44583
-0.278396
0.0668501
0.848577
1.50675
-1.44407
0.978665
1.36777
1.35906
-0.138481
-0.990115
1.42779
0.864791
0.22186
-0.413349
1.70252
-1.02649
-0.216117
1.33997
1.70741
1.43257
-1.04587
-0.400621
0.0673851
1.21678
-0.243863
1.14435
1.42059
1.5387
0.491996
0.314136
1.34348
-0.140393
1.46142
1.71879
1.44314
1.44082
0.743442
-1.06667
-0.238332
-0.104275
-0.450069
-0.933106
0.998487
0.175263
0.78209
1.69722
1.50298
1.2088
0.146921
1.51874
-0.140336
0.0706987
-0.217481
-0.175459
-0.336306
0.970759
-1.01028
-1.00171
0.251263
1.24558
-0.408936
0.512171
-1.03197
0.447145
-0.365576
-1.03352
1.63354
0.036027
0.0380005
-0.983852
1.36093
0.775823
-0.335927
1.11312
-1.20658
-0.305242
0.844505
1.46331
1.34866
-0.920361
1.56819
1.44882
0.513635
1.76111
1.40924
1.40455
0.982752
0.46767
-0.184735
1.12546
-1.09979
-0.178607
-0.166901
-0.573615
-0.185973
1.69721
0.6666
-0.993486
-0.21725
1.40991
-1.04338
-0.762076
-1.06625
1.33558
0.604808
-0.303857
1.63275
1.69898
1.65989
-0.231164
-0.161759
1.70704
1.41835
-0.897984
0.611442
-0.198544
0.815224
1.53924
1.27176
1.37634
1.78315
0.246031
0.413339
-0.152938
-0.177521
0.0146122
-0.949411
-0.288247
1.6224
-1.32805
0.0188392
1.39599
1.17922
-0.168324
-1.54694
-0.187573
-1.14929
-0.23918
-0.174094
-0.981787
-1.02319
1.65329
0.812477
-0.448185
1.44735
-0.16413
1.77615
-0.565272
-1.13043
-1.07949
1.432
-0.173908
1.44475
1.4118
0.399343
1.54066
-1.19548
-0.173074
-0.195521
1.55753
1.40728
-0.162285
-0.198869
-0.235449
1.26419
-0.221696
-0.0448039
0.66552
1.27996
1.37094
1.24616
-0.171746
-0.437864
1.14027
-0.0266272
1.32183
-0.721538
1.45212
0.0144524
1.65406
-0.178284
1.41704
0.957006
1.45123
-0.153954
1.39787
-0.271623
-0.170867
1.43485
-0.880987
0.25421
-0.560032
-0.0546848
1.42115
0.774662
0.918974
1.40541
0.34964
0.592684
0.259921
-0.993513
0.887577
-0.278067
0.934887
-0.77709
1.34452
1.66834
-0.205746
-0.174572
0.586305
-0.974351
0.590621
-0.393562
1.05642
0.661942
-0.273783
1.44804
0.706497
0.502743
0.927411
0.617157
1.01191
0.469611
0.284135
-0.972553
0.606134
-0.963028
1.44024
-1.00808
1.58564
1.74183
1.72492
0.854845
1.45639
-1.03006
-0.90742
1.37704
0.855921
1.39788
-0.944083
-0.293943
-0.52989
1.32546
-0.170487
-0.355179
-1.01347
-1.06263
-0.293387
0.111979
0.963202
0.975333
-0.459066
0.120614
1.32703
0.729819
1.42001
-0.602483
-0.154193
-0.170339
0.968497
0.0993121
1.70212
1.72323
-0.725413
-1.03447
-0.0919554
0.429908
-1.62019
1.58306
0.0911866
1.54395
1.04198
-0.231201
1.17503
1.13772
-1.22268
1.36628
-0.217275
-0.993712
-0.512017
-0.148568
-0.278836
-1.31625
-0.505392
1.43741
0.323519
-1.03229
1.18637
1.58002
1.73222
0.361994
1.29145
0.892414
1.35204
0.132237
-0.632737
-0.996735
0.662755
1.06675
1.37044
-0.115
-0.176803
0.0259282
-0.184234
0.561401
1.30722
-0.0295161
0.0766818
-0.384258
1.21138
-1.1865
1.33717
0.148919
-0.233956
1.41051
1.2184
-1.21815
-0.141331
1.35509
1.79837
1.45386
-1.28659
-1.27348
1.35848
0.257401
1.3439
-0.588652
0.597468
1.35092
-0.323361
-0.991176
1.32405
-0.102565
1.56361
0.237272
1.44145
0.0272726
1.20459
-0.116771
1.69546
-0.992365
-1.42321
1.21304
0.690871
0.68903
-0.271687
-1.00198
0.0345584
1.0773
0.596734
-0.487166
-1.13875
1.44202
0.551575
-1.1797
0.998176
1.1529
1.38084
-0.233695
-0.869401
-0.991413
1.44518
1.48077
1.09971
1.44243
-0.0140866
1.56603
-0.228413
0.140141
-0.215779
1.39708
1.42392
-0.341016
1.07971
-0.995331
1.07685
-1.02424
1.26567
1.47334
1.44099
-0.455792
1.20298
-1.46101
-0.593548
1.62043
-0.771022
-0.801144
1.46058
0.0463648
1.39814
-1.24852
-0.9976
1.31393
1.35027
1.8507
1.43163
-1.44324
1.6234
1.41691
0.707978
0.823
0.0440761
-0.109885
1.9158
-0.184376
1.45283
-1.0158
0.930663
1.43278
-0.323852
1.38833
-0.22644
1.17468
1.41823
1.45319
0.189251
-0.336649
0.123859
1.15526
1.21413
1.56794
0.0906657
1.05888
-0.384467
-0.296868
-0.85795
1.3899
1.67831
-1.1033
-0.107993
0.144401
1.62952
0.613886
0.947048
0.322961
-1.78646
-0.211653
-0.984634
-1.20227
1.09875
-1.07935
-0.279197
-0.302693
0.24077
-1.03522
-0.197259
0.0205397
1.36455
1.44715
-0.299629
0.385224
1.38646
1.40648
1.45031
-1.60168
1.38094
1.54397
1.4415
1.60282
-0.924818
-0.165122
-0.992578
0.808056
1.44608
1.28934
0.801743
0.195931
-0.783861
-0.197646
1.7728
-0.0868388
0.0519967
0.151511
0.122535
-0.247229
1.02715
-0.189263
-0.126583
-0.172703
1.41306
1.43579
1.42563
0.257439
0.485497
1.76137
0.151263
1.43835
-0.121983
0.457462
0.992024
1.44322
1.37299
-0.327811
1.36908
1.37259
-0.581463
-0.0299345
1.42698
1.44271
1.4441
-0.170898
-0.229731
1.44589
1.20187
1.43469
0.315509
-0.0910357
-0.0462302
-0.400175
-0.190679
-0.994042
-0.0381016
0.535502
1.44828
1.45215
1.03673
-0.194244
1.4122
0.0195772
-0.0245226
0.0561606
1.438
1.45351
1.44662
1.45329
1.42727
1.41782
1.4042
0.595349
0.143399
-0.0815646
-0.119297
-0.113077
-0.139516
0.0208146
0.325441
0.246464
-0.0216841
0.18052
1.43466
1.44861
1.4444
1.46297
1.45843
1.44751
1.44746
1.44079
1.42382
0.230959
-0.0680538
1.44558
1.44786
0.0113757
1.45089
1.44613
-0.27099
0.0260941
-0.140623
-1.06018
-0.885644
1.42639
-0.24047
1.43073
1.19272
1.60796
-0.181748
1.4335
1.32334
1.40576
-0.991987
0.284112
-0.306334
-0.139399
0.0168172
-0.986629
1.43484
-0.137733
1.51622
1.42765
-0.143345
1.47606
1.64936
0.13559
1.19941
1.25215
1.41865
1.4378
1.44064
-0.185058
0.649808
-0.407286
1.42851
1.44537
-0.38638
-0.104716
1.42823
-0.432606
-0.341829
1.43094
-0.0732682
1.39196
1.44054
0.0958964
1.44331
0.169843
1.43182
1.45232
-0.787216
1.45227
1.45838
-0.312536
0.93929
1.43771
1.43146
0.250621
-0.858616
1.30161
1.85328
1.43676
1.43822
1.43566
0.188774
1.43523
1.43522
1.43431
1.4323
1.43244
1.43696
1.50418
-0.979646
-0.149238
1.43762
1.42358
0.440418
-0.112417
0.583893
-1.1531
1.22585
0.00477656
-1.44877
-0.117974
1.42989
1.30157
-0.270391
-0.107646
-0.14252
-0.582575
-1.02967
0.301639
-1.36673
-1.32404
-0.339264
1.44042
0.0847002
1.42678
1.29435
-0.175865
1.57221
-0.859073
-1.1434
1.28475
1.42936
0.616969
-0.174172
1.41537
0.140245
1.43625
-0.748547
1.4382
-0.0953029
1.42598
0.418146
0.355701
1.43805
1.4557
1.29969
-0.0337607
-0.1804
-0.856236
-0.193737
1.45699
1.27091
0.0819337
1.42104
1.46853
1.40624
-0.434884
-1.07738
0.0871341
-1.63189
0.956986
1.42662
0.2084
1.43542
-1.66309
1.42405
1.46292
1.44148
-0.0243718
0.056606
1.47022
-0.212963
1.44403
1.44521
0.681847
-0.241896
1.20874
1.47673
1.4246
1.40873
-0.547229
-0.848908
1.4235
1.03391
1.44082
1.41237
-0.972048
-0.220209
1.19433
1.71908
1.42032
0.971891
-1.34766
-0.0324984
-0.767804
-1.47793
1.43427
-0.396518
1.39604
-1.1319
-0.175484
-1.03422
0.656757
-0.146977
-1.22945
-0.758299
1.42409
-0.175537
1.17605
-0.190971
0.512903
-0.758213
-0.203322
-1.20436
1.37584
-0.251608
-0.113827
-0.676279
-1.01502
1.43406
-1.1514
-0.263979
-1.88427
1.41966
-1.02603
-0.190989
1.49284
1.43222
1.43008
1.08412
-0.153617
1.42182
1.43739
-0.818328
-1.00738
1.42483
1.37155
1.59521
1.43973
0.325766
-0.889443
-1.01428
-0.434489
-0.97559
-0.171091
-0.0396471
-0.101534
1.37434
0.649282
1.44604
1.58432
1.41429
-0.181501
-0.174442
1.42454
-0.0537334
-0.133503
1.42757
0.487362
-0.991826
-1.50299
-0.382628
1.32857
1.29414
-0.987657
1.34789
0.913039
-0.700583
1.43347
-0.183377
1.13939
-0.972851
1.49715
-0.608029
1.03903
1.42694
1.39021
-1.55969
-0.902617
1.16872
1.78941
1.44569
1.30892
-0.813869
1.77036
-0.111227
-0.206543
-0.0583449
1.0863
-1.20553
1.52958
1.67866
-0.199784
-0.618502
1.41537
-0.614627
1.40073
1.45406
1.3451
-1.40079
1.42455
-0.172586
1.46086
0.0804966
-1.08494
-0.0876684
1.4291
-0.135382
-0.502284
-1.33933
1.48259
-1.30539
1.51955
0.901579
1.66375
1.26814
-0.856364
1.43452
-0.993438
1.36505
1.37914
-0.0114856
-1.44537
1.44212
1.39999
1.54712
1.34924
0.746512
1.3416
1.44197
1.19276
1.42897
-0.141743
-1.05266
-0.531944
1.57056
-0.375126
-0.547091
-0.99344
-0.47003
-1.13839
0.368829
1.13159
-1.06812
1.4189
1.48235
-1.01015
0.0103208
-0.754032
0.0480543
-1.06699
-0.997275
1.41637
-0.803428
1.44028
1.74
1.48686
-0.124278
1.4469
1.31922
-0.135645
1.4334
1.38956
-0.923878
1.392
1.22358
-0.402145
-0.604306
1.90358
-0.459328
-0.842735
-0.258823
0.879583
1.4269
-1.06851
-0.827224
-0.984157
1.53463
-0.421696
1.12147
1.42087
1.44377
0.0106311
1.44833
-1.16795
1.43424
1.45051
-0.380019
1.44314
0.701887
1.44839
1.28181
-1.83427
0.0053723
0.110672
-0.0173418
1.60031
0.291817
1.43004
1.76677
-0.455357
0.0115857
1.50021
0.0311369
1.49758
0.0983339
0.210524
1.48651
1.49144
1.04701
-0.123929
1.01633
-0.935284
-1.03562
-0.752356
1.44202
1.4622
1.91201
-0.175189
-0.0148177
1.32677
-0.341535
1.46671
1.31841
1.46265
1.4067
1.41682
-0.517688
-0.172764
-0.293361
1.11935
1.29508
-1.62184
-1.00043
-0.191743
1.44875
1.49085
-0.378196
-1.14308
1.45796
0.128075
0.403281
1.02563
1.19972
-0.166764
-0.278268
-0.139271
-0.350427
-0.930662
-0.0979433
-0.174134
1.88385
1.69542
-1.09968
-0.409111
1.44657
1.42479
-1.03507
0.623908
0.348882
0.890494
1.50607
0.0114336
1.42967
0.591236
-0.256541
-0.918213
-0.949846
-1.1068
1.44852
-0.357777
0.0494593
1.72319
-0.319036
1.43219
1.57918
-1.00123
1.59607
1.7801
-1.04398
1.56414
-0.291461
-0.235082
1.36202
-0.689346
1.56886
1.43727
-0.269189
1.52344
0.801147
-0.626021
1.45856
1.58535
-0.131877
-0.345239
1.31974
1.42379
-0.222339
-1.80408
1.60782
-0.251161
1.27818
0.240328
1.42454
-0.1778
-0.479781
-0.192258
-1.0547
1.39654
1.49875
1.81321
1.5248
1.26663
1.47859
1.36605
-0.185479
1.44323
1.68399
-1.02438
-0.236034
-0.921768
1.65284
-0.0171909
-0.218499
-0.242088
1.2204
-1.03249
-1.12924
1.31624
1.57607
-0.200597
-1.0089
-0.225523
-0.122805
-1.88672
-1.03602
-0.179657
1.16632
1.46516
-1.00059
-0.448992
-0.0981573
1.10909
-0.249396
-1.07406
-0.17537
1.51029
-0.191274
-1.01311
1.84802
1.38312
1.01817
1.72869
-0.462847
1.54157
1.42686
1.58334
1.74183
-0.489154
0.925954
1.31128
0.91014
-0.172087
1.83263
1.45006
1.43101
1.53606
-1.01885
-0.086974
1.37877
1.1032
1.42466
-0.380995
-1.14693
1.43096
-0.180225
1.35905
-0.427955
1.75261
-0.170527
0.989461
1.32932
-0.99597
-0.16965
-1.34255
1.5927
-0.997301
-0.173568
1.29466
0.852352
-0.617172
1.47828
1.38671
-0.998363
-1.26053
1.32629
-0.257687
-0.171377
-0.200886
-0.984756
0.118638
1.35196
1.47055
-0.722795
1.22406
1.44156
1.73088
0.918229
0.468453
0.160622
1.44766
0.272988
-0.994881
0.171718
-0.599626
-0.994146
1.39766
-0.993484
0.338526
-0.17249
0.772757
1.18083
-0.991903
1.2364
-0.173816
1.11678
-0.990412
0.685102
-0.995297
1.02335
-0.177754
0.586463
-0.989764
1.39924
-0.271646
-0.993594
-1.00559
-0.174335
1.44442
0.754824
-1.04069
-0.187519
0.180413
0.303785
-0.99482
-0.174139
-1.08892
0.569668
-0.201505
-0.0143114
-0.23213
-0.261862
-1.17523
0.415728
1.24364
-0.164903
-0.401575
1.37009
0.0758019
0.363356
1.06637
1.42866
-1.54342
-0.896948
-0.182868
-0.724261
1.4096
1.7864
-0.412783
-0.775259
0.696296
-0.347645
-0.273898
0.352968
1.34853
-0.959931
1.42313
-1.0541
1.82729
1.06389
1.92063
-1.0057
1.72549
-0.559224
1.54903
0.115442
-0.179978
1.62573
1.44963
-1.83908
-0.173387
-0.999601
1.3154
-1.00673
1.39901
-0.984349
-0.190999
-0.195988
1.71415
1.41272
1.65484
1.39366
1.45216
-0.78787
0.272566
1.52669
-0.127707
-0.425439
1.76282
-0.998417
1.2852
1.46763
1.80588
1.89792
-1.00133
-0.0780445
1.4834
0.875036
0.265336
-0.950056
-0.861047
-0.475998
-1.00363
1.13849
-0.866748
1.73606
-0.0966284
1.3556
1.49685
1.39777
-1.3205
-0.163781
-0.442066
1.52838
-0.506405
1.48945
-0.774235
-0.75915
1.56527
1.8229
-0.189961
0.234371
1.41224
-0.517537
-0.984432
1.23901
1.60154
1.70755
-1.10263
1.23799
1.12774
-0.179758
1.72615
0.466522
-1.00236
0.531782
0.246699
-0.292382
1.44325
-0.621919
0.437199
0.598584
0.0475158
-0.880026
-0.174045
1.3873
-1.72232
1.38707
0.0149864
0.749875
1.25881
0.90585
-0.181852
-0.641411
-0.385304
-0.109624
0.442502
-1.12975
1.22444
-0.273163
0.0178413
1.35974
-0.339004
-1.02238
1.4459
-0.0500077
1.2681
0.552159
-0.176081
0.391843
1.3439
-0.0504906
-0.0225177
1.42415
-0.196074
1.53085
0.15412
-0.580359
-0.379973
-0.17783
1.96412
-1.60688
1.62999
0.531948
1.42281
1.58629
1.28983
1.50868
1.4746
-0.028308
-0.809346
1.43699
1.61699
1.84466
-0.335043
1.4432
0.920112
-0.303115
1.36081
1.74358
-0.599253
1.67399
0.301584
-1.11922
1.40507
-0.27911
-0.996924
1.41969
-0.462508
1.50883
1.60799
1.32225
-1.08762
1.22109
1.58527
-1.08613
-0.259394
-1.78444
-1.37098
-0.505794
-0.172473
1.86764
1.33311
-1.05026
1.47848
-0.258922
-0.582898
1.79809
1.54535
-1.68016
-0.510191
-0.175202
-0.188293
1.4651
-1.03979
0.743895
-0.936316
-0.371612
1.50881
-0.227697
1.72471
1.45075
1.40897
1.41066
1.62959
-0.691405
-0.242765
1.50896
1.66125
-1.0612
1.46129
-1.37628
-0.188765
-0.214359
1.38678
1.41968
-0.196452
-1.03862
1.14739
0.618906
-1.26966
1.38113
1.2459
-0.745301
1.29233
1.34179
-0.0495335
-1.02765
-1.06355
-0.1821
-0.20858
1.82361
0.509527
1.19228
-1.03761
1.83077
1.2384
1.13545
1.27084
-0.596521
-0.489019
-0.176493
0.744142
-1.01188
1.48587
0.934821
-0.565188
1.17771
1.56119
1.46573
1.40561
-0.0383198
1.47637
0.151017
1.0327
1.11742
-0.600121
-1.02207
-1.10879
-0.767412
1.44435
1.52884
1.44495
-0.0415947
-0.0536517
-0.172505
-0.917654
1.43214
1.62268
1.44681
-1.01647
-0.786081
-0.720214
-0.566104
-0.174052
-0.177544
-0.146259
1.39553
-1.14918
-0.999629
0.659375
0.587671
0.962761
-0.895743
-0.17036
-0.0330533
1.26887
1.85994
0.219021
1.55571
1.8699
0.890906
1.57147
-1.02497
-0.0949356
1.90337
-0.169476
0.943579
-1.00793
-0.210628
-0.992481
-0.997002
1.47978
1.32056
1.50733
1.46447
-0.0150649
1.36037
0.167891
0.334734
-0.169816
1.55514
0.965138
1.44365
1.45989
0.284532
-0.0381623
1.46816
-0.0259767
-0.181619
-0.99817
-1.00615
1.17752
-0.995783
1.41928
1.26334
-0.171838
1.76234
-1.0108
-0.304245
1.43106
-0.72611
-0.456881
-0.0524253
0.815104
-1.00203
-1.1727
1.18766
1.45182
0.303134
0.72184
-0.19783
-0.171196
0.120538
-1.37374
0.513591
1.20532
-0.602637
-0.995291
1.59166
0.409716
0.53115
-0.993299
-0.21522
1.4348
1.59652
0.73116
1.14747
-0.990985
-0.372645
0.00107377
0.639836
1.0662
-0.989951
1.18739
0.268902
-0.98932
1.78778
-0.995947
0.00516642
-0.206067
-0.923188
1.41826
-1.01775
-1.04327
-0.191617
0.675962
-1.06172
0.094737
-1.08693
0.226766
1.51415
-1.12417
0.513245
-0.217202
-0.122111
1.67419
1.88926
1.55106
1.43739
1.52366
-0.831608
1.41611
-1.01849
1.59147
-0.184381
-0.146499
1.78744
0.0885874
1.08491
-1.48229
1.86824
0.0554083
1.81402
0.813313
1.07159
-1.00426
-1.00717
-0.17971
-1.14481
1.7452
1.53997
1.40645
1.2038
1.43155
1.43962
1.06475
-0.982526
-0.181909
0.395878
-0.0970739
1.03395
1.43477
0.641063
-0.998134
-0.984691
-0.0454481
-0.181108
-0.560499
1.85609
1.45472
1.43046
0.269068
-0.0705719
1.46414
-0.70712
-0.17324
-0.209763
-0.318455
1.02142
-0.996964
-0.990076
0.391435
1.39231
-0.149599
-0.204626
1.42845
1.21176
1.25967
1.41724
-0.17385
1.13379
1.67405
1.41374
-0.175784
1.43448
0.988272
0.639777
-0.650196
-0.995103
1.82819
0.892314
-1.08879
0.713947
1.18283
1.31154
-0.393046
-0.421658
0.444253
-1.00983
-0.119899
-1.04526
0.446933
1.40908
-1.08636
1.37093
1.75945
1.6359
1.34435
1.40232
1.47543
1.42352
-0.627511
0.0771291
-0.420027
-0.258229
-0.0262684
-0.989593
1.50127
1.35693
-0.260297
1.45926
-0.974729
-0.444951
-0.992878
-0.599026
1.13092
-0.0589751
1.40173
1.16817
-1.27507
0.308884
1.75454
-0.0853739
0.186791
-0.0399061
-1.0437
-0.966423
1.49382
1.02131
1.60725
-0.394688
-0.534295
-0.154523
-0.34992
-0.268445
-0.0669396
-1.11707
-0.206332
1.1829
0.0224275
1.93929
-1.27679
0.171257
-0.212598
-0.988185
1.43196
-0.22085
-0.452084
-0.0674985
0.413997
1.50378
1.72
-0.302705
-0.603625
1.07964
-0.199804
-0.0818187
1.60257
-1.24128
-1.08249
-1.18826
0.991896
0.298917
-0.27987
1.40912
0.129321
-1.05502
1.40666
-0.88249
-1.02145
-1.10927
-1.09668
0.625549
-0.285979
1.64785
-0.17218
0.816533
-0.184405
1.03871
-0.922614
-0.65544
0.861526
1.30927
1.49408
1.43177
1.53133
-1.01693
1.36302
1.14046
-1.05668
1.27034
-0.371781
-0.991757
-0.137883
1.68289
1.66351
-0.93265
-0.740184
-0.539375
1.29368
-0.896627
0.2266
0.0174885
-0.99269
1.61402
1.31186
-1.00559
-1.07619
-1.00347
-1.00028
1.26423
-1.02625
1.26829
0.369748
0.931865
1.0909
-0.968162
-0.795565
1.22349
-0.991501
0.623294
1.70875
-0.17867
-0.996726
1.06193
-1.11764
-1.05354
0.519175
-0.394262
1.79751
0.12669
0.803085
-1.00709
1.82315
-1.01123
-1.07506
0.855743
0.00423761
-0.183706
1.8019
0.891099
1.56149
-1.04904
1.54434
-0.428151
0.0293044
-1.04052
-1.03889
-1.01479
1.58088
0.775419
-0.207643
-1.01081
-0.302769
1.46905
-1.11574
1.80152
-0.182565
0.9949
-0.996738
0.533584
0.731829
0.691418
0.595387
0.829929
-1.08126
1.31278
-1.03672
-0.761433
-0.0435351
0.910459
1.83578
0.423116
-1.0504
-1.02054
-0.997699
0.40691
-1.25522
-0.9954
1.41776
0.835381
-1.00079
1.88964
-0.290105
-1.03457
1.81423
-0.997785
0.269938
-1.02255
-0.990903
-0.995285
1.86782
-0.991486
1.74921
-0.994482
-0.87258
1.51756
0.509759
-1.04151
0.763635
-0.370945
0.110124
0.31984
-0.995087
1.34802
-0.168455
-0.994739
-0.990847
-0.992643
-0.189468
1.37513
-0.0971139
0.313867
-1.00255
1.76807
-0.0962355
-1.06066
-0.93131
0.51662
-1.14798
-0.974248
-1.00142
0.615034
1.56168
-1.01494
-0.178814
-1.15421
0.0749863
-0.191631
-0.194397
1.84703
1.7668
0.585476
-0.785335
-0.18627
0.484413
-0.184944
1.84172
0.340161
1.61958
0.921789
1.80349
0.198383
-1.14984
-0.717034
0.0165817
-1.03474
0.0155954
0.565962
-0.993952
1.7522
0.462217
0.355005
0.363079
-0.167928
-0.847756
)
;

boundaryField
{
    frontback
    {
        type            empty;
    }
    Top
    {
        type            zeroGradient;
    }
    outlet
    {
        type            fixedValue;
        value           uniform 0;
    }
    bottom
    {
        type            zeroGradient;
    }
    Inlet
    {
        type            zeroGradient;
    }
    rectangle
    {
        type            zeroGradient;
    }
}


// ************************************************************************* //
