/*--------------------------------*- C++ -*----------------------------------*\
| =========                 |                                                 |
| \\      /  F ield         | OpenFOAM: The Open Source CFD Toolbox           |
|  \\    /   O peration     | Version:  2306                                  |
|   \\  /    A nd           | Website:  www.openfoam.com                      |
|    \\/     M anipulation  |                                                 |
\*---------------------------------------------------------------------------*/
FoamFile
{
    version     2.0;
    format      ascii;
    arch        "LSB;label=32;scalar=64";
    class       volVectorField;
    location    "26.8";
    object      U;
}
// * * * * * * * * * * * * * * * * * * * * * * * * * * * * * * * * * * * * * //

dimensions      [0 1 -1 0 0 0 0];

internalField   nonuniform List<vector> 
2186
(
(1.27942 -0.0658923 2.74716e-19)
(1.58356 -0.911499 9.08596e-21)
(1.42841 -0.88933 9.91583e-21)
(0.713839 -0.551897 -1.74816e-19)
(-0.320637 0.370873 -1.63906e-19)
(1.67034 -0.414173 0)
(0.703289 -0.648953 0)
(0.0187797 0.0587734 6.01693e-20)
(1.49839 -0.0884783 7.11733e-20)
(0.530843 -0.268861 -2.18915e-21)
(0.708553 0.641564 0)
(0.868399 -0.268866 -7.3855e-20)
(0.0290897 0.07129 -2.45121e-20)
(1.20234 0.0272505 -4.3535e-19)
(1.76825 -0.659803 -2.04982e-21)
(1.01554 0.000729332 2.0408e-19)
(0.980272 0.012676 0)
(-0.222041 0.334039 0)
(1.58336 -0.345954 0)
(-0.0743247 0.32147 -5.72621e-20)
(0.492925 0.151592 -1.27307e-19)
(-0.187366 0.214716 7.6803e-20)
(1.19169 0.0299565 3.58687e-19)
(-0.187032 -0.0852989 5.18442e-21)
(1.02994 0.0128625 -2.82397e-19)
(0.764436 -0.528286 0)
(0.760321 0.0037743 1.66334e-19)
(0.593352 -0.572843 -2.08188e-19)
(1.25251 0.745199 0)
(0.962322 0.0257357 -3.85167e-19)
(-0.0196271 0.102272 0)
(1.02333 -0.00544016 1.33538e-20)
(-0.0321881 0.298915 0)
(2.30049 -0.154615 1.04804e-19)
(-0.198853 -0.127351 -8.1603e-22)
(1.58894 0.808142 1.11717e-19)
(2.01927 0.0223988 8.33249e-20)
(0.523329 0.199066 -3.79305e-19)
(2.00253 0.261064 -2.62718e-19)
(1.48004 -0.368247 -1.68342e-20)
(0.00747882 0.0589134 0)
(-0.150441 0.195871 0)
(1.84891 -0.844775 4.82402e-20)
(-0.415853 0.2429 0)
(1.13654 0.301282 1.78992e-19)
(0.578514 -0.251771 3.22976e-19)
(0.898713 -0.764292 0)
(1.15564 -0.762888 1.5166e-19)
(2.39716 -0.189548 0)
(-0.309653 0.361366 1.56314e-19)
(-0.0097883 0.174481 8.46736e-20)
(0.656219 0.606116 9.27392e-20)
(2.03244 -0.71618 3.35697e-20)
(0.615013 0.322164 -3.056e-19)
(-0.253317 0.157801 2.98274e-20)
(0.739176 -0.626018 0)
(1.64208 -0.936992 1.81441e-20)
(0.563339 -0.523705 0)
(2.39779 0.232987 8.57327e-20)
(1.11317 -0.156736 -4.44123e-19)
(1.89635 -0.0486224 1.32135e-19)
(1.39419 0.321561 -2.16404e-19)
(1.38798 0.562448 0)
(1.39563 -0.329917 1.84391e-20)
(1.40511 0.405936 -1.35422e-19)
(1.22099 -0.706346 -2.20127e-19)
(1.21066 0.69296 6.27127e-20)
(0.684747 0.110929 -6.26396e-19)
(0.823348 0.0880244 0)
(2.01735 -0.0923132 -1.99651e-20)
(-0.0063892 0.0476547 -6.86697e-20)
(2.37713 -0.204048 -1.14264e-19)
(0.724052 0.00109777 -2.77263e-19)
(0.850009 -0.490679 0)
(0.840447 0.212571 -1.02547e-19)
(0.526635 -0.484825 -3.48938e-19)
(2.24535 -0.206797 0)
(1.00708 0.01 4.20212e-19)
(-0.200379 -0.121837 0)
(2.08441 0.412356 0)
(0.622198 0.101174 8.00752e-20)
(1.35129 -0.304234 2.1799e-20)
(1.02255 0.00997178 4.69253e-20)
(1.36114 0.440145 3.36315e-20)
(0.966875 0.0257605 4.92538e-19)
(1.03613 0.0323168 -1.16663e-20)
(0.680552 0.220342 -3.7192e-19)
(1.49705 -0.309318 3.58689e-21)
(1.3963 -0.128356 0)
(-0.0724909 -0.0699856 5.46672e-20)
(0.835126 -0.595831 -2.00073e-19)
(-0.165804 0.386236 -2.24582e-21)
(1.09919 -0.0630829 2.94006e-19)
(0.804293 -0.15282 0)
(0.971743 0.0239445 4.69054e-20)
(1.41198 0.674297 0)
(1.58792 -0.921299 0)
(1.3424 0.234984 0)
(-0.324615 0.377559 0)
(0.76467 -0.637931 3.50163e-19)
(-0.0570611 0.331564 -2.53293e-19)
(0.511128 0.137215 1.43311e-19)
(1.61533 0.200638 0)
(1.13629 -0.0909809 -2.68774e-19)
(1.12401 0.024448 2.07813e-19)
(-0.0651641 0.374709 1.12073e-19)
(0.671202 0.546208 0)
(2.05642 -0.140831 -2.78389e-20)
(0.941597 -0.45248 9.81061e-20)
(-1.02762 -0.759967 1.36884e-19)
(1.80459 0.342239 9.86169e-20)
(-0.294959 0.371057 -2.36893e-19)
(0.79576 -0.722248 0)
(0.595619 0.396683 1.83954e-19)
(1.66172 -0.113249 -2.21853e-19)
(0.0837009 0.203701 -2.92818e-19)
(1.32443 0.842658 -1.8465e-20)
(1.97108 -0.315704 0)
(-0.0957783 -0.0949608 -1.63183e-19)
(0.704052 -0.0347945 8.79639e-20)
(1.61099 0.915265 0)
(-0.241994 0.300152 -2.15474e-19)
(0.922317 0.795124 -3.11137e-19)
(-0.203389 0.370057 2.55322e-19)
(1.03151 -0.0222674 0)
(1.52433 0.909147 2.32758e-20)
(-0.322398 0.374272 0)
(0.672894 -0.463228 -1.25498e-19)
(-0.211639 0.35921 -1.41595e-19)
(0.768156 -0.700075 0)
(0.410013 -0.223602 4.68011e-19)
(0.515806 -0.423264 3.2335e-19)
(0.403709 -0.365078 0)
(0.957476 -0.758064 -1.69187e-19)
(0.123631 0.141713 0)
(-0.237077 0.332918 -1.22514e-19)
(0.785924 -0.672351 1.70566e-19)
(2.19666 -0.163102 7.5428e-20)
(2.27626 0.17543 0)
(-0.0609485 -0.00889224 0)
(0.712728 0.662432 -3.9153e-19)
(1.74059 -0.591518 -2.99329e-20)
(0.0327524 0.0460331 0)
(0.9571 -0.781475 -1.7967e-20)
(1.13058 -0.0888778 0)
(1.06965 -0.109096 4.64909e-19)
(1.97592 -0.122731 -1.97669e-20)
(-0.318255 0.389361 0)
(1.19289 -0.531663 -7.20962e-20)
(-0.145444 0.406971 -3.72277e-20)
(-0.285193 0.36886 0)
(1.06806 -0.788807 1.19145e-20)
(1.00638 0.00490897 -7.01891e-19)
(0.626116 -0.447173 -1.22523e-20)
(0.793153 -0.48704 0)
(1.17132 -0.705381 -1.26488e-19)
(0.676488 0.279937 2.86636e-19)
(1.26778 0.124373 0)
(1.54707 0.0863733 -3.29499e-19)
(1.17065 -0.830409 -3.01556e-19)
(-0.0740905 -0.0206822 -5.63491e-20)
(-0.211069 0.0770528 -6.86459e-20)
(1.08104 0.0130146 2.63607e-19)
(0.894636 -0.437765 -1.2338e-19)
(1.5367 -0.363659 -3.32061e-21)
(0.914272 -0.0291236 -6.1663e-20)
(0.773351 -0.131442 6.75441e-20)
(-0.084498 -0.071698 -1.54063e-19)
(1.66314 -0.154771 0)
(2.27768 -0.279748 6.88391e-20)
(1.4909 0.677771 1.74563e-19)
(0.783428 -0.586941 -2.55379e-19)
(0.994735 0.00936813 1.43789e-20)
(0.695177 -0.501482 3.45061e-19)
(1.34793 0.832822 1.55285e-19)
(1.92483 0.0483211 9.8836e-21)
(-0.302424 0.39401 0)
(1.09308 0.0640107 -2.73577e-19)
(-0.406604 0.150366 -1.12963e-19)
(1.10669 0.516843 9.118e-20)
(0.185866 -0.139345 9.30859e-20)
(1.16153 0.030173 -4.99405e-20)
(-0.172897 0.290957 -1.39292e-19)
(1.33808 0.611224 -9.40646e-20)
(1.17796 0.920064 0)
(-0.277975 0.413259 -8.27224e-20)
(0.109992 0.2026 0)
(0.68553 0.594724 -3.06668e-19)
(2.16717 0.194142 -1.66248e-20)
(0.0394346 0.0957823 8.62181e-20)
(-0.196521 0.372702 -4.34677e-19)
(0.731137 0.114389 2.75309e-19)
(2.11546 0.0434811 -4.32257e-20)
(0.959288 -0.324017 -3.57411e-20)
(-0.0445977 -0.0263561 0)
(-1.07157 -0.982298 3.16471e-19)
(1.37203 1.00641 -3.92048e-20)
(0.847256 0.106819 -1.51891e-19)
(0.580232 0.545664 2.14279e-19)
(0.437015 0.19476 0)
(-0.142735 -0.00959051 -1.01284e-19)
(-1.18556 -0.928553 2.65523e-19)
(1.26898 -0.93294 8.62034e-22)
(0.984965 -0.0154966 -2.19047e-19)
(-0.136337 -0.161758 5.21547e-21)
(-0.151854 0.1673 1.36361e-19)
(-0.221023 -0.209095 -1.09772e-19)
(1.9289 -0.276905 0)
(1.14581 0.0511706 -3.68326e-19)
(2.47965 0.045863 1.88782e-19)
(1.24495 -0.594314 1.40383e-19)
(1.06113 -0.0854164 -1.7867e-21)
(0.618422 0.376257 0)
(0.979545 0.782385 -1.85166e-20)
(0.711106 0.655703 2.07077e-19)
(0.872752 -0.537246 1.80272e-19)
(0.71781 0.539211 0)
(1.02083 0.00769203 9.40201e-21)
(0.856739 -0.637763 2.57506e-19)
(0.867078 0.456389 -5.07617e-19)
(1.18291 -0.0995731 0)
(0.0731976 0.119963 -2.18419e-19)
(-0.0258806 0.361963 -8.72955e-20)
(1.63761 0.752738 0)
(1.31945 -0.911415 -7.37669e-22)
(-0.263198 0.327835 0)
(-0.326854 0.368662 1.02543e-19)
(0.768641 0.684739 -1.09068e-19)
(0.837938 -0.188743 0)
(-0.170181 -0.0550886 0)
(1.62045 -0.433777 0)
(-0.0192944 0.0222351 4.56807e-19)
(1.18329 -0.858407 1.97102e-19)
(1.14908 -0.579731 8.00804e-20)
(1.02874 -0.160702 -2.04725e-19)
(0.851296 -0.667355 -2.04816e-19)
(0.180619 -0.183835 0)
(-0.231798 0.423744 0)
(0.97675 -0.487158 2.16421e-19)
(-0.0202795 0.0202827 0)
(-0.314427 0.34447 0)
(0.0561385 0.239503 2.5436e-19)
(0.825823 0.702724 9.46544e-20)
(1.04918 0.825992 0)
(0.729793 0.590172 -9.35769e-20)
(0.829316 -0.0111792 -2.52038e-19)
(0.778187 0.596913 -2.51286e-19)
(0.617564 0.576492 -1.84419e-19)
(-0.0502551 0.0242123 -3.80958e-23)
(0.699111 -0.625767 0)
(0.914525 0.202474 -3.62028e-19)
(-0.0319801 0.032816 3.03346e-20)
(0.628116 0.583621 4.18516e-19)
(0.993113 0.829781 0)
(-0.135887 -0.251848 3.43148e-19)
(-0.227924 -0.0332821 1.73189e-19)
(-0.195247 0.099835 -8.88287e-20)
(0.696872 0.605295 -1.62193e-20)
(0.968817 -0.00711673 6.79382e-20)
(-5.96665e-05 0.0731617 0)
(2.05391 -0.109394 -6.405e-20)
(1.62065 -0.398204 -1.58572e-19)
(0.631951 -0.583491 -9.11751e-20)
(-0.108462 0.354801 8.9659e-21)
(1.2291 0.48436 2.10086e-19)
(0.91398 0.445547 0)
(1.02915 -0.154773 2.30211e-19)
(-0.23866 -0.0429314 1.85899e-21)
(-0.111833 0.211744 3.23211e-19)
(0.911053 0.0207881 -6.11771e-20)
(1.1591 0.155856 0)
(1.75864 -0.0200077 -3.02618e-20)
(1.97979 0.071102 0)
(0.565298 0.303952 -5.00209e-19)
(-0.18567 0.205133 0)
(-0.0105431 0.0406337 1.34308e-19)
(0.672276 0.0951063 0)
(0.594273 -0.48178 -2.11146e-19)
(1.13429 0.0210461 2.42316e-19)
(-0.321782 0.365594 3.52731e-20)
(2.10972 -0.067681 1.23489e-21)
(1.98565 -0.164 -4.49432e-20)
(1.13975 0.247283 -2.50177e-19)
(-0.0318208 0.0382511 -5.86847e-20)
(1.04793 -0.826068 0)
(0.807659 0.017336 -1.7623e-19)
(0.906354 -0.351099 -3.37956e-19)
(1.68401 -0.551208 4.37169e-21)
(1.63581 0.00544174 -1.01859e-20)
(1.09315 -0.0019429 4.40242e-19)
(-0.185194 0.00238273 -7.46475e-20)
(0.972404 -0.413893 -1.51967e-19)
(0.189201 -0.181698 2.96982e-19)
(1.00828 -0.00688933 0)
(1.00436 -0.00519043 0)
(0.290117 -0.186738 1.89841e-20)
(-0.210418 0.351431 -8.62381e-20)
(0.204135 -0.111523 -8.43859e-20)
(1.9117 -0.0794827 4.55917e-21)
(1.12675 -0.0969568 0)
(2.02657 0.00971843 -1.25387e-19)
(0.921181 -0.79915 -1.19618e-19)
(1.7585 -0.534908 -2.53468e-20)
(1.14294 0.868837 0)
(0.452521 -0.432034 0)
(0.637642 0.554928 -1.93302e-19)
(1.12561 0.300314 -4.6049e-19)
(2.13816 -0.205132 8.79487e-23)
(0.876591 0.185695 1.55473e-19)
(-0.18454 0.0411946 -1.86285e-19)
(1.52364 -0.186127 7.12783e-21)
(-0.139551 0.0301047 0)
(-0.111762 -0.0324663 0)
(-0.00702542 0.12298 0)
(1.30933 -0.698063 -1.39427e-19)
(-0.287228 0.387306 -1.94601e-19)
(-0.163049 0.249535 0)
(1.33048 1.00833 -4.59297e-20)
(1.13546 0.16558 -4.81551e-19)
(2.64545 0.234727 -1.21274e-19)
(1.11636 0.954218 1.03982e-19)
(-0.274873 0.397537 1.21319e-19)
(1.22092 -0.066522 0)
(-0.00148548 0.155459 -1.92616e-19)
(-0.316267 0.39097 2.30207e-19)
(0.782545 0.0642766 2.05349e-19)
(1.58114 0.980171 -2.88264e-20)
(1.78379 0.907661 -6.01229e-20)
(-0.192721 0.378733 -2.15097e-21)
(0.724429 -0.65994 -4.63035e-20)
(1.16565 -0.0233009 0)
(1.75991 -0.0230432 0)
(0.972385 0.0465615 0)
(-0.599861 -0.417728 -3.11391e-19)
(-0.0484303 0.0911217 6.02192e-20)
(1.08376 0.876105 0)
(0.995069 0.0105803 5.87476e-19)
(0.800949 0.639535 -2.51749e-19)
(-0.957666 -0.810506 -1.59498e-19)
(0.867344 0.0446391 -4.64307e-20)
(0.693377 -0.630642 -2.66276e-19)
(1.42929 0.738024 -4.14749e-20)
(0.536259 -0.413398 -3.34118e-19)
(1.13173 0.00423693 -5.28059e-19)
(0.794816 0.0431355 5.25851e-20)
(1.47629 -0.168755 1.07994e-19)
(1.5803 -0.0644375 -7.01488e-20)
(-0.0167075 -0.000252628 1.08631e-22)
(1.1103 0.496839 -3.03875e-19)
(1.36525 0.642123 6.26838e-20)
(-0.251181 0.0652347 0)
(-0.166619 0.00198763 6.96298e-20)
(0.104858 0.231976 9.3732e-20)
(-0.158603 -0.161002 -7.63133e-20)
(0.509167 0.37136 0)
(1.64164 0.0507443 0)
(-0.0152146 0.0220548 -1.17281e-19)
(-0.0749787 0.0121289 -3.01289e-20)
(1.05101 -0.0272355 2.09337e-19)
(-0.294339 0.39916 -4.1693e-20)
(1.53964 -0.163273 -4.20149e-19)
(-0.130738 0.366903 0)
(0.809835 -0.716311 -3.7786e-19)
(1.40006 -0.0426043 1.00561e-19)
(-0.313055 0.133031 7.04414e-20)
(0.733339 0.199126 3.62618e-19)
(0.635534 0.187301 1.1649e-19)
(0.481814 -0.45357 2.35444e-19)
(0.035179 0.0532416 -7.2912e-20)
(1.92537 0.865065 0)
(0.425445 0.396585 -2.09606e-19)
(1.03028 -0.0114818 -3.33077e-19)
(-0.211879 0.373542 1.73215e-19)
(1.46425 0.506403 -1.49373e-19)
(-0.0233925 0.0265423 -2.73375e-20)
(0.672154 -0.61238 -1.02979e-19)
(0.835007 0.21815 -2.29195e-19)
(1.00503 0.4536 2.57812e-20)
(1.13448 -0.124585 4.14989e-20)
(0.592228 -0.188142 -3.39029e-19)
(1.95032 -0.290757 -2.30199e-20)
(1.63933 0.00293306 0)
(2.2393 0.175553 -7.06475e-20)
(2.02121 -0.145068 1.13436e-20)
(0.384714 0.133652 3.09737e-20)
(0.962414 0.367056 -1.54268e-19)
(1.56785 -0.309013 -3.63167e-20)
(0.447701 0.424599 -2.72962e-19)
(-0.199964 0.223836 1.7564e-19)
(1.78917 -0.0460762 0)
(0.945195 0.00811076 0)
(0.850028 -0.75062 7.71813e-20)
(-0.221956 -0.0145989 -1.90151e-19)
(-0.108268 0.426327 -1.75811e-19)
(-0.0156617 0.00775236 -1.18085e-19)
(-0.289135 0.332197 -1.24314e-19)
(-0.204148 0.120812 0)
(-0.10998 -0.0519585 2.17275e-20)
(0.170866 0.394749 -8.5538e-20)
(-0.16275 0.176061 -3.11171e-19)
(0.793742 -0.0782118 0)
(1.75591 -0.321571 7.22332e-20)
(0.0826544 0.142099 0)
(0.993577 0.0242717 4.23302e-19)
(-0.191478 0.0529061 1.21995e-20)
(0.512954 -0.385039 4.47967e-19)
(-0.396946 0.24699 1.87276e-19)
(-0.946146 -0.55182 0)
(0.0650301 0.285578 9.89683e-20)
(1.00065 0.0269198 -1.27675e-20)
(-0.0347083 -0.0985158 0)
(1.005 -0.00836468 -6.57032e-20)
(0.834158 -0.701342 -3.52976e-19)
(1.44206 -0.454233 0)
(0.918236 -0.245859 2.41772e-19)
(-0.100903 0.262104 1.79738e-19)
(-0.0565366 -0.0503232 0)
(-0.138138 -0.00387999 -2.73122e-21)
(0.700697 -0.607244 -5.00801e-19)
(0.936747 -0.0211147 -3.11703e-19)
(-0.229726 0.00230073 2.21615e-19)
(-0.0504429 0.0184219 8.26805e-20)
(-0.160266 0.0736887 0)
(0.987709 0.504193 0)
(-0.296734 0.113804 7.26591e-20)
(1.40897 -0.195654 -4.99453e-20)
(1.11138 0.929038 2.21762e-20)
(1.0901 0.230033 -1.4134e-19)
(1.11594 0.0100487 -2.64263e-19)
(1.01906 -0.0611697 -9.78502e-20)
(-0.185661 -0.0166149 -2.0097e-19)
(1.96603 0.0564725 3.6826e-19)
(0.705838 0.0417481 2.41285e-19)
(1.79222 -0.0840589 5.16523e-20)
(1.02304 -0.135774 0)
(0.132174 -0.321346 1.93339e-19)
(1.14352 0.0269832 -5.73491e-19)
(1.80095 0.646107 2.92395e-20)
(0.716149 -0.422582 -1.85629e-19)
(-0.0965894 -0.092513 1.2206e-19)
(0.773517 -0.676141 4.60669e-19)
(1.2719 0.208596 8.7441e-20)
(1.00719 -0.0081723 2.90872e-19)
(-0.198355 0.00561694 -8.04714e-20)
(1.03089 0.0267629 0)
(2.07945 0.0333232 -1.801e-19)
(-0.0770741 -0.0621065 0)
(1.01453 0.0152096 -1.72524e-19)
(-0.879869 -0.750429 -5.01798e-19)
(1.77708 0.328192 5.0886e-20)
(0.0848596 0.280294 1.25844e-19)
(1.66327 0.0334756 9.28305e-21)
(1.01558 -0.0159502 6.03348e-20)
(1.26084 -0.0843933 0)
(1.41093 -0.585473 -2.14673e-19)
(1.02847 0.047264 -1.7814e-19)
(1.48722 0.820357 -8.46368e-20)
(1.27991 -0.0513448 0)
(0.46047 0.385687 6.78269e-21)
(-0.0195893 0.0267082 0)
(1.27258 0.0486965 0)
(-0.0334293 0.0629275 0)
(1.27724 0.469667 0)
(1.95195 0.307658 4.16268e-20)
(0.774639 0.649317 4.41515e-19)
(0.281564 -0.282647 -2.78773e-19)
(-0.0783625 0.0102341 -1.93156e-19)
(-0.0575621 -0.0324431 0)
(2.34798 -0.203908 9.12053e-20)
(1.38042 0.540395 0)
(1.508 0.304992 0)
(-0.0329525 0.178264 8.36071e-20)
(0.839682 0.74298 1.45673e-19)
(1.59405 -0.0148779 0)
(0.0475231 0.0832678 4.74049e-20)
(0.927488 0.249752 2.1234e-19)
(1.87614 -0.129551 -5.79319e-20)
(1.28316 0.960775 5.56676e-20)
(0.898588 -0.807227 -5.61105e-20)
(1.53739 -0.0634777 -3.5371e-20)
(0.825428 0.746379 1.50381e-19)
(1.21822 0.958547 0)
(2.08538 -0.220631 1.26867e-19)
(0.335887 -0.668644 0)
(1.53616 -0.27908 3.26437e-20)
(1.01596 0.120002 1.56238e-19)
(1.0057 -0.00372758 0)
(-0.465647 -0.67058 2.65706e-19)
(0.877356 -0.142639 5.50667e-20)
(0.604556 -0.371194 0)
(0.646332 -0.343934 2.41617e-19)
(1.27848 0.583793 -3.9118e-20)
(0.499269 0.473073 3.02884e-19)
(-0.191136 0.219847 3.71588e-20)
(0.208642 0.0485465 8.448e-20)
(0.736957 0.0598002 0)
(1.29442 -0.873586 -1.42606e-19)
(1.03715 -0.0427477 4.64773e-19)
(1.54915 0.350072 1.22197e-19)
(0.0536743 0.097225 4.05388e-20)
(-0.531944 0.104348 0)
(1.20475 -0.224419 -1.38649e-19)
(-0.0546568 -0.0441306 -1.00051e-19)
(-0.734869 -0.618027 -1.68649e-20)
(-0.13665 0.0475628 -6.6506e-22)
(-0.21432 0.0976672 2.6438e-19)
(1.01388 -0.142576 -2.0098e-20)
(2.1437 -0.117781 8.57928e-20)
(1.23138 0.485765 -3.38802e-19)
(0.900998 -0.0647323 0)
(1.90957 -0.0863853 1.87651e-19)
(1.7178 0.0524731 1.90525e-20)
(0.884558 -0.740488 1.76321e-19)
(1.13112 -0.948843 -7.93613e-20)
(0.502628 0.468166 2.04369e-19)
(0.577122 -0.310501 0)
(1.81887 0.603882 1.22214e-20)
(-0.0624562 -0.046541 -2.03508e-19)
(0.917689 0.802165 0)
(1.62391 0.904353 0)
(0.281585 -0.28038 -3.65141e-21)
(0.356532 0.35383 0)
(-0.511837 0.192966 -2.06228e-19)
(-0.284248 0.322507 -1.07333e-19)
(1.72092 -0.403944 0)
(1.31427 0.0725797 2.44659e-19)
(-0.146425 0.325508 1.46674e-19)
(0.514768 -0.487461 -5.46129e-19)
(1.76308 -0.0283128 -1.3134e-20)
(0.59106 -0.53422 0)
(1.06793 0.138757 0)
(1.37715 -0.231354 0)
(1.14166 0.245344 -2.69549e-19)
(1.38968 0.114903 3.85081e-19)
(-0.764344 -0.208835 0)
(0.863483 -0.049236 0)
(2.04093 -0.0744505 -2.18804e-21)
(-0.163658 0.279968 9.04285e-20)
(2.36134 -0.0996543 -2.4876e-19)
(1.06819 -0.493333 1.03414e-19)
(1.95006 -0.0162123 -2.5896e-19)
(-0.162528 0.406012 -1.10705e-19)
(2.0275 0.0690928 -1.56547e-19)
(1.01566 -0.0127047 4.78564e-19)
(1.56919 0.630553 0)
(-0.325067 0.372052 2.89828e-20)
(0.975851 -0.803781 2.27436e-19)
(0.855472 0.013169 5.42703e-20)
(0.60788 -0.395101 0)
(1.8541 -0.4901 -4.66828e-21)
(1.18004 -0.180888 1.85655e-19)
(1.69326 -0.168526 0)
(0.589398 -0.546515 5.52431e-19)
(1.59113 0.154399 -2.61273e-20)
(2.45667 -0.068122 4.33555e-19)
(-0.207301 0.327128 -1.89595e-19)
(1.37692 0.647746 1.80513e-19)
(1.18266 0.431068 4.20845e-21)
(0.932091 0.405822 2.51011e-19)
(1.45719 -0.142323 -6.01793e-20)
(-0.178797 -0.0144443 1.09168e-21)
(0.448355 -0.00215009 0)
(-0.127819 -0.107231 2.00046e-19)
(1.06873 -0.92619 0)
(1.03417 -0.626558 2.7009e-20)
(0.550998 -0.101121 -1.09831e-19)
(1.61125 0.559844 -3.62183e-20)
(-0.176189 0.23173 -1.89209e-19)
(1.02148 0.514851 1.97023e-19)
(-0.669952 -0.776296 3.43774e-19)
(0.705343 -0.0408669 0)
(1.81975 -0.0507959 0)
(1.95376 -0.0986179 -2.96882e-21)
(0.770414 -0.0100424 0)
(1.32399 -0.196231 -1.91038e-19)
(-0.271517 0.407353 3.15297e-19)
(1.98624 0.519109 -1.67471e-20)
(1.05396 -0.0316651 0)
(0.526855 -0.305999 1.20435e-19)
(1.00827 0.0263592 2.2697e-19)
(0.112971 -0.713019 -2.91951e-19)
(-0.202068 0.297045 0)
(1.07995 -0.45312 5.98811e-19)
(1.72792 -0.0409833 -3.89966e-22)
(1.07229 -0.472024 -2.60335e-19)
(2.40695 0.241649 1.42177e-19)
(1.33089 0.824202 0)
(0.884652 0.0243682 0)
(0.035782 0.119334 -1.06875e-19)
(-0.0176773 0.0256382 1.31976e-19)
(0.97802 0.395707 -2.33635e-19)
(-0.181871 -0.0140466 -6.17138e-20)
(0.676798 0.451488 2.64348e-19)
(0.678742 0.433385 0)
(0.520834 -0.483872 0)
(-0.0772727 0.104475 1.82522e-21)
(1.20013 -0.482589 -1.25712e-19)
(0.807525 -0.00137437 8.04894e-21)
(0.725256 -0.113747 1.33394e-19)
(-0.120949 0.209663 -2.37525e-19)
(1.13955 0.0906074 2.13805e-19)
(0.689526 0.643864 0)
(1.31434 0.726547 0)
(1.67101 0.270089 0)
(-0.135046 0.100356 -8.03173e-20)
(1.30355 0.590589 1.77311e-19)
(1.88691 0.00480161 1.28143e-20)
(0.961103 -0.0189795 0)
(2.30504 -0.237631 0)
(2.15066 -0.0832987 -2.81515e-19)
(0.377407 -0.506894 3.56039e-19)
(1.0051 0.00545583 -2.26942e-19)
(1.54228 0.50159 0)
(-0.267191 0.304078 0)
(1.28193 0.339934 3.35165e-19)
(1.05767 0.558174 -1.47757e-19)
(1.07783 0.0334328 0)
(1.04071 -0.198007 0)
(2.06006 0.701441 -2.50374e-19)
(-0.198099 0.4138 -3.15859e-21)
(0.993473 0.0152764 0)
(0.740128 0.513692 -3.66969e-20)
(0.910247 -0.80067 0)
(1.00213 0.0179797 5.28055e-20)
(-0.859787 -0.0747642 -3.99464e-20)
(0.883193 -0.295378 3.57119e-19)
(0.0816906 -0.501146 -3.60347e-21)
(1.99234 -0.0879047 7.14031e-20)
(2.05636 0.108008 1.01448e-19)
(0.775591 -0.0207911 0)
(1.00252 0.0133199 0)
(-0.411493 0.106915 0)
(0.692645 0.663744 -2.12793e-19)
(-0.0854165 0.139938 1.60422e-19)
(1.19973 0.371313 -5.36389e-19)
(-0.289912 0.373805 0)
(0.864221 0.67818 1.86745e-19)
(0.984863 -0.308379 0)
(1.00557 -0.000615408 1.32747e-19)
(-0.177747 -0.424192 2.33669e-20)
(1.06626 0.431518 2.92434e-19)
(1.41072 0.168135 0)
(2.27356 0.142738 -6.84888e-20)
(0.819537 -0.078954 -4.12383e-19)
(-0.65439 0.10007 -2.84858e-19)
(0.554309 -0.33146 0)
(0.899726 0.273043 1.9531e-19)
(1.81679 -0.12654 0)
(0.808664 0.558827 4.00278e-19)
(-0.416167 0.310067 1.30325e-19)
(-0.119042 0.198004 0)
(0.617718 0.588583 -7.83711e-20)
(0.998296 -0.613937 -1.88335e-19)
(0.453607 -0.192504 -1.36863e-19)
(1.01894 -0.00638918 0)
(-0.161807 0.290185 -1.48285e-19)
(0.612832 -0.541332 9.46978e-20)
(0.929375 0.320167 0)
(1.6441 -0.17141 7.27687e-20)
(1.01942 0.8699 2.80266e-20)
(0.697246 -0.0858381 1.87561e-20)
(0.129195 0.114492 -1.42352e-19)
(0.207326 0.0577124 -6.07754e-19)
(-0.0647491 0.00366916 5.10767e-21)
(0.846397 0.393945 2.73702e-19)
(-0.299777 0.374178 -4.80316e-21)
(1.37798 -0.621722 3.26076e-21)
(1.02115 0.0196093 -3.95413e-19)
(-0.206228 0.188063 0)
(1.0367 0.0456572 -4.65446e-19)
(1.83649 -0.253013 5.00402e-20)
(0.923331 0.723879 3.16324e-19)
(1.12127 -0.0591337 1.86253e-19)
(1.00189 -0.0147635 1.82929e-19)
(1.7822 0.660947 3.2181e-20)
(0.0760798 0.102684 5.54975e-22)
(1.70245 -0.839581 1.49634e-20)
(1.10266 -0.119192 -9.74222e-20)
(0.755273 0.0441736 1.12645e-19)
(0.890006 -0.265499 1.03302e-19)
(1.9025 0.206512 0)
(0.998724 0.768232 0)
(0.21961 -0.445398 -2.78627e-20)
(2.09889 0.209938 -1.5022e-20)
(-0.328198 0.291143 1.06549e-19)
(1.00288 -0.512689 -6.22476e-19)
(0.590342 -0.503123 4.50137e-19)
(1.35931 0.198773 -1.25851e-19)
(-0.212656 -0.0220087 7.89262e-21)
(1.55931 -0.27112 0)
(0.761937 0.155003 -7.49524e-21)
(1.60887 -0.204673 -6.93128e-20)
(1.07749 0.794602 0)
(0.629258 -0.21524 0)
(0.489877 0.363105 0)
(0.0049434 0.0427777 -3.25235e-20)
(-0.145531 0.174905 0)
(1.19431 -0.36416 4.03653e-19)
(1.253 0.192491 7.4397e-21)
(-0.911471 -0.673224 1.87728e-19)
(2.02057 0.779071 3.71442e-20)
(1.8924 0.486501 -3.84143e-20)
(2.03737 -0.275216 -1.09316e-20)
(-0.18167 0.0115203 -1.84267e-19)
(-0.160361 0.0250687 2.03603e-21)
(1.89576 0.173881 0)
(0.684334 -0.0353354 0)
(1.00084 0.000521981 1.92088e-22)
(-0.153939 0.141141 0)
(1.39202 0.0139195 1.57869e-20)
(0.683023 -0.0315929 0)
(1.0412 0.0116704 1.49851e-19)
(0.989983 0.0161259 -5.16117e-20)
(1.1789 0.17721 1.2714e-19)
(1.07159 -0.0127314 -1.06469e-21)
(0.93262 -0.167518 -6.22125e-20)
(1.01886 -0.0200299 4.25592e-19)
(0.645584 -0.581371 2.15536e-19)
(-1.17108 -1.03221 -2.48344e-19)
(1.5961 0.6525 -7.32318e-22)
(-0.0240852 0.0467767 0)
(1.16508 0.827582 0)
(1.02264 0.00672288 0)
(0.974261 -0.746811 -1.34087e-19)
(1.01378 -0.867198 8.5439e-20)
(1.20856 0.572225 4.15918e-20)
(-0.673641 -0.633791 -3.82729e-19)
(0.46441 0.106416 1.24131e-20)
(0.558343 -0.339902 -7.17596e-19)
(1.96771 0.418326 -1.01909e-19)
(0.0460445 0.082556 -4.6108e-20)
(1.98822 -0.231206 2.24245e-20)
(1.21107 0.121851 -3.30964e-21)
(0.0347884 0.0665384 -6.92771e-20)
(1.14909 0.582242 2.27298e-19)
(-0.282619 -0.123644 0)
(-0.218414 -0.0176787 1.27231e-19)
(-0.142425 -0.0866947 -1.68714e-22)
(1.02895 -0.0436509 3.80667e-19)
(1.02064 0.0110625 -9.80891e-21)
(1.11028 -0.00806677 -1.0518e-19)
(1.34283 0.509533 -1.84336e-21)
(1.68935 0.33217 7.76443e-20)
(0.377767 -0.350933 -3.59616e-19)
(0.798113 0.513653 -7.88199e-20)
(1.02917 0.0127311 -2.80595e-19)
(1.702 0.602128 7.54313e-22)
(1.12188 0.599599 0)
(1.1471 0.620979 -4.26802e-19)
(1.00269 -0.00312537 1.08298e-19)
(0.707986 0.63758 2.84675e-19)
(1.08007 -0.222086 -2.68065e-21)
(1.07798 -0.0042051 -3.46887e-20)
(1.13521 0.0201016 9.83486e-22)
(2.37819 -0.0101592 1.55464e-20)
(1.13006 0.272494 0)
(1.04351 -0.0395027 0)
(1.04778 -0.0342517 6.65353e-19)
(1.00259 -0.00191262 0)
(-0.0873832 -0.045086 0)
(0.953652 -0.566914 0)
(1.00072 0.000317992 -6.29976e-19)
(1.12578 -0.65547 1.11745e-19)
(1.02183 0.000665986 1.3268e-20)
(1.38838 0.990533 -3.76897e-20)
(1.57656 1.04038 6.35897e-20)
(0.488624 -0.0931398 -2.20487e-20)
(1.11322 -0.247324 9.08192e-20)
(2.06855 0.0605165 0)
(-0.0931366 0.385261 0)
(1.81668 -0.0844599 9.48511e-20)
(0.927551 -0.326188 0)
(0.999722 -0.00469058 -1.94642e-19)
(1.01085 -0.00105002 3.78419e-19)
(1.49537 0.148395 -8.1999e-20)
(0.0222665 -0.113372 1.58686e-19)
(0.981218 0.00202782 2.06221e-19)
(0.366212 0.0942285 -5.28334e-20)
(0.871318 -0.0955199 2.25658e-20)
(1.33976 0.51873 -1.07872e-22)
(0.92562 0.0184277 -2.08316e-19)
(1.00357 0.00461888 2.44797e-19)
(1.00028 -5.2589e-05 1.44565e-20)
(0.790203 -0.0131322 0)
(0.729816 -0.0266192 0)
(0.725825 -0.0271181 7.65525e-22)
(0.702661 -0.0294475 0)
(1.38721 -0.0632217 0)
(1.23159 -0.14664 0)
(0.791994 -0.104604 -4.4747e-20)
(0.633892 -0.10052 2.51757e-20)
(1.56828 -0.419552 0)
(1.17929 0.105285 3.74395e-20)
(1.51865 0.395633 0)
(0.105245 0.223434 0)
(0.327328 0.0824131 0)
(0.727134 0.213256 -3.08844e-23)
(1.57241 0.259707 2.94032e-20)
(0.773272 0.0243244 0)
(0.785951 0.0201069 0)
(0.964498 0.0216715 -2.56555e-19)
(0.815179 0.00765623 4.77086e-19)
(1.00787 -0.00131646 0)
(1.0001 -0.000600306 4.52311e-19)
(1.00027 -0.000656102 -3.07465e-22)
(0.783589 0.0225684 4.07468e-19)
(0.9986 -0.00484221 -2.36691e-19)
(0.0581289 0.206826 0)
(1.02902 -0.150312 -2.25813e-20)
(1.0007 -0.000884707 -2.28484e-19)
(1.00002 0.0017943 -3.92326e-19)
(0.943852 0.315712 0)
(0.998874 0.00159536 0)
(0.99967 0.00025613 0)
(1.66344 -0.333318 -1.6524e-20)
(0.0916244 0.253006 4.86119e-20)
(1.16681 0.576202 0)
(-0.283807 0.346525 1.94947e-19)
(-0.124021 -0.460244 -2.63761e-19)
(1.02099 -0.00990952 -3.0518e-19)
(-0.0639639 0.021765 -5.81207e-20)
(1.01809 0.0107366 -2.45849e-19)
(1.13777 -0.202326 -1.36923e-19)
(0.772991 -0.440386 3.52525e-19)
(-0.0313653 -0.00469858 -4.80572e-20)
(1.02849 0.0173754 0)
(1.07003 -0.00865759 -6.68807e-20)
(0.842154 0.0265229 0)
(-0.0766968 0.127524 2.32275e-19)
(0.894183 -0.193919 0)
(-0.0760615 0.0993796 -1.56424e-19)
(0.729752 0.151829 4.8855e-20)
(1.71287 0.712875 -5.49658e-20)
(-0.056025 -0.00325973 0)
(1.05194 -0.0375317 2.05875e-19)
(0.126922 0.196316 3.62573e-21)
(0.929663 0.0136109 3.2056e-19)
(1.0132 -0.00508415 -2.07783e-19)
(1.72924 0.895759 1.48294e-20)
(0.550575 0.520267 0)
(0.479309 0.447439 2.19405e-19)
(2.1188 -0.264063 -1.51961e-21)
(1.17679 0.13712 2.23947e-19)
(1.05702 -0.684747 0)
(1.02432 0.00924637 0)
(1.00008 -0.0168282 -4.77813e-19)
(1.0182 0.0185569 -4.66665e-19)
(-0.0929388 -0.00503485 0)
(1.26336 0.855033 -1.58502e-19)
(1.2918 -0.290044 2.85409e-21)
(1.0163 0.00799554 1.79666e-19)
(1.01178 0.0156593 -2.25077e-19)
(-0.0749884 0.182495 -1.62481e-20)
(0.357576 -0.0219217 -9.69192e-20)
(1.01951 -0.0105321 7.65943e-19)
(1.50774 -0.287958 0)
(1.9192 0.68189 -1.93846e-20)
(1.01649 -0.00747306 -2.38639e-19)
(1.93979 -0.0193108 -4.84236e-20)
(1.06766 0.015033 -5.50863e-22)
(1.00961 -0.00837516 4.76507e-20)
(1.90188 -0.13205 -7.14032e-20)
(1.01532 0.00853805 2.31538e-19)
(1.02485 0.803368 8.36945e-21)
(1.01856 0.00940476 0)
(0.949491 0.175048 5.5971e-20)
(-0.908083 -0.478112 3.08927e-21)
(0.997704 0.0228764 2.29846e-19)
(1.03926 0.0217512 -5.7854e-22)
(0.944194 -0.196348 -1.60631e-20)
(1.29302 0.332656 4.87464e-19)
(0.993579 0.0186461 1.58357e-19)
(1.01783 -0.0102313 4.88027e-22)
(1.81545 0.25703 -3.36625e-20)
(1.83587 0.981998 -9.49589e-20)
(0.751516 -0.673164 7.33231e-20)
(0.420522 -0.271395 -3.45149e-19)
(1.00779 -0.00795294 0)
(1.01976 0.00538614 5.74894e-20)
(1.0116 -0.00566563 1.21249e-19)
(1.03554 0.685603 1.08706e-20)
(1.01431 0.0105885 -2.41123e-19)
(1.02387 -0.0140271 2.76783e-19)
(1.00855 -0.0054361 -2.26579e-19)
(1.01365 0.00945335 -5.14727e-22)
(1.01301 0.00606525 -3.59476e-22)
(1.02393 0.0178683 2.30954e-19)
(0.912146 0.114508 5.74722e-19)
(1.93926 0.158544 0)
(-0.0985594 -0.312223 4.33935e-20)
(1.01027 0.00111671 0)
(1.02277 -0.0100593 -6.69359e-20)
(1.58851 0.466998 -1.09703e-19)
(1.79407 -0.103499 0)
(1.93646 -0.149675 -9.52701e-20)
(1.3307 -0.168803 -8.61307e-20)
(0.784084 -0.0195711 0)
(1.64558 -0.154792 0)
(0.190447 -0.250589 -4.73454e-19)
(1.39567 0.365815 -4.60362e-20)
(1.01805 0.000764008 -2.42917e-19)
(1.08799 -0.538785 -7.45009e-20)
(0.65974 -0.096765 -5.69708e-20)
(0.972787 0.810434 0)
(1.44803 -0.246799 0)
(2.28442 0.101805 0)
(0.0416055 0.237837 8.93973e-20)
(0.939314 0.538789 6.24633e-20)
(-0.861872 -0.497361 0)
(-0.138799 0.267626 -2.05817e-19)
(1.75342 1.00439 -2.17842e-20)
(1.00744 -0.000358781 -4.74609e-19)
(0.76571 0.383886 5.31113e-20)
(1.02085 0.0172134 3.14582e-19)
(0.706776 -0.0446522 0)
(-0.148529 -0.0356016 -1.50512e-20)
(0.646677 0.478549 -3.73335e-19)
(1.84546 0.239308 3.16774e-19)
(0.00266297 0.289011 0)
(0.755737 0.0704362 9.59161e-20)
(0.545786 0.524209 5.6773e-20)
(1.22793 0.918947 -4.33682e-20)
(-0.080291 -0.0744237 7.5946e-20)
(1.02462 0.0220061 0)
(0.912067 0.63623 7.64935e-21)
(1.01147 0.00188201 1.78185e-19)
(2.40484 0.0803423 0)
(1.01197 0.010978 2.98836e-19)
(-0.129473 -0.00270799 -5.9223e-20)
(1.0189 0.0159718 -1.85146e-19)
(1.54357 1.05952 0)
(2.3644 -0.265636 4.21775e-22)
(1.00889 0.00668506 -1.24042e-19)
(0.996492 -0.010443 3.26866e-19)
(1.11362 0.110698 -3.26463e-21)
(1.07154 0.827108 3.31142e-20)
(-0.11842 -0.12732 2.04727e-19)
(2.10523 0.294739 1.58146e-19)
(0.17911 0.494343 -3.9931e-20)
(0.79981 0.0146109 -4.47924e-19)
(0.826385 0.0314742 0)
(0.155704 0.198293 3.16519e-20)
(1.02425 -0.0060024 -3.596e-20)
(0.971454 0.0463843 0)
(1.05474 0.00691935 -2.28208e-19)
(-0.760267 0.257396 3.7546e-20)
(-0.533298 0.0740037 1.12547e-19)
(2.10363 -0.522696 0)
(-0.349842 -0.179099 -6.13397e-19)
(1.46855 -0.325787 0)
(1.04214 -0.015872 6.68894e-20)
(0.798257 0.418574 8.19993e-22)
(1.01295 0.00431505 1.92834e-19)
(-0.173286 0.400695 3.09293e-19)
(1.01981 0.00742863 0)
(0.9946 0.00370421 -4.61928e-19)
(1.0087 0.0102149 2.45035e-19)
(1.13921 -0.306287 0)
(0.28486 0.179189 -2.28477e-21)
(0.956815 -0.00118343 -2.09155e-19)
(-0.101415 -0.00455841 2.00056e-19)
(1.00386 0.00035854 -2.38908e-19)