/*--------------------------------*- C++ -*----------------------------------*\
| =========                 |                                                 |
| \\      /  F ield         | OpenFOAM: The Open Source CFD Toolbox           |
|  \\    /   O peration     | Version:  2306                                  |
|   \\  /    A nd           | Website:  www.openfoam.com                      |
|    \\/     M anipulation  |                                                 |
\*---------------------------------------------------------------------------*/
FoamFile
{
    version     2.0;
    format      ascii;
    arch        "LSB;label=32;scalar=64";
    class       surfaceScalarField;
    location    "44.4";
    object      phi;
}
// * * * * * * * * * * * * * * * * * * * * * * * * * * * * * * * * * * * * * //

dimensions      [0 3 -1 0 0 0 0];

oriented        oriented;

internalField   nonuniform List<scalar> 
3181
(
-1.08655
0.422818
0.663729
-0.435956
0.404012
0.0319438
0.57404
-0.397033
-0.177007
0.138407
-0.226147
0.0877403
0.0374678
-0.054592
0.0171242
0.257446
0.00203561
-0.259482
0.166634
-0.159603
-0.00703154
0.0737334
0.00567507
-0.0794085
0.524433
-0.961944
0.437511
-0.0737638
0.155794
-0.0820306
-0.00996011
-0.0449164
0.0548765
0.208873
0.0203679
-0.229241
-0.00988056
-0.0627957
0.0726763
-1.10975
0.146836
0.962918
-0.349812
0.777015
-0.427203
-1.11665
0.629106
0.487544
0.0869156
-0.932046
0.84513
-0.210898
0.186937
0.0239614
0.829582
-1.46434
0.0373274
-0.0244417
-0.0128857
0.00898876
-0.0688782
0.0598894
-0.05339
0.0514111
0.00197892
1.078
-1.04742
-0.0305776
0.0534906
0.0336771
-0.0871677
-0.959983
0.320859
0.639123
-0.116053
0.25446
0.319415
-0.225423
-0.0939912
0.0333493
0.0707401
-0.104089
-0.380536
0.311401
0.0691351
-0.0317536
-0.0295317
0.0191908
0.0103409
-0.0295212
-0.930462
-0.0291663
-0.0510938
0.0802601
-0.0882905
0.865274
-0.776984
-0.0375784
0.0384849
-0.000906556
0.168075
0.254189
-0.422264
0.712269
-0.800559
0.0615946
-0.0526059
1.37393
-0.744768
-0.629163
0.0445863
0.21286
-0.127878
0.117998
-0.0554309
0.00204091
-0.463287
0.113475
-0.0986352
0.0432043
-0.604029
0.133666
0.470363
-0.168955
0.095191
-0.19028
0.195239
-0.0049591
-0.295464
-0.0856738
0.381138
0.159235
1.36785
-1.52708
0.00748926
0.0532842
-0.0607734
0.0077957
-0.0893676
0.094634
-0.00526643
0.537671
0.239343
-0.098634
0.118417
-0.0197834
0.123077
-0.152243
-0.190016
0.219617
-0.0296009
0.18002
0.0715347
-0.251554
0.123022
-0.129691
0.00666924
1.11336
0.260574
-0.884363
-0.202184
0.0900769
-1.63975
1.54967
0.522966
0.209922
-0.732888
-0.420797
-0.185553
0.606349
-0.400545
0.445131
-0.247845
0.770811
-0.352045
-0.114002
0.466047
-0.194912
-0.185624
-0.206434
0.157898
0.0485355
0.097196
0.300079
-0.397275
-0.498897
1.02333
-0.0181673
0.0919008
-2.00618
2.09626
0.217753
0.101662
-0.201657
-0.116148
0.317806
-0.274642
0.335877
-0.0612344
-0.0932403
0.101541
-0.0083005
-1.84695
-0.918759
0.00667914
0.91208
-0.0532755
0.0156972
-1.013
0.704052
0.308952
0.334428
-0.0883513
-0.246077
-0.498602
0.0980566
1.10476
-0.957922
-0.668642
1.1637
-0.200779
1.07524
0.145452
-0.181331
0.0358785
0.462063
-0.460028
0.226742
-0.226742
-0.00745402
-0.00286055
0.0103146
-0.236542
-0.055604
0.292146
-0.0342742
-9.06257e-05
0.0343648
-0.452469
0.862494
-0.410025
0.00766742
-0.271848
0.26418
-1.09317
0.0457463
0.318852
0.0546972
-0.37355
0.138084
-0.815474
1.0254
-0.0348032
0.0150252
0.019778
-0.0179177
-0.172098
-0.343203
-0.208855
0.552058
0.0154411
-0.358644
0.107163
-0.922638
0.34902
-0.801489
0.927766
-0.84085
0.110067
-0.0362229
-0.0738442
0.0681726
0.0473058
-0.115478
-1.28486
-0.260807
1.54566
-0.27375
0.444132
-0.170382
-0.470188
0.935694
-0.465507
-0.43466
-0.578344
0.000872303
0.00661696
-0.171478
0.164954
0.00652361
-0.074245
-0.00348433
0.0777293
-0.776878
-0.185066
-0.161095
0.0517066
0.109389
-1.69053
0.062931
1.6276
1.96861
-0.600766
-0.024399
0.0169449
0.0682473
0.149505
-0.185262
0.353337
0.0454056
0.11105
-0.156455
0.125115
0.0623067
-0.187422
0.160967
0.186209
-0.347177
-0.596923
-0.519727
-0.977203
-0.71333
0.019302
-0.0541052
-0.123653
0.204337
-0.0806835
-0.0499308
0.0273068
0.139328
-0.0597431
0.084871
-0.0251278
-0.108827
-0.026534
0.135361
0.086542
-0.086542
-0.204325
0.231632
0.349869
0.0986897
0.11654
0.103077
-1.31069
0.811795
-1.44752
0.100372
1.34715
0.0445443
-0.039003
-0.00554131
-0.0241618
-0.0456551
0.069817
0.559965
8.15606e-05
-0.560046
-0.0500254
0.0509395
-0.00091404
-0.220683
0.0163582
0.156804
0.705689
-0.386492
0.543296
0.00376493
-1.28862
0.0545751
-0.0171073
0.525528
-0.329124
-0.196404
-0.0672284
0.0657094
0.00151903
0.0538258
-0.34929
0.0252692
-0.944028
0.0529676
-0.176621
-0.317711
-0.437719
0.0468183
1.28964
-0.867642
-0.422
1.01069
0.278956
0.0751945
0.305943
0.0414114
0.00313286
-0.117876
0.0508516
0.0670243
-0.263552
-0.566289
0.829841
-0.389898
1.29165
-0.453807
-1.01053
0.262364
-0.0143219
0.0013216
0.0130003
-1.66028
0.594478
1.06581
-0.46695
-1.19333
-0.289106
0.607958
-0.906777
-0.0218101
0.00245988
-0.246461
0.244001
1.32814
-1.44808
0.119941
0.0254167
0.0291584
0.551125
-0.814678
0.207104
-0.166044
-0.0410608
-0.280703
-0.102413
0.383116
0.248042
-1.01343
-0.07974
0.0426149
-0.0555006
-0.515087
0.329534
-0.227198
0.0177462
0.209452
-0.0292873
0.054704
0.0710535
-0.0710535
-0.106016
0.115429
-0.00941334
-0.266219
-1.1813
0.103277
0.0337439
-0.137021
-0.0955052
0.0522679
0.0432373
-0.206087
-0.000346373
1.34333
-0.495638
-0.847688
-0.218515
0.483426
-0.264911
0.0216979
-0.0212308
-0.000467038
0.594816
-1.065
-0.171598
-0.00407056
0.175669
-0.195581
0.292777
-0.0896498
0.0880647
0.00158512
0.0720969
0.00935825
-0.0814552
-0.0962415
0.13909
-0.0428486
-0.046372
-0.0753857
0.121758
-0.244051
-0.0552355
0.299286
-0.714884
0.662651
0.0522328
-0.0123427
0.0460198
-0.0389009
0.0418782
-0.00297732
-0.0355701
-0.0515977
1.02068
0.947937
0.181056
-0.870742
0.689686
0.035885
1.92991
-1.9658
0.411526
-0.136519
0.363261
0.0441724
0.186659
-0.0615439
-0.0633661
-0.0260014
0.262202
0.139133
-0.0709607
0.740181
-0.419321
0.0661701
0.225976
0.0341381
-0.145657
0.111519
-0.816274
-0.129396
0.94567
-0.0488842
0.0488842
0.0589733
-0.251585
0.505773
0.0105012
-0.254552
0.13021
0.0567262
-0.0359922
0.0552941
0.120972
-0.130932
-0.346934
0.354601
-0.00309665
0.12092
-0.117823
0.427148
-0.406781
0.103581
-0.594202
0.490621
-0.226683
0.301878
0.20294
-0.532064
-0.215678
0.638496
0.18271
-0.0386518
0.0386518
0.100141
0.319634
-0.419775
0.418474
0.0256583
-0.0408292
0.046626
-0.00579687
-0.0457482
-0.141436
-0.0196594
-0.0462602
0.167232
-0.164356
0.221795
-0.0574392
0.111804
0.0273291
-0.409628
0.184205
0.170881
-0.0590767
-0.0411308
-0.048519
-0.0726073
0.0691173
0.00349002
0.164902
-0.11658
-0.0483219
0.0110226
0.365699
-0.376721
-0.121704
0.103537
0.092641
-0.0965327
0.00389177
0.0223031
-0.372211
0.475793
-0.0738911
-0.00586475
0.0797559
-0.0795278
0.0223701
0.0571577
-0.0786865
0.100362
-0.721247
0.620884
-0.0246012
-1.40099
-0.0494029
1.45039
1.01554
1.07764
-2.09317
0.0934209
-0.211858
0.398067
0.251547
0.240499
-0.492046
-0.199841
0.233979
0.159324
-0.923358
0.764034
0.0036917
-0.0832195
0.0235608
0.019054
-1.00528
0.451031
0.554246
0.867642
-0.760479
-1.55088
1.29008
-1.32814
1.42852
0.0454967
-0.0652802
-0.000514835
-0.038386
0.0192934
0.844225
-0.684901
0.138212
-0.0852444
0.422202
0.741496
0.00267075
-1.65066
1.68655
-0.792241
-0.518451
-0.23748
-0.366549
-0.00370687
-0.182215
0.236041
-0.583076
-0.408877
0.190363
0.841097
-0.281132
-0.834537
-0.716347
0.732181
0.0937321
-0.0900404
0.313044
0.0441021
-0.0441021
0.67403
0.144814
-0.818844
-0.221732
0.895762
0.559875
-1.72751
1.16763
0.0740755
0.0246142
0.0035759
0.0131088
-0.0166847
-1.63975
-1.29086
0.690098
1.04641
0.296919
-0.0393086
-0.150971
-0.303042
0.840713
-0.181009
-0.0461893
-0.0036409
-0.0895994
-0.0442745
0.0915803
0.359361
-0.225695
-0.788476
-0.26362
-0.0457255
-0.0785629
0.124288
-0.835683
0.699164
-0.102189
0.125847
-0.023658
0.0482584
-0.00684692
-0.16238
0.10692
0.0554597
0.0142192
0.451828
-0.033271
-0.0339575
-0.0171448
-0.0296168
0.0467616
-0.0157333
-0.155865
-0.693263
0.34841
0.344853
0.760947
-0.781651
0.0207043
0.1267
-0.146168
0.0194684
0.00426535
-0.00339305
-0.0683971
-0.158345
-0.12596
-0.0364196
0.0356903
-0.0290733
0.134399
-0.319661
-0.962244
1.4098
-0.447552
0.0246991
0.103276
0.0616257
-0.816274
-0.0370851
-0.00928689
0.141741
-0.0348207
0.0407865
-0.636252
-0.0786321
0.0566338
0.114247
0.51943
0.0762285
-0.473503
0.136426
0.324542
-0.269845
-0.136858
0.0280306
0.226483
0.827404
-1.05389
0.101847
-0.732744
0.630897
-0.989547
0.860151
-1.18597
0.560672
0.625295
-0.0221055
0.022915
-0.000809516
0.148882
-0.429585
0.191543
-0.112915
-0.0786286
0.0586991
-0.036329
0.0859626
-0.131688
0.0221694
0.0104753
-0.0460453
0.0227846
0.0568475
-0.0796321
1.57541
-0.00478038
0.00382083
0.000959554
0.0948598
0.00867731
0.855589
-0.0319645
0.0611229
-0.672826
-0.618038
-0.0152902
0.0893657
0.00828674
0.0949895
-0.625295
0.158345
0.0223142
-0.00883061
-0.0134836
-0.231196
0.0498653
0.117886
-0.0820075
-0.00180944
0.10335
-0.0443503
0.179327
-1.14157
-0.0260629
0.0488475
0.736779
-0.249236
-0.113017
0.0175115
0.317243
0.00639811
-0.0472273
-0.00936253
0.0959045
0.155087
0.18079
0.153716
-0.306111
0.152394
0.120329
0.58536
-0.0606078
-0.108347
0.929969
-0.205802
-0.724166
-1.18597
0.133806
0.627141
0.712269
-0.674617
0.784614
-0.109998
0.343449
-0.074974
-0.268475
-0.0422965
-0.456305
-0.0593668
0.0591595
0.000207281
-0.0661827
-0.160236
0.226419
0.118239
-1.07975
0.96151
0.042776
0.649701
-0.692477
-0.0494168
-0.122061
-0.00846933
-0.0654218
0.481716
-0.381574
-0.0208362
-0.00126929
0.0924275
-0.00318729
-0.0892402
-0.0249478
-0.0929281
0.00801927
0.0402391
-0.143695
0.107472
0.0376125
0.00426566
0.182472
-0.45432
-0.744836
1.82247
0.0265866
0.0222976
-0.996913
-0.0165162
0.136814
-0.0819465
-0.0549112
0.0511806
0.155924
1.08975
-0.402197
-0.687553
0.0759743
-0.0912645
-0.937505
-0.020417
-0.00177504
-0.64691
0.747273
-0.0198461
0.202556
-0.267155
-1.46035
0.179508
-0.47204
0.292532
-0.0689855
0.180035
0.0118078
-0.0124698
0.000662061
0.00584087
-0.102082
-0.0238384
-0.14826
0.759627
-0.65778
-0.0916888
0.0755154
-0.127137
0.289536
-0.13582
0.0893386
0.883883
0.359325
-1.24321
-0.110129
0.127876
-0.497831
-0.195432
-0.574338
0.647579
-0.628547
-0.0190318
-0.0639911
-0.0276978
-1.65066
0.51397
-0.51397
-1.20584
1.20584
0.844225
0.14863
-1.00993
0.8613
-0.900742
-0.0961711
0.590599
-0.341398
-0.249201
0.187377
-0.26806
-0.0164152
-0.0079838
-0.852812
-0.0698257
-0.93282
0.211574
0.00577445
-0.0843374
0.698178
-0.123367
-0.574811
0.530091
0.182178
-0.00201545
0.0138232
-0.968083
-0.533498
-0.0607047
-0.078531
-0.565763
0.644294
-0.119266
-0.807443
-0.640641
0.212955
-0.809877
-0.94567
1.37837
-0.432696
-0.157249
0.306014
-0.148765
-0.0112986
0.709477
-0.0977217
-0.980161
0.980161
-2.02754
1.77324
0.254306
-0.00645728
0.0016769
0.11714
-0.417095
0.758486
-0.0544338
-0.0742981
-0.0404612
0.0983498
0.0104056
0.0112923
1.93817
-1.3775
-0.308398
0.380495
-0.603397
0.951608
-0.348212
-0.0058391
-0.120121
0.11229
-0.0499828
0.398205
0.00913175
-0.0719275
0.347044
0.0186545
0.0399715
-0.229086
0.189114
0.156014
0.0392249
0.0881277
0.166672
1.57547
0.520791
0.70623
0.067922
-0.774153
-1.02818
1.62266
0.19463
-0.151425
0.0819958
-0.769618
0.687622
0.85486
0.157865
-0.504799
-0.0753935
0.14859
-0.0731968
0.15511
-0.230504
-0.419856
-0.095231
-0.0622826
0.0647792
-0.00249655
0.00999497
0.0276175
-0.130227
-0.0220165
0.684901
-0.630897
-0.0540044
-0.320163
0.330664
0.87018
0.586085
-0.242636
-0.0343937
0.0681376
0.170501
-0.336545
0.185643
-0.611716
0.426073
-0.0116084
-0.000861454
-0.235884
0.678287
-0.442404
0.00771227
-0.0126996
0.0049873
-0.022401
0.0155874
0.00681358
-0.265668
-0.194359
-0.275517
-1.12547
-0.179357
-0.760479
1.42852
1.29008
-0.212397
-0.193977
0.138742
-0.0553658
0.0601239
-0.00475804
0.314064
0.611242
-0.925306
0.515876
0.0747227
0.00113583
-0.0127442
0.110431
0.432593
0.0404612
-0.0311741
0.0051112
-0.34077
0.511272
0.0369081
-0.0729002
-0.308716
0.735864
1.01069
0.269858
-0.0697429
0.00184919
0.0678937
1.48136
-0.191282
-0.0682414
-0.0614496
-0.917908
0.15743
0.561095
-0.313053
-0.461741
-0.11093
0.572671
0.787204
-0.343414
-0.443791
0.754951
0.334798
-1.68655
0.0467998
0.0233911
0.0245725
-0.0479637
0.129767
1.80015
-0.2074
0.210976
-0.0275429
2.05269
-0.624173
-0.689517
0.0687084
0.620809
0.356374
-0.0184149
-0.333399
0.538055
0.849372
0.79429
0.0860132
-0.0243875
-1.03546
-0.313066
1.34853
1.17617
-0.0589374
0.0417926
-0.0440154
-0.343163
0.0861159
-0.285957
1.01766
-0.133774
-0.0935043
0.0295132
0.0471223
-0.721739
-0.0265243
0.0141816
0.124239
-0.167785
0.0435464
-0.325825
0.341452
-0.0156269
1.14082
-0.781499
-1.85271
0.955542
0.897172
0.0965708
-0.142205
0.0456339
0.248138
0.0413978
-0.247228
0.210143
-0.643197
0.643197
1.54967
0.530091
-0.732744
0.342641
0.506731
-0.508402
0.0886273
0.865038
-0.349162
0.00408777
-0.858315
0.854227
0.155143
0.000651141
0.0270244
-0.264821
0.0175931
0.0640278
-0.177305
-0.132824
0.310129
0.363701
-0.551873
0.374568
-1.01099
-0.267385
-0.639109
-0.0815611
0.00161601
0.00220482
-0.219995
0.152828
-0.0285397
0.0375795
-0.128
0.0904202
-1.74979
-0.277754
-0.00655959
0.0772997
-0.68606
1.09316
-0.4071
-0.610071
0.413667
-0.243152
0.364072
0.250719
0.0250558
-0.00149496
-0.70102
0.205381
0.0303463
0.0622947
-0.13248
0.00534323
0.183219
0.00832429
-0.403938
0.997409
0.402029
-0.196899
0.869623
-0.787628
0.739843
-0.422599
-0.573101
0.156006
0.145726
-0.785075
0.749401
0.0356737
0.762698
0.254958
-0.187531
-0.120866
0.0366521
-0.0367427
0.956234
-0.83787
-0.118364
-0.161887
0.0909264
0.0299509
0.135003
0.876494
0.371689
-1.1788
0.807111
-0.34379
-0.065087
0.659921
-1.34598
0.349036
1.19663
0.901654
-0.371564
0.178498
0.558862
-0.73736
-0.0498914
0.0446512
0.0289132
-0.00385742
-0.488149
-0.0849526
0.00187242
-0.0311597
-0.169249
0.122989
-0.569765
0.304854
-0.991349
-0.695866
-0.277191
-0.35115
1.42262
-0.0754723
-0.270115
0.253796
-0.594566
-0.162911
0.274958
0.0720857
1.15894
-1.0407
-0.170234
0.111157
-0.71129
0.312852
0.398438
0.0376454
-0.0142543
0.0431483
-0.0637154
-0.262109
-0.141774
0.697555
-0.410832
-0.286723
0.237831
0.15075
-0.108101
-0.0426489
0.235609
0.0393493
-0.561669
-1.53151
-0.087248
0.128034
0.925321
-0.553632
-0.149138
0.206296
-0.012185
0.0309324
-0.0187474
0.00635378
-0.0453568
-0.223994
0.0783367
0.0366361
-0.602325
0.445076
0.00803834
0.042567
0.0540038
-0.689656
0.97731
-1.11108
0.0158451
-0.175834
0.159989
-0.131285
-0.554912
0.686197
0.0921828
-0.728435
-0.800786
-1.05193
-0.0733409
0.00105594
0.072285
-0.283267
-0.647579
-0.168695
-0.164282
-1.03546
-0.211537
0.149993
-0.93175
-1.06136
-0.401308
0.159078
0.24223
0.28565
0.129912
0.379593
0.19334
-0.572933
0.155493
-0.0617608
0.678399
0.387569
-1.06597
-0.231543
0.514156
1.1085
-0.222258
0.164819
-0.573986
1.08814
0.234024
-0.442879
-0.0320967
0.0513902
-0.0235629
0.233053
-0.429953
0.695383
0.0918217
-0.688675
0.868002
0.232827
0.632211
0.989346
-0.0593775
-0.0146887
-0.901654
-0.639109
-0.714686
0.721366
-0.0899134
-0.834537
0.649701
0.628342
-0.934042
0.757439
-0.0116625
-0.773413
-0.314175
0.636095
-0.786318
0.150223
0.0902306
0.0605197
0.458725
0.265542
1.44886
-1.7144
-0.00719631
0.00881232
-0.243149
0.19696
0.728278
0.242618
-0.226259
-0.20334
1.83069
-1.76776
0.134154
0.727146
-0.305783
0.807203
-0.50142
-1.15946
0.846395
0.56198
0.531179
0.20087
1.61407
-1.34853
-0.00673224
0.203759
-0.059124
-0.0353925
0.172207
0.0065847
-0.0440017
0.037417
-1.01595
-0.0379331
0.329349
-0.802999
-1.62367
1.88651
-0.262832
0.356181
0.595427
-0.0573749
0.0615638
-0.00418895
-0.220883
2.05157
-0.717609
1.88145
0.179476
-1.80315
0.290143
-0.086384
-0.587242
-0.404107
-0.626386
0.320603
-0.0652761
-0.869978
-1.73199
-0.233803
1.61407
0.0481583
-0.851157
0.829779
-0.643492
-0.186288
-0.981884
0.394642
0.0184249
0.135865
0.00144974
-0.137315
-0.971516
0.567409
-0.234779
0.911599
-0.932016
0.17735
-0.193083
-0.087944
0.222343
0.400103
-0.162608
0.0155215
-1.2756
0.0323927
1.80315
-1.00886
-0.553863
-0.517249
1.07111
0.446137
0.0220577
-0.00894895
-0.73041
0.692477
1.50688
-1.72776
-0.363261
0.484939
-0.121678
2.02301
-0.136504
0.783855
-0.815609
-0.493019
-0.451009
-0.47065
-0.500866
0.802744
-0.802744
0.682252
-0.682252
-0.73041
-0.582996
0.582996
-0.484939
0.683896
-1.3306
0.522614
-1.16454
1.16454
1.50688
-1.72776
0.783855
0.769862
-0.769862
0.815609
0.759354
-0.759354
0.506981
0.52935
0.482751
0.342334
-0.499134
-0.548991
1.07834
-1.87584
-0.882661
0.256275
-0.0128131
0.574794
0.113692
0.0216807
-0.0536452
-0.88725
0.10173
0.78552
-0.121794
0.118087
-0.99965
0.580329
0.962106
-0.619464
-0.130334
0.0173737
-0.0188623
-0.788951
-0.0817903
-0.554246
0.0201444
-0.00109036
1.22917
-0.152111
0.11729
0.164375
-0.00317997
-0.00951462
0.0126946
-0.8082
0.0657955
0.742405
0.530714
-0.130611
-0.541751
0.394667
0.147085
0.917824
-0.737002
-0.180823
0.0761674
0.27717
-0.0128938
-0.0493889
-0.0434976
-0.0158692
0.204262
-1.03995
-0.805155
0.106672
-0.734365
0.797047
-0.062682
0.126083
-0.899539
0.773455
-0.801433
0.909163
-0.10773
-0.0675306
0.0738844
0.0196336
-0.266095
-0.0756765
0.396279
-0.101518
-0.785733
0.919797
-0.0966289
-0.823168
0.128748
-0.134587
0.517901
0.816307
-0.335159
0.430867
-0.356144
0.109264
-0.894997
0.800559
0.405283
-0.784555
0.0111424
1.01817
-0.892087
1.16083
0.812987
0.361005
-1.17399
-0.875321
-0.124329
-0.38679
0.0100693
-1.01786
0.330312
-0.786378
0.786378
-0.576881
-0.0915885
-0.864545
0.127543
-0.874383
0.795852
0.0687132
-0.181628
-0.0646133
0.0743137
0.0105572
0.194025
0.824145
0.817575
0.767453
0.14541
-0.912864
-0.17383
0.748623
-0.779803
-0.114381
0.894184
0.184305
-0.901914
-0.67052
0.890496
-0.781232
-0.114442
0.459201
-0.0496614
-0.409539
-0.179846
0.295923
-0.116076
-0.464033
-0.383482
0.847515
-0.894244
-0.83158
0.097215
0.490707
0.249135
-1.93917
0.0532068
-0.550643
0.550643
-1.10954
-0.16606
0.109704
-0.0921108
-0.175639
1.13118
0.776116
-0.221935
0.249494
-0.443853
-0.695994
-0.71777
1.41376
-0.243135
-0.538516
-0.0677203
0.639158
0.258822
-0.268109
0.157433
0.282232
-0.206065
0.778367
-0.886097
0.862625
-0.114002
-0.160176
0.740505
0.561406
-0.561406
-0.0697498
0.0629029
0.0978674
-0.0602879
-0.168428
0.464351
0.0887707
0.00370758
0.00991703
-0.0136246
-0.657375
0.696505
-0.0391307
1.1467
-0.785691
0.115877
-0.89711
-0.98492
1.32997
-0.345046
0.117436
0.877846
-0.252882
1.39958
-0.751699
0.589724
-0.668357
-0.630863
0.133032
-1.48168
0.0274202
0.129323
-0.669145
-0.81254
0.0107636
-0.642813
0.080286
0.716761
0.702408
-0.112683
0.0818283
0.773761
0.683656
0.795432
-1.47909
-0.457495
0.531997
0.38274
-0.999429
0.757568
0.241861
-0.686282
-0.123595
1.95271
-0.712236
0.330662
-0.0460604
0.486684
0.513316
-0.768173
-0.117924
-0.896756
0.175466
-0.0768711
-1.08849
0.399796
0.600204
-0.110326
0.119003
-0.864802
-0.0854898
-0.582867
-0.185631
-0.259502
0.445133
-0.0400093
-0.00434108
0.101444
0.0657885
-0.129272
-0.0947222
0.753517
-0.634023
0.715851
-1.45028
0.781136
0.766625
-1.39353
0.62691
-0.74972
-0.201757
0.951477
-0.265992
0.251727
-0.0257505
0.0137687
0.0409354
0.0188427
0.67394
-0.123297
0.145085
0.105634
-0.736916
0.0795415
0.162911
-1.45535
0.527522
-0.0369013
0.166711
-0.294553
1.03605
-0.0107944
0.22065
-0.248193
-0.018098
0.046903
-0.0842659
0.526104
-0.363193
0.528545
0.766089
-1.29463
0.850732
-0.0365105
-0.00199691
0.0385074
0.117289
-0.020509
-0.000327162
0.246518
-0.122279
0.761035
-0.936673
-0.497497
1.02604
0.0105919
0.317943
-0.627446
-0.851409
1.12864
-0.277235
-0.780684
0.847242
-0.066558
-0.765605
0.598136
-0.364111
-0.050348
0.357676
-0.440619
-0.101132
0.286329
0.481417
0.196136
-0.677553
0.422811
0.0555255
0.64098
-0.575844
0.543362
0.0324818
0.496556
-0.659466
0.0495459
-0.0554083
0.00586238
0.690556
-0.00984037
-0.0838272
0.0215795
1.54147
-0.571005
-0.1946
-0.0290056
-0.0738357
-0.068369
0.0115466
0.0547238
-0.0662704
0.0261454
-0.0195607
0.922079
-0.53451
0.126953
0.241886
-0.0290437
-0.107626
0.204952
0.102756
0.00089588
0.0547527
0.770842
-0.142469
1.00411
-0.861638
1.24905
0.400573
-1.64963
0.645485
0.145624
0.0123638
0.0403211
-0.052685
-0.399384
-1.30194
0.584168
0.00906788
0.723113
0.700449
0.0666033
-0.132992
0.591717
0.82979
-0.072601
0.16194
-0.847728
-0.022755
-0.277233
0.394531
-0.190799
0.684204
0.0866376
0.0116049
0.683547
-0.0854112
0.109964
0.159969
0.0486739
-0.117552
0.424202
-0.0550017
-0.449248
-0.0839089
0.214933
-0.0503673
1.29942
-0.167437
0.0107213
-0.0788363
-0.11295
0.0263059
-0.000296243
-0.0260097
-0.65289
-0.00657674
-0.0201548
0.798444
-0.23883
-0.60826
0.6153
-0.00704008
0.672028
0.763746
-0.483364
1.11027
0.072854
-0.160798
0.62171
0.142035
0.577984
0.12118
-0.248815
0.679682
-0.709389
0.346196
-0.626131
0.34985
0.276281
0.542678
-0.0714669
0.0473255
0.0533631
-0.0416562
1.03789
0.738263
0.0915262
0.599192
0.230649
-0.859386
-0.0793073
-0.66399
0.675132
-0.017611
-0.633898
0.448267
0.888486
0.677236
0.144535
0.00454317
-0.194449
-0.31035
0.815497
0.161813
-0.894061
-0.0494586
-0.589472
0.935667
0.961214
0.666387
-0.0701334
0.520802
-0.758583
0.944085
-0.185502
-0.412586
-0.213545
0.051065
-0.0564189
-0.186476
0.640167
-0.0384068
0.00879
0.629681
0.546616
-0.583517
0.591746
-0.135313
0.261788
0.695539
0.237026
-0.932566
0.278654
-0.922146
-0.162506
-0.948578
-0.195569
0.790566
-0.594997
-0.653982
-0.0366392
0.0504078
-0.0528451
-0.377455
0.0438315
-0.0560165
1.23671
0.0636143
-0.185868
0.122254
-0.00465404
-0.583076
0.0494024
0.171248
-0.359211
-0.0076867
0.00450673
-1.08866
-0.0515481
-0.575472
-0.000371287
0.567371
0.321116
0.534207
0.916185
-0.266292
-0.380542
0.646833
-0.572796
-0.616456
0.616456
-0.203548
-0.869237
1.07279
0.0277008
-0.13783
0.700336
-0.132965
-0.235503
-0.196688
0.52735
-0.199415
1.41979
0.42066
0.155981
-0.109163
-1.40745
0.486126
0.0572359
0.0341354
0.0274592
-0.91008
-0.648336
-0.555257
0.693345
0.306655
-0.648336
0.693345
-0.394934
0.06457
-0.394934
-0.696183
0.696183
0.303817
-0.015968
0.0996058
-0.0722656
0.172613
0.0212211
-0.436346
0.645955
-0.0542089
0.678878
-0.504767
-0.174111
-0.0737035
0.0778969
-0.0041934
-0.022133
0.0258406
-0.0845535
0.0213999
-0.023363
-0.436452
-0.327133
0.107138
0.0518614
0.843283
-0.28442
-0.134305
-0.460262
-0.00376262
-0.0389243
-0.0177859
0.666044
0.0570691
-0.0970028
0.0490056
-0.00224403
0.00798481
0.0889113
0.582449
-0.473434
-0.109015
1.02709
0.533272
-1.12879
0.846888
0.00993303
-0.0555882
0.0961348
-0.53232
0.122634
1.05399
-0.358454
0.0151513
-0.0967124
0.676791
-0.734262
0.0271365
-0.0271365
0.0146357
-0.0146357
0.0240406
-0.0240406
0.0265866
0.363655
0.453782
-0.0196131
-0.773442
0.49231
0.210911
0.0356068
-0.0783301
-0.488376
1.00863
0.108753
-0.795035
-1.45039
-0.00996295
0.117979
0.016941
-0.00135364
-0.0186577
0.0186577
0.842572
-0.0197137
0.0197137
0.70055
0.0721537
0.0399268
0.00907885
0.00766786
-0.0774107
-0.0262101
0.0262101
0.015205
-0.015205
-0.0184969
0.0184969
-0.0163893
0.0163893
0.0943215
-0.287784
-0.0920798
0.225242
-0.0165224
0.0165224
-0.368905
0.53345
-0.164546
0.542708
-0.236693
0.466831
-0.601136
0.565754
-0.0524079
0.0596167
0.555683
0.567071
-0.0109502
0.0109502
-0.461114
0.0201929
-0.0201929
-0.0162053
0.0162053
0.725661
-0.966212
0.0367099
0.622071
0.0562158
0.00764994
-0.00764994
-0.0172805
0.0172805
0.0157588
-0.0157588
0.0273845
-0.0273845
-0.0197054
0.0197054
0.0304409
-0.0304409
0.464621
-0.0273637
0.0273637
-0.00732278
0.00732278
0.0205169
-0.0205169
0.0139842
-0.0139842
0.0118643
-0.0118643
0.0180846
-0.0199856
0.0199856
0.502452
-0.00776086
-0.0343327
0.0343327
-0.0110069
0.0110069
-0.0315736
0.0315736
0.0289488
-0.0289488
0.0296103
-0.0296103
0.00794618
-0.00794618
0.0147151
-0.0147151
-0.0740478
-0.657802
0.0152726
-0.0152726
-0.00651326
0.00651326
-0.0332612
0.0332612
-0.0320551
0.0320551
-0.0117815
0.0117815
-0.386221
0.619048
0.324451
-0.0279948
0.0279948
-0.0467415
0.0191083
-0.0191083
-0.00578896
0.00578896
0.0427236
-0.0427236
0.16222
-0.000280565
-0.0153062
0.0153062
-0.0274918
0.0274918
-0.518012
0.0501166
-0.671976
-0.0360543
0.0360543
-0.464564
0.0394829
0.022081
-0.73594
0.0472647
-0.0322222
0.0322222
-0.180512
0.125511
-0.0473171
-0.00532192
0.00532192
0.0279027
0.0319868
0.260341
-0.331319
-0.307858
0.639177
0.223101
0.0150258
-0.0150258
-0.584619
0.424518
0.160101
0.80546
-0.422284
-0.383176
-0.428116
-0.667057
-0.473074
0.012812
-0.797143
0.339648
-0.572566
0.00413456
0.193744
-0.557403
0.00952452
-0.00952452
-0.00387001
0.00387001
0.0269908
-0.0269908
0.0300858
-0.0300858
0.00568407
-0.00568407
-0.00300856
0.00300856
0.0318233
-0.120175
0.199536
-0.329869
-0.00817781
0.00817781
-0.0514858
0.0514858
-0.0355008
0.0355008
0.133069
0.00913162
-0.142201
-0.0237543
0.343184
-0.582014
0.0102942
-0.0102942
0.0455223
-0.0455223
-0.0751801
-0.612882
0.139809
-0.00367062
0.00367062
0.0761547
0.0212317
1.00534
-0.478815
-0.0587233
0.537538
-0.647545
-0.756225
-0.261639
-0.0444542
0.0444542
-0.690493
0.303063
0.0439984
-0.0439984
-0.605509
0.356308
0.28786
0.120746
0.00321146
-0.00321146
-0.781892
0.00100663
-0.00100663
0.298139
0.411338
-0.0247596
-0.0476037
0.0476037
-0.00386925
0.00386925
-0.0373736
0.0373736
-0.0617206
0.0617206
4.70816e-05
-4.70816e-05
-0.0682442
0.0682442
-0.000946499
0.000946499
-0.0404089
0.0404089
0.0129481
-0.0522762
0.0522762
0.00580249
-0.00580249
0.042718
-0.042718
-0.00196542
0.00196542
0.0544733
-0.0544733
0.112329
-0.00329792
0.00329792
-0.00436876
0.00436876
-0.0570382
0.0959045
-0.00935606
0.00935606
0.00466099
-0.00466099
-0.052848
0.052848
0.281125
-0.0161696
0.0161696
-0.0668608
0.0668608
-0.00810329
0.00810329
-0.0600528
0.0600528
-0.0152349
0.0152349
-0.0720699
0.0720699
-0.01919
0.01919
-0.110407
0.110407
-0.672123
-0.323733
-0.508876
0.501836
-0.807443
-0.0425361
-0.609931
0.419133
0.00431587
0.233516
0.00346484
-0.00346484
0.210258
-0.753603
0.0330464
-0.00558714
-0.62931
0.811489
-0.378264
0.283205
-0.0581896
-0.00736388
-0.427122
-0.553995
0.0532992
0.389173
-1.08149
-0.00765222
0.00765222
-0.793411
0.026739
-0.026739
0.0140201
-0.0140201
0.293461
-0.120127
-0.00294194
0.00294194
0.0219424
0.0167093
0.595313
0.0844707
-0.0241299
-0.0121136
-0.00257508
-0.0758093
0.464502
-0.388693
-0.0525203
-0.0152
0.0211504
0.783599
-0.0173496
0.0758907
-0.403152
0.413221
-0.461875
-0.972633
-0.315987
-0.060274
0.0159995
-0.785654
0.402173
0.0740042
0.0018723
0.00764644
0.757518
-0.585091
-0.0227404
0.0714143
-0.029872
-0.262756
0.362361
0.440053
0.222598
-0.188821
0.242855
0.0173154
-0.00795719
-0.292608
-0.0154816
-0.103204
-0.082664
-0.0220211
-0.93949
-0.0693552
0.252876
-0.344939
0.363593
0.297892
-0.649043
0.0434268
-0.0866816
-0.0479055
-0.333153
0.480237
-0.0338126
-0.105968
0.139781
-0.0230134
0.0230134
0.162845
-0.405481
-0.0162577
0.0685256
-0.0650779
0.0474669
-0.0749649
-0.00960493
0.0845698
-0.0385974
-0.142311
0.0592336
-0.0487589
-0.304892
-0.383322
0.688213
0.0101425
0.049017
0.157423
-0.0123375
-0.0489355
0.0535377
-0.140498
0.286224
0.00188748
0.0366199
-0.0436351
0.201058
0.00396903
0.240032
-0.0132946
0.0132946
-0.644117
1.60533
0.0740394
-0.153347
-0.00727305
-0.111993
0.530598
0.868979
-0.09571
0.0246565
-0.528788
0.0199119
0.354328
0.0682825
-0.637433
0.288272
-0.0663691
0.401301
-0.706193
0.206047
0.551521
-0.0807154
0.0807154
0.00144974
-1.16976
0.254967
0.914789
-0.192494
0.139649
-0.211404
0.361137
-1.14264
-0.113276
0.0434918
-0.0440067
0.931064
0.469011
-0.324476
-0.0669839
-1.32758
-0.475574
-0.0612872
-0.321721
0.859777
0.618825
-0.275641
-0.399865
0.717809
0.484551
0.300063
-0.27716
0.0810002
-0.482272
0.317726
0.146014
-0.146014
0.120494
-0.0588136
-0.0616806
0.00792885
0.00942545
0.0309324
0.275062
-0.674446
0.252701
-0.190319
-0.0623825
0.572951
-0.999095
0.350909
-0.968947
0.710289
-0.142255
-0.187614
-0.0629629
-0.0788109
-0.462372
0.0259198
-0.263954
0.00332431
-0.0220211
0.350945
-0.0053499
-0.00753302
-0.00013305
0.0137704
-0.0080295
-0.00574091
-0.115292
-0.0162781
-0.152817
0.169095
-0.151234
-0.331038
0.0219424
0.342106
-0.0049323
-0.345946
0.0687552
0.00169601
0.0769063
-0.0965194
-0.0104466
0.0104466
-0.000355292
-0.00207546
-0.0106685
0.00031705
-0.113241
0.00117441
-0.00120853
0.120777
0.0351469
-0.00330263
0.00330263
0.088985
0.536622
6.75599e-05
-0.325175
0.481565
1.06542
-0.484387
0.362017
-0.435955
-0.131386
0.115128
0.258776
-0.255205
-0.0501877
0.0239478
-0.00510509
0.000702179
-0.196265
-0.42464
0.916949
0.286111
-0.254288
0.107054
-0.00149205
0.372753
-0.255317
-0.00182785
0.00210104
0.0218468
0.56655
0.00107143
0.000107268
0.687759
-0.634221
-0.238808
-0.54492
0.397776
0.000724305
-0.000591107
-0.0473171
-0.00644404
0.817134
-0.430878
0.488114
-0.379791
0.906859
-1.02392
0.623549
-0.204417
0.664493
0.00104154
0.00302034
0.0139207
-0.11202
0.143436
-0.100068
0.00869935
-0.00624748
0.0549354
-0.037494
-0.0174414
0.000280461
0.0873368
-0.0908628
0.003526
-0.085401
0.0104837
-0.000566618
0.00249985
0.441545
-0.410966
-0.0139487
-0.00148728
1.31476
-1.05979
0.421289
-0.00523139
0.00145192
0.396956
-0.270003
-0.0281138
-0.146838
-0.0263996
-0.00327854
0.0957892
-0.0294084
-0.000397474
0.434728
-0.000694978
-0.00584515
0.00584515
-0.00466509
-0.00744853
-0.00249374
-0.326316
-0.00330802
0.0645856
-0.106561
0.76961
-0.0653401
-0.0660091
-0.00211637
0.00107084
0.491949
-0.00247262
-0.00412894
0.0551939
-0.00187278
-0.00151313
0.113468
-0.0246972
-0.710573
0.478295
-0.902935
-0.21071
-0.000198624
-1.08308
0.0125611
0.144872
0.595228
-0.0172663
0.0563143
-0.00360536
-0.00128036
-0.548458
-0.00303539
-0.000993573
-0.0502608
1.07112
-0.648313
-0.00230907
-0.00101892
-0.00524425
-0.0013325
0.0623527
-0.0254955
0.0254955
0.0341387
-0.0362142
-0.0034423
-0.00720482
-0.0516143
0.0440813
-0.146477
0.07501
-0.00713165
-0.0120171
0.052769
-0.0128071
0.0526969
-0.0366974
-0.623767
0.561085
-0.0373445
-0.00119615
0.509542
-0.294608
-0.0827345
-0.722429
-0.0928348
-0.139419
-0.0844898
0.0826171
0.646707
-0.000725562
-0.0359217
0.0353306
0.0609476
0.0416613
-0.150197
0.108536