/*--------------------------------*- C++ -*----------------------------------*\
| =========                 |                                                 |
| \\      /  F ield         | OpenFOAM: The Open Source CFD Toolbox           |
|  \\    /   O peration     | Version:  2306                                  |
|   \\  /    A nd           | Website:  www.openfoam.com                      |
|    \\/     M anipulation  |                                                 |
\*---------------------------------------------------------------------------*/
FoamFile
{
    version     2.0;
    format      ascii;
    arch        "LSB;label=32;scalar=64";
    class       volVectorField;
    location    "44.4";
    object      U;
}
// * * * * * * * * * * * * * * * * * * * * * * * * * * * * * * * * * * * * * //

dimensions      [0 1 -1 0 0 0 0];

internalField   nonuniform List<vector> 
2186
(
(1.37015 -0.0697465 1.92659e-19)
(1.8252 -1.0308 -1.95703e-19)
(1.63226 -1.00394 -5.19286e-21)
(0.831431 -0.674348 -1.26348e-19)
(0.230649 -0.299991 -1.08962e-19)
(0.182683 0.179039 0)
(0.824511 -0.760468 0)
(-0.33292 -0.467928 1.98267e-19)
(2.16426 0.178458 2.83858e-19)
(0.629452 -0.430718 -3.06116e-21)
(0.598667 0.534735 0)
(1.2498 -0.272643 -2.36174e-19)
(-0.385579 -0.536998 -7.97351e-20)
(1.22013 0.018043 -3.69221e-19)
(2.03676 -0.70366 -1.91578e-19)
(1.0053 -0.00971975 1.79579e-19)
(0.979158 0.0102314 0)
(-0.35572 0.408137 0)
(0.649749 1.16205 0)
(-0.220011 0.030467 -1.7152e-20)
(0.474595 -0.0628098 -1.17138e-19)
(-0.16048 0.155505 2.52757e-20)
(1.20301 0.021408 3.06235e-19)
(-0.279128 -0.159182 6.42764e-21)
(1.04127 -0.00289361 -2.40971e-19)
(0.883905 -0.644745 0)
(0.77433 -0.118781 1.42176e-19)
(0.700581 -0.678014 -1.37264e-19)
(1.11591 0.643242 0)
(0.973714 0.0216315 -3.28909e-19)
(-0.126601 0.024026 0)
(1.03195 -0.0211736 1.1402e-20)
(-0.321682 -0.115492 0)
(1.13323 0.292922 7.14107e-21)
(-0.0946142 -0.18771 2.51742e-21)
(1.42146 0.709546 1.78016e-19)
(1.05639 0.0920047 -2.36251e-21)
(0.481181 -0.0101473 -3.532e-19)
(1.66507 0.204023 5.79676e-20)
(0.316161 0.0281372 -1.84413e-20)
(-0.409663 -0.597317 0)
(-0.100316 0.0665591 0)
(2.17613 -0.928558 1.54683e-19)
(-0.361188 -0.0292132 0)
(1.04502 0.236579 1.79751e-19)
(0.662754 -0.407103 2.6535e-19)
(1.05575 -0.892594 0)
(1.31661 -0.863029 6.5889e-20)
(2.35977 -0.119155 0)
(-0.0598025 0.139323 6.94415e-20)
(-0.133927 -0.0020877 2.53277e-20)
(0.555794 0.511891 1.00407e-19)
(2.35071 -0.73463 1.95255e-19)
(0.546127 0.150669 -2.90601e-19)
(-0.356673 -0.288335 1.1527e-20)
(0.861491 -0.738163 0)
(1.95907 -1.08061 2.62987e-20)
(0.667165 -0.623747 0)
(2.04882 0.193222 -1.54372e-20)
(1.19541 -0.194673 -3.12361e-19)
(1.81195 -0.180293 1.3523e-20)
(1.26334 0.266615 -2.36069e-19)
(1.25118 0.48226 0)
(0.445167 0.240995 2.02066e-20)
(1.2739 0.353324 -1.58574e-19)
(1.37871 -0.80874 -8.11675e-20)
(1.07911 0.596986 7.01945e-20)
(0.676148 -0.0299341 -5.64599e-19)
(0.810961 -0.0216755 0)
(2.52818 0.259266 -8.18189e-20)
(-0.306709 -0.493261 -2.31905e-19)
(2.05478 -0.167175 -3.31254e-20)
(0.739811 -0.139227 -2.44061e-19)
(0.965452 -0.5988 0)
(0.797317 0.0980646 -9.46408e-20)
(0.634148 -0.596858 -2.62651e-19)
(2.60595 -0.229833 0)
(1.00726 0.00564425 3.63825e-19)
(-0.0520532 -0.251051 0)
(1.86819 0.295295 0)
(0.356031 0.48467 5.77092e-21)
(0.466046 -0.0147786 2.59805e-20)
(1.02761 0.00012588 3.9972e-20)
(1.22563 0.369326 3.82789e-20)
(0.982808 0.0184631 4.17492e-19)
(1.0497 0.0194222 -9.9611e-21)
(0.638947 0.0688802 -3.45763e-19)
(0.46274 0.11357 -5.94392e-21)
(-0.126911 -0.0877794 0)
(-0.0749732 -0.0835401 1.74508e-19)
(0.95866 -0.707418 -1.33863e-19)
(-0.0848939 -0.183061 -2.74882e-21)
(1.15796 -0.101749 2.30768e-19)
(0.865221 -0.265898 0)
(0.980081 0.0215221 4.01805e-20)
(1.26409 0.587885 0)
(1.82151 -1.02664 0)
(1.21678 0.20198 0)
(0.098002 -0.0645628 0)
(0.891602 -0.759575 2.43919e-19)
(0.477007 0.737063 -7.83997e-20)
(0.439245 0.70199 3.77657e-20)
(1.47894 0.177871 0)
(1.18405 -0.121896 -2.10951e-19)
(1.12603 0.0215348 1.79627e-19)
(-0.340191 0.0237827 3.33442e-20)
(0.554824 0.407094 0)
(2.12185 0.0860493 -1.21325e-19)
(1.05299 -0.55547 6.91592e-20)
(-0.237727 1.39248 9.19755e-20)
(1.61561 0.27821 3.13975e-20)
(-0.00472565 0.00644044 -1.21856e-19)
(0.929442 -0.842798 0)
(0.494042 0.229695 1.79418e-19)
(2.12735 0.0373522 -8.49105e-19)
(-0.509485 -0.828975 -7.9669e-19)
(1.58194 -0.11774 1.02816e-19)
(2.0837 -0.176506 0)
(-0.104345 -0.122398 -5.21462e-19)
(0.735604 -0.174989 7.57823e-20)
(1.44063 0.808414 0)
(-0.223578 0.352516 -6.47875e-20)
(0.798084 0.679811 -3.32459e-19)
(-0.611346 0.552675 1.99456e-19)
(1.02499 -0.0305654 0)
(1.50205 -0.479877 -1.29489e-19)
(0.171511 -0.170875 0)
(0.784727 -0.588661 -9.38293e-20)
(-0.450506 0.433278 -9.93464e-20)
(0.896499 -0.817103 0)
(0.518236 -0.423785 3.85296e-19)
(0.63365 -0.558141 2.49787e-19)
(0.485048 -0.439296 0)
(1.1044 -0.873271 -8.1123e-20)
(0.416532 0.449275 0)
(-0.158644 0.278952 -5.44354e-20)
(0.91429 -0.791404 1.12421e-19)
(2.23904 0.109864 3.24237e-19)
(2.08542 0.129318 0)
(-0.171099 -0.244751 0)
(0.608987 0.56376 -4.28484e-19)
(1.97912 -0.620671 5.03967e-20)
(-0.242657 -0.293637 0)
(1.10007 -0.900326 -9.39335e-21)
(1.19421 -0.114533 0)
(1.12187 -0.148801 3.63685e-19)
(2.10992 -0.00527507 -1.41859e-19)
(0.172853 -0.242036 0)
(1.33648 -0.607916 -3.7397e-20)
(-0.471865 0.0259034 -1.43836e-20)
(0.19711 -0.249674 0)
(1.2144 -0.905547 1.54204e-20)
(1.00791 0.00265501 -6.07757e-19)
(0.741222 -0.580016 -9.32926e-21)
(0.907884 -0.60531 0)
(1.3279 -0.806166 -5.75592e-20)
(0.60602 0.128855 2.72336e-19)
(1.14624 0.102122 0)
(1.36455 0.0947172 -4.66249e-19)
(1.33013 -0.949455 -7.90115e-20)
(-0.161057 -0.228463 -1.89785e-19)
(0.158305 -0.273509 -3.23494e-19)
(1.05039 -0.010745 2.37272e-19)
(1.00853 -0.540928 -8.69537e-20)
(0.482685 0.952372 5.50323e-21)
(0.60406 1.04766 1.12812e-19)
(1.075 -0.160241 2.17076e-19)
(0.0131752 -0.00298913 -4.78287e-19)
(1.43725 -0.572617 0)
(1.57926 -0.901952 4.58854e-20)
(1.34259 0.590656 2.23804e-19)
(0.904382 -0.703137 -1.77984e-19)
(0.995934 0.00649392 1.24444e-20)
(0.815244 -0.622548 2.57684e-19)
(1.20079 0.730744 1.93712e-19)
(1.73081 0.107831 -1.66521e-20)
(0.131886 -0.287624 0)
(1.06544 0.0381008 -2.49013e-19)
(-0.434117 0.429888 -3.83047e-19)
(0.991467 0.429716 9.53588e-20)
(0.52405 -0.0966491 2.88465e-19)
(1.16828 0.0231319 -4.29411e-20)
(-0.23307 -0.159679 -4.37877e-20)
(1.19784 0.523544 -1.13036e-19)
(1.03861 0.805542 0)
(0.0355298 -0.226787 -7.5229e-20)
(-0.140017 -0.672189 0)
(0.57062 0.47917 -3.11732e-19)
(1.89282 0.213944 6.46763e-21)
(-0.493815 -0.651265 2.67248e-19)
(-0.408808 -0.133439 -6.03578e-19)
(0.715422 -0.0319468 2.48345e-19)
(1.80062 0.313704 -8.78661e-21)
(1.06021 -0.40871 -2.63252e-20)
(-0.107945 -0.127025 0)
(-0.275895 1.5894 2.69481e-19)
(1.21191 0.886707 -8.71028e-20)
(0.823765 -0.00789592 -1.38542e-19)
(0.483407 0.450924 2.18969e-19)
(0.408957 0.191629 0)
(0.00186188 -0.462122 -3.75902e-19)
(0.281708 -0.0995141 2.95301e-19)
(1.46322 -1.06377 -1.98473e-22)
(1.00278 -0.0733372 -1.86323e-19)
(-0.136373 -0.211685 6.06672e-21)
(0.249303 -0.261726 8.25099e-20)
(-0.248666 -0.270729 -3.41901e-19)
(2.19841 -0.329512 0)
(1.10362 0.0335524 -3.39534e-19)
(2.16219 0.255495 5.37983e-20)
(1.40094 -0.673639 5.4418e-20)
(0.544918 0.184652 6.53171e-22)
(0.527178 0.208304 0)
(0.854574 0.671646 -2.00057e-20)
(0.605706 0.553957 2.19624e-19)
(0.993346 -0.646649 1.2237e-19)
(0.604507 0.407443 0)
(1.02791 -0.0100655 8.0676e-21)
(0.98434 -0.75121 1.72403e-19)
(0.772302 0.341422 -5.03597e-19)
(1.29284 -0.123789 0)
(-0.208051 -0.301195 -5.96535e-19)
(-0.297448 -0.0836074 -3.43671e-20)
(1.46967 0.660831 0)
(1.51793 -1.02847 1.69961e-22)
(-0.278231 0.398257 0)
(0.239913 -0.274391 6.54367e-20)
(0.653005 0.570222 -1.12815e-19)
(0.89392 -0.293157 0)
(-0.172448 -0.30697 0)
(2.06162 -0.421021 0)
(-0.0230547 0.662528 4.02805e-19)
(1.36081 -0.973784 5.21506e-20)
(1.29471 -0.669623 4.15087e-20)
(1.11933 -0.188403 -1.38059e-19)
(0.985556 -0.781456 -1.33596e-19)
(0.220448 -0.225824 0)
(-0.823215 0.722877 0)
(1.10087 -0.578654 1.39437e-19)
(-0.2108 -0.300013 0)
(-0.0330369 0.178705 0)
(-0.438811 -0.818536 6.78724e-19)
(0.709052 0.589021 9.78288e-20)
(0.92195 0.715107 0)
(0.615275 0.462939 -9.43985e-20)
(0.845948 -0.124894 -2.18993e-19)
(0.664984 0.474712 -2.53778e-19)
(0.515594 0.474087 -1.88815e-19)
(-0.253234 -0.46354 1.01774e-21)
(0.815688 -0.730251 0)
(0.868255 0.105032 -3.40091e-19)
(-0.318981 -0.554764 1.03772e-19)
(0.528455 0.487926 4.35595e-19)
(0.866619 0.716396 0)
(0.0341751 1.02949 2.8198e-19)
(-0.101835 -0.299139 5.84035e-19)
(-0.127629 -0.176219 -3.07698e-19)
(0.580894 0.480441 -1.64089e-20)
(0.969462 -0.0112579 5.95118e-20)
(-0.418981 -0.639499 0)
(1.78436 0.42828 -1.82198e-19)
(2.1461 -0.993896 -1.45977e-19)
(0.746347 -0.692582 -6.11632e-20)
(-0.292128 0.624717 4.87059e-21)
(1.10914 0.405265 2.27301e-19)
(0.819688 0.335654 0)
(1.10779 -0.204815 1.73742e-19)
(0.011418 -0.340722 2.64411e-22)
(-0.131502 -0.15011 1.01838e-19)
(0.941282 0.0164026 -5.1137e-20)
(1.04324 0.117641 0)
(1.66377 0.127174 -2.3045e-19)
(1.78594 0.142382 0)
(0.500603 0.123794 -4.72996e-19)
(0.279622 -0.281673 0)
(-0.292496 -0.456903 4.5593e-19)
(0.74548 0.104665 0)
(0.713099 -0.613237 -1.59655e-19)
(1.15758 0.0127375 2.03772e-19)
(0.0472777 -0.0568323 2.24938e-20)
(1.96945 -0.141524 7.0857e-21)
(2.29879 0.0370262 -1.921e-19)
(1.05371 0.186082 -2.45602e-19)
(-0.330427 -0.593241 -2.00303e-19)
(1.20239 -0.945795 0)
(0.82412 0.0163373 -1.48495e-19)
(1.00481 -0.449664 -2.55713e-19)
(1.88783 -0.57534 -1.75264e-20)
(1.66415 -0.0148465 2.53123e-19)
(1.05264 -0.0200509 4.01615e-19)
(0.00598616 -0.262628 -2.76426e-19)
(1.07966 -0.506015 -1.04766e-19)
(0.23212 -0.223968 2.26273e-19)
(1.00737 -0.012608 0)
(1.00489 -0.0111079 0)
(1.70049 -0.815335 1.29108e-19)
(-0.156689 0.213392 -3.59431e-20)
(0.268192 -0.113859 -2.48699e-19)
(2.04711 -0.0149132 2.13962e-21)
(1.52287 0.113369 0)
(1.69458 0.268263 -1.90643e-20)
(1.07652 -0.931874 -3.12451e-20)
(2.0351 -0.531972 -1.47423e-19)
(1.00925 0.757285 0)
(0.550613 -0.535167 0)
(0.521667 0.424315 -1.93899e-19)
(1.03289 0.234688 -4.63033e-19)
(2.17691 0.018881 5.59317e-22)
(0.837507 0.0902048 1.44634e-19)
(0.182784 -0.288847 -7.91595e-19)
(0.966981 0.335514 4.93323e-21)
(-0.0382509 -0.434957 0)
(-0.161382 -0.245495 0)
(-0.483538 -0.72861 0)
(1.4838 -0.786101 -1.83866e-20)
(0.15361 -0.239522 -9.76374e-20)
(0.199782 -0.289668 0)
(1.17751 0.887765 -6.98358e-20)
(1.05463 0.114755 -4.69164e-19)
(0.755305 -0.254229 7.36078e-20)
(0.979039 0.833261 1.38458e-19)
(-0.0227537 -0.0127633 6.0112e-20)
(0.499985 0.226056 0)
(-0.476975 -0.712587 -5.45561e-19)
(0.131851 -0.139514 1.23481e-19)
(0.774006 -0.0527279 1.81304e-19)
(1.40914 0.867839 -9.89844e-20)
(0.966732 -0.970652 -1.64202e-20)
(-0.17935 -0.19779 -3.95048e-21)
(0.848188 -0.771749 -2.73502e-20)
(1.02601 0.00372385 0)
(1.48941 -0.098003 0)
(1.10304 0.057563 0)
(-0.0694959 0.322999 -1.52062e-19)
(-0.379542 -0.669027 1.94288e-19)
(0.951214 0.762028 0)
(1.00962 -0.0340753 5.00459e-19)
(0.684269 0.517545 -2.57158e-19)
(0.0971874 1.03802 -1.26811e-19)
(0.856828 -0.0518487 -4.07285e-20)
(0.808153 -0.739629 -1.72467e-19)
(1.28034 0.644616 -5.74197e-20)
(0.655091 -0.561931 -2.62023e-19)
(1.11572 -0.0039352 -4.67231e-19)
(0.843487 0.0283176 4.24582e-20)
(1.60932 -0.144273 2.73149e-20)
(0.89681 -0.32185 4.56774e-20)
(-0.128443 -0.151136 -2.82676e-22)
(1.00028 0.401067 -3.12952e-19)
(1.19791 0.550754 6.6727e-21)
(-0.138452 -0.269054 0)
(0.228344 -0.367146 2.94086e-19)
(-0.248986 -0.425366 2.50049e-19)
(-0.157291 -0.241408 -2.42269e-19)
(0.39578 0.178488 0)
(1.82223 -1.06473 0)
(-0.00213027 -0.0285095 -3.38868e-20)
(-0.240186 -0.544917 -1.08621e-19)
(1.03894 -0.035761 1.85052e-19)
(0.192019 -0.386903 -3.45421e-20)
(1.61819 0.242587 -2.73161e-19)
(-0.32715 0.161709 0)
(0.940739 -0.832027 -2.17973e-19)
(0.417102 -0.0362932 -3.78817e-20)
(-0.0307813 0.0143596 2.76725e-19)
(0.686384 0.0582041 3.37371e-19)
(0.59551 0.00922699 1.08245e-19)
(0.581487 -0.554273 1.75616e-19)
(-0.267786 -0.346455 -2.42135e-19)
(0.717622 -1.06149 0)
(0.312345 0.210835 -2.04672e-19)
(1.02475 -0.0225675 -2.93088e-19)
(-0.387951 -0.0663267 2.36449e-19)
(1.31351 0.435043 -1.91426e-19)
(-0.227765 -0.345399 -9.26194e-20)
(0.809543 -0.735041 2.3417e-20)
(0.772531 0.108745 -2.1732e-19)
(0.907415 0.356796 2.61277e-20)
(1.20308 -0.173945 3.07797e-20)
(0.661727 -0.345828 -2.78231e-19)
(2.19076 -0.197594 -2.77029e-19)
(1.45495 -0.300306 0)
(1.18208 -0.339206 7.22488e-20)
(0.678758 0.188792 -1.93489e-20)
(1.74755 0.476259 2.00935e-19)
(0.842389 0.341591 -5.89787e-20)
(0.567027 0.0297241 -4.07315e-20)
(0.339481 0.291353 -2.69265e-19)
(-0.160717 0.515927 4.85552e-20)
(2.42764 0.463584 0)
(0.925563 0.00343613 0)
(0.991178 -0.87392 3.64718e-20)
(-0.093869 -0.347249 -6.39641e-19)
(-0.506513 0.830946 -1.19851e-19)
(-0.154916 -0.192833 -4.0181e-19)
(-0.201657 0.325524 -6.60353e-20)
(-0.0118025 -0.396927 0)
(-0.155243 -0.21603 7.22002e-20)
(-0.470575 0.125459 -2.67137e-20)
(0.250778 -0.252091 -1.89943e-19)
(0.841119 -0.193758 0)
(1.68617 -0.962266 5.57901e-20)
(-0.256097 -0.345768 0)
(0.998797 0.0224548 3.64534e-19)
(0.236939 -0.289771 3.87063e-20)
(0.629987 -0.534617 3.51022e-19)
(-0.336743 0.141045 6.35361e-19)
(-0.741563 1.27976 0)
(-0.221948 0.205038 1.42849e-20)
(1.01039 0.0160089 -1.0954e-20)
(0.0521628 -0.0787464 0)
(1.00411 -0.0115707 -5.75075e-20)
(0.964279 -0.816943 -2.19816e-19)
(2.02235 -0.921028 0)
(0.994098 -0.339055 1.85194e-19)
(-0.14025 0.381214 5.4054e-20)
(-0.0793834 -0.0816138 0)
(0.00610468 -0.472024 -1.06804e-20)
(0.820313 -0.723047 -3.55409e-19)
(0.983846 -0.0261266 -2.51032e-19)
(-0.0606054 -0.364009 7.77308e-19)
(-0.237021 -0.410914 2.81375e-19)
(-0.0516141 -0.490263 0)
(0.888136 0.404315 0)
(0.179828 -0.213919 3.54585e-19)
(1.78229 0.829893 -9.26435e-20)
(0.977987 0.810476 2.68231e-20)
(1.03022 0.171292 -1.33704e-19)
(1.17712 0.000322258 -1.99426e-19)
(1.11577 -0.0792099 -6.51684e-20)
(-0.0569979 -0.399261 -7.03409e-19)
(1.92731 0.169653 -6.68453e-21)
(0.620505 0.0323077 2.35096e-19)
(1.29617 0.199593 4.72535e-20)
(1.10632 -0.170548 0)
(0.538383 1.17188 2.00534e-19)
(1.14719 0.0223878 -4.9406e-19)
(1.62657 0.566644 7.92857e-20)
(0.826432 -0.547091 -1.42513e-19)
(-0.117292 -0.120382 3.89902e-19)
(0.899448 -0.789941 2.93193e-19)
(1.1606 0.172833 9.10987e-20)
(1.0062 -0.00924335 2.54791e-19)
(0.172827 -0.390183 -2.98295e-19)
(1.01033 -0.00141004 0)
(0.829016 0.00505785 5.26985e-20)
(-0.103579 -0.101022 0)
(1.01688 0.00772974 -1.48135e-19)
(-0.102776 0.89584 -4.36225e-19)
(1.60961 0.28481 8.90869e-20)
(-0.406926 -0.851343 2.70629e-19)
(1.43897 -0.0119377 6.12248e-20)
(1.01021 -0.0231159 5.32129e-20)
(1.35565 -0.109701 0)
(1.59162 -0.641942 -4.11149e-20)
(1.01001 0.00918276 -1.60066e-19)
(1.32977 0.720879 -1.43786e-19)
(1.31603 -0.0412001 0)
(2.14906 0.966315 2.72381e-20)
(-0.0207114 -0.0275262 0)
(1.41301 0.0831115 0)
(-0.376765 -0.642305 0)
(1.16023 0.394602 0)
(1.67234 0.200438 -8.31469e-21)
(0.657413 0.532784 4.51369e-19)
(0.341476 -0.344365 -2.07737e-19)
(-0.227139 -0.500506 -6.63062e-19)
(-0.112994 -0.134813 0)
(1.62488 -0.871405 6.33127e-21)
(1.21704 0.485173 0)
(1.35081 0.270039 0)
(-0.43463 -0.712015 2.36338e-19)
(0.723939 0.636448 1.58433e-19)
(1.72547 0.0459518 0)
(-0.402348 -0.50196 1.52342e-19)
(0.863182 0.148982 1.9977e-19)
(1.87513 -0.792325 -4.22968e-20)
(1.13671 0.845489 7.15043e-20)
(1.05771 -0.947469 -5.18435e-21)
(0.719462 -0.318422 -5.27611e-21)
(0.709837 0.639168 1.65527e-19)
(1.07577 0.842491 0)
(2.46517 -0.455854 3.6787e-20)
(0.354611 0.852927 0)
(1.52306 -0.859983 1.97891e-20)
(0.996304 0.0866826 6.16011e-20)
(1.00515 -0.0111198 0)
(-0.0549809 1.33984 1.19715e-19)
(0.935207 -0.244378 4.41928e-20)
(0.712896 -0.511083 0)
(0.746016 -0.483911 1.91941e-19)
(1.14645 0.499503 -4.36261e-20)
(0.404792 0.377056 3.05482e-19)
(0.277198 -0.278125 2.40872e-20)
(-0.263685 -0.192597 2.30466e-20)
(0.795284 0.0563284 0)
(1.47464 -0.99023 2.06444e-20)
(1.02345 -0.0473971 4.12682e-19)
(1.42024 0.323661 4.67604e-20)
(-0.442586 -0.554226 1.32244e-19)
(-0.253014 0.638026 0)
(1.30502 -0.258064 -9.22661e-20)
(-0.0814665 -0.0864205 -3.32933e-19)
(0.801996 1.29679 -3.04862e-20)
(-0.122043 0.0594729 -7.94617e-22)
(-0.178352 0.0909375 9.25555e-20)
(0.343784 0.283637 4.21901e-20)
(2.00221 0.225734 2.44133e-19)
(1.10683 0.41079 -3.66506e-19)
(0.797333 -0.0384255 0)
(1.65582 -0.156705 -4.95148e-20)
(1.52066 0.0917165 8.55641e-20)
(1.02093 -0.857387 1.02288e-19)
(1.32173 -1.10225 2.19308e-20)
(0.410647 0.377873 2.07635e-19)
(1.08183 0.878453 0)
(1.62619 0.532151 -4.02112e-20)
(-0.0967713 -0.112564 -6.7748e-19)
(0.798751 0.69263 0)
(1.28484 -0.624005 0)
(0.344608 -0.34446 -4.68813e-21)
(0.24451 0.174825 0)
(-0.702615 0.8303 -4.62509e-19)
(0.310211 -0.314384 -6.30683e-20)
(2.02752 -0.359711 0)
(1.18726 0.0692822 3.54993e-19)
(-0.531544 0.779246 9.76332e-20)
(0.614997 -0.585915 -3.90147e-19)
(1.49287 0.10742 -2.37483e-20)
(0.69921 -0.637346 0)
(0.955225 0.107735 0)
(1.64265 -0.209176 0)
(1.06281 0.186181 -2.6575e-19)
(1.28915 0.0935448 3.79952e-19)
(-0.783439 1.19451 0)
(0.916137 -0.0612085 0)
(1.92988 -0.205971 -5.64199e-21)
(0.0525906 -0.265661 3.29841e-20)
(2.49679 0.0289875 -7.22925e-20)
(1.32639 -0.608144 3.46296e-19)
(2.01649 0.0667908 -1.81591e-20)
(-0.624158 0.577939 -6.69874e-20)
(1.86884 0.177152 4.97613e-20)
(1.0237 -0.0417324 4.09893e-19)
(1.40439 0.549139 0)
(0.19067 -0.178348 1.66296e-20)
(1.12597 -0.924416 1.10135e-19)
(0.868395 -0.0877894 4.76088e-20)
(0.721689 -0.532146 0)
(2.10726 -0.480849 1.87265e-20)
(1.28147 -0.220537 1.17543e-19)
(1.74328 -0.954672 0)
(0.695694 -0.646866 3.26114e-19)
(1.43877 -0.111134 1.22733e-19)
(2.27165 0.103989 1.20271e-19)
(0.131987 -0.2839 -8.39358e-20)
(1.23215 0.559613 2.16766e-19)
(1.0709 0.354275 4.39609e-21)
(0.842393 0.298575 2.46708e-19)
(1.42529 0.769917 -5.37711e-20)
(-0.0434487 -0.431886 -3.69478e-21)
(1.73126 0.461558 0)
(-0.118378 -0.113068 6.36998e-19)
(1.26546 -1.09085 0)
(1.17817 -0.726609 1.58849e-20)
(1.57667 1.05835 -4.02091e-19)
(1.35921 1.1199 1.32759e-19)
(-0.385917 -0.270111 -6.12573e-19)
(0.910684 0.416724 2.0314e-19)
(-0.237829 -0.0436326 1.67854e-19)
(0.678836 -0.041808 0)
(1.85976 -0.137778 0)
(0.511441 0.0129179 1.79688e-20)
(0.799536 -0.00692615 0)
(1.4336 -0.21382 -1.20951e-19)
(-0.799175 0.743392 4.28411e-19)
(1.80802 0.458764 -9.78388e-20)
(1.02452 -0.0378466 0)
(0.634976 -0.465082 9.26062e-20)
(1.01089 0.0254096 1.95736e-19)
(0.127355 0.671344 7.45292e-21)
(-0.298232 0.457851 0)
(1.20631 -0.523652 3.76508e-19)
(1.49986 -0.191026 1.59104e-23)
(1.19549 -0.560624 -1.64451e-19)
(2.16848 0.225544 -4.09847e-20)
(1.19024 0.717821 0)
(0.845483 0.0156674 0)
(-0.489695 -0.67215 -3.29235e-19)
(0.00292746 -0.0483485 3.81172e-20)
(0.88696 0.301985 -2.31817e-19)
(0.365171 -0.242635 -2.67927e-19)
(0.577692 0.306863 2.59614e-19)
(1.80851 0.846983 0)
(0.620736 -0.576648 0)
(0.497977 -0.882388 -7.38818e-21)
(1.34198 -0.55554 -7.04459e-20)
(1.08472 -0.071405 2.67062e-20)
(0.758228 -0.254815 1.12125e-19)
(-0.0317071 -0.202875 -7.47198e-20)
(0.960765 0.303126 4.53643e-20)
(0.582551 0.539891 0)
(1.17341 0.630488 0)
(1.51952 0.23581 0)
(-0.222461 -0.494147 -2.86259e-19)
(1.13758 0.496309 5.0628e-20)
(1.51295 0.232917 2.31945e-20)
(0.883329 -0.00790122 0)
(1.25452 -0.327247 0)
(1.9473 -0.100098 1.08448e-20)
(-0.141423 0.0744278 -2.12336e-21)
(1.0057 -0.00225788 -1.97101e-19)
(1.39677 0.433235 0)
(-0.150583 0.383957 0)
(1.16353 0.275873 3.51196e-19)
(0.945315 0.460527 -1.5465e-19)
(1.05446 0.0135605 0)
(1.41386 0.817127 0)
(1.83164 0.620015 -5.55175e-20)
(-0.0837262 -0.140464 -1.87452e-21)
(0.999167 0.0078814 0)
(0.633365 0.378467 -3.65738e-20)
(1.0628 -0.93166 0)
(1.00308 0.0116361 4.54047e-20)
(1.23048 -1.18455 -6.63235e-20)
(0.972112 -0.390256 2.67447e-19)
(0.86066 -1.19808 1.01275e-19)
(2.03001 0.12735 3.71285e-19)
(0.950786 -0.184535 -5.06053e-20)
(0.811409 -0.0205939 0)
(1.03824 0.00274291 0)
(-0.0167911 0.0785621 0)
(0.589062 0.561779 -2.28204e-19)
(0.0102338 -0.197859 5.10158e-20)
(1.09903 0.302807 -5.58596e-19)
(-0.0918003 -0.0437508 0)
(0.746423 0.560877 1.92397e-19)
(1.08144 -0.396522 0)
(1.00518 -0.00564887 1.15601e-19)
(0.925396 1.25249 2.32767e-20)
(0.964032 0.34468 3.01527e-19)
(0.976867 0.427937 0)
(1.98628 0.180703 9.42823e-21)
(0.847315 -0.190275 -3.48405e-19)
(-0.511385 1.07314 -5.43579e-19)
(0.640706 0.793911 0)
(0.833182 0.170927 1.86659e-19)
(2.16707 0.446517 0)
(0.699508 0.435272 4.04078e-19)
(-0.950508 1.05636 1.86723e-19)
(0.106337 -0.25975 0)
(0.516347 0.487313 -8.0666e-20)
(1.13363 -0.717457 -1.1331e-19)
(0.555991 -0.389883 -1.13047e-19)
(1.02248 -0.0303935 0)
(-0.329566 0.621775 -4.53493e-20)
(0.726819 -0.655637 6.99132e-20)
(0.852627 0.219271 0)
(1.92322 -0.789479 8.42359e-20)
(0.892215 0.755567 3.14595e-20)
(1.00062 -0.916072 4.84416e-20)
(0.668348 -0.00726066 -4.94774e-19)
(0.268456 -0.286754 -5.27203e-19)
(-0.191413 -0.291247 1.73564e-20)
(0.750513 0.276966 2.70304e-19)
(0.213347 -0.244565 -2.60774e-21)
(1.55296 -0.696333 3.29262e-21)
(1.02849 -0.00824773 -3.38812e-19)
(-0.208496 -0.445583 0)
(1.01709 0.0123983 -4.18173e-19)
(1.41237 0.546286 4.47107e-20)
(0.803594 0.60985 3.32783e-19)
(1.16098 -0.0849377 1.49898e-19)
(1.01446 -0.0529574 1.56573e-19)
(1.38136 1.10316 -1.21393e-19)
(-0.393719 -0.437325 -1.29113e-21)
(1.98353 -0.940924 2.08672e-20)
(1.20906 -0.141401 -5.82952e-20)
(0.862146 0.0475326 6.59835e-20)
(0.968002 -0.355437 8.12321e-20)
(1.16101 -0.194808 0)
(0.874789 0.654871 0)
(1.08213 1.14684 -2.77545e-20)
(1.90664 0.131121 2.53079e-20)
(-0.773762 0.586921 1.97179e-19)
(1.12383 -0.611494 -4.09661e-19)
(0.704875 -0.624597 3.41357e-19)
(0.980365 0.0934179 3.31962e-20)
(0.407908 -0.113978 3.09148e-20)
(1.1557 -0.413572 0)
(0.734145 0.0212182 -6.8147e-21)
(1.43687 -0.608702 -4.3985e-20)
(0.949957 0.684213 0)
(1.29114 -0.793117 0)
(0.3618 0.81355 0)
(-0.256528 -0.371262 -1.10943e-19)
(-0.0742085 0.183998 0)
(0.213751 0.508889 -8.53124e-20)
(1.16098 0.15778 7.42732e-21)
(-0.516073 1.102 1.60419e-19)
(0.640549 -0.767735 -5.00287e-20)
(1.68731 0.422293 4.87677e-20)
(2.14533 -0.147526 -4.70781e-20)
(-0.15575 0.0353598 -5.9724e-20)
(0.0218218 -0.472647 7.95358e-21)
(1.13974 -0.129985 0)
(0.663627 -0.03606 0)
(1.00063 -0.00321644 2.62868e-22)
(-0.204004 -0.490291 0)
(1.33823 0.0856477 -1.23625e-19)
(0.666776 -0.0323586 0)
(1.08419 -0.00897661 1.20618e-19)
(0.989505 0.0118985 -4.45119e-20)
(0.955924 0.620343 6.70732e-20)
(1.04644 -0.0269174 -9.54595e-22)
(0.998145 -0.245555 -4.99247e-20)
(1.03645 -0.0525582 3.59394e-19)
(0.762347 -0.700918 1.55613e-19)
(0.0439897 0.583324 -2.22594e-19)
(1.38403 -0.588319 -5.32592e-20)
(0.00298791 -0.0841623 0)
(1.03143 0.717821 0)
(1.0423 -0.0292346 0)
(1.11149 -0.860437 -7.22797e-20)
(1.18911 -1.00682 -2.3631e-20)
(2.29772 -0.0240377 1.63803e-20)
(0.357266 1.73921 -3.82533e-19)
(0.48326 -0.659342 -2.75413e-20)
(0.671423 -0.497581 -5.71663e-19)
(1.25538 -0.505155 1.40804e-19)
(0.613892 -1.02796 2.20537e-19)
(2.25911 -0.0969711 1.78658e-19)
(1.76414 0.0414637 1.09186e-19)
(-0.36132 -0.488281 -2.30617e-19)
(1.03064 0.486295 2.45155e-19)
(-0.121227 -0.377895 0)
(0.407045 -0.23753 6.51441e-19)
(-0.157634 -0.20224 -4.00724e-22)
(1.02084 -0.0483809 3.36491e-19)
(1.03049 -0.0140902 -8.41655e-21)
(1.09914 -0.0149136 -9.25757e-20)
(1.61245 1.09713 -1.82494e-19)
(1.52191 0.287659 1.09062e-19)
(0.474041 -0.44929 -2.7855e-19)
(2.11894 0.256828 -3.89679e-20)
(1.04717 -0.0156338 -2.37257e-19)
(2.08045 -0.512629 5.48273e-20)
(1.94773 1.0713 0)
(1.02384 0.525413 -4.6294e-19)
(1.00264 -0.0083967 9.41974e-20)
(0.593034 0.520456 2.89493e-19)
(0.385824 -0.560655 1.019e-21)
(1.04667 -0.0222117 -3.13881e-20)
(1.10958 0.00745429 8.81787e-22)
(2.31077 0.138936 1.94863e-21)
(1.84896 -0.204286 0)
(1.03915 -0.0428707 0)
(1.04795 -0.0367093 5.83945e-19)
(1.00253 -0.00522442 0)
(-0.136401 -0.171615 0)
(1.1749 -0.712213 0)
(1.00065 -0.00352926 -5.47787e-19)
(1.27615 -0.755201 5.08583e-20)
(1.02799 -0.010434 1.13834e-20)
(1.23377 0.875177 -5.96738e-20)
(1.40547 0.920385 2.38563e-19)
(0.386881 -0.749791 3.70358e-20)
(0.948596 0.850339 6.30541e-21)
(0.823253 -0.103689 0)
(-0.306993 0.0701854 0)
(1.77364 0.650642 2.42164e-19)
(1.63612 -1.13601 0)
(0.999442 -0.00655465 -1.7054e-19)
(1.01081 -0.00150128 3.31092e-19)
(1.38 0.128951 -8.54249e-20)
(0.03321 -0.111936 4.91549e-19)
(0.968824 -0.000981958 1.82163e-19)
(1.86841 0.149718 -7.58973e-20)
(0.58655 0.146194 2.66974e-20)
(1.69311 1.34608 -1.46231e-21)
(0.939171 0.015177 -1.77649e-19)
(1.00385 0.00233457 2.12007e-19)
(1.00054 -0.00185512 1.25757e-20)
(0.788293 -0.0137261 0)
(0.721973 -0.0273406 0)
(0.715383 -0.0278999 3.39392e-22)
(0.689238 -0.0303137 0)
(-0.0588064 -0.071185 0)
(0.232394 -0.036832 0)
(0.608891 -0.103538 -6.96958e-20)
(0.717185 0.205542 3.38245e-20)
(0.631454 0.972619 0)
(0.865146 1.28574 -7.42669e-20)
(1.47798 1.12071 0)
(1.37979 0.311267 0)
(1.87492 0.206854 0)
(2.03887 0.0456939 -4.24267e-21)
(1.53209 -0.255814 -2.25351e-19)
(0.785149 0.0235743 0)
(0.790372 0.0202008 0)
(0.973979 0.0180051 -2.19473e-19)
(0.815236 0.00797236 4.12021e-19)
(1.00849 -0.00132218 0)
(1.00003 -0.000989858 3.92771e-19)
(1.00036 -0.00120255 -5.2798e-22)
(0.791199 0.0222905 3.47969e-19)
(0.990868 -0.00728033 -2.0872e-19)
(1.29839 0.425629 0)
(0.480538 -0.0209801 -2.67241e-20)
(1.00077 -0.00276088 -1.9936e-19)
(0.999531 -0.00108872 -3.40683e-19)
(1.73337 0.96057 0)
(0.999044 0.00103177 0)
(0.999581 -0.000402747 0)
(0.721419 -0.262509 -2.2412e-20)
(0.538568 -0.38006 -1.02998e-19)
(1.82968 -0.263503 0)
(0.254715 -0.401732 1.55416e-19)
(-0.250075 1.304 -1.18947e-19)
(1.01658 -0.0244756 -2.66076e-19)
(-0.281309 -0.590645 -2.01037e-19)
(1.02156 -0.00851066 -2.12463e-19)
(1.2471 -0.237394 -6.88277e-20)
(0.881788 -0.558165 2.62945e-19)
(-0.138206 -0.169105 -1.6325e-19)
(1.03616 0.00318194 0)
(1.03017 -0.0194063 -6.12554e-20)
(0.876313 0.0135378 0)
(-0.0857327 -0.0911776 6.94495e-20)
(1.44553 -1.31328 0)
(-0.342802 -0.606645 -5.02681e-19)
(2.00498 0.0486587 7.49035e-20)
(1.53288 0.627524 -1.82441e-19)
(-0.0859688 0.0202866 0)
(1.05017 -0.0399965 1.80777e-19)
(0.38612 -0.379172 -7.8984e-21)
(0.92515 -0.061688 2.8115e-19)
(1.00949 -0.0155847 -1.81932e-19)
(1.54797 0.79216 -5.54501e-20)
(0.44706 0.411627 0)
(0.363813 0.287787 2.15036e-19)
(0.951663 0.0861428 -2.98125e-22)
(1.09417 0.101683 2.20751e-19)
(1.20077 -0.791408 0)
(1.01986 -0.00643655 0)
(0.998906 -0.0218652 -4.19166e-19)
(1.02081 0.00921651 -4.02723e-19)
(-0.19717 -0.351293 0)
(1.12321 0.746035 -1.97791e-19)
(0.26309 -0.252318 -1.08517e-21)
(1.01498 -0.00411945 1.56611e-19)
(1.01299 0.00864791 -1.94647e-19)
(-0.420087 -0.616877 -4.84429e-20)
(0.526504 -0.373341 2.90679e-19)
(1.01505 -0.0215831 6.70289e-19)
(0.257567 -0.228689 0)
(1.72443 0.592826 6.37718e-20)
(1.01394 -0.0193872 -2.07943e-19)
(1.28102 0.107323 -4.64626e-20)
(1.04805 -0.00094286 -4.90015e-22)
(1.00737 -0.0143689 4.1748e-20)
(2.1094 0.257448 -3.10107e-19)
(1.01863 0.00185027 1.99915e-19)
(0.828934 -0.88437 5.58132e-21)
(1.01973 -0.00683736 0)
(0.899755 0.0944022 5.236e-20)
(-0.70213 1.61579 4.49736e-21)
(1.00346 0.0198885 1.97824e-19)
(1.04228 0.0193607 -7.53632e-22)
(0.210906 -0.361012 2.5229e-20)
(1.17882 0.283091 5.24896e-19)
(1.0016 0.0100194 1.35813e-19)
(1.01471 -0.0207698 3.04509e-22)
(1.62633 0.239933 -5.89334e-20)
(1.6149 0.851858 -3.75265e-20)
(0.877325 -0.785672 4.17109e-20)
(0.53632 -0.455154 -2.794e-19)
(1.00497 -0.0156963 0)
(1.02409 -0.00306837 4.96722e-20)
(1.01043 -0.0155746 1.05809e-19)
(0.83363 -0.2252 -9.36441e-21)
(1.01672 -0.00259529 -2.08419e-19)
(1.0392 -0.0387667 2.35177e-19)
(1.00657 -0.0142377 -1.97974e-19)
(1.01379 -0.00223661 -4.22999e-22)
(1.0121 -0.00486042 -2.44903e-22)
(1.02884 0.00623058 1.99006e-19)
(0.883008 0.020541 5.21286e-19)
(0.278759 -0.190779 0)
(1.0782 1.31107 1.86978e-19)
(1.01351 -0.0112724 0)
(1.01685 -0.0289671 -5.83423e-20)
(1.42712 0.402789 -1.55178e-19)
(0.888305 0.129992 0)
(2.19213 -0.60794 -6.61275e-21)
(0.406838 0.0446105 1.45633e-20)
(0.723656 -0.019341 0)
(2.01293 0.669093 0)
(-0.0536979 -0.013962 -1.7793e-20)
(1.11775 1.16124 1.07203e-19)
(1.01751 -0.0133057 -2.10963e-19)
(1.22129 -0.626965 -4.53771e-20)
(0.503435 0.369921 1.27165e-19)
(0.546643 -1.31073 0)
(0.909251 -0.108857 0)
(0.88064 -0.205525 0)
(-0.310654 -0.0332118 -5.79198e-21)
(0.855889 -0.411091 -3.57057e-19)
(0.028101 -0.467234 0)
(-0.184168 0.52065 -5.69176e-20)
(1.57316 0.888497 8.15081e-20)
(1.00921 -0.00969834 -4.10861e-19)
(0.839087 0.416245 -1.18353e-19)
(1.02338 -0.00538936 2.71862e-19)
(0.669018 -0.0436546 0)
(-0.168789 -0.306701 -5.03681e-20)
(0.541023 0.331251 -3.67052e-19)
(0.369828 -0.284417 -8.9162e-20)
(-0.182999 0.310803 0)
(0.850364 0.0781185 6.39166e-20)
(0.448667 0.42344 5.75672e-20)
(1.08888 0.80556 -5.57376e-20)
(-0.100666 -0.100135 2.46815e-19)
(1.01541 -0.00410785 0)
(0.697446 -1.07892 -1.37501e-19)
(1.01217 -0.0101618 1.54824e-19)
(2.17123 0.212636 0)
(1.01426 4.16467e-05 2.58713e-19)
(0.433838 -0.0886286 -3.07938e-19)
(1.01842 0.00133875 -1.60737e-19)
(1.2541 -0.653164 0)
(1.92255 -0.514068 -1.72083e-23)
(1.00969 -0.00319187 -1.07559e-19)
(0.995678 -0.0627237 2.83835e-19)
(1.04725 0.0687557 -5.47687e-22)
(0.840115 -1.47048 8.10797e-20)
(-0.101994 -0.172393 6.50697e-19)
(1.79947 0.162836 -3.26562e-20)
(0.453817 -1.4251 -8.88108e-20)
(0.801781 0.0147877 -3.85815e-19)
(0.768101 0.0245421 0)
(0.573907 -1.10116 -1.01691e-19)
(1.01558 -0.0290718 -3.14123e-20)
(0.973911 -0.0108592 0)
(1.04116 -0.00564537 -2.01732e-19)
(1.10976 -1.36736 5.50596e-20)
(-0.826128 1.01415 2.69065e-19)
(2.40091 -0.488338 0)
(-0.594924 1.26857 -5.1565e-19)
(1.61896 -0.35306 0)
(1.03596 -0.0224647 5.87532e-20)
(1.91124 1.04668 3.1813e-21)
(1.01669 -0.0115885 1.6668e-19)
(-0.723237 0.977987 2.62091e-19)
(1.01725 -0.00613682 0)
(0.994029 0.00353053 -4.05278e-19)
(1.01024 0.00134948 2.12172e-19)
(0.72512 0.678196 0)
(1.16009 0.433891 8.08473e-22)
(0.955728 -0.00167174 -1.8103e-19)
(-0.184554 -0.534436 7.03171e-19)
(1.00466 -0.00668098 -2.07009e-19)
(1.00259 0.000320851 -4.86446e-19)