/*--------------------------------*- C++ -*----------------------------------*\
| =========                 |                                                 |
| \\      /  F ield         | OpenFOAM: The Open Source CFD Toolbox           |
|  \\    /   O peration     | Version:  2306                                  |
|   \\  /    A nd           | Website:  www.openfoam.com                      |
|    \\/     M anipulation  |                                                 |
\*---------------------------------------------------------------------------*/
FoamFile
{
    version     2.0;
    format      ascii;
    arch        "LSB;label=32;scalar=64";
    class       volScalarField;
    location    "31.7";
    object      p;
}
// * * * * * * * * * * * * * * * * * * * * * * * * * * * * * * * * * * * * * //

dimensions      [0 2 -2 0 0 0 0];

internalField   nonuniform List<scalar> 
2186
(
0.793112
-0.395696
-0.0764384
1.09756
-0.792863
0.052719
0.678028
-1.00903
-1.0463
1.36211
1.12987
-1.01582
-0.988766
1.06566
-0.630941
1.07915
1.09737
-0.873594
0.149667
-0.728851
1.47473
-0.722769
1.07579
-1.09724
1.06755
1.07104
1.29152
0.915426
0.681765
1.06654
-0.711325
1.06769
-0.674022
-0.906812
-1.03007
0.211305
-0.909044
1.46587
-0.530024
-0.00507636
-0.995397
-0.690647
-0.749957
-0.839622
0.981556
1.34517
0.33045
0.509524
-1.2822
-0.76704
-0.715734
0.979654
-0.744359
1.40375
-0.732345
0.968312
-0.803514
0.997109
-0.57831
0.834513
-1.14264
0.724246
0.643856
-0.0269433
0.663607
0.448714
0.756082
1.36224
1.25815
-1.1076
-1.01535
-1.18058
1.32544
1.02464
1.25359
1.18898
-1.21222
1.0926
-1.03817
-0.617997
-0.831993
-0.141002
1.06226
0.709574
1.05378
1.06291
1.37415
0.134504
-0.42609
-1.04691
0.970649
-0.730895
0.965167
1.21564
1.07672
0.512835
-0.206669
0.675857
-0.786754
1.01228
-1.07999
-1.00287
0.727742
0.988471
1.09922
-0.698514
1.30023
-0.79014
0.955403
-1.46452
-0.609515
-0.765437
0.535939
1.40409
-1.02599
-0.893498
-0.606979
-1.43926
-1.0471
1.32523
0.0771365
-0.77019
0.940478
-0.941513
1.08356
-0.604013
-0.778691
1.18033
-0.894555
0.657499
1.43817
1.27927
0.215369
0.649025
-0.902077
-0.748759
0.937472
-1.08195
-0.499767
-1.03402
0.885329
-0.259067
-1.00516
0.703978
0.951291
0.993575
-0.744681
-0.799506
0.610252
-0.777954
-0.761996
0.575404
1.09552
1.22159
1.07313
0.520803
1.37324
0.534197
0.442619
0.40914
-1.03685
-1.21078
1.059
1.01435
0.232714
0.184493
-0.955441
-1.0155
-0.838485
-0.879573
0.454945
1.01847
1.09834
1.1431
0.519056
-0.182682
-0.811318
1.06024
-1.24473
0.945841
-1.00903
1.08252
-0.725357
0.63644
0.620742
-0.822752
-0.832572
1.22244
-0.418406
-0.960293
-0.89787
1.3319
-1.0061
1.00741
-1.03681
-1.44458
0.181905
1.25299
1.15862
-0.721047
-1.09956
-1.34701
0.0510925
1.09565
-1.03526
-0.7774
-1.05016
-1.47776
1.0287
-1.00367
0.514045
-0.347868
1.39031
0.91333
1.00775
0.972742
1.27285
1.07208
0.915073
1.18881
0.359933
-0.86257
-0.710899
0.19997
0.163591
-0.861179
-0.786268
1.12765
1.1848
-1.08108
-0.966577
-1.51072
0.355584
0.656439
0.806089
0.916175
1.15432
-1.05888
0.905404
-1.02692
-0.783132
-0.884267
1.08863
0.816972
1.24134
1.24459
1.20137
1.17992
-1.0282
0.838895
1.19526
-1.02086
1.07559
0.863471
-1.39702
-1.03407
-1.03445
1.24293
1.09934
-0.980302
-1.15192
-1.43999
0.97736
-0.946512
0.838059
1.15856
0.898901
-1.04203
-0.713108
1.04107
0.71666
-0.713536
-0.388275
1.42744
-0.776308
-1.02042
0.880938
1.22516
1.05526
-0.79799
-0.918563
-0.943954
0.999872
-1.01277
0.541536
1.03801
1.05544
-0.254969
-0.564549
1.0458
-1.08147
0.955727
1.23599
1.09445
1.09144
-1.68588
-0.726331
-1.11233
-1.09651
-1.45969
-1.07593
0.364566
-0.63098
0.698413
1.21036
1.29717
1.00518
-0.798127
1.22454
-1.1586
-0.413849
-1.11736
-1.03874
-0.952925
0.336281
-0.762336
-0.744791
0.262256
1.01287
-0.377527
0.476174
-0.754839
-0.456694
-0.933968
-0.769682
1.29211
0.0846422
-0.725028
-0.728723
0.800979
0.650851
-0.283246
0.523474
-1.06072
-0.977659
0.750441
1.09352
1.16535
-1.39897
1.2246
0.908308
0.471595
1.29095
1.07563
0.992527
0.354201
-0.949467
-1.03351
0.958599
-0.811604
-1.0485
-1.16466
-0.843717
-1.05021
1.45344
-1.53534
-0.718085
-1.03409
1.07472
-0.814662
-1.40429
-0.700022
0.770623
-0.708258
-1.23485
1.33702
1.3971
1.16373
-1.00396
-0.642905
1.46897
1.07837
-0.899422
0.54531
-1.02735
0.147475
1.26334
1.0746
0.914142
1.36062
-0.595598
-1.02269
-0.41357
-0.839245
-1.46511
-0.707811
-0.143055
1.40054
-0.845866
-1.23613
1.06776
0.582966
-1.03653
-1.08662
-1.03171
-0.810841
-1.1656
-1.03788
-0.70048
-0.77896
1.25168
-1.25713
-0.872923
1.0845
-1.21603
1.31067
-1.17489
-1.35044
-0.663883
1.06713
-0.998954
1.09762
0.865227
-1.74167
1.08667
-0.744527
-1.04361
-1.10319
1.04219
0.997639
-1.04618
-1.02935
-1.12265
1.0743
-1.2686
-1.42753
0.603909
1.0343
0.923572
0.729088
-1.04887
-0.841848
0.916759
-0.935237
0.838558
-1.49869
1.09083
0.0626921
1.17223
-1.04644
0.870475
0.791698
1.10493
-1.12629
1.0751
-0.771496
-1.0432
1.07055
-1.44856
0.245035
-0.863401
-0.0334581
1.08043
0.06406
0.272094
1.08291
0.339482
-0.210663
0.0520868
-0.717386
0.213736
-0.993275
0.796679
-0.523953
1.16413
1.17276
-1.03458
-1.0389
-1.05436
-0.710361
0.526665
-0.934817
0.926762
-0.0904151
-0.980737
1.18562
-1.07819
0.468538
0.27877
-0.787935
0.889591
0.440975
-1.26707
-0.881071
-0.846408
-0.678275
1.0887
-1.38791
1.16208
1.27575
1.26279
0.744398
1.25994
-0.783784
-0.645271
0.945494
0.196483
1.06851
-0.728152
-0.955285
-1.32664
0.816711
-1.03952
-1.48241
-0.733486
-0.769375
0.155632
-1.03851
0.828744
0.798464
-0.510505
-0.86424
0.761707
0.0459611
1.23006
-1.46076
-0.076867
-1.04007
0.853224
-0.580254
1.21483
1.4832
-1.28996
-0.77984
-0.935917
0.399087
-1.06385
1.07041
-0.884023
1.02312
0.849367
-1.09323
0.959525
0.921392
-1.41979
0.921223
-1.03147
-0.731781
-1.10422
-1.00545
-0.949108
-0.988529
-0.626359
1.07019
0.313418
-0.768715
0.591738
1.21858
1.26066
-0.41496
0.776197
-1.14466
0.790321
-0.380687
-1.1044
-0.744933
0.592773
0.905901
1.15333
-1.38438
-1.05554
-1.46647
-1.04826
-0.153308
0.742319
-1.65557
-0.0784576
-1.05875
1.03607
-1.05848
1.03572
-1.12711
-0.718066
1.00557
0.676472
-1.09601
-0.0741027
1.04485
1.34669
1.09291
-0.608623
-0.863714
0.818022
-1.10343
0.804913
-0.430678
0.541704
1.04254
-0.945732
-0.715734
1.11244
-1.18389
1.33305
-0.0131849
0.897273
-0.367969
0.630896
-0.974519
1.29974
-0.723163
-0.984453
1.05615
0.618012
0.593772
-1.07922
-0.718469
-0.919993
0.866304
-0.579644
-0.757648
-0.459205
1.08888
0.492102
-0.798628
0.840191
0.988668
1.06365
-1.52058
-0.641231
-0.740445
1.0847
1.26898
0.486816
1.08041
-0.746938
1.09765
-0.413009
-0.897466
-0.673837
0.976061
1.02901
-1.30609
0.946695
-0.721822
0.901253
-0.822147
1.09627
0.987543
1.09013
-1.54065
1.01746
-0.892656
-0.587014
1.23221
-1.32731
-0.864683
1.20517
-1.23947
1.2005
-1.24099
-0.731102
1.13965
0.796585
1.41976
1.07005
-0.913256
1.12079
1.17673
-1.43839
0.733733
-0.59136
-0.992334
1.56626
-1.03488
1.22792
-0.764366
0.287286
1.07054
-1.10045
1.06912
-1.29226
1.02086
1.00519
1.08198
-0.208315
-0.933268
-0.673798
0.587276
0.686818
1.11297
-0.426964
0.925494
-1.34257
-0.26423
-1.12637
0.855002
1.18855
-0.644609
-1.08322
-0.374891
1.31832
-0.670077
0.832604
-0.694354
-1.24082
-1.01991
-0.737605
-0.499439
0.894386
-1.32282
-0.461981
-0.207888
-0.630925
-0.750074
-1.14616
-0.434711
1.05042
1.09122
-1.07494
-0.481054
1.06233
0.990063
1.08996
-1.09556
1.06134
1.10689
1.06235
1.09549
-1.45497
-0.386497
-0.71509
0.717988
1.06844
0.71813
0.131571
-0.339867
-1.342
-0.171242
1.31206
-0.419656
-0.538739
-0.758699
-0.291228
-0.995396
0.88429
-1.06503
-1.27211
-1.0391
1.07751
1.07149
1.08738
-0.133599
0.450276
1.28536
-0.150988
1.06482
-0.425718
-0.122498
0.860332
1.09202
1.18853
-0.128784
1.05825
1.05534
-0.916339
-0.260379
1.0876
1.09875
1.09391
-1.03956
-1.08932
1.09324
0.615555
1.07235
0.314099
-0.0161691
-0.235084
-1.36391
-0.477086
-0.717095
-1.31573
-1.27793
1.10018
1.10491
0.84829
-1.05613
1.07757
-0.0302492
-0.27054
-0.0776289
1.06744
1.09661
1.09409
1.10899
1.08713
1.08115
1.07299
-0.545252
-0.317807
-0.130298
-0.182221
0.0612666
0.0475394
-0.0636036
0.0519558
0.0441433
-0.135468
-0.340091
1.06132
1.08361
1.07794
1.10219
1.10087
1.09376
1.09822
1.07226
1.08511
0.105981
-0.239257
1.09531
1.09313
-0.00581643
1.09516
1.09481
-0.148388
-0.525144
-0.326551
-0.808409
-1.13124
1.07801
-1.02957
1.07294
0.648922
1.11758
-1.03539
1.07161
1.02821
1.0103
-0.713916
-1.09449
-0.999678
-0.198738
0.0671551
-0.715766
1.09263
-0.268034
1.16567
1.08215
-0.0651239
1.27645
1.42175
-0.416408
0.969551
0.675386
1.07552
1.09311
1.08204
-1.03381
0.587246
-0.0903081
1.08052
1.08761
-0.960908
-0.241128
1.08274
-0.00336366
-0.220582
1.08117
-0.966669
1.06679
1.09448
-1.02115
1.08438
-0.891147
1.0759
1.16798
-1.39704
1.08877
1.09696
-0.0241221
0.79113
1.07543
1.08422
0.271943
-0.629252
0.73089
1.41025
1.0908
1.07787
1.08481
-0.521846
1.079
1.06067
1.08723
1.08023
1.08327
1.07691
1.19328
-0.279163
-1.68472
1.08011
1.07686
0.399872
-0.957949
-1.21528
-0.359871
0.966482
-1.38183
-0.585231
-0.0270126
1.0771
0.744698
0.156669
-0.771834
-0.322595
-0.436486
-0.635906
-0.799866
-1.11898
-0.799702
-0.22189
1.08358
-0.374253
1.07142
1.00997
-1.03564
1.34583
-0.23039
-0.712626
0.785318
1.2376
0.562473
-1.04446
1.07987
-0.97085
1.08254
-0.706752
1.08217
-1.25167
1.07514
-0.91185
-1.15513
1.08502
1.099
1.04347
-0.860973
-1.04667
-0.535702
-0.671515
1.09456
0.995467
-0.749748
1.07745
1.11886
1.07272
-0.795286
-1.2973
-0.740096
-1.46092
0.317577
1.08401
0.000311793
1.07743
-1.19282
1.07809
1.11668
1.08588
-0.0121651
0.0164623
1.11085
-1.05236
1.08769
1.09222
-0.0168522
-0.998899
1.05151
1.24011
1.0726
1.07372
-0.716271
-1.19258
1.03979
0.408767
1.08687
0.86844
-0.832707
-1.01375
0.945292
1.3118
1.07999
0.335821
-0.334134
-0.896797
-1.57375
-0.919245
1.05501
-1.07635
1.06793
-0.974426
-1.03648
-0.785815
0.573442
-1.08911
-0.174491
-1.5994
1.07416
-1.04153
1.02367
-1.03047
-0.208722
-1.0989
-0.0297016
-1.49508
1.05609
-0.635139
-0.962464
-1.46343
-0.708049
1.05975
-1.37289
0.0841182
-1.33771
1.18662
-0.242083
-1.0316
1.14721
1.05777
1.04593
0.485494
-1.00254
1.08524
1.11503
-0.638056
-0.760466
1.0731
0.816326
1.35258
1.09645
-1.43541
-1.62636
-0.761186
-1.06918
-0.857161
-1.04119
-0.299774
-1.1408
0.821046
-0.0494521
1.08077
1.3044
1.07594
-1.04719
-1.10833
1.07616
-1.7964
-1.62351
1.04781
-0.33974
-0.82487
-1.25191
-0.40516
1.0411
1.01453
-0.573099
0.878199
0.796445
-1.49849
1.05351
-1.34108
0.918081
-0.700068
1.02933
-1.59414
0.421559
1.07663
1.20387
-1.28138
-1.18943
0.933641
1.45325
1.09767
1.13098
-1.51781
1.29685
-1.03096
-1.49448
-0.897733
0.471491
-1.36648
1.19098
1.2092
-1.02643
-0.728545
1.07613
-0.63061
0.881741
1.10752
1.05937
-1.22086
1.07829
0.0532606
1.10224
0.0608217
-1.03473
-0.0133014
1.08083
-0.243476
-0.343795
-0.205165
1.05856
-1.13691
1.29589
0.251185
1.42422
1.10136
-0.608182
1.04874
-0.739336
1.06204
1.05792
-1.21618
-0.884466
1.23425
1.07093
1.33015
1.04351
0.0613867
1.05012
1.05566
0.973651
1.08628
-1.07766
-0.807821
-1.62249
1.16138
-1.03776
-1.72629
-0.726199
-0.96586
-0.45237
-0.484501
0.986822
-0.552633
1.01849
1.0697
-0.765444
-1.22366
-0.655941
-1.28066
-0.6568
-0.740329
1.08626
-1.53975
1.09539
1.29149
1.13309
-0.0535417
1.10212
1.02526
-1.21939
1.02038
1.06767
-0.843115
1.066
1.06024
-0.0630002
-0.755239
1.53345
-1.51807
-0.972593
-1.02099
0.224114
1.04634
-0.931177
-0.377151
-0.714415
1.22449
-1.77072
0.975989
1.09944
1.04993
-1.15939
1.02761
-1.48185
1.09266
1.10686
-0.290989
1.09582
0.634001
1.05568
0.730639
-1.24977
0.0152171
-0.12862
-0.218853
1.33898
0.0117285
1.11701
1.48646
-0.556514
-0.058801
1.14058
-0.0882268
1.1374
0.0182543
0.0290165
1.1415
1.14613
0.424028
-1.34355
0.889095
-0.633082
-0.749645
-0.554908
1.1035
1.06046
1.48961
-1.04455
-1.80902
0.760152
-0.994668
1.16676
1.10136
1.05067
1.07328
1.02322
-1.40584
-1.03886
-1.1425
0.930572
1.01967
-1.45744
-0.750141
-1.03395
1.09079
1.10006
-0.881075
-1.17075
1.11697
-1.67088
0.364161
0.901024
1.04504
-0.402192
-1.03834
-0.0741471
-0.929451
-0.708363
-1.60043
-1.60206
1.43484
1.46704
-0.818465
-0.888437
1.0917
1.06769
-0.839632
-0.0994328
-0.404166
0.784849
1.18173
-1.42798
1.08729
-1.63746
-1.04199
-0.653636
-0.939408
-0.805078
1.04704
-0.914688
-1.5054
1.45896
-0.937461
1.08801
1.33148
-0.753492
1.0862
1.30652
-0.79263
1.35372
-0.958904
-1.07404
1.13017
-0.687779
1.05384
1.08843
-0.975962
1.12424
0.130396
-1.4577
1.12587
1.07315
-0.980117
-1.17757
1.04583
1.08075
-1.01043
-1.40292
1.3916
-0.990179
1.01173
-0.904097
0.999406
-1.0278
-1.30601
-1.03079
-0.798714
1.2109
1.09738
1.34668
1.31913
1.10092
1.14449
1.18323
-1.03415
1.24965
1.19254
-0.773916
-1.00267
-0.856371
1.43018
-1.54616
-1.0739
-0.389398
1.06249
-0.781095
-0.829037
1.14232
1.06164
-1.02623
-0.754647
-1.05269
-0.148952
-1.37936
-0.786229
-1.03643
1.01762
0.926247
-0.734257
-0.307997
-0.942735
0.971029
-0.992034
-0.80919
-1.03845
0.981542
-1.42049
-0.761233
1.38941
0.952529
0.397351
1.2493
-0.920725
1.01938
1.09701
1.19012
1.26266
-0.383041
0.818844
1.12976
0.257918
-1.03966
1.51054
1.02048
0.954891
1.12548
-0.767858
-1.65553
0.897797
0.926718
1.0318
-1.48095
-1.31875
1.06137
-1.03592
0.863462
-0.396286
1.51528
-1.04104
0.870875
0.762062
-0.720015
-1.04241
-0.702241
1.10777
-0.723855
-1.0409
0.721926
0.758462
-1.02433
1.15501
0.873302
-0.728384
-0.834644
1.05751
-1.58624
-1.04346
-1.06533
-0.712898
-0.924093
1.08233
1.07794
-1.39863
0.635989
1.08279
1.4363
0.272993
0.442768
0.180006
0.918605
-0.498517
-0.717791
-1.61147
-0.416523
-0.715984
1.08258
-0.723915
0.336111
-1.04409
0.693142
0.583317
-0.715737
0.655625
-1.40309
0.5062
-0.715651
0.620988
-0.719418
0.394178
-1.0465
0.540031
-0.715939
0.848656
-1.40146
-0.718956
-0.727341
-1.03936
1.09555
0.0750256
-0.754469
-1.05331
0.206666
0.282134
-0.719574
-1.03842
-0.79529
-0.14429
-1.06687
0.0476208
-1.10032
-0.154055
-0.870962
-0.324649
0.99723
-0.268101
-1.44154
1.07786
0.0941422
-0.528636
0.457588
1.03959
-0.931009
-1.38788
-1.04956
-1.12076
0.939019
1.51273
-0.753233
-0.355008
0.00183311
-0.925475
-0.204664
-0.407265
1.07343
-0.829496
1.01849
-0.932647
1.57933
0.464998
1.48694
-0.747766
1.2436
-0.387373
1.05724
-0.98845
-1.04784
1.12144
1.0652
-1.19701
-1.04235
-0.721149
1.08372
-0.590508
1.07145
-0.745117
-1.0532
-1.02874
1.39388
1.13883
1.16012
1.11578
1.09288
-0.382299
-0.614294
1.31822
-1.7082
-0.884981
1.51417
-0.748209
1.01301
1.00258
1.45206
1.4997
-0.7333
-1.42642
1.10996
0.218822
-0.504825
-0.683007
-0.535658
-1.22689
-0.757221
0.571201
-1.0128
1.25503
-1.03861
1.16368
1.23683
1.1431
-0.838646
-1.02957
-0.955465
1.16534
-0.90186
1.28831
-0.577027
-0.913357
1.3486
1.36571
-1.04516
0.245823
1.01203
-1.03051
-0.878194
0.685063
1.38223
1.28784
-0.795791
0.985394
0.972582
-1.04048
1.29867
0.435902
-0.740836
-1.49191
-0.266961
-0.11992
1.22971
-0.862039
0.414059
-0.753839
-0.530842
-0.837027
-1.04443
1.08399
-1.08476
1.12661
0.0614721
0.0696285
0.716849
0.248
-1.03783
-0.462766
-1.27145
-0.437728
-0.539257
-0.830878
1.05836
-1.49315
-1.73662
1.12011
-1.02505
-0.774478
1.09197
-1.07337
1.09277
-0.233138
-1.03744
-0.390474
0.821641
-0.928966
-1.57347
0.927784
-1.0425
1.14336
-0.635757
-0.922616
-0.902147
-1.045
1.55802
-1.32018
1.18072
-0.73765
1.03104
1.27822
0.747504
1.08518
1.2738
0.0142262
-1.301
1.03572
1.14375
1.42775
-0.925608
1.14167
0.806622
-0.949071
0.814248
1.26246
-0.433136
1.4489
0.293468
-0.825386
0.862796
-0.967359
-0.722228
1.00459
-0.32361
1.13043
1.09884
1.06574
-0.815879
1.02474
1.37222
-0.844444
-0.180032
-1.39264
-1.0507
-0.924603
-1.04184
1.41366
0.771561
-0.798314
0.943253
-0.983641
-0.878349
1.3277
1.33726
-1.00351
-1.13072
-1.04582
-1.03899
1.03264
-0.790384
0.0511336
-0.696259
-0.291644
1.1399
-1.0075
1.49161
1.13771
0.919263
1.12037
1.41078
-0.943499
-0.997928
1.07201
1.19737
-0.832642
1.07757
-1.31559
-1.03251
-1.01548
1.20178
1.23
-1.02875
-0.785894
0.561138
-0.115221
-0.651886
1.07459
1.08399
-1.06077
1.12246
1.16343
-1.2913
-0.777802
-0.806427
-1.03572
-1.02155
1.37263
-1.45109
1.03917
-0.784641
1.36791
0.984417
0.992422
1.06099
-1.49237
-0.795628
-1.03794
0.664343
-0.758022
0.952066
0.286832
-0.408668
0.984217
1.04305
1.12029
1.10136
-0.0342752
1.11662
0.0638778
0.415529
0.91772
-0.425465
-0.771105
-0.810381
-0.558096
1.09021
1.0034
1.08943
-1.60791
-0.876797
-1.03931
-0.663807
1.09107
1.39286
1.10399
-0.764724
-0.848569
-0.977261
-0.409505
-1.04398
-1.04667
-0.0682453
1.08755
-0.833079
-0.73083
-0.451747
-0.127662
0.849183
-1.44782
-1.04135
-1.13726
1.05321
1.50974
-0.430156
1.17355
1.57323
0.790285
1.30704
-0.776465
-0.908316
1.46057
-1.04204
0.302705
-0.751154
-1.02057
-0.718699
-0.721396
1.03131
0.751281
1.30403
1.26744
-0.031852
0.801823
0.184277
-0.237113
-1.04285
1.18605
0.850765
1.0983
1.1151
0.0454011
-0.106552
1.10783
-1.04116
-1.04738
-0.725296
-0.728745
0.604064
-0.717826
1.03005
0.684492
-1.04093
1.28509
-0.767392
-0.192102
1.05499
-0.846627
-0.904006
-1.68546
0.727937
-0.737106
-0.698565
1.03483
1.10656
-0.424573
0.00521665
-1.64623
-1.04371
-1.62997
-0.793068
-0.250835
0.611948
-0.955814
-0.716471
1.37077
0.394578
0.494376
-0.715734
-1.01847
1.07967
1.08558
0.659014
0.542966
-0.71535
-0.911639
-0.865587
0.583856
0.446177
-0.715713
0.948931
0.279124
-0.715655
1.54078
-0.720494
-1.69353
-1.022
-0.665827
0.869344
-0.736607
-0.791898
-1.05692
-0.0172949
-0.771468
0.136689
-0.817232
-0.155981
1.28492
-0.826163
-0.21126
-1.08354
-0.040005
1.44382
1.46066
1.33901
1.08691
1.31683
-0.583512
1.07579
-0.770256
1.08294
-1.0507
-1.04729
1.31815
-1.10206
0.484293
-0.838625
1.46982
0.0928603
1.40317
0.726062
0.889004
-0.744079
-0.757994
-1.04828
-0.662007
1.38913
1.29928
1.07645
0.646317
1.07389
0.895541
0.93393
-0.713617
-1.04198
0.389312
-0.0864285
0.90951
1.0915
-0.057644
-0.749493
-0.712981
-1.39528
-1.04838
-1.23441
1.40374
1.10952
1.0861
0.0528842
-0.0791938
1.10425
-0.617399
-1.04346
-1.53473
-0.945698
0.898606
-0.732652
-0.714539
-0.360599
1.09916
-1.50538
-1.02377
1.07442
0.620871
0.745298
1.0768
-1.04528
0.984027
1.24717
0.864062
-1.04521
1.0642
0.351457
0.58298
-0.898989
-0.723542
1.53291
0.232216
-0.708843
-0.0154631
1.0194
1.07347
-0.903299
-1.1281
-0.173318
-0.592121
-0.978814
-0.795962
-0.607841
1.07306
-0.81009
1.08455
1.34056
1.13449
1.0919
1.19345
1.25159
1.0797
-1.06621
-0.728182
-0.282797
-1.127
-0.977351
-0.715936
1.24891
1.15989
-0.984248
1.01492
-0.834469
-1.32436
-0.718997
-0.329227
0.545222
-1.26373
1.07152
1.01812
-0.706399
-0.452546
1.41822
-1.50653
-1.89924
-1.15138
-0.800445
-0.689988
1.11165
0.887194
1.14384
-1.02071
-0.629922
-1.01344
-0.231333
-0.97738
-1.2398
-0.905802
-1.57172
1.02288
-0.855104
1.52029
-0.958475
-0.657832
-1.0782
-0.714939
0.977248
-1.09314
-0.980269
-1.03647
-0.412081
1.29994
1.27764
-1.58516
-0.750373
0.935613
-1.06575
-0.984092
1.15803
-0.762578
-1.21715
-0.608116
0.86489
-0.507157
-0.968482
1.07362
0.16425
-0.664612
1.09067
-0.840839
-1.0119
-0.832639
-0.789456
-0.144472
-0.966267
1.41613
-1.03991
0.13255
-1.05042
0.905336
-0.620959
-0.878359
0.765437
0.788096
1.1302
1.02246
1.27745
-0.730877
0.885995
0.558231
-0.882134
1.03679
-0.248847
-0.612489
-1.59412
1.23375
1.22062
-0.593424
-0.86135
-0.983915
1.12296
-0.839331
0.218507
-1.31557
-0.720375
1.38167
1.1215
-0.751431
-0.81045
-0.755298
-0.737937
1.00031
-0.775728
1.08877
0.356344
0.823325
0.947484
-0.703655
-0.860718
1.05046
-0.717398
-0.414327
1.35797
-1.03644
-0.737252
0.932296
-0.866312
-0.799098
-0.26012
-0.911608
1.4284
-0.72246
0.108171
-0.754893
1.36137
-0.764176
-0.814574
0.760774
-1.25589
-1.0504
1.40485
0.789842
1.04443
-0.797909
1.33505
-0.316315
-0.918476
-0.790789
-0.78993
-0.767619
1.36608
0.694904
-1.02226
-0.761839
-0.952073
1.22732
-0.828869
1.33584
-1.04953
0.829691
-0.726463
0.495366
0.658858
0.625311
0.546182
0.165826
-0.82069
1.1165
-0.78693
-0.560489
-1.18296
0.259233
1.37929
-0.385625
-0.801992
-0.771979
-0.729424
0.3913
-0.955035
-0.723769
0.869628
0.162593
-0.745048
1.44894
-0.960359
-1.0687
1.4307
-0.734757
0.279552
-0.83096
-0.717101
-0.721001
1.42192
-0.712167
1.34276
-0.719228
-0.848217
1.27363
-0.315943
-0.82084
0.68521
-0.916572
0.148146
-0.497116
-0.726817
0.836344
-1.07687
-0.727786
-0.717266
-0.718858
-1.0546
0.877721
-0.0215559
-0.546242
-0.747965
1.37332
-0.948287
-0.8032
-0.702566
-0.212663
-0.843506
-0.70776
-0.741375
-0.176583
1.34932
-0.76978
-1.0431
-0.832808
-0.836501
-0.101398
-1.05975
1.46331
1.39817
0.537623
-0.873561
-1.05184
0.454504
-1.04901
1.47843
0.336633
1.11399
0.815359
1.34124
0.22115
-0.854464
-0.895656
0.070867
-0.784958
0.0714205
-0.155176
-0.721295
1.37122
-0.382947
0.347631
-0.503494
-1.03121
-0.87554
)
;

boundaryField
{
    frontback
    {
        type            empty;
    }
    Top
    {
        type            zeroGradient;
    }
    outlet
    {
        type            fixedValue;
        value           uniform 0;
    }
    bottom
    {
        type            zeroGradient;
    }
    Inlet
    {
        type            zeroGradient;
    }
    rectangle
    {
        type            zeroGradient;
    }
}


// ************************************************************************* //
