/*--------------------------------*- C++ -*----------------------------------*\
| =========                 |                                                 |
| \\      /  F ield         | OpenFOAM: The Open Source CFD Toolbox           |
|  \\    /   O peration     | Version:  2306                                  |
|   \\  /    A nd           | Website:  www.openfoam.com                      |
|    \\/     M anipulation  |                                                 |
\*---------------------------------------------------------------------------*/
FoamFile
{
    version     2.0;
    format      ascii;
    arch        "LSB;label=32;scalar=64";
    class       volVectorField;
    location    "16.7";
    object      U;
}
// * * * * * * * * * * * * * * * * * * * * * * * * * * * * * * * * * * * * * //

dimensions      [0 1 -1 0 0 0 0];

internalField   nonuniform List<vector> 
2186
(
(1.33074 -0.080635 1.9145e-19)
(1.63296 -0.955572 -9.94021e-20)
(1.47803 -0.932262 5.3225e-22)
(0.760715 -0.607177 -1.2932e-19)
(-0.379077 0.452574 -1.63561e-19)
(1.28879 -0.0165424 0)
(0.738315 -0.683114 0)
(-0.282657 -0.42315 1.23504e-19)
(1.45256 -0.281395 1.9846e-19)
(0.572279 -0.339096 -2.45487e-21)
(0.660023 0.595156 0)
(0.820946 -0.278199 -1.43277e-19)
(-0.330334 -0.488237 -4.9726e-20)
(1.19401 0.0215654 -3.32812e-19)
(1.82222 -0.698124 -1.06202e-19)
(1.01314 -0.00375592 1.57621e-19)
(0.985924 0.0132779 0)
(-0.704113 0.488764 0)
(1.25792 0.0166072 0)
(-0.0821035 0.20931 -6.07551e-20)
(0.483952 0.060175 -1.05783e-19)
(-0.221403 0.159006 8.2814e-20)
(1.18113 0.0261017 2.75375e-19)
(-0.208701 0.00391847 5.10044e-21)
(1.03381 0.00175785 -2.16541e-19)
(0.81072 -0.582423 0)
(0.766072 -0.0494036 1.31379e-19)
(0.627532 -0.608192 -1.46485e-19)
(1.18685 0.701921 0)
(0.965639 0.0224489 -2.95723e-19)
(-0.0327468 0.0445623 0)
(1.0256 -0.0128566 1.02347e-20)
(-0.0812644 0.209463 0)
(2.60715 0.165461 2.44474e-19)
(-0.0999135 -0.197083 3.5442e-21)
(1.50494 0.765304 6.37161e-20)
(1.87651 0.138068 1.51095e-19)
(0.507639 0.109257 -3.15405e-19)
(1.8775 0.320575 -3.07759e-19)
(1.11294 0.0543252 1.5521e-20)
(-0.360278 -0.522568 0)
(-0.180923 0.124922 0)
(1.89931 -0.896692 9.53321e-20)
(-0.413295 0.147558 0)
(1.0969 0.271783 1.40302e-19)
(0.613781 -0.318969 2.55849e-19)
(0.937751 -0.799963 0)
(1.20687 -0.808008 8.73178e-20)
(2.39411 -0.227302 0)
(-0.336328 0.616031 1.73552e-19)
(-0.0221734 0.093945 8.97967e-20)
(0.612865 0.56593 7.38225e-20)
(2.09294 -0.780083 1.17994e-19)
(0.58631 0.248571 -2.539e-19)
(-0.27567 0.0357456 3.12607e-20)
(0.784174 -0.672739 0)
(1.68275 -0.983552 1.86694e-20)
(0.598799 -0.559804 0)
(2.28988 0.286071 9.91907e-20)
(1.15551 -0.183128 -3.10088e-19)
(1.96894 -0.112916 1.77472e-19)
(1.33953 0.302755 -1.61226e-19)
(1.32039 0.525349 0)
(0.79203 0.0956116 -1.70019e-20)
(1.34361 0.384662 -9.70122e-20)
(1.27218 -0.753108 -1.17877e-19)
(1.147 0.653313 4.8205e-20)
(0.678902 0.0506067 -5.09362e-19)
(0.816907 0.0371954 0)
(2.11692 -0.257899 -7.24749e-20)
(-0.279164 -0.463904 -1.44124e-19)
(2.0655 -0.257765 -1.70567e-19)
(0.730684 -0.0595707 -2.23635e-19)
(0.893243 -0.541285 0)
(0.817268 0.158297 -8.28273e-20)
(0.568812 -0.532335 -2.64462e-19)
(2.61363 -0.229163 0)
(1.00489 0.00787558 3.24769e-19)
(-0.0866615 -0.280278 0)
(1.93893 0.416442 0)
(0.801931 0.462948 1.26013e-19)
(0.840085 0.0449904 -2.927e-20)
(1.03146 0.0049845 3.59193e-20)
(1.3006 0.41904 2.4676e-20)
(0.970524 0.0198423 3.7647e-19)
(1.04151 0.0246754 -8.94143e-21)
(0.662738 0.153353 -3.0519e-19)
(1.26184 0.0157026 -5.44701e-22)
(0.619749 -0.156535 0)
(-0.0678644 -0.0364341 1.03431e-19)
(0.88122 -0.646707 -1.41703e-19)
(-0.0818638 0.350977 -9.44618e-22)
(1.12552 -0.0846998 2.17863e-19)
(0.82904 -0.200521 0)
(0.975429 0.0237583 3.60627e-20)
(1.34062 0.639598 0)
(1.64516 -0.970171 0)
(1.28736 0.222017 0)
(-0.40958 0.568205 0)
(0.813648 -0.690811 2.53669e-19)
(0.467141 0.303619 -3.99251e-19)
(0.754032 0.341064 2.49638e-19)
(1.53653 0.197638 0)
(1.15355 -0.111618 -1.99162e-19)
(1.11511 0.0240432 1.6084e-19)
(-0.0547996 0.507116 1.10211e-19)
(0.620064 0.485148 0)
(2.22801 -0.194512 -1.44846e-19)
(0.982815 -0.501491 7.11244e-20)
(-1.58394 0.0928238 2.33868e-19)
(1.69398 0.315531 1.08796e-19)
(-0.234166 0.636429 -2.47958e-19)
(0.832458 -0.75755 0)
(0.551367 0.323988 1.54347e-19)
(1.67066 -0.280904 -5.71834e-19)
(-0.448095 -0.40857 -4.66972e-19)
(1.29755 0.276343 4.36284e-20)
(2.00667 -0.359803 0)
(-0.0894435 -0.0394854 -3.09724e-19)
(0.716674 -0.0935886 7.06165e-20)
(1.52476 0.865176 0)
(-0.292126 0.695445 -2.77087e-19)
(0.864618 0.743509 -2.48974e-19)
(-0.945335 0.440843 4.28161e-19)
(1.02933 -0.024984 0)
(1.42029 0.300077 -5.49755e-20)
(-0.323506 0.561472 0)
(0.71832 -0.520512 -9.46004e-20)
(-0.844645 0.445857 -2.26832e-19)
(0.805505 -0.736425 0)
(0.456939 -0.312317 3.7399e-19)
(0.565376 -0.484385 2.49029e-19)
(0.420551 -0.380869 0)
(1.00363 -0.800885 -1.0207e-19)
(0.780323 0.382144 0)
(-0.142873 0.71645 -1.36143e-19)
(0.832453 -0.720845 1.19925e-19)
(2.46173 -0.286047 3.21588e-19)
(2.27427 0.185089 0)
(-0.101598 -0.191383 0)
(0.666187 0.619453 -3.09112e-19)
(1.80599 -0.641316 1.80378e-20)
(-0.186242 -0.241951 0)
(1.00465 -0.827519 -1.12651e-20)
(1.15968 -0.107385 0)
(1.10009 -0.138898 3.4591e-19)
(2.15844 -0.196222 -1.39275e-19)
(-0.41605 0.444313 0)
(1.24595 -0.574148 -4.46204e-20)
(-0.269275 0.292453 -3.90179e-20)
(-0.187306 0.451451 0)
(1.11417 -0.834485 1.25618e-20)
(1.00565 0.0058315 -5.42522e-19)
(0.673419 -0.507102 -9.33775e-21)
(0.83659 -0.540406 0)
(1.22162 -0.751019 -7.41905e-20)
(0.647768 0.214852 2.37922e-19)
(1.22224 0.112041 0)
(1.4761 0.101153 -2.07262e-19)
(1.21799 -0.875387 -1.45497e-19)
(-0.0872418 -0.169795 -1.14439e-19)
(-0.0849556 -0.470825 -2.10334e-19)
(1.06686 0.0016988 2.03878e-19)
(0.937427 -0.486767 -8.94382e-20)
(1.26959 -0.0129931 5.04313e-22)
(1.28301 -0.0110419 -5.802e-21)
(0.727696 -0.101158 1.26936e-19)
(-0.185675 -0.0380937 -2.77069e-19)
(1.49088 -0.473124 0)
(1.50128 -0.537267 5.31229e-20)
(1.42043 0.641927 1.20269e-19)
(0.829802 -0.639229 -1.85048e-19)
(0.99543 0.00745461 1.11177e-20)
(0.743197 -0.55719 2.60026e-19)
(1.27472 0.787942 1.11281e-19)
(1.84491 0.113453 1.95175e-20)
(-0.463474 0.342425 0)
(1.08203 0.0493835 -2.11376e-19)
(-0.786405 -0.163263 -2.99594e-19)
(1.05127 0.480653 7.22117e-20)
(0.0524629 -0.0890558 1.67417e-19)
(1.15062 0.0264977 -3.84537e-20)
(-0.156393 0.150341 -1.47117e-19)
(1.27019 0.57838 -6.84908e-20)
(1.10984 0.867181 0)
(-0.519941 0.333583 -8.85526e-20)
(-0.214456 -0.19616 0)
(0.635415 0.544171 -2.53296e-19)
(2.03447 0.252514 -2.2469e-20)
(-0.401654 -0.515837 1.66571e-19)
(-0.816329 0.126458 -6.22103e-19)
(0.724005 0.051653 2.23691e-19)
(2.11202 0.122328 -6.26536e-20)
(0.996406 -0.36346 -2.64118e-20)
(-0.0339267 -0.0538497 0)
(-1.08778 0.00669174 3.72747e-19)
(1.29185 0.948671 -1.30689e-20)
(0.833454 0.0519059 -1.22323e-19)
(0.539726 0.506285 1.76103e-19)
(0.412981 0.191127 0)
(-0.126428 -0.477609 -2.39479e-19)
(-0.631083 -0.0517148 2.13727e-19)
(1.31682 -0.974301 1.90531e-22)
(0.98967 -0.0449791 -1.68399e-19)
(-0.174628 -0.135025 7.62612e-21)
(-0.128238 0.170889 1.35275e-19)
(-0.309281 -0.128435 -2.01135e-19)
(1.99093 -0.389442 0)
(1.1292 0.0438655 -2.84127e-19)
(2.28438 0.148066 2.69031e-19)
(1.29857 -0.641037 7.66056e-20)
(0.308064 -0.14077 1.37735e-20)
(0.580888 0.303797 0)
(0.92113 0.733449 -1.47061e-20)
(0.665066 0.611947 1.66831e-19)
(0.917283 -0.587975 1.2837e-19)
(0.668432 0.482342 0)
(1.02078 -0.0013353 7.21968e-21)
(0.903457 -0.687928 1.82426e-19)
(0.824489 0.406014 -4.14884e-19)
(1.25008 -0.116461 0)
(-0.205841 -0.22753 -3.1661e-19)
(-0.0246377 0.324591 -8.96042e-20)
(1.55638 0.713706 0)
(1.37134 -0.956074 -1.63073e-22)
(-0.709396 0.517315 0)
(-0.342519 0.509523 1.0327e-19)
(0.716425 0.63421 -8.89845e-20)
(0.861174 -0.234502 0)
(-0.174828 -0.17886 0)
(1.61675 -0.467688 0)
(-1.05289 -0.087036 6.7234e-19)
(1.23361 -0.901888 9.54618e-20)
(1.19944 -0.627659 4.95465e-20)
(1.07186 -0.182587 -1.39858e-19)
(0.900676 -0.717191 -1.43186e-19)
(0.19354 -0.198113 0)
(-1.20534 0.285512 0)
(1.02219 -0.533666 1.49015e-19)
(-0.154197 -0.257467 0)
(-0.329802 0.616915 0)
(-0.429008 -0.386702 3.98599e-19)
(0.772284 0.652765 7.71981e-20)
(0.98847 0.776683 0)
(0.678686 0.534298 -7.72948e-20)
(0.836498 -0.0628318 -2.00509e-19)
(0.728281 0.544827 -2.06522e-19)
(0.574261 0.533552 -1.51682e-19)
(-0.248442 -0.466607 1.83817e-21)
(0.736542 -0.662445 0)
(0.892628 0.155036 -2.90609e-19)
(-0.312579 -0.516875 6.52411e-20)
(0.586217 0.543677 3.40983e-19)
(0.932837 0.778372 0)
(-0.854246 -0.0231316 4.69246e-19)
(-0.0775679 -0.416007 3.48276e-19)
(0.00684283 -0.322443 -1.80118e-19)
(0.645126 0.550154 -1.34378e-20)
(0.970113 -0.00954943 5.25295e-20)
(-0.366488 -0.529174 0)
(2.40729 -0.0401319 -3.45009e-19)
(1.80358 -0.685734 -2.26667e-19)
(0.67061 -0.623135 -6.47612e-20)
(-0.54295 0.382891 1.54724e-20)
(1.17006 0.454635 1.61631e-19)
(0.869451 0.395489 0)
(1.0727 -0.184104 1.66891e-19)
(0.0830642 -0.42309 -6.90943e-21)
(-0.0639315 0.0802023 3.41413e-19)
(0.929333 0.0210815 -4.64804e-20)
(1.11249 0.137267 0)
(1.97515 -0.0644295 -3.33974e-19)
(1.91237 0.134102 0)
(0.537451 0.227507 -4.17681e-19)
(-0.136631 0.20265 0)
(-0.263499 -0.428803 2.82774e-19)
(0.703238 0.105008 0)
(0.644102 -0.541922 -1.60404e-19)
(1.13069 0.0176381 1.84701e-19)
(-0.456334 0.489447 3.86491e-20)
(2.18586 -0.106764 4.75183e-21)
(2.12348 -0.289648 -1.45662e-19)
(1.10263 0.222301 -1.95764e-19)
(-0.319481 -0.532348 -1.27189e-19)
(1.09532 -0.870251 0)
(0.805453 0.0208444 -1.34472e-19)
(0.94523 -0.396239 -2.53391e-19)
(1.75517 -0.586849 -8.66237e-21)
(1.76094 0.0327859 3.02995e-19)
(1.07552 -0.00934521 3.40028e-19)
(0.0331517 -0.406246 -1.73975e-19)
(1.01215 -0.458248 -1.08326e-19)
(0.204595 -0.197431 2.26849e-19)
(1.00851 -0.00922216 0)
(1.00519 -0.00629479 0)
(1.08119 -0.622539 1.00426e-19)
(-0.0459492 0.681638 -9.1936e-20)
(0.179563 -0.121106 -1.50275e-19)
(2.01425 -0.0963802 1.17496e-20)
(1.25001 -0.161884 0)
(2.00011 0.0991923 -1.7951e-19)
(0.960476 -0.836836 -5.81277e-20)
(1.81788 -0.570099 -8.9118e-20)
(1.07823 0.81869 0)
(0.491106 -0.474886 0)
(0.586673 0.497705 -1.6119e-19)
(1.08275 0.273679 -3.61094e-19)
(2.31068 -0.280078 4.71508e-22)
(0.852153 0.137719 1.24755e-19)
(-0.0146248 -0.442032 -5.11801e-19)
(1.0515 -0.329173 -3.40279e-20)
(-0.199307 -0.459806 0)
(-0.0971442 -0.203235 0)
(-0.443169 -0.487604 0)
(1.36294 -0.742137 -5.63581e-20)
(-0.190226 0.4553 -1.97731e-19)
(-0.0474315 0.127745 0)
(1.25402 0.95081 -2.80954e-20)
(1.10173 0.144795 -3.75165e-19)
(1.85362 0.480051 -4.47899e-20)
(1.04949 0.897568 7.17936e-20)
(-0.19802 0.628317 1.27628e-19)
(0.567245 -0.15612 0)
(-0.453631 -0.442549 -3.45073e-19)
(-0.267741 0.59777 2.39178e-19)
(0.775305 0.0117089 1.64525e-19)
(1.49391 0.927644 4.5005e-21)
(1.68797 0.510662 -6.89853e-21)
(-0.117464 0.318497 -2.25358e-21)
(0.762822 -0.697688 -3.07866e-20)
(1.11017 -0.000667449 0)
(1.7152 -0.0844965 0)
(1.04462 0.0526946 0)
(-1.39206 0.44379 -2.34291e-19)
(-0.385578 -0.493871 1.25729e-19)
(1.01991 0.823944 0)
(1.00322 -0.0097737 4.52454e-19)
(0.749008 0.586438 -2.06908e-19)
(-1.78567 0.0486914 -2.01842e-19)
(0.858298 -0.00155803 -3.6761e-20)
(0.732641 -0.67125 -1.85482e-19)
(1.3553 0.69818 -2.71469e-20)
(0.586739 -0.480646 -2.5958e-19)
(1.12606 -0.00115377 -4.0798e-19)
(0.819233 0.04186 3.93075e-20)
(1.56595 -0.186317 4.47142e-20)
(1.31456 -0.133024 -4.69443e-20)
(-0.0623723 -0.0869712 -7.21214e-23)
(1.05658 0.454517 -2.40405e-19)
(1.27779 0.596563 7.12842e-20)
(-0.0423183 -0.393142 0)
(0.00527714 -0.447672 1.89642e-19)
(-0.286874 -0.318418 1.32804e-19)
(-0.199068 -0.0725626 -1.43562e-19)
(0.45993 0.28553 0)
(1.39643 -0.687429 0)
(0.0130338 -0.0101644 -1.24324e-19)
(-0.268047 -0.52455 -7.05269e-20)
(1.04546 -0.0281323 1.61684e-19)
(-0.394761 0.329387 -4.00369e-20)
(1.59063 -0.138004 -6.20255e-19)
(-0.0664293 0.700366 0)
(0.851146 -0.756647 -2.48256e-19)
(0.936148 -0.138348 5.83459e-20)
(-0.360316 -0.346232 1.88301e-19)
(0.712911 0.137992 2.97278e-19)
(0.619617 0.11147 9.64806e-20)
(0.519885 -0.494458 1.77545e-19)
(-0.208663 -0.29614 -1.50284e-19)
(1.45256 0.480804 0)
(0.375935 0.316632 -1.77754e-19)
(1.0258 -0.0159637 -2.57252e-19)
(-0.887215 0.130763 2.41975e-19)
(1.39289 0.483869 -1.02894e-19)
(-0.17693 -0.313837 -5.68451e-20)
(0.699557 -0.638891 -2.38713e-20)
(0.804292 0.164791 -1.86102e-19)
(0.956696 0.408533 2.05782e-20)
(1.16437 -0.154272 2.98189e-20)
(0.621537 -0.25538 -2.68416e-19)
(2.03735 -0.377976 -1.8919e-19)
(1.52094 -0.167914 0)
(1.46039 0.402354 -2.92424e-20)
(1.83266 0.105037 -1.95985e-20)
(0.850285 -0.290269 1.46684e-19)
(0.893653 0.346245 -1.71145e-19)
(0.897525 -0.018426 4.99584e-20)
(0.402597 0.36803 -2.30126e-19)
(-0.233236 0.387497 2.58188e-19)
(1.96439 -0.22603 0)
(0.92865 0.00425909 0)
(0.889899 -0.788505 4.63161e-20)
(-0.087725 -0.457392 -3.8111e-19)
(-0.912937 0.228164 -3.03015e-19)
(-0.0861494 -0.129656 -2.44097e-19)
(-0.476243 0.629964 -1.63644e-19)
(-0.260121 -0.451857 0)
(-0.078757 -0.15617 4.32027e-20)
(0.171447 0.464711 -8.41204e-20)
(-0.147798 0.194371 -3.08939e-19)
(0.81282 -0.128552 0)
(1.53568 -0.684641 8.99449e-20)
(-0.257997 -0.312321 0)
(0.996099 0.0232196 3.26303e-19)
(-0.0760439 -0.499758 2.3344e-20)
(0.562441 -0.452259 3.47881e-19)
(-0.840063 -0.192226 4.96541e-19)
(-1.56201 0.117807 0)
(0.232764 0.649904 1.02103e-19)
(1.00753 0.024046 -9.80782e-21)
(-0.154602 -0.139355 0)
(1.00583 -0.0106872 -5.089e-20)
(0.880375 -0.747614 -2.40829e-19)
(1.50547 -0.699098 0)
(0.945306 -0.284007 1.81038e-19)
(0.106254 0.668507 2.31451e-19)
(-0.0148885 -0.0138066 0)
(-0.149012 -0.46413 -6.87942e-21)
(0.746674 -0.656786 -3.6684e-19)
(0.965837 -0.0273408 -2.32897e-19)
(-0.0978377 -0.467867 4.73499e-19)
(-0.218988 -0.407989 1.73511e-19)
(-0.226224 -0.478305 0)
(0.93895 0.459713 0)
(-0.292769 -0.506864 2.37702e-19)
(1.88137 0.0355926 -2.54092e-19)
(1.04613 0.873723 1.64064e-20)
(1.06092 0.20676 -1.10251e-19)
(1.14975 0.00668514 -1.91569e-19)
(1.07524 -0.0681762 -6.63704e-20)
(-0.0992637 -0.473665 -4.34506e-19)
(2.01765 0.0995882 5.14638e-19)
(0.6692 0.0252472 1.83447e-19)
(2.02015 -0.101278 1.67817e-19)
(1.06683 -0.169278 0)
(-0.123787 0.405434 4.65655e-19)
(1.13361 0.024566 -4.42261e-19)
(1.71581 0.613948 2.90917e-21)
(0.759496 -0.478305 -1.41676e-19)
(-0.0708625 -0.0343657 2.31593e-19)
(0.815939 -0.718731 3.17936e-19)
(1.22498 0.193159 6.55403e-20)
(1.00468 -0.00831396 2.25482e-19)
(0.0347118 -0.449511 -1.89805e-19)
(1.02171 0.0122502 0)
(1.62553 0.146886 -2.28472e-19)
(-0.0262105 -0.0210372 0)
(1.02208 0.0131353 -1.32579e-19)
(-1.44223 -0.0854522 -7.39462e-19)
(1.67591 0.319301 2.56386e-20)
(-0.403022 -0.342382 1.65521e-19)
(1.60719 -0.00596222 -1.41199e-20)
(1.01132 -0.0196694 4.66748e-20)
(1.34818 -0.0947509 0)
(1.47115 -0.625384 -9.30957e-20)
(1.01843 0.0270795 -1.38284e-19)
(1.41027 0.775769 -4.46868e-20)
(1.40387 -0.0593658 0)
(0.669787 -0.0605933 -1.75435e-20)
(0.0116321 -0.0112671 0)
(1.37167 0.0507583 0)
(-0.370707 -0.510969 0)
(1.2221 0.434325 0)
(1.82807 0.308488 4.87979e-20)
(0.721936 0.598214 3.62581e-19)
(0.302184 -0.304504 -2.10139e-19)
(-0.254275 -0.503982 -4.14143e-19)
(-0.0335157 -0.0563608 0)
(1.70982 -0.503995 9.89096e-20)
(1.29066 0.509768 0)
(1.43362 0.301053 0)
(-0.481884 -0.413903 1.52231e-19)
(0.786761 0.695806 1.15402e-19)
(1.71588 -0.0261693 0)
(-0.336517 -0.449252 9.51242e-20)
(0.896357 0.200713 1.70605e-19)
(1.84235 -0.459044 -4.48058e-20)
(1.21042 0.906858 3.92621e-20)
(0.937182 -0.843751 -2.24319e-20)
(1.17204 -0.194219 -1.44887e-20)
(0.772831 0.698964 1.18266e-19)
(1.14768 0.903948 0)
(2.42721 -0.334981 1.89416e-19)
(1.18008 0.680958 0)
(1.36279 -0.624001 2.66054e-20)
(0.90554 0.0999478 1.73957e-19)
(1.0061 -0.00613146 0)
(-0.0486878 0.269414 4.60546e-19)
(0.898485 -0.186531 4.21656e-20)
(0.649713 -0.433775 0)
(0.686947 -0.405356 1.88032e-19)
(1.21451 0.549397 -2.98912e-20)
(0.460673 0.433819 2.52179e-19)
(-0.176784 0.263992 3.66008e-20)
(0.0153081 -0.00959612 8.77094e-20)
(0.765466 0.0624049 0)
(1.34367 -0.917745 -3.71592e-20)
(1.03867 -0.0418782 3.58739e-19)
(1.45283 0.336032 1.3566e-19)
(-0.362796 -0.481724 8.23176e-20)
(-0.904822 -0.181208 0)
(1.24497 -0.249249 -9.50331e-20)
(-0.0141096 -0.0166923 -1.99214e-19)
(-0.0159598 0.178403 -5.74718e-20)
(-0.125794 0.0381203 -5.37699e-22)
(-0.197765 0.0870918 2.78351e-19)
(1.32692 -0.0988831 -3.05283e-21)
(2.43189 -0.0668219 4.61953e-19)
(1.17133 0.457318 -2.60636e-19)
(0.859356 -0.038469 0)
(1.91602 -0.13955 2.71743e-19)
(1.88223 0.1295 1.38947e-19)
(0.93035 -0.784957 1.16183e-19)
(1.17336 -0.989826 -1.61825e-20)
(0.465044 0.431305 1.68929e-19)
(1.47821 0.379632 0)
(1.72469 0.574465 3.17355e-20)
(-0.0206758 -0.0327344 -4.05811e-19)
(0.861877 0.752799 0)
(1.31545 0.410623 0)
(0.30416 -0.304427 -3.93517e-21)
(0.308875 0.277592 0)
(-1.22699 -0.000837105 -4.61995e-19)
(-0.259262 0.424455 -1.07892e-19)
(1.75874 -0.430071 0)
(1.25471 0.0979661 1.46472e-19)
(-0.706743 0.248615 2.53285e-19)
(0.550283 -0.524272 -4.01559e-19)
(2.01466 -0.0997559 -5.93262e-20)
(0.628736 -0.572932 0)
(1.02072 0.116655 0)
(1.38159 -0.244524 0)
(1.10828 0.220541 -2.08322e-19)
(1.32793 0.106027 2.9387e-19)
(-1.35619 0.129884 0)
(0.888236 -0.0577414 0)
(2.13796 -0.128863 7.93926e-22)
(-0.0621632 0.135178 9.45274e-20)
(2.61658 -0.065279 -3.55427e-19)
(1.0789 -0.52108 2.09158e-19)
(2.03893 -0.00498229 -3.6604e-19)
(-1.1373 0.305247 -1.90592e-19)
(1.99333 0.143469 -2.30579e-19)
(1.01869 -0.0291137 3.67341e-19)
(1.49103 0.599842 0)
(-0.304449 0.556222 2.88806e-20)
(1.02241 -0.846682 1.37826e-19)
(0.86049 -0.0339921 4.29695e-20)
(0.65502 -0.457203 0)
(1.92575 -0.552074 9.25269e-21)
(1.22608 -0.195692 1.22677e-19)
(1.6396 -0.660003 0)
(0.621355 -0.578006 3.67063e-19)
(0.67466 0.0874807 -2.76375e-20)
(2.46036 -0.0339713 6.29601e-19)
(-0.0903414 0.229745 -1.94525e-19)
(1.30795 0.611744 1.3139e-19)
(1.12877 0.397474 3.29712e-21)
(0.88982 0.355452 2.0327e-19)
(1.96381 0.137762 -2.7845e-19)
(-0.11522 -0.478755 -4.5847e-21)
(0.841783 -0.216937 0)
(-0.155549 -0.0979972 3.82945e-19)
(1.10717 -0.963784 0)
(1.08313 -0.673379 1.78703e-20)
(1.17434 -0.105202 -7.7486e-19)
(1.43919 0.0807727 -7.16943e-21)
(-0.563936 -0.289635 -4.33387e-19)
(0.969865 0.471547 1.58107e-19)
(-0.23302 0.451351 2.59155e-19)
(0.693393 -0.0367703 0)
(1.82822 -0.142462 0)
(1.49272 0.164 2.48329e-20)
(0.775449 -0.0107287 0)
(1.38399 -0.213415 -1.26233e-19)
(-1.60022 0.224193 5.84489e-19)
(1.89814 0.494187 1.91395e-20)
(1.04292 -0.0329451 0)
(0.572387 -0.376587 9.22541e-20)
(1.00758 0.0265235 1.75186e-19)
(0.563018 0.835068 -2.2589e-19)
(-0.498616 0.647649 0)
(1.13018 -0.497803 4.07427e-19)
(1.68535 -0.118817 -4.68054e-22)
(1.11714 -0.516621 -1.77563e-19)
(2.32354 0.264538 1.77088e-19)
(1.26171 0.777947 0)
(0.861638 0.0182261 0)
(-0.406809 -0.503168 -2.05554e-19)
(0.0123184 -0.0101849 1.3986e-19)
(0.933324 0.35178 -1.87455e-19)
(0.196035 -0.382663 -1.71225e-19)
(0.634625 0.389593 2.20861e-19)
(0.857528 -0.0209098 0)
(0.55163 -0.513689 0)
(0.922794 -0.214461 4.32772e-21)
(1.2519 -0.527496 -8.02255e-20)
(0.640368 -0.019793 1.43747e-20)
(0.740304 -0.173409 1.05775e-19)
(-0.0423654 0.0681044 -2.50334e-19)
(1.31245 0.20618 3.19133e-19)
(0.643503 0.600085 0)
(1.24562 0.686663 0)
(1.59076 0.26394 0)
(-0.344492 -0.435629 -1.86954e-19)
(1.21489 0.542932 1.91029e-19)
(2.0366 0.0824901 5.78645e-20)
(0.926982 -0.00500693 0)
(1.41478 -0.466266 0)
(2.20379 -0.105124 -3.93962e-19)
(0.590519 0.345089 2.58617e-19)
(1.0061 0.00479212 -1.75246e-19)
(1.47001 0.465053 0)
(-0.35342 0.622613 0)
(1.23179 0.317626 2.56828e-19)
(1.0034 0.516627 -1.17059e-19)
(1.06902 0.0247046 0)
(1.72786 0.197795 0)
(1.93048 0.665213 -2.84011e-19)
(-0.0884314 0.44249 -1.7556e-21)
(0.996788 0.0119482 0)
(0.694604 0.456199 -3.0324e-20)
(0.951465 -0.839669 0)
(1.00899 0.0173514 4.06596e-20)
(0.946077 -0.512817 2.90211e-20)
(0.917499 -0.337169 2.6619e-19)
(0.961411 -0.28052 -7.3024e-20)
(2.23079 -0.148001 4.08044e-19)
(1.28952 0.1298 9.28999e-20)
(0.785833 -0.0262106 0)
(1.01887 0.00730574 0)
(-0.599454 -0.342382 0)
(0.647777 0.6205 -1.70192e-19)
(-0.0149997 0.0297426 1.68909e-19)
(1.15418 0.340173 -4.12104e-19)
(-0.594383 0.357306 0)
(0.811153 0.627343 1.52199e-19)
(1.01731 -0.346 0)
(1.0053 -0.00291249 1.026e-19)
(0.117082 0.0693872 6.81973e-20)
(1.01601 0.393227 2.31276e-19)
(1.42267 0.250977 0)
(2.16117 0.205871 -9.2621e-20)
(0.831562 -0.128198 -3.23255e-19)
(-1.22716 0.0262666 -6.2981e-19)
(1.08817 0.270386 0)
(0.867474 0.222244 1.58253e-19)
(2.06428 -0.185335 0)
(0.761456 0.50666 3.29134e-19)
(-1.63948 0.199306 2.50613e-19)
(-0.0239416 0.0674736 0)
(0.575089 0.546808 -6.4091e-20)
(1.04419 -0.661414 -1.25755e-19)
(0.497887 -0.277608 -1.09848e-19)
(1.01992 -0.0171423 0)
(-0.488998 0.393473 -2.47644e-19)
(0.657527 -0.590471 7.09366e-20)
(0.89213 0.269672 0)
(1.6598 -0.653724 1.25157e-19)
(0.958401 0.81756 2.17456e-20)
(1.02603 -0.471769 -2.46074e-20)
(0.245699 -0.249317 -2.78136e-19)
(0.243418 -0.0887824 -5.01284e-19)
(-0.131236 -0.256381 1.05487e-20)
(0.804329 0.340939 2.23681e-19)
(-0.211995 0.496098 -4.89164e-21)
(1.43663 -0.667761 3.40083e-21)
(1.02618 0.00635993 -3.03397e-19)
(-0.431334 -0.409292 0)
(1.02895 0.0290329 -3.59872e-19)
(2.19031 0.236242 2.31505e-19)
(0.868422 0.674645 2.54512e-19)
(1.13757 -0.0758347 1.39361e-19)
(1.0071 -0.0351365 1.40493e-19)
(1.50801 0.106447 6.6268e-21)
(-0.332253 -0.391425 -5.76366e-22)
(1.74974 -0.885327 1.55055e-20)
(1.15788 -0.130274 -6.23496e-20)
(0.818583 0.054074 7.11518e-20)
(0.921754 -0.305609 7.87932e-20)
(0.892924 0.185165 0)
(0.941356 0.719208 0)
(0.72845 0.310463 -8.13136e-20)
(2.06458 0.18351 -2.9664e-20)
(-1.14332 -0.0182226 2.13179e-19)
(1.04676 -0.560881 -4.34445e-19)
(0.637107 -0.557332 3.42632e-19)
(1.18325 0.247151 -1.4873e-19)
(0.264974 -0.392962 1.9705e-20)
(1.44668 -0.470752 0)
(0.748761 0.0939257 -6.08216e-21)
(1.46918 -0.569029 -5.07025e-20)
(1.01745 0.746574 0)
(1.29513 -0.596356 0)
(0.551861 0.167676 0)
(-0.208096 -0.330541 -6.86655e-20)
(-0.143589 0.167018 0)
(1.51766 0.65873 2.91893e-19)
(1.21113 0.176787 5.67683e-21)
(-1.26408 0.160166 2.72559e-19)
(1.71747 0.568966 1.48186e-20)
(1.7925 0.46702 -6.88394e-20)
(2.17327 -0.337036 -4.23562e-20)
(-0.169221 0.00641826 -1.95974e-19)
(-0.155771 -0.489462 5.1262e-21)
(0.978494 0.0973131 0)
(0.677459 -0.0336906 0)
(1.00089 -0.0012096 1.74613e-22)
(-0.367499 -0.428242 0)
(1.55521 0.000944875 -1.37205e-19)
(0.678644 -0.0310221 0)
(1.06451 0.00332281 1.11783e-19)
(0.998883 0.0145799 -3.98088e-20)
(1.20962 0.214295 2.02053e-19)
(1.06074 -0.0180205 -8.21811e-22)
(0.956324 -0.199524 -4.7636e-20)
(1.02694 -0.0370635 3.25261e-19)
(0.69097 -0.632284 1.59393e-19)
(-0.893427 -0.209786 -2.80072e-19)
(1.1372 0.40642 2.89912e-20)
(0.0121019 -0.00488878 0)
(1.10141 0.779738 0)
(1.02962 -0.0113105 0)
(1.02047 -0.793581 -8.50624e-20)
(1.05452 -0.904192 1.74272e-20)
(0.821426 0.166685 -3.58567e-20)
(-0.0484462 0.208939 -9.15567e-19)
(1.29206 -0.366152 1.29425e-20)
(0.605837 -0.409558 -5.61727e-19)
(1.22027 0.413886 -4.32671e-20)
(0.951749 -0.0928237 -7.96343e-20)
(2.09352 -0.344732 1.31902e-19)
(0.403638 0.0941069 -2.44057e-20)
(-0.308926 -0.441622 -1.43526e-19)
(1.09143 0.54151 1.76992e-19)
(-0.0402425 -0.359904 0)
(0.164926 -0.47991 4.28464e-19)
(-0.0786084 -0.132952 -1.77851e-22)
(1.03212 -0.044582 2.94194e-19)
(1.02247 7.3888e-05 -7.53205e-21)
(1.10534 -0.0131193 -8.1345e-20)
(1.38474 0.0179707 -9.23952e-21)
(1.60522 0.319896 4.83411e-20)
(0.416812 -0.39261 -2.77548e-19)
(0.799584 0.0937447 6.65538e-20)
(1.03301 -0.00174381 -2.14518e-19)
(1.02268 0.274084 -2.98433e-20)
(1.33353 0.0408074 0)
(1.08739 0.581886 -3.31678e-19)
(1.00331 -0.00557393 8.36952e-20)
(0.657338 0.586483 2.3525e-19)
(1.30493 -0.224023 4.54604e-22)
(1.06686 -0.0109914 -2.67782e-20)
(1.12853 0.0113799 7.59131e-22)
(2.53071 0.0571302 2.23212e-20)
(0.25697 0.0745721 0)
(1.05125 -0.0404953 0)
(1.05626 -0.0360012 5.15866e-19)
(1.00118 -0.00268751 0)
(-0.0534636 -0.0926662 0)
(0.964962 -0.588101 0)
(0.999935 -0.0009528 -4.86775e-19)
(1.17597 -0.702296 6.55451e-20)
(1.02312 -0.00544352 1.01923e-20)
(1.31027 0.935843 -2.18974e-20)
(1.48885 0.982854 -1.79004e-20)
(1.15592 -0.165866 -1.96271e-20)
(1.52821 0.294279 2.41925e-19)
(1.3096 0.257653 0)
(0.0224066 0.551097 0)
(2.206 -0.069025 5.61558e-19)
(1.25712 -0.76505 0)
(1.00171 -0.00335967 -1.51042e-19)
(1.00908 -0.00121187 2.93321e-19)
(1.42507 0.143196 -6.14601e-20)
(0.00197851 -0.126246 2.95921e-19)
(0.968618 -0.00209071 1.59468e-19)
(0.221076 -0.0323987 3.99275e-20)
(0.225517 0.0122547 -4.064e-20)
(1.43344 0.0385857 -1.40631e-22)
(0.927246 0.0169327 -1.59824e-19)
(1.0021 0.00348102 1.89246e-19)
(1.0001 9.34969e-05 1.11751e-20)
(0.789497 -0.0123914 0)
(0.727512 -0.0272315 0)
(0.724102 -0.0273573 6.82456e-22)
(0.699342 -0.0299392 0)
(0.807247 -0.178136 0)
(0.148335 -0.00386853 0)
(0.0451627 -0.0371205 4.54003e-20)
(0.280826 0.12926 -2.75355e-20)
(1.12318 0.0624132 0)
(1.32197 0.0327007 3.27853e-21)
(1.40263 0.0245241 0)
(0.0754818 0.0280426 0)
(-0.051565 0.00318825 0)
(0.0251715 0.0354291 -1.65846e-21)
(0.594821 0.152189 5.08585e-20)
(0.791859 0.0235104 0)
(0.794344 0.020485 0)
(0.966541 0.0190463 -1.97149e-19)
(0.822163 0.00739387 3.6902e-19)
(1.00654 -0.000939579 0)
(0.999986 -0.000889058 3.49533e-19)
(0.999216 -0.000886197 -3.2554e-22)
(0.795707 0.0224757 3.12848e-19)
(0.990872 -0.00746611 -1.83125e-19)
(0.23872 -0.00132302 0)
(-0.0564429 -0.00757029 4.06737e-20)
(1.00119 2.69263e-05 -1.76813e-19)
(1.00013 0.0010253 -3.03178e-19)
(1.14541 -0.0713928 0)
(0.999553 0.00232462 0)
(0.999428 -0.000277347 0)
(1.42496 -0.352034 1.97846e-20)
(0.977011 -0.068688 1.60163e-20)
(0.961574 0.263291 0)
(-0.356002 0.340508 1.8682e-19)
(-0.787094 0.466909 -4.50909e-19)
(1.0197 -0.0190989 -2.35351e-19)
(-0.308356 -0.52215 -1.29589e-19)
(1.02029 0.000780625 -1.88972e-19)
(1.19779 -0.219021 -7.79085e-20)
(0.815109 -0.494172 2.64274e-19)
(-0.0670491 -0.0996927 -9.86585e-20)
(1.0299 0.0119206 0)
(1.05277 -0.00853472 -5.14944e-20)
(0.86147 0.0209224 0)
(-0.0340098 0.0365889 2.47032e-19)
(1.22999 -0.645665 0)
(-0.410614 -0.452987 -3.28485e-19)
(0.261538 0.00420401 -3.50871e-20)
(1.62353 0.67673 8.43917e-21)
(-0.0556133 -0.0356736 0)
(1.0602 -0.0371769 1.59417e-19)
(1.21028 -0.18194 2.35731e-21)
(0.924606 -0.0230435 2.51152e-19)
(1.01426 -0.00746602 -1.60472e-19)
(1.63592 0.848504 4.11171e-20)
(0.507283 0.474953 0)
(0.429759 0.378468 1.85751e-19)
(1.39921 -0.399236 -4.32445e-21)
(1.13916 0.121945 1.73064e-19)
(1.10419 -0.731204 0)
(1.02127 0.00173841 0)
(0.998758 -0.0175532 -3.69946e-19)
(1.01654 0.0148391 -3.5948e-19)
(-0.173333 -0.366309 0)
(1.19527 0.806614 -1.13606e-19)
(1.39615 -0.199971 -4.83996e-22)
(1.01415 0.00292245 1.3854e-19)
(1.0097 0.0133792 -1.7368e-19)
(-0.51195 -0.391688 -3.22577e-20)
(1.15685 -0.0589535 -4.92731e-20)
(1.01746 -0.0157735 5.91474e-19)
(1.23754 -0.0761993 0)
(1.81989 0.644323 -5.03333e-20)
(1.01675 -0.00979532 -1.84145e-19)
(2.01235 0.122044 -1.5284e-19)
(1.05849 0.00710168 -4.25612e-22)
(1.00919 -0.00912406 3.68973e-20)
(2.10784 -0.275275 -3.38105e-19)
(1.01417 0.00858791 1.78422e-19)
(1.18884 0.186148 5.15253e-21)
(1.01663 0.00282 0)
(0.927313 0.136971 4.45079e-20)
(-1.4079 0.163359 6.54539e-21)
(0.99905 0.0198684 1.77311e-19)
(1.03834 0.0206079 -5.9432e-22)
(1.28057 -0.106561 -1.44216e-21)
(1.24133 0.312919 3.65389e-19)
(0.998864 0.0145442 1.21648e-19)
(1.01552 -0.0143732 4.47811e-22)
(1.71414 0.26242 -1.69613e-20)
(1.72021 0.917527 -9.8301e-20)
(0.78926 -0.709765 4.78559e-20)
(0.470555 -0.353696 -2.73306e-19)
(1.00609 -0.0111467 0)
(1.01938 0.00147828 4.43065e-20)
(1.01016 -0.00954612 9.36013e-20)
(1.16291 0.0694567 3.09025e-21)
(1.01227 0.00429177 -1.85694e-19)
(1.02867 -0.023599 2.11702e-19)
(1.00777 -0.00785447 -1.7506e-19)
(1.01513 0.00573156 -4.8199e-22)
(1.01138 0.00495115 -3.43834e-22)
(1.02266 0.0121005 1.77762e-19)
(0.895272 0.0692138 4.56827e-19)
(1.71433 0.598242 0)
(0.480527 -0.0259482 2.89467e-19)
(1.01271 -0.00440202 0)
(1.02158 -0.019871 -5.15633e-20)
(1.51823 0.450404 -6.67497e-20)
(1.86569 -0.0116459 0)
(2.16896 -0.400166 -1.03312e-19)
(1.29096 0.578288 -4.77586e-20)
(0.761604 -0.0134928 0)
(1.96405 -0.10657 0)
(0.139692 0.281701 -1.56499e-19)
(1.34002 0.0628794 -4.33577e-21)
(1.01637 -0.00609255 -1.8723e-19)
(1.13632 -0.584169 -4.993e-20)
(1.23632 -0.0397475 -1.38764e-20)
(1.47268 0.475172 0)
(1.31517 -0.375581 0)
(1.82767 0.461219 0)
(0.146536 0.533166 8.72185e-20)
(1.31351 0.159567 5.01586e-20)
(0.0271087 0.316718 0)
(-0.0979632 0.597239 -3.02583e-19)
(1.65915 0.948778 -6.04207e-20)
(1.01017 -0.00346131 -3.6596e-19)
(1.25561 0.0880815 1.14871e-20)
(1.02154 0.004493 2.41804e-19)
(0.691094 -0.038637 0)
(-0.141207 -0.338815 -3.01315e-20)
(0.60027 0.414382 -3.11162e-19)
(1.74945 0.628556 8.22629e-20)
(0.0967518 0.646809 0)
(0.806335 0.0678371 6.50774e-20)
(0.505766 0.482844 4.70964e-20)
(1.15937 0.86723 -3.05959e-20)
(-0.0331547 -0.0215533 1.47068e-19)
(1.01847 0.0120325 0)
(1.40169 0.281838 3.10443e-20)
(1.01227 -0.00128083 1.37396e-19)
(2.42054 0.16936 0)
(1.01088 0.00658596 2.30406e-19)
(0.173725 -0.456713 -2.0271e-19)
(1.02059 0.00885012 -1.42503e-19)
(1.41428 0.267021 0)
(1.92428 -0.417471 5.06236e-22)
(1.01184 0.00164812 -9.57433e-20)
(0.995688 -0.0338682 2.52818e-19)
(1.08437 0.0928254 -2.36957e-21)
(1.19976 0.291165 -4.16073e-20)
(-0.155821 -0.0642145 3.86173e-19)
(1.95708 0.330843 1.82586e-19)
(0.719404 0.153838 4.83392e-20)
(0.806175 0.0155339 -3.45737e-19)
(0.801566 0.02502 0)
(0.843868 0.0262115 4.70419e-20)
(1.02285 -0.0173038 -2.77359e-20)
(0.972925 0.0205542 0)
(1.04931 -0.00138308 -1.76258e-19)
(0.452693 -0.495748 -4.57359e-20)
(-1.51806 0.112484 2.84464e-19)
(2.17323 -0.598391 0)
(-1.00688 0.0663708 -8.63424e-19)
(1.54195 -0.35503 0)
(1.03833 -0.0184891 5.17179e-20)
(1.06116 -0.0310999 2.02953e-21)
(1.01558 -0.00376185 1.48506e-19)
(-1.08555 0.180935 5.19221e-19)
(1.0177 0.00119848 0)
(0.991028 0.00400355 -3.59039e-19)
(1.00671 0.00783088 1.88967e-19)
(0.871852 0.119412 0)
(0.7552 -0.136564 -9.24146e-21)
(0.960053 -0.00100107 -1.61982e-19)
(-0.248063 -0.509648 4.46091e-19)