/*--------------------------------*- C++ -*----------------------------------*\
| =========                 |                                                 |
| \\      /  F ield         | OpenFOAM: The Open Source CFD Toolbox           |
|  \\    /   O peration     | Version:  2306                                  |
|   \\  /    A nd           | Website:  www.openfoam.com                      |
|    \\/     M anipulation  |                                                 |
\*---------------------------------------------------------------------------*/
FoamFile
{
    version     2.0;
    format      ascii;
    arch        "LSB;label=32;scalar=64";
    class       volScalarField;
    location    "14";
    object      p;
}
// * * * * * * * * * * * * * * * * * * * * * * * * * * * * * * * * * * * * * //

dimensions      [0 2 -2 0 0 0 0];

internalField   nonuniform List<scalar> 
2186
(
0.696434
-0.432041
-0.125347
1.00717
-1.04907
-0.0447949
0.603311
-1.08805
-1.10949
1.25797
0.996015
-1.04423
-1.09475
0.955688
-0.662538
0.962908
0.986054
-1.60396
-0.00576914
-0.890987
1.35676
-0.849371
0.964175
-1.12144
0.957181
0.981879
1.17891
0.832504
0.532229
0.955888
-0.876723
0.957406
-0.835691
-1.10354
-1.03453
0.0505421
-0.997291
1.34658
-0.950115
-0.0565567
-1.12243
-0.850073
-0.772879
-0.914183
0.842147
1.24108
0.268634
0.440753
-1.53987
-1.16443
-0.883582
0.84099
-0.773351
1.28138
-0.804086
0.883248
-0.821276
0.911056
-1.09933
0.734147
-0.840219
0.569664
0.490386
-0.0588955
0.504685
0.381654
0.609187
1.24605
1.14233
-1.13888
-1.09625
-0.899447
1.21362
0.937125
1.13133
1.09456
-1.18043
0.981001
-1.03864
-0.828241
-1.99833
-0.0821474
0.952575
0.555055
0.944773
0.95249
1.25375
-0.0332412
-0.242318
-1.04793
0.885519
-0.922013
0.865606
1.1124
0.967176
0.35803
-0.250743
0.521698
-1.13388
0.925544
-2.36814
-2.29674
0.580536
0.888845
0.98856
-0.943287
1.17231
-0.848101
0.87052
-1.59139
-0.765095
-1.08182
0.466451
1.27993
-1.06169
-0.980749
-0.217977
-1.5318
-1.05028
1.21514
-0.0816151
-1.40638
0.800462
-1.91205
0.967614
-0.207828
-1.07417
1.08603
-1.67155
0.583701
1.33128
1.18058
0.157474
0.575571
-2.07632
-1.20003
0.853661
-1.11828
-0.812536
-1.05678
0.743949
-0.300382
-1.06159
0.628598
0.850959
0.896059
-0.784585
-1.07315
0.53776
-0.907342
-0.99713
0.504309
0.983683
1.12541
0.983597
0.451602
1.25102
0.364814
0.262869
0.343827
-1.06033
-1.40573
0.93715
0.926939
-0.0151418
-0.00696774
-0.977085
-1.01214
-0.284699
-0.293269
0.298289
0.931412
0.98637
1.05064
0.366415
-0.467051
-1.0577
0.938358
-1.62871
0.80488
-1.00859
0.971388
-0.88721
0.486501
0.47203
-1.10039
-0.837326
1.09178
-0.732364
-1.08469
-1.21628
1.21527
-1.90624
0.919128
-1.05683
-1.45251
0.0273191
1.13467
1.02575
-0.859213
-1.2619
-0.911993
-0.00181554
0.987134
-1.04535
-1.01449
-1.05594
-1.23114
0.903937
-1.32627
0.445006
-0.279609
1.26646
0.772322
0.870065
0.88736
1.14416
0.961532
0.83209
1.05826
0.294545
-0.902105
-0.866116
0.0375197
0.106679
-1.62383
-1.06293
0.993773
1.08299
-1.0217
-0.988039
-1.86791
0.292083
0.582571
0.714217
0.833274
1.06167
-2.06092
0.822495
-1.05922
-1.18275
-0.971588
0.953459
0.673067
1.11148
1.1342
1.07018
1.04787
-1.0861
0.758679
1.07042
-1.12841
0.940019
0.721055
-2.05846
-1.03894
-0.989883
1.113
0.985006
-1.12061
-1.28813
-0.474796
0.892076
-2.03363
0.693963
1.02685
0.806231
-1.07327
-0.892394
0.932579
0.564872
-0.790729
-0.734203
1.30586
-1.01322
-1.08173
0.786386
1.12909
0.946208
-1.12224
-1.15565
-0.977995
0.862413
-1.14759
0.471728
0.930823
0.965054
-0.295644
-0.636229
0.921735
-1.14967
0.870404
1.13955
0.981653
0.977709
-0.563427
-1.13263
-1.11183
-0.984577
-1.72999
-1.86471
0.301121
-0.663108
0.551266
1.11483
1.16903
0.866949
-0.834471
1.10231
-1.30279
-0.269662
-1.3226
-1.06115
-1.10084
0.273161
-0.995139
-0.943447
0.108393
0.877589
-0.370599
0.325161
-1.05745
-0.271664
-1.07195
-1.05657
1.17741
-0.0722288
-0.182052
-0.898667
0.722336
0.490329
-0.599946
0.453203
-0.778358
-1.14644
0.604838
0.983927
1.0328
-1.20871
1.11068
0.825519
0.316555
1.19157
0.958652
0.89052
0.284553
-0.311428
-1.06089
0.818807
-0.965055
-1.01312
-1.34213
-0.869713
-1.0553
1.33025
-0.479423
-0.886439
-1.14324
0.957594
-1.03134
-1.97308
-1.11669
0.693053
-0.226886
-1.50955
1.21648
1.2777
1.07056
-1.06759
-0.188107
1.3456
0.963004
-1.28435
0.389616
-1.06646
0.0918516
1.13966
0.940234
0.815163
1.25439
-0.624592
-0.380913
-0.3606
-0.848831
-1.54749
-0.832137
-0.121101
1.27522
-1.75105
-1.34776
0.949256
0.511825
-1.04648
-2.13303
-1.06369
-1.43295
-1.38843
-1.05425
-0.930976
-1.01187
1.14523
-0.345622
-0.923053
0.973804
-1.40605
1.21015
-1.57317
-1.89383
-1.15449
0.95592
-1.0067
0.983356
0.784022
-0.757268
0.991008
-1.48874
-1.05442
-1.27553
0.954031
0.894022
-1.08721
-1.07256
-1.3338
0.939613
-1.52513
-1.7522
0.455133
0.901387
0.832025
0.648982
-1.11384
-1.1441
0.778782
-1.02489
0.750774
-1.74774
0.97982
-0.0978286
1.07797
-1.05081
0.789102
0.646206
0.989862
-1.27921
0.955819
-0.736391
-1.05319
0.958545
-1.53636
0.0528756
-0.924335
-0.281135
0.964867
0.00702012
0.211776
0.963407
0.18217
-0.244247
-0.0704853
-0.885157
0.147704
-1.15637
0.646233
-0.805968
1.03146
1.07928
-1.11544
-1.0581
-0.38709
-0.850026
0.358623
-1.08571
0.78647
-0.146914
-1.08555
1.05862
-0.328926
0.316951
0.218654
-0.235194
0.748293
0.289242
-0.788267
-1.48065
-0.188216
-0.711259
0.97473
-1.63887
1.06028
1.17666
1.16376
0.596857
1.13049
-1.02156
-0.764376
0.847605
0.138351
0.950084
-0.81447
-1.06526
-1.76681
0.727847
-1.05425
-1.94354
-0.877205
-0.917503
-0.0141132
-1.15666
0.68307
0.651281
-0.878823
-0.95509
0.68435
-0.00625665
1.09944
-1.66452
-0.236569
-1.05523
0.710754
-0.249708
1.11928
1.36025
-1.83247
-1.03934
-0.95706
0.208969
-2.20772
0.981123
-0.979255
0.935897
0.70434
-1.07817
0.821489
0.782434
-1.88413
0.825546
-1.08516
-0.910304
-1.40629
-1.01054
-1.1181
-1.90015
-1.02371
0.959061
0.155277
-1.05116
0.520256
1.10729
1.16251
-0.451501
0.688831
-0.222598
0.712032
-0.268961
-1.64424
-0.939002
0.440203
0.763855
1.02204
-1.69792
-1.13747
-1.49638
-1.05706
-0.198152
0.665576
-1.8492
-0.00775029
-1.32399
0.899279
-1.00232
0.912274
-0.651464
-0.613035
0.903628
0.596246
-1.9342
-0.231911
0.924275
1.2439
0.981301
-0.912312
-1.70638
0.739341
-0.537588
0.725964
-0.753479
0.388637
0.921119
-1.07311
-0.889095
0.980101
-1.31129
1.20703
-0.121044
0.815236
0.1108
0.557276
-0.882974
1.19158
-0.897597
-2.05515
0.919943
0.466067
0.436254
-1.29891
-0.87162
-1.01779
0.727258
-0.296315
-1.11872
-1.09429
0.974534
0.329166
-1.47828
0.690716
0.849454
0.943625
-1.82766
-0.791924
-0.933879
0.972974
1.14046
0.418967
0.96841
0.136265
1.00414
0.148496
-0.956491
-0.461921
0.876316
0.920946
-1.60942
0.807003
-0.907528
0.755769
-1.14451
0.961306
0.898583
0.977074
-1.76958
0.880535
-1.9845
-0.992796
1.12414
-1.9128
-1.5364
1.07757
-1.31725
1.06949
-2.01201
-0.923752
1.00615
0.717909
1.31297
0.957927
-2.0064
1.02935
1.04777
-0.655911
0.587988
0.100456
-0.950049
1.45127
-1.06659
1.099
-1.01176
0.226079
0.958589
-1.35902
0.94917
-1.49243
0.883249
0.904185
0.971988
-0.013323
-1.0321
-0.698871
0.520017
0.613376
1.01715
-0.263199
0.784695
-1.96058
-0.533951
-1.68928
0.774136
1.09413
-1.22371
-1.14997
-0.106456
1.19949
-0.106415
0.688797
-0.0426496
-2.44631
-1.07532
-0.867537
-0.931638
0.753858
-1.69584
-0.239171
-0.36352
-0.666134
-0.895598
-1.34268
-0.308845
0.930036
0.978096
-1.30984
-0.539501
0.942746
0.887384
0.979103
-2.2136
0.942136
1.00769
0.953575
1.00522
-1.23722
-0.348661
-0.892815
0.570681
0.960411
0.642193
0.0763416
-0.25512
-1.86369
0.0147604
1.21114
-0.313713
0.13568
-0.789069
-0.325225
-1.08149
0.74071
-1.01235
-1.44452
-1.05152
0.960175
0.960021
0.970126
-0.034304
0.278049
1.18675
-0.225472
0.955227
-0.288314
-0.0602076
0.717072
0.979393
1.0567
-0.0369585
0.936569
0.935626
-1.41115
-0.322995
0.971644
0.984044
0.979627
-1.0574
-1.09296
0.980077
0.543235
0.96097
0.160128
-0.173649
0.0485207
-1.62943
-0.417739
-0.982061
-1.57625
-0.170462
0.987208
0.990992
0.706498
-1.05957
0.960814
-0.244614
-0.200019
-0.0113172
0.95774
0.984505
0.980616
0.994424
0.971157
0.964898
0.955459
-0.253342
-0.259392
-0.0553355
-0.114339
-0.0137232
-0.000436906
-0.00811677
-0.0780635
-0.173414
-0.269413
-0.290207
0.95368
0.972293
0.968075
0.990936
0.988969
0.98073
0.984915
0.962037
0.969302
-0.142979
-0.142941
0.981823
0.980824
-0.0160647
0.982339
0.98209
-0.0934618
0.0577651
-0.302595
-1.0155
-1.34797
0.963429
-1.19352
0.960812
0.567602
1.02585
-1.06287
0.960096
0.904335
0.902975
-0.886095
-0.0435193
-1.19399
-0.326067
-0.0955975
-0.869736
0.976062
0.0243051
1.05237
0.966627
-0.224565
1.14754
1.29705
-0.229692
0.832716
0.600872
0.960789
0.978947
0.969443
-1.06067
0.436597
-0.0320909
0.965015
0.974939
-1.14514
0.0273067
0.968249
-0.0590281
-0.391326
0.966834
-1.07541
0.947688
0.980212
-1.0831
0.971832
0.0733558
0.962034
1.04349
-2.00771
0.977719
0.985686
-0.0110241
0.641414
0.963537
0.968786
0.0945325
-0.783523
0.654466
1.30482
0.976734
0.965662
0.970503
0.0600518
0.966161
0.95141
0.972379
0.966624
0.968656
0.964992
1.07328
-0.612606
-2.06857
0.967642
0.961915
0.229583
-1.05073
-0.559722
-0.673762
0.834272
-1.52391
-0.595482
-0.0105479
0.96402
0.668166
-0.00366388
-0.00288204
-0.133342
-0.513931
-1.05353
0.0306161
-0.461378
-1.74482
-0.379005
0.971
0.0198817
0.959104
0.882358
-1.05079
1.21981
-0.450403
-1.3414
0.698892
1.10735
0.412267
-1.05117
0.96287
0.0276137
0.968664
-1.31966
0.969732
-1.38843
0.961492
-0.0417399
-0.633039
0.971317
0.986933
0.910607
0.0685996
-1.04806
-0.876241
0.175672
0.98357
0.866538
0.10264
0.962406
1.00516
0.956242
0.352818
-1.99731
-0.76727
-2.00567
0.250823
0.968073
-0.0590359
0.964306
-2.24041
0.963229
1.00259
0.972547
-0.0117217
-0.0120467
0.998179
-1.19951
0.974706
0.979002
-0.0694424
-1.07715
0.915083
1.11215
0.95868
0.957607
0.200078
0.324447
0.931429
0.343514
0.973427
0.787151
-1.0687
-1.06961
0.812053
1.2048
0.963652
0.272998
-0.505848
0.254416
-1.7851
-0.334941
0.946232
-1.2223
0.949753
-1.67862
-1.05916
-1.03355
0.407461
-1.17987
-0.309896
0.12787
0.960293
-1.05256
0.88618
-1.06451
-0.251921
0.203889
-0.00515541
-0.0854096
0.935994
0.169018
-0.906499
0.138049
-1.33481
0.950286
-0.143501
-0.00425302
-2.35942
1.05702
-0.332621
-1.06186
1.03357
0.949026
0.936781
0.419527
-1.01702
0.96833
0.996542
-1.26201
-0.972631
0.960371
0.736978
1.22776
0.980724
-0.930965
-0.436256
-1.00613
-1.36129
-1.19955
-1.05443
-0.00978491
-1.22986
0.741484
-0.0981185
0.969876
1.1818
0.959455
-1.05175
-1.26175
0.962203
-0.844558
-0.0432642
0.937914
-0.393629
-0.972935
-2.147
0.00333971
0.914624
0.886614
-1.01252
0.779656
0.650922
-1.32715
0.945053
-1.56357
0.77867
-0.844438
0.936337
-1.36503
0.355847
0.96285
1.07252
-2.2887
-1.78855
0.798224
1.33686
0.983825
0.997271
-0.696486
1.19756
-0.961284
0.0882709
-0.920768
0.404107
-2.18519
1.07625
1.11264
-1.06527
-1.24201
0.960088
-1.08038
0.799298
0.992752
0.933234
-2.19659
0.963973
-0.0189283
0.989955
-0.0238765
0.0520213
-0.170404
0.966514
-0.19349
-0.51165
-0.156176
0.957605
0.133143
1.16864
0.191274
1.3004
0.966671
-1.15582
0.941174
-0.926718
0.938864
0.93835
0.0584526
-0.158001
1.10464
0.952947
1.20329
0.92124
0.00859703
0.925426
0.94743
0.835874
0.971044
-1.08873
-1.17109
-0.962724
1.0573
-1.37465
-0.113124
-0.905199
-1.43047
-0.0804177
-0.149778
0.848434
0.0631187
0.913421
0.967299
-0.984536
-1.28874
-1.20947
-1.38657
-1.27253
-0.928929
0.968581
-1.86725
0.980683
1.19016
1.02002
-0.248089
0.986992
0.900526
-1.38942
0.9173
0.948722
-1.07462
0.947199
0.924005
-0.102754
-1.30705
1.41951
-1.70539
-1.42817
-1.20067
0.165469
0.939845
-1.53281
-0.612803
-0.870691
1.10463
-0.261423
0.836837
0.980298
0.943811
-1.30838
0.927334
-2.1868
0.976076
0.992617
-0.469691
0.982019
0.486052
0.950805
0.652846
-2.3783
-0.00570548
-0.00860172
0.0398468
1.21533
-0.158862
0.996876
1.3657
-0.57831
-0.0149751
1.02829
-0.024061
1.02534
-0.0160814
-0.0284335
1.02716
1.03132
0.35823
-1.52231
0.746992
-0.751546
-1.07137
-0.702977
0.987773
0.956063
1.38024
-1.05266
-0.501115
0.682887
-1.19538
1.04449
0.969171
0.947916
0.956769
0.915198
-1.97675
-1.05615
-1.38984
0.787156
0.891335
-2.15871
-0.945777
-1.07125
0.979056
0.994056
-1.16786
-1.91102
1.00178
-0.964668
0.179366
0.760145
0.908463
-0.312972
-1.24903
-0.281928
-1.03994
-0.760873
-1.95296
-1.37254
1.32902
1.3432
-0.985454
-0.954402
0.979284
0.954563
-1.20947
-0.145138
-0.439308
0.639351
1.06414
-1.48531
0.971083
-0.919634
-1.2427
-1.23532
-1.41863
-0.955738
0.942669
-1.00487
-1.57443
1.33701
-1.03585
0.972925
1.20663
-0.952408
0.996242
1.20678
-1.02904
1.22704
-1.06135
-1.27414
0.999686
0.095408
0.965452
0.974524
-1.0731
1.01916
0.0742151
-1.97835
1.0088
0.98386
-0.98813
-1.45108
0.917299
0.966258
-1.07459
-2.32993
1.26588
-1.07752
0.881292
-0.0972902
0.899248
-1.02773
-1.93599
-1.06817
-1.02443
1.07985
0.993752
1.245
1.19146
0.966188
1.028
1.05116
-1.06597
1.11987
1.09804
-1.00817
-1.08201
-1.13668
1.30538
-1.45363
-1.25711
0.110542
0.92645
-1.02245
-0.945007
1.0089
0.972784
-1.07044
-0.965328
-1.22212
0.0121639
-2.32033
-1.02609
-1.06334
0.880192
0.842951
-0.929438
-0.46416
-0.954219
0.832085
-1.07765
-1.01297
-1.06132
0.896188
-1.69703
-0.97953
1.28572
0.854666
0.330488
1.15207
0.277551
0.932335
0.979683
1.08354
1.16506
-0.254824
0.675507
0.996137
0.198658
-1.05836
1.39316
0.922079
0.863458
1.02191
-0.995126
-1.92767
0.806566
0.78444
0.924662
-2.00202
-2.0352
0.95077
-1.05548
0.773121
-0.0902584
1.39263
-1.05623
0.729056
0.684659
-0.90272
-1.05422
-1.74691
1.01589
-0.910847
-1.05471
0.646018
0.613532
-1.37149
1.0366
0.789609
-0.919072
-0.858612
0.927697
-2.08764
-1.05245
-1.20692
-0.87205
-1.01317
0.954466
0.97139
-1.95384
0.562937
0.971056
1.31635
0.212037
0.291465
0.0216638
0.835273
-0.531521
-0.895682
-1.27056
-0.601136
-0.88907
0.962001
-0.90275
0.18331
-1.05067
0.546614
0.512437
-0.881445
0.581758
-1.93833
0.438024
-0.874628
0.472879
-0.896894
0.329584
-1.0485
0.390323
-0.86762
0.768335
-1.70329
-0.866311
-0.870023
-1.04551
0.98141
0.0222167
-0.898867
-1.055
0.0524965
0.0906677
-0.891841
-1.05223
-0.943481
-0.189544
-1.0699
-0.107721
-1.10159
-0.309895
-1.02295
-0.362334
0.862394
-0.184777
-1.90265
0.95369
-0.128877
-0.232585
0.391552
0.930511
-2.11317
-2.00764
-1.05026
-1.58213
0.844837
1.39198
-0.83016
-0.207116
-0.0502709
-1.02405
-0.444748
-0.445842
0.945633
-0.995905
0.914395
-1.75251
1.45808
0.394271
1.37862
-0.952541
1.14675
-0.549813
0.967537
-1.07863
-1.04729
1.02991
0.958387
-2.41971
-1.05235
-0.869511
0.950501
-1.08746
0.953516
-1.4452
-1.15511
-1.06802
1.27631
1.01238
1.06714
0.989573
0.981347
-0.135595
-0.668067
1.19065
-2.08165
-0.952298
1.39193
-0.959518
0.883375
0.909361
1.33746
1.38844
-0.989462
-1.57087
1.00003
0.159945
-0.536293
-0.814776
-0.82637
-2.08738
-0.959834
0.496041
-1.52872
1.1579
-1.2302
1.03142
1.11044
1.01422
-1.82589
-1.02058
-1.15594
1.05438
-1.0417
1.15966
-0.713151
-1.20216
1.22207
1.26278
-1.05106
0.0903915
0.906573
-1.33473
-1.29154
0.607748
1.25643
1.18313
-1.27426
0.852276
0.833275
-1.05008
1.19459
0.282201
-0.938895
-0.774331
-0.186309
-0.151927
1.10025
-0.937142
0.26116
-0.0589006
0.0411763
-0.851673
-1.03902
0.961698
-2.29583
0.998045
-0.103392
0.0156402
0.6375
0.187988
-1.04133
-0.618073
-1.26649
-0.333334
-0.0271309
-1.65406
0.92212
-1.89615
-1.83274
0.989339
-1.24896
-1.01487
0.978838
-1.08018
0.957844
-0.0889542
-1.06254
-0.426021
0.738678
-0.901644
-1.70488
0.840699
-1.11733
1.03651
-0.659484
-1.13106
-0.982503
-1.05004
1.4464
-2.12474
1.08261
-0.0196472
0.920976
1.15865
0.668142
0.983678
1.14489
-0.206096
-1.96988
0.929928
1.04971
1.31944
-1.02023
1.01961
0.661551
-1.05147
0.735264
1.16474
-0.587092
1.32451
0.132647
-0.967654
0.781691
-1.06797
-0.869033
0.90411
-0.479584
1.02224
1.00839
0.935523
-1.0024
0.888253
1.24604
-1.32609
-0.353505
-2.18207
-1.20247
-1.105
-1.05294
1.30888
0.693766
-1.02954
0.859204
-1.07718
-0.999519
1.22697
1.2101
-2.28202
-1.48491
-1.04905
-1.09383
0.933537
-1.0289
-0.0011355
-0.835853
-0.501823
1.02983
-1.08196
1.36832
1.01791
0.829608
0.996256
1.28551
-1.24083
-1.08441
0.973195
1.10069
-0.855656
0.969846
-2.02388
-1.06862
-1.06636
1.07023
1.09963
-1.07126
-1.04981
0.490333
-0.16008
-1.59706
0.952969
0.94863
-1.5249
0.988403
1.03072
-1.40667
-1.01508
-1.02017
-1.06618
-1.06968
1.26899
-0.270907
0.902431
-1.0297
1.26525
0.849444
0.854205
0.926541
-2.02268
-1.00533
-1.06368
0.515162
-0.974478
0.867706
0.226222
-0.671138
0.844745
0.955051
1.00584
0.979299
-0.0184729
1.00473
-0.0265727
0.351176
0.777306
-0.586531
-1.00303
-0.963271
-0.697792
0.976656
0.917221
0.976123
-1.7629
-0.890886
-1.061
-0.800718
0.975708
1.2678
0.988735
-0.988783
-0.94276
-1.33868
-0.561654
-1.05058
-1.05013
-0.231885
0.966301
-0.914386
-0.92519
-0.0460332
-0.174079
0.706673
-1.51763
-1.05844
-1.21538
0.917614
1.39445
-0.00382063
1.06579
1.4547
0.646143
1.18303
-1.02533
-0.0985667
1.35361
-1.05566
0.242392
-0.96063
-1.07572
-0.864776
-0.90706
0.935039
0.674548
1.17585
1.13823
-0.00184838
0.722832
0.0178134
-0.033572
-1.05287
1.07591
0.708338
0.984057
1.00058
-0.0554469
-0.0476269
0.995983
-1.16062
-1.05551
-0.915883
-0.875914
0.530343
-0.899364
0.922648
0.609677
-1.05552
1.18632
-0.990514
-0.34922
0.946899
-0.90137
-1.03112
-1.96793
0.582219
-0.936413
-1.42092
0.898043
0.991633
-0.138077
-0.0437196
-2.10845
-1.05097
-0.238677
-1.82563
-0.290466
0.540119
-1.21939
-0.892395
1.24488
0.242512
0.343866
-0.885592
-1.08099
0.966739
0.99582
0.511686
0.473494
-0.877952
-1.00116
-0.860871
0.434956
0.379779
-0.870948
0.810953
0.125589
-0.863364
1.41891
-0.864026
-1.73887
-1.07144
-0.819396
0.788121
-0.879271
-1.0257
-1.05991
-0.0672527
-0.917587
-0.0181331
-0.980195
-0.207809
1.15777
-0.976319
-0.25349
-1.08594
-0.195758
1.31964
1.35271
1.21205
0.973143
1.18912
-0.705705
0.961018
-0.998359
0.993229
-1.05132
-1.04332
1.21773
-1.17561
0.414262
-2.00869
1.35903
-0.0940408
1.2948
0.580329
0.746386
-0.947602
-0.966895
-1.04792
-1.28549
1.275
1.17317
0.959309
0.57075
0.961342
0.813316
0.794097
-0.86998
-1.08919
0.21878
0.00508787
0.768842
0.975908
-0.106742
-0.947897
-0.8634
-1.50564
-1.048
-1.73718
1.29914
0.994499
0.970226
-0.0442978
-0.0342832
0.992743
-0.873335
-1.05246
-2.08712
-1.0484
0.757468
-0.919702
-0.882081
-0.39948
0.975092
-1.80044
-1.07078
0.960788
0.548577
0.663167
0.960742
-1.04976
0.845108
1.14423
0.783352
-1.04752
0.953299
0.288439
0.4341
-1.09579
-0.904344
1.41375
0.169941
-1.40932
-0.060103
0.881866
0.940634
-0.987073
-1.43124
-0.130616
-0.981959
-0.987096
-1.03395
-0.103281
0.956613
-1.26053
0.958898
1.23435
1.04259
0.961723
1.06273
1.12328
0.964267
-1.45436
-0.749296
-0.438689
-1.1272
-0.99311
-0.878524
1.12223
1.02774
-1.07262
0.916187
-0.914385
0.225567
-0.868962
-0.433556
0.473014
-1.35269
0.954036
0.880708
-1.65936
-0.48463
1.30197
-1.68459
-0.465785
-1.19063
-1.03945
-0.835879
1.00404
0.745012
1.04858
-1.25983
-0.765932
-1.02463
-0.395579
-1.07131
-1.42399
-1.53541
-1.99817
0.885404
-0.846149
1.41025
-1.1105
-0.680675
-1.08325
-0.875886
0.880176
-1.10799
-1.21604
-1.03785
-0.455888
1.17172
1.17599
-2.12987
-1.05915
0.795067
-1.06799
-0.977523
1.05967
-1.61864
-2.0766
-1.32655
0.721859
-0.537726
-1.06696
0.956594
-0.0423963
-1.08167
0.970419
-0.94421
-1.64072
-1.35218
-0.937114
-0.179389
-1.06979
1.29159
-1.05619
0.0770327
-1.05225
0.763675
-0.747192
-1.02404
0.620627
0.703834
1.01832
0.917889
1.15167
-0.878996
0.792293
0.488874
-1.40344
0.901855
-0.404733
-0.819805
-1.93292
1.13418
1.12067
-0.905188
-0.996888
-1.25519
0.98897
-0.996709
0.0080896
-1.36214
-0.887244
1.2566
0.987973
-0.956092
-1.00627
-0.964061
-0.932
0.868403
-1.02952
0.953881
0.200907
0.680104
0.807293
-0.84774
-1.04359
0.914247
-0.879786
-0.0735377
1.24362
-1.06059
-0.924451
0.792175
-1.42637
-1.01899
-0.298831
-1.02069
1.31536
-0.73383
0.0515202
-0.96371
1.25878
-0.980876
-1.0001
0.615918
-1.29769
-1.05111
1.29498
0.645756
0.956198
-1.02545
1.20789
-0.32517
-0.94425
-1.02739
-1.03575
-0.990197
1.23979
0.5484
-1.06498
-0.977091
-1.05386
1.09938
-0.936809
1.23452
-1.05166
0.684276
-0.913106
0.344915
0.511582
0.47731
0.396568
0.108397
-0.966128
0.983152
-1.0263
-0.715627
-1.22247
0.199307
1.27583
-0.424193
-1.02473
-1.01855
-0.919432
0.239258
-1.10754
-0.909152
0.788544
0.105438
-0.939987
1.34211
-1.06076
-1.74092
1.31904
-0.925351
0.12591
-0.941425
-0.873153
-0.902057
1.31634
-0.857261
1.23501
-0.898182
-1.03761
1.14705
-0.343103
-0.99224
0.538424
-1.01987
-0.00664548
-0.529056
-0.909067
0.750346
-1.18342
-0.910887
-0.876463
-0.872751
-1.05799
0.788377
-0.177349
-0.592554
-0.947254
1.2637
-0.965497
-1.01393
-0.857009
-0.256261
-0.997048
-0.850027
-0.938752
-0.20567
1.22255
-1.00174
-1.04788
-1.45684
-0.859425
-0.25752
-1.06314
1.35121
1.28528
0.387751
-1.10005
-1.05538
0.303385
-1.05496
1.36441
0.183761
1.02298
0.671851
1.23957
0.0667356
-1.00964
-1.1287
-0.0843968
-1.02948
-0.084348
-0.201482
-0.896231
1.26006
-0.415216
0.194821
-0.55443
-1.05071
-1.14834
)
;

boundaryField
{
    frontback
    {
        type            empty;
    }
    Top
    {
        type            zeroGradient;
    }
    outlet
    {
        type            fixedValue;
        value           uniform 0;
    }
    bottom
    {
        type            zeroGradient;
    }
    Inlet
    {
        type            zeroGradient;
    }
    rectangle
    {
        type            zeroGradient;
    }
}


// ************************************************************************* //
