/*--------------------------------*- C++ -*----------------------------------*\
| =========                 |                                                 |
| \\      /  F ield         | OpenFOAM: The Open Source CFD Toolbox           |
|  \\    /   O peration     | Version:  2306                                  |
|   \\  /    A nd           | Website:  www.openfoam.com                      |
|    \\/     M anipulation  |                                                 |
\*---------------------------------------------------------------------------*/
FoamFile
{
    version     2.0;
    format      ascii;
    arch        "LSB;label=32;scalar=64";
    class       surfaceScalarField;
    location    "14";
    object      phi;
}
// * * * * * * * * * * * * * * * * * * * * * * * * * * * * * * * * * * * * * //

dimensions      [0 3 -1 0 0 0 0];

oriented        oriented;

internalField   nonuniform List<scalar> 
3181
(
-1.04771
0.412931
0.634783
-0.389946
0.366935
0.023011
0.523971
-0.359797
-0.164174
0.121865
-0.201645
0.07978
-0.079087
0.102627
-0.0235405
0.81247
0.460114
-1.27258
0.149468
-0.143084
-0.00638354
0.0901527
0.000299395
-0.0904521
0.582756
-0.77585
0.193093
-0.0746459
0.137297
-0.0626515
-0.010417
-0.0507229
0.0611399
0.126591
0.0484845
-0.175076
-0.0110028
-0.0683808
0.0793836
-1.09304
0.150224
0.942813
-0.327937
0.700139
-0.372202
-1.12003
0.639431
0.480598
0.0855113
-0.936304
0.850793
-0.382893
0.346009
0.0368841
-0.603386
-0.561897
-0.0023461
0.0669208
-0.0645747
0.0352877
-0.0844967
0.049209
-0.0769042
0.063286
0.0136182
1.05838
-1.03305
-0.0253223
0.0244313
0.0349229
-0.0593543
-0.955708
0.325055
0.630653
-0.108577
0.230442
0.304829
-0.241792
-0.0630373
0.029862
0.0627269
-0.0925889
-0.41076
0.338929
0.071831
-0.0346598
-0.00746257
0.00845821
-0.00099564
-0.0393536
-0.916355
0.120654
-0.0812288
-0.0394247
0.106501
1.42236
-1.52886
-0.0468029
0.0441063
0.00269661
0.177555
0.276923
-0.454479
1.51324
-1.40674
0.0708163
-0.0355285
1.57916
-0.812335
-0.766826
-0.159129
0.9716
-0.13173
0.120727
-0.080395
0.00349076
-0.410136
0.0821988
-0.145378
0.0649831
-0.63527
0.130462
0.504808
-0.148588
0.073942
-0.169266
0.173563
-0.0042963
-0.271736
-0.0766461
0.348382
-0.106497
1.55135
-1.44485
0.0903967
0.21064
-0.301037
-0.00980866
-0.0994359
0.105475
-0.00603894
0.515371
0.184768
-0.0959884
0.139372
-0.0433834
0.0784572
0.0421963
-0.171848
0.198284
-0.0264359
0.163876
0.0567026
-0.220578
0.109635
-0.115598
0.00596303
1.31115
0.268009
-0.861341
-0.186373
0.17959
-1.53838
1.35879
0.546616
0.230703
-0.777319
-0.443311
-0.207502
0.650813
-0.783859
0.62473
-0.274325
0.82094
-0.32497
-0.102771
0.427741
-0.206794
-0.203966
-0.189941
0.165068
0.0248727
0.135227
0.282863
-0.41809
-0.194185
0.776942
-0.0144638
0.104616
-1.75531
1.9349
0.186784
0.118045
-0.178892
-0.111584
0.290475
-0.270423
0.35701
-0.0865871
-0.0814811
0.0896925
-0.00821149
-1.86181
-0.917566
0.0102989
0.907267
-0.0505525
0.00374957
-1.05215
0.818986
0.233162
0.574149
-0.325504
-0.248645
-0.876706
0.0928465
1.10707
-0.956846
-0.717635
1.14284
-0.200026
1.06772
0.166022
-0.174349
0.00832728
1.2718
-0.811682
0.419505
-0.419505
-0.00838377
-0.000344872
0.00872864
-0.212843
-0.0531537
0.265996
0.140719
-0.0965424
-0.0441769
-0.457192
0.837563
-0.380371
-0.0191079
-0.233949
0.253056
-1.07566
0.042602
0.348542
0.054595
-0.403137
0.134025
-0.846678
1.07738
0.0974357
0.107293
-0.204729
-0.0175989
-0.154249
-0.470223
0.197891
0.272332
-0.264652
-0.20557
0.118961
-0.965639
0.321
-0.778192
0.918857
-0.833346
-0.0155501
0.22595
-0.2104
0.0822949
0.0518462
-0.134141
-1.36901
-0.105823
1.47483
-0.245708
0.411196
-0.165488
-1.1644
0.617776
0.546625
-0.473145
-0.579004
0.182982
-0.0925852
-0.153578
0.147972
0.00560686
-0.07745
-0.012963
0.090413
-0.554671
-0.221179
-0.0971286
0.0490942
0.0480344
-1.0882
-0.0220368
1.11024
1.78282
-0.231476
-0.0129258
0.00454204
0.0385858
0.148198
-0.200402
0.377958
0.0183086
0.306039
-0.324348
0.137952
0.0680154
-0.205967
0.301956
0.0877096
-0.389666
-0.594068
-0.525961
-1.00055
-0.0876526
-0.0646671
0.162103
-0.105916
0.184122
-0.0782064
-0.0809373
0.0249989
0.124469
-0.0568823
0.0706684
-0.013786
-0.095792
-0.0218014
0.117593
0.0749494
-0.0749494
-0.185412
0.210411
0.309497
0.228949
0.10517
0.0931133
-1.25791
1.06373
-1.59074
0.115455
1.47529
0.0252812
-0.0202631
-0.00501807
-0.026486
-0.0510599
0.0775459
0.538968
-0.0216417
-0.517327
-0.0455258
0.0476538
-0.00212805
-0.200679
0.0152677
0.164958
0.672605
-0.369256
0.534214
-0.152098
-1.21691
-0.135727
0.0566401
0.489413
-0.30689
-0.182523
0.149354
-0.130148
-0.0192061
0.0479319
-0.319668
0.0236273
-0.941193
0.0492997
-0.155216
-0.287468
-0.401616
0.0700334
1.3963
-0.947811
-0.448492
1.099
0.297303
0.0665118
0.281871
0.0267032
-0.00142197
-0.0279528
0.146508
-0.118555
-0.251311
-0.587777
0.839087
-0.357292
0.668411
0.789054
-1.35095
0.151022
0.0291669
-0.0586509
0.029484
-1.3591
0.333795
1.0253
-0.28434
-1.07476
-0.303637
0.652179
-0.912676
-0.0175229
0.00552518
-0.267097
0.261572
1.49431
-1.60269
0.108388
-0.124495
-0.0112322
0.568981
-0.820291
0.270942
-0.509987
0.239044
-0.297139
-0.118323
0.415462
0.180189
-1.00036
-0.0752968
-0.0200916
-0.0444831
-0.558657
0.351155
-0.245776
0.018338
0.227437
-0.00332143
-0.121174
0.0210591
-0.0210591
-0.118879
0.130261
-0.0113819
-0.31132
-1.27942
0.0804712
0.0376818
-0.118153
-0.119605
-0.0281832
0.147788
-0.219826
0.0298847
1.65757
-0.419066
-1.23851
-0.190023
0.449536
-0.259513
0.00541749
-0.00492752
-0.000489975
-0.760369
-0.404032
-0.184484
-0.00492733
0.189411
-0.172561
0.307788
-0.10101
0.0993122
0.00169734
0.0736543
0.00924798
-0.0829023
-0.133646
0.171701
-0.038055
-0.455217
0.972464
-0.517247
-0.219533
-0.0511095
0.270642
-0.692057
0.661648
0.0304093
-0.00513337
0.0400563
0.0382322
-0.0384815
0.000249272
-0.00153934
-0.0578149
0.761309
1.02151
0.174452
-0.885933
0.711481
-0.057263
2.08093
-2.02367
0.386642
0.194803
0.224702
0.0619218
0.203589
-0.0656367
-0.0709313
-0.0285046
0.237322
0.156722
-0.0744271
0.7369
-0.411844
0.0607176
0.205279
0.0481337
-0.16453
0.116396
-0.773651
-0.13626
0.909911
-0.0368122
0.0368122
-0.0967789
-0.264698
0.541621
0.012777
-0.23231
0.21845
0.127559
0.0457665
-0.110434
0.135206
-0.145623
-0.344477
0.325369
0.052882
0.0538819
-0.106764
0.385631
-0.337147
0.596616
-0.217142
-0.379473
-0.207048
0.273559
0.186432
-0.493321
-0.192301
0.605233
0.165888
-0.0337188
0.0337188
-0.259182
0.488722
-0.22954
0.38486
0.0263353
-0.0275419
0.0348065
-0.00726465
-0.193744
-0.0389791
-0.0581495
-0.0493357
0.184541
-0.17996
0.240829
-0.0608697
0.128611
0.028111
-0.387767
0.145975
0.19048
-0.0618689
-0.0456832
-0.0553264
-0.0929415
0.075855
0.0170864
0.148169
-0.105084
-0.0430853
-0.0187279
0.395418
-0.37669
-0.141924
0.12746
0.10382
-0.108135
0.00431508
0.0236288
0.572241
0.0243747
-0.0958482
-0.0187178
0.114566
-0.0973363
-0.0115516
0.108888
-0.0907684
0.0992988
-0.721034
0.621735
-0.0512588
-1.49051
-0.417007
1.90752
0.688133
0.975382
-1.66351
0.0831989
-0.262818
0.350527
0.278989
0.2512
-0.530189
-0.207906
0.25604
0.130202
-0.883102
0.7529
0.0548985
-0.152235
-0.0244895
0.00439796
-0.988565
0.448388
0.540177
0.947811
-0.82885
-1.67835
1.57253
-1.49431
1.60976
0.0399582
-0.0833416
0.0107205
0.0275117
0.011675
0.788516
-0.658315
0.122429
-0.0731288
0.409194
0.733645
-0.148088
-1.76721
1.70995
-0.673013
-0.5849
-0.242905
-0.392366
-0.0211969
-0.166164
0.214096
-0.579371
-0.373012
0.18299
0.775605
-0.236636
-0.89088
-0.787473
0.743432
0.197319
-0.14242
0.284048
0.0382103
-0.0382103
0.671173
0.147497
-0.81867
-0.226314
0.897487
0.410826
-1.23832
0.827494
0.261672
-0.0327228
0.00687171
0.00615047
-0.0130222
-1.53838
-1.18171
0.950231
0.987148
0.670425
-0.0346377
-0.134629
-0.242449
0.75782
-0.197232
-0.0485433
-0.00304493
-0.0784361
-0.0527379
0.104584
0.379706
-0.249244
-0.825111
-0.289151
-0.100435
-0.071769
0.172204
-0.698138
0.892941
-0.158937
0.118389
0.0405474
0.0243585
0.00234467
-0.102603
0.0349171
0.0676859
0.00910099
0.41864
0.101888
0.0474661
0.0238551
0.0112548
-0.0351099
-0.0157603
-0.168724
-0.726461
0.371444
0.355017
0.478746
-1.45313
0.974379
0.137868
-0.158854
0.0209862
0.00244997
0.180532
0.0688264
-0.488332
-0.116232
0.0136288
-0.145437
0.0528521
0.142582
-0.342985
-1.51389
0.665735
0.848151
0.0439404
0.093163
0.0550065
-0.773651
0.064944
-0.520161
0.129917
-0.0949998
0.0435973
-0.638615
-0.0534428
0.0610447
0.129435
0.212095
0.0415304
-0.45962
0.122975
0.347067
-0.292472
-0.117389
0.0215972
0.221978
0.840993
-1.06297
0.103832
-0.709893
0.606061
-0.943011
0.806751
-1.05147
0.278799
0.772672
-0.00959665
0.010572
-0.000975341
0.168935
-0.466074
0.205732
-0.12027
-0.0854616
0.0533638
-0.0649154
-0.0232289
-0.0772065
-0.0157531
0.0245236
-0.0260629
0.0207632
0.0766104
-0.0973736
1.09896
-0.00400571
0.0045436
-0.000537893
0.122008
0.00545251
0.861409
0.0615787
-0.0728108
-0.22124
-0.960467
0.221056
0.0406153
0.0077692
0.0853938
-0.772672
0.488332
0.167283
-0.292984
0.125701
-0.251085
0.0767361
0.11887
-0.110543
-0.00144652
0.0911391
-0.0452264
-1.34558
-0.168301
-0.0419614
0.0627246
0.739374
-0.258777
-0.273189
0.153584
0.347176
0.0179393
-0.0454812
-0.00772608
0.0826755
0.147413
0.209597
0.157521
-0.33178
0.174259
0.108441
0.564164
-0.0402899
-0.108298
0.92759
-0.25388
-0.673709
-1.05147
-0.450762
0.929509
1.51324
-0.154288
0.392757
-0.238469
0.348632
-0.0685574
-0.280074
-0.301658
-0.575048
-0.0719179
0.0726687
-0.000750785
-0.0979354
-0.16111
0.259046
0.458267
-0.959891
0.501623
0.0394001
0.660072
-0.699472
-0.0442461
-0.109332
0.00442694
-0.100275
0.273703
-0.532885
-0.012019
0.00242233
0.203833
-0.00279199
-0.201041
0.0912242
-0.119177
0.00130695
0.0230515
0.073196
0.152754
-0.0337178
-0.00476367
0.193425
-0.427373
-0.442891
1.41827
0.0306495
0.0061627
-0.98311
-0.0172498
0.123279
-0.0725258
-0.0448634
-0.0474457
0.318388
0.771692
-1.07603
0.304335
0.199602
0.0214544
-0.943029
-0.0138174
-0.00576889
-0.648335
0.747634
-0.0178912
0.183779
0.00531326
-1.24363
0.185723
-0.442032
0.256309
0.0131335
0.292906
0.00125871
-0.00146829
0.000209582
-0.0411829
-0.0924632
-0.0210114
-0.133237
0.749939
-0.646107
-0.147808
0.0937943
-0.0677126
0.312193
-0.154672
0.0487284
1.20323
-0.263942
-0.939287
-0.120294
0.138632
-0.508039
-0.218422
-0.562102
0.614838
-0.596215
-0.0186231
-0.0926812
-0.0551267
-1.76721
0.553908
-0.553908
-1.77548
1.77548
0.788516
-0.0422156
-0.248226
0.290442
-0.892277
-0.0908327
0.628155
-0.369878
-0.258276
0.162684
-0.240891
-0.0112853
-0.0016405
-0.883671
-0.0819683
-0.934308
0.213274
0.0206975
-0.0924665
0.698361
-0.104538
-0.593823
1.07283
0.440406
-0.00174053
0.00299924
-0.968351
0.458251
-0.675393
-0.0653439
-0.607785
0.673129
-0.0547322
-0.888959
-0.713735
0.21859
-0.812658
-0.909911
1.35533
-0.445424
-0.138742
0.280316
-0.141574
-0.0291406
0.727502
-0.107411
-1.00793
1.00793
-0.830112
0.283787
0.546325
0.000517116
-0.00452282
0.078658
-0.438646
0.823897
-0.00491068
-0.0845781
-0.0351654
0.139094
0.00370061
0.00171688
1.51765
-1.23885
-0.325706
0.39936
-0.628889
1.00781
-0.378919
-0.082294
-0.0339378
0.123623
-0.0556077
0.347408
0.00779607
-0.0761768
0.354413
0.0410047
0.0423404
-0.246925
0.204585
0.139447
0.0341158
0.0971371
0.180208
1.35959
0.575311
0.105903
0.758621
-0.864524
-1.01378
1.34758
0.182046
-0.117063
0.0739865
-0.764691
0.690704
0.0636869
0.127665
-0.472142
-0.0741763
0.133619
-0.0594422
0.131379
-0.205555
-0.450586
-0.108071
-0.0713274
0.0743848
-0.00305749
-0.00242101
-0.0312968
0.0300767
0.0121196
0.658315
-0.606061
-0.0522533
-0.290972
0.303749
0.880394
0.590208
-0.241576
-0.0336492
0.0713311
-0.343821
-0.166165
0.169962
-0.577891
0.407929
-0.0014865
1.82066e-05
0.106062
0.030935
-0.136997
0.00165548
-0.00800684
0.00635137
-0.0219988
0.0138095
0.00818928
-1.20997
0.398286
-0.151666
-1.33885
-0.199385
-0.82885
1.60976
1.57253
-0.19291
-0.172971
0.121861
-0.063003
0.0686422
-0.00563918
-0.192915
0.987754
-0.794839
0.556346
0.0718092
0.000471685
-0.00195818
0.120766
-0.334813
0.0351654
-0.0465531
0.00459168
-0.69993
0.356108
-0.0616076
0.107374
-0.234083
0.619715
1.099
0.0108855
-0.0615082
0.00133947
0.0601688
1.92714
-0.354614
-0.0611179
-0.0544799
-0.986971
0.158122
0.39641
-0.216221
-0.47533
-0.128539
0.603869
0.813379
-0.363822
-0.449557
-0.0760846
0.847776
-1.70995
0.171568
-0.0153337
-0.0416267
0.0569604
0.390692
1.69024
-0.170419
0.177291
0.099057
2.25955
-0.649785
-0.676642
0.0546818
0.62196
0.38748
0.0166654
-0.346237
0.533156
0.804745
0.40449
0.0764552
-0.0214487
-0.546127
0.224108
0.322019
1.37784
0.0858036
-0.0619485
-0.051982
-0.361255
0.103839
-0.311746
0.841833
0.361396
-0.135169
0.0424878
0.285042
-0.43933
-0.0228852
0.0177518
0.110848
-0.147615
0.0367675
-0.2986
0.312648
-0.0140477
0.473764
-0.737706
-1.19414
0.0392803
1.15486
0.0654818
-0.21433
0.148849
0.271918
0.040275
-0.275401
0.340345
-0.667252
0.667252
1.35879
1.07283
-0.709893
0.327311
0.477434
-0.567573
0.338033
0.914039
-0.357693
0.0102335
-0.873977
0.863743
0.131968
0.00532948
0.0265797
-0.806306
0.530905
0.120515
-0.168241
-0.121483
0.289724
0.307319
-0.515168
0.346927
-1.12365
-0.286947
-0.657019
-0.0504671
0.00411561
0.000427985
-0.227941
0.126942
0.0452624
0.0344534
-0.145401
0.110947
-0.340676
-0.489436
-0.00571978
0.0684467
-1.09139
0.526815
0.564575
-0.57041
0.387887
-0.107002
0.160884
0.232011
-0.00749647
-0.016993
-1.01634
0.597274
0.034198
0.069622
-0.150737
0.0830245
0.197696
0.00803619
-0.433064
1.09413
0.492335
-0.0476852
0.865104
-0.791118
0.789197
-0.442021
-0.614817
0.17617
0.153595
-0.789731
0.762904
0.0268273
1.13313
-0.291294
-0.194561
-0.131145
-0.118518
0.0219753
0.958002
-0.844519
-0.113483
-0.182639
0.108212
0.0275889
0.120383
0.882705
0.720478
-0.821201
0.100723
-0.324547
-0.0484653
-0.433633
-0.657757
0.136238
1.33859
0.996889
0.075943
0.169716
0.554521
-0.724237
-0.0539393
0.0498671
-0.00788073
0.000384251
-0.51339
-0.101427
0.183745
-0.187066
-0.187084
0.137748
-0.532392
0.272879
-0.991005
-0.441141
-0.291815
-0.706844
1.56985
-0.0945608
-0.281398
-0.411808
-0.288122
0.12323
0.299211
0.0552018
1.30336
-0.845094
-0.190033
0.128165
-0.429128
-0.35024
0.779368
-0.0184165
0.00308281
0.0485893
-0.0597799
-0.23882
-0.119534
0.696446
-0.420102
-0.276344
0.189417
0.134247
-0.0966942
-0.037553
0.242677
0.056534
-0.42806
-1.23545
-0.0957408
0.139338
0.9545
-0.234022
0.00492835
0.10396
-0.0213104
0.0195726
0.00173776
0.0169657
-0.0372288
-0.242913
0.0783826
-0.0772957
-0.558865
0.420123
0.0198039
0.134547
-0.0690647
-0.692315
1.59457
-1.23317
0.0157323
-0.192961
0.177229
-0.135584
-0.537763
0.673347
0.0742478
-0.712862
-1.10733
-0.0868112
-0.0731769
5.98669e-05
0.073117
-0.24626
-0.614838
-0.158813
-0.138824
-0.546127
-0.231038
0.165402
-0.335079
-1.17103
-0.567903
0.393783
0.174121
0.263378
0.114217
0.549852
0.153633
-0.703485
0.148148
0.0491707
0.913053
0.137624
-1.05068
-0.2212
0.29034
1.05724
-0.241606
0.180736
-0.738604
1.02894
0.257823
-0.0599316
-0.0337413
0.0454163
-0.00527142
1.14789
-1.19557
0.725549
0.0878298
-1.24741
-0.0981717
0.229611
0.684428
0.913463
0.0141263
-0.0203433
-0.996889
-0.657019
-0.713062
0.723361
-0.0161906
-0.89088
0.660072
0.614355
-0.935351
0.869606
-0.00475338
-0.784977
-0.314367
0.634883
-0.771185
0.136303
0.0807899
0.0534573
-0.463298
-0.134068
0.997345
-0.863278
0.00218421
0.0019314
-0.263297
0.214754
0.709131
0.222204
-0.206937
-0.180697
0.647356
-0.669393
0.21722
0.0732212
0.585685
0.643604
-1.22929
-0.737341
0.961449
1.18599
-0.65918
0.0883521
0.187951
-0.322019
-0.0110685
0.216077
-0.0534002
0.0628098
0.0604688
0.00280756
-0.0220205
0.019213
-1.0288
-0.0341746
0.316798
-0.810207
-0.394001
1.2845
-0.890498
0.368869
0.638939
-0.0496312
0.0531058
-0.0034746
0.0597231
0.587633
-0.716504
0.662532
0.63897
-1.03297
0.314865
-0.0987882
-0.584042
-0.406962
-0.587002
1.17269
-0.0573877
-0.87873
-1.9415
-0.0821677
0.187951
0.0501044
-0.860311
0.835015
-0.647971
-0.187044
-0.981791
0.397749
0.00500755
0.113716
-0.000279366
-0.113437
-0.973571
0.566608
-0.215184
0.909639
-0.923457
0.191637
-0.207397
-0.0957493
0.238332
1.20818
0.338288
-0.169784
-1.42506
0.485773
1.27312
-0.868633
-0.551789
-0.517468
1.06926
0.448211
0.0180271
-0.0118766
-0.733646
0.699472
0.240813
-0.18109
-0.224702
0.277662
-0.0529602
0.60127
0.683229
0.779397
-0.814057
-0.491853
-0.449341
-0.472829
-0.500741
0.802552
-0.802552
0.683542
-0.683542
-0.733646
-0.370509
0.370509
-0.277662
-0.400026
-0.4487
-0.560569
-0.404531
0.404531
0.240813
-0.18109
0.779397
0.771455
-0.771455
0.814057
0.762125
-0.762125
0.508147
0.527171
0.482532
-0.163717
-0.499259
-0.550659
1.07783
-0.363703
-1.31561
0.728604
0.664247
0.521747
-0.00686072
-0.0174136
0.0789923
-0.886513
0.0930198
0.793493
-0.134138
0.112941
-0.999046
0.587202
0.91392
-0.586609
-0.124784
0.00555393
-0.00671537
-0.806356
-0.0795774
-0.540177
-0.00349268
0.00789064
0.534519
-0.145644
0.050644
0.171743
0.00759309
-0.0117634
0.00417027
-0.815443
0.068034
0.747409
0.590192
0.617987
-0.532332
0.41691
0.115422
0.915188
-0.742092
-0.173096
0.0785903
0.299368
-0.0138157
-0.0575117
-0.0575295
-0.0143884
0.402553
-1.10069
-0.839153
0.0974638
-0.743043
0.796507
-0.0534639
0.120972
-0.898389
0.777418
-0.802838
0.903049
-0.100211
-0.0682346
0.0852003
0.0194876
-0.286585
0.580706
0.591981
-0.0919579
-0.794555
0.916321
-0.0936122
-0.822708
0.0336519
-0.115946
1.25444
0.82323
-0.691879
0.455361
-0.383552
0.0984119
-0.892967
1.40674
0.368741
-0.791531
0.00655394
1.0161
-0.895131
1.19997
1.23172
-0.848612
-0.383109
-0.882237
-0.116809
-0.412955
0.0362645
-0.52242
0.826755
-0.788705
0.788705
-0.601149
-0.0856465
-0.864505
0.122413
-0.936243
0.870899
0.0758537
-0.196124
-0.0576907
0.0594501
0.0112183
0.188475
0.827628
0.817402
0.770554
0.141608
-0.912162
-0.715119
1.23687
-0.783386
-0.105566
0.888952
0.174249
-0.890752
-0.676029
0.885479
-0.787067
-0.106054
0.461712
-0.0190028
-0.442709
0.0116554
1.33444
-1.3461
0.15261
-0.340453
0.187843
-0.889441
-0.83021
0.0871665
0.530975
0.258222
-1.66691
1.15954
-0.581845
0.581845
-0.886354
-0.538706
-0.104859
0.635764
-1.05817
1.09745
0.779913
-0.203598
1.11584
-0.71755
0.996867
-1.25969
0.262826
-0.02714
-1.42599
0.272798
0.516603
-0.289955
-0.230207
0.272179
0.300516
-0.221925
0.78116
-0.881372
0.756391
0.480475
-0.150707
0.737908
0.587675
-0.587675
-0.0658946
0.0682393
0.110104
-0.075651
1.26362
0.0708189
0.31436
-0.00111414
0.00373359
-0.00261945
-0.674398
0.69701
-0.022612
0.393162
-1.24177
0.10828
-0.895347
-1.12764
1.44917
-0.321529
0.189752
0.872933
-1.02332
1.41649
-0.75374
0.60546
-0.658903
-0.660151
0.152112
-0.244908
0.0290656
0.057071
-0.89868
0.653772
0.00583009
-1.04229
0.0699309
0.726576
0.694471
-0.0890112
0.0745939
0.786815
-0.26733
0.82215
-0.554821
-0.840936
0.523737
0.496156
-0.952661
0.731215
0.221447
-0.684087
-0.128571
0.922757
-0.373575
-0.15931
-0.0367164
0.486097
0.513903
-0.770007
-0.111364
-0.571574
-0.382902
-0.559055
-0.356497
0.404529
0.595471
-0.139214
0.144666
-0.863619
-0.0700425
-0.58886
-0.155137
-0.248045
0.403182
-0.0398657
-0.00536067
0.112419
0.0721222
-0.129777
-0.113136
0.756124
-0.644435
0.719029
-0.114114
-0.784565
0.381444
-0.0475279
-0.333916
-0.744959
-0.192888
0.937846
-0.241685
0.230116
-0.0248367
-0.110784
-0.0103893
0.0139126
0.715722
-0.133877
0.122067
0.109944
-0.739449
0.0650512
1.05468
-0.388517
-0.00822671
-0.371247
0.345809
-0.287162
1.02081
-0.00471618
0.381501
-0.282444
-0.00634948
-0.0640286
-0.121722
0.0417013
1.01298
0.223078
-0.00968257
-0.213396
0.84329
-0.0219096
0.00347769
0.0184319
0.128152
-0.0110207
-0.00099833
0.217316
-0.106468
0.235115
-1.29328
0.330673
-0.107595
0.00305294
0.289408
-0.0572105
-1.00901
1.34696
-0.337947
-0.780554
0.837252
-0.0566982
0.100467
0.160497
0.097326
-0.0690683
1.30533
-0.460206
-0.0721255
0.275849
0.453408
0.187904
-0.641312
0.403494
0.0401927
0.656817
-0.572028
0.559582
0.0124465
1.3057
-1.18247
-0.0425092
0.0526331
-0.0101239
0.692584
-0.00913101
-0.0834789
0.0195716
1.33662
0.482574
-0.382107
0.104338
-0.0228046
-0.191526
0.184264
0.010407
-0.194671
0.0082868
-0.00547924
0.932546
-0.794922
0.19341
0.220984
-0.0257543
-0.0909026
0.224149
0.0949395
0.00618037
0.0792346
0.762515
0.333753
0.335673
-0.669426
0.797991
0.141048
-0.939038
0.644365
0.117047
-0.075989
-0.00599743
0.0819865
-0.723816
-0.095609
-1.16408
-0.00433068
0.747763
0.717312
0.110126
-0.164218
-0.29908
0.818614
0.115801
-0.0670728
-0.88262
0.182831
-0.276083
-0.172444
-0.172223
0.691
0.0715145
0.0133158
0.67305
-0.512554
-0.211795
0.161814
0.0268851
-0.111382
0.420921
-0.0576484
-0.0346728
-0.0714326
0.165813
0.286682
0.511308
-0.152379
0.45181
-0.0427106
-0.109512
0.0182853
-0.000991225
-0.0172941
-1.45352
0.271055
-0.0128727
0.920062
-0.23112
-0.617514
0.64174
-0.0242262
0.357052
0.756051
-0.320008
-0.0139081
0.0778961
-0.173645
0.629172
0.12688
0.628009
0.264932
-0.269367
0.724728
0.0817938
0.93119
-0.600325
0.3475
0.252826
-0.427603
-0.071692
0.0412498
0.0636474
-0.0469952
1.21659
0.735968
0.0826462
0.621844
0.217243
-0.875677
-0.0818213
-0.671153
0.677707
-0.0240368
-0.585626
0.430489
0.87227
0.669364
0.15313
0.0356563
-0.158851
-0.313291
1.11523
0.479336
-0.0723482
0.0399674
0.894083
0.0371071
0.708583
0.401654
-0.0778155
0.880175
-0.74388
0.928906
-0.185025
-0.409181
-0.191144
-0.0617153
-0.182949
-0.207577
0.817861
0.0165891
-0.00533427
0.627676
0.00728056
-0.378527
0.599322
-0.131613
0.234265
0.765027
0.229893
-0.994921
0.276655
-0.924625
0.138747
-1.37192
-0.174731
0.767388
-0.592657
-0.665487
-0.118861
0.00807652
-0.0552131
-0.993536
0.0215139
-0.0428243
0.957512
0.213992
-0.375583
0.161591
-0.0554796
-0.579371
0.0591972
0.322304
-1.37324
0.00427204
0.00332105
-0.454455
-0.0538096
-0.589486
0.0174574
0.565911
0.306359
1.02137
0.886148
-0.245066
-0.387017
0.632083
0.0732833
-0.615508
0.615508
-0.253045
-0.914321
1.16737
0.0300566
-0.150351
0.67794
-0.112029
-0.223483
-0.344114
0.184805
0.648746
0.594288
-0.296743
0.175627
-0.105593
-0.504393
0.481093
0.078489
0.0574154
0.0134008
-1.35004
-0.348879
-0.263457
0.69561
0.30439
-0.348879
0.69561
-0.341569
-0.252789
-0.341569
-0.695712
0.695712
0.304288
-0.014246
0.17627
-0.0762045
0.194166
0.147809
-0.463928
0.637512
-0.0381906
0.654247
-0.503209
-0.151038
-0.0570621
0.0562866
0.000775537
-0.010024
0.00890982
-0.118782
0.0187645
-0.111992
-0.431957
-0.354537
0.126596
0.0478751
0.831133
-0.276612
-0.65871
0.370588
0.00103102
-0.188242
-0.00858172
0.679364
0.0683988
0.097658
-0.0328509
-0.00225907
0.0255597
0.0845587
0.561547
-0.476473
-0.0850742
1.9017
0.548501
-0.664113
0.899844
0.0112161
-0.0622761
0.10632
0.192167
0.133668
1.13223
-0.367205
0.0193403
-0.0698073
0.626373
-0.836557
0.0220557
-0.0220557
0.0199726
-0.0199726
-0.0223214
0.0223214
0.0306495
0.364768
0.461565
-0.00280189
-0.721232
0.484595
0.188342
0.0289735
-0.0825606
-0.48542
0.786666
0.112902
-0.79699
-1.14247
-0.101165
0.0781889
0.0183861
-0.00457659
-0.0239257
0.0239257
0.24796
-0.0239855
0.0239855
0.699057
0.0921478
-0.0239707
-0.00888013
0.00665634
-0.0681646
-0.0225506
0.0225506
-0.0131353
0.0131353
-0.0219507
0.0219507
-0.0187226
0.0187226
0.118736
-0.298003
-0.0821293
0.221458
-0.0173716
0.0173716
-0.370403
0.510178
-0.139775
0.501334
-0.221018
-0.456806
-0.201904
0.560948
-0.0625413
0.0766495
0.56509
0.564453
-0.00798075
0.00798075
0.194984
0.0244169
-0.0244169
-0.0154695
0.0154695
0.756014
-1.11098
0.0383374
-0.314646
0.345581
0.00354313
-0.00354313
0.0164352
-0.0164352
0.0181236
-0.0181236
0.0233224
-0.0233224
-0.0231406
0.0231406
0.0347308
-0.0347308
0.488822
-0.0314395
0.0314395
-0.0025448
0.0025448
0.0237628
-0.0237628
-0.00683166
0.00683166
0.0101088
-0.0101088
-0.108454
-0.0251677
0.0251677
0.120954
0.0262731
-0.0390459
0.0390459
0.00658239
-0.00658239
0.0249372
-0.0249372
0.0331368
-0.0331368
0.0257967
-0.0257967
0.00453435
-0.00453435
-0.00233149
0.00233149
-0.53689
-0.14913
-0.0113461
0.0113461
-0.00156946
0.00156946
-0.0377366
0.0377366
-0.0280585
0.0280585
-0.000542703
0.000542703
-0.417684
0.647294
0.25949
-0.0316977
0.0316977
-0.0509342
-0.0184419
0.0184419
-0.0007739
0.0007739
0.0374486
-0.0374486
-0.201383
0.13431
0.00384933
-0.00384933
-0.023072
0.023072
-0.499253
0.0444645
-0.454098
-0.0314856
0.0314856
-0.44025
0.0339716
0.0191343
-0.010048
-1.23737
-0.0363184
0.0363184
-0.19984
0.142191
-0.0408336
-0.000283924
0.000283924
0.00241361
0.0467954
0.262827
-0.330725
-0.277756
0.608481
0.196887
-0.00533295
0.00533295
-0.235716
0.390964
-0.155249
0.773113
-0.395321
-0.377792
-0.462681
-0.661234
-0.0970601
0.467648
-0.369949
-0.470986
-0.573955
0.0193057
0.195222
-1.33239
0.0153809
-0.0153809
-4.26234e-05
4.26234e-05
0.0305049
-0.0305049
0.0262514
-0.0262514
0.00182322
-0.00182322
-6.08291e-05
6.0829e-05
0.01502
-0.340524
0.174302
-0.299086
-0.00161175
0.00161175
-0.0450159
0.0450159
-0.0398667
0.0398667
0.17187
0.0929139
-0.264783
0.00340245
0.315248
-0.546368
0.00109775
-0.00109775
-0.0245552
0.0245552
-0.0950605
0.0974637
-0.194524
-0.000270411
0.000270411
0.106611
0.011949
0.983977
-0.485009
-0.0820815
0.567091
-0.627511
0.097426
-0.619846
-0.0386324
0.0386324
-0.679763
0.277066
0.0488843
-0.0488843
-0.645703
0.387426
0.263657
0.120674
0.00212323
-0.00212323
-0.832049
0.00169524
-0.00169524
0.317238
0.410264
0.0839078
-0.0527599
0.0527599
-0.000650203
0.000650203
-0.0418644
0.0418644
-0.0537691
0.0537691
0.00223313
-0.00223313
-0.0593759
0.0593759
0.00227368
-0.00227368
-0.0451207
0.0451207
-0.00130847
-0.0451299
0.0451299
0.00274329
-0.00274329
0.0475803
-0.0475803
0.00147644
-0.00147644
0.0477001
-0.0477001
-0.255322
-0.000862888
0.000862888
-0.0033625
0.0033625
-0.0495215
0.0826755
-0.00971387
0.00971387
0.00551368
-0.00551368
-0.0584024
0.0584024
0.292059
-0.0179032
0.0179032
-0.0569212
0.0569212
-0.00770009
0.00770009
-0.0660463
0.0660463
-0.0133015
0.0133015
-0.0788891
0.0788891
-0.0214026
0.0214026
-0.0936887
0.0936887
-0.68704
0.301483
-0.531051
0.506824
-0.888959
-0.00656187
-0.568283
0.39606
0.0698118
0.119605
0.00396548
-0.00396548
0.346337
-0.726046
0.0426366
-0.0292357
-0.963503
1.40391
1.29528
0.253289
-0.0538366
-0.038801
-0.393844
-0.58007
-0.0863783
0.391143
-1.32067
-0.0192974
0.0192974
-0.755107
0.0203482
-0.0203482
-0.00111873
0.00111873
0.307045
-0.354871
-0.00239842
0.00239842
0.0191403
0.0145785
0.597101
0.124873
-0.00654627
-0.00815497
-0.0121883
-0.0955223
0.497438
-0.401916
0.236543
0.0362553
0.0122202
1.02543
-0.0285578
0.0545255
-0.406851
0.443116
-0.488933
-0.998927
-0.21798
-0.0706033
0.0178654
-0.273869
-0.0665837
0.0552569
-0.00391655
-0.01418
0.78571
-0.553839
-0.0365664
0.0634514
-0.0355482
0.016763
0.159507
0.422205
0.239443
-0.165503
0.211353
0.00838107
0.000866916
-1.26311
0.0286624
-0.145874
-0.229709
-0.019076
-1.39011
-0.071675
0.264799
-0.35252
0.393525
0.295241
-1.00209
0.0496506
0.014182
-0.130128
-0.347357
0.462779
-0.101001
0.00891339
0.0920873
-0.0268203
0.0268203
0.184754
-0.42633
-0.155667
0.127484
-0.0784466
0.0544098
-0.0647796
-0.00636487
0.0711445
-0.0283309
-0.151348
0.149065
-0.0410872
-0.289802
-0.359755
0.649556
0.0144255
0.0582431
0.15086
-0.0287935
-0.196536
0.0689732
-0.156266
0.309861
-0.0100065
0.0284384
-0.0270083
0.177869
0.00281235
0.25876
0.000287
-0.000287
-0.0832402
0.791823
0.0883911
-0.170212
-0.065132
0.0103998
0.693485
0.723003
0.0182852
-0.0393443
-0.534481
0.00343048
0.135759
0.0905956
-0.679486
0.321792
-0.0560481
0.380352
-0.670154
0.218723
0.512491
-0.0878837
0.0878837
-0.000279366
-1.21009
0.583237
0.62685
-0.211527
0.156314
0.0461609
-0.117095
-0.62061
-0.128182
-0.045524
0.0562445
0.931376
0.26773
-0.1146
-0.0693362
-0.302388
-0.730584
-0.0809695
-0.267728
0.800884
0.583238
-0.26799
-0.270768
0.560176
0.0201064
0.372651
-0.273489
0.110536
-0.463482
0.323707
0.122662
-0.122662
0.0868187
-0.138441
0.0516228
0.00672387
-0.00237549
0.0195726
-0.347026
-0.37679
0.227511
-0.186545
-0.0409659
0.544386
-1.08094
0.0670096
-1.02748
0.697502
-0.12004
-0.179046
-0.0407105
-0.0788234
-0.484495
0.0525379
-0.286527
0.00526294
-0.019076
0.376369
-0.00519511
0.00261581
0.00135098
0.0105065
-0.0129288
0.0024223
-0.104845
-0.0164065
-0.16522
0.181626
-0.126351
-0.337131
0.0191403
0.348669
0.0038795
-0.374791
0.0829756
0.00246622
0.234362
-0.237164
-0.0120758
0.0120758
-0.0010163
0.00329989
-0.00939009
0.00190215
-0.0562186
0.000771758
-0.00118992
0.254067
0.0643211
-0.000906604
0.000906604
0.136096
0.515652
0.00178924
-0.290743
0.427328
1.12857
-0.473708
0.334992
-0.436395
-0.254505
0.0988383
0.230019
-0.229552
-0.00627001
0.0182032
-0.00429067
-0.00780605
-0.180396
-0.379746
0.864341
0.522172
-0.507152
0.200462
-0.00159406
0.221706
-0.0319543
0.00200672
0.000844266
0.017359
0.230327
0.00130931
-0.000250361
0.720807
-0.651833
-0.248195
0.143677
0.938192
0.000795555
0.00151783
-0.0408336
-0.00568889
0.818192
-0.431152
0.509641
-0.64636
0.899861
-0.609286
0.582441
-0.186381
0.691699
0.00149871
0.00349946
0.0148866
-0.119286
0.140258
-0.215609
0.00922525
0.00310964
0.064021
-0.0492591
-0.014762
0.00148362
0.0289445
0.0494822
-0.0784267
-0.0875587
0.00347719
0.000256404
0.00183668
0.47111
-0.427721
-0.000382031
0.000555051
0.97731
-0.394073
0.387314
-0.00581354
0.000241302
0.249814
-0.0564033
-0.0404107
-0.116542
-0.0175597
-0.00354833
0.118556
0.0618502
-0.00170755
0.416938
0.00121276
-0.00369008
0.00369008
0.00875849
-0.0169135
0.000211461
-0.32382
-0.00367973
0.0717324
-0.10684
0.0629618
0.0216296
-0.0665153
0.000514001
0.00249962
0.469161
0.000300014
-0.00425095
-0.0574644
-0.00199765
0.000829702
0.116976
0.197384
-0.711351
0.480388
-0.860134
0.03088
-0.000379792
-0.708712
0.12904
0.14314
0.596613
-0.0151367
-0.0396031
-0.00387559
-0.00130399
-0.552883
-0.00325632
4.0546e-05
-0.0471127
0.931777
-0.528283
-0.00245961
-0.000797235
-0.0056425
-0.00233933
0.0665507
-0.0223387
0.0223387
-0.0404899
0.0437898
-0.00218642
-0.00764395
0.0541179
-0.0515021
-0.163522
0.0918298
-0.00560145
-0.0128428
0.0425005
-0.0161935
0.0611914
-0.0433259
-0.622677
0.569213
0.0290104
-0.0015482
0.335779
-0.169966
-0.0706608
-0.685635
-0.0762587
-0.119113
-0.0932092
0.0912115
0.683117
0.000831734
0.0176369
-0.0161191
0.353519
0.0568562
-0.142918
0.0860619
-0.071374
-0.616435
0.857786