/*--------------------------------*- C++ -*----------------------------------*\
| =========                 |                                                 |
| \\      /  F ield         | OpenFOAM: The Open Source CFD Toolbox           |
|  \\    /   O peration     | Version:  2306                                  |
|   \\  /    A nd           | Website:  www.openfoam.com                      |
|    \\/     M anipulation  |                                                 |
\*---------------------------------------------------------------------------*/
FoamFile
{
    version     2.0;
    format      ascii;
    arch        "LSB;label=32;scalar=64";
    class       volVectorField;
    location    "14";
    object      U;
}
// * * * * * * * * * * * * * * * * * * * * * * * * * * * * * * * * * * * * * //

dimensions      [0 1 -1 0 0 0 0];

internalField   nonuniform List<vector> 
2186
(
(1.32559 -0.077244 1.6856e-19)
(1.6273 -0.952209 -1.16395e-19)
(1.47266 -0.929111 -1.05403e-21)
(0.75355 -0.595665 -1.19695e-19)
(-0.449638 0.58804 -2.175e-19)
(1.1059 0.0749276 0)
(0.736169 -0.680652 0)
(-0.338857 -0.550635 1.29978e-19)
(1.50501 -0.243626 2.11228e-19)
(0.563082 -0.329305 -2.37451e-21)
(0.666628 0.600086 0)
(0.833741 -0.286426 -1.53797e-19)
(-0.409969 -0.60621 -5.25112e-20)
(1.18649 0.0214887 -3.03683e-19)
(1.81651 -0.69859 -1.22509e-19)
(1.01232 -0.00371401 1.43875e-19)
(0.98909 0.0115597 0)
(-0.69546 0.672458 0)
(1.16703 0.0822441 0)
(-0.0591741 0.240081 -7.17064e-20)
(0.479194 0.0657327 -9.87935e-20)
(-0.235581 0.153054 9.64357e-20)
(1.17566 0.0282915 2.51099e-19)
(-0.227508 -0.0210089 4.664e-21)
(1.02931 0.0065596 -1.97487e-19)
(0.80465 -0.571008 0)
(0.756936 -0.0453495 1.21809e-19)
(0.624557 -0.604188 -1.34215e-19)
(1.20166 0.708951 0)
(0.969226 0.0266264 -2.69651e-19)
(-0.00618185 0.0315148 0)
(1.02399 -0.00721668 9.34085e-21)
(0.00183734 0.3669 0)
(2.46011 0.169594 2.29722e-19)
(-0.121385 -0.159085 3.07684e-21)
(1.5214 0.775895 3.30312e-20)
(1.79056 0.15745 1.39248e-19)
(0.504106 0.114074 -2.94192e-19)
(1.91714 0.350964 -4.01111e-19)
(1.03187 0.101948 7.70873e-21)
(-0.462097 -0.599626 0)
(-0.215844 0.123228 0)
(1.89142 -0.894241 1.01494e-19)
(-0.382973 0.159296 0)
(1.10582 0.270908 1.25732e-19)
(0.604965 -0.310204 2.38871e-19)
(0.935091 -0.797906 0)
(1.20077 -0.802101 7.52941e-20)
(2.37475 -0.456197 0)
(-0.395995 0.737361 2.25786e-19)
(0.0055215 0.0971585 1.06032e-19)
(0.619706 0.571633 6.5558e-20)
(2.08718 -0.775164 1.31254e-19)
(0.58678 0.250678 -2.36113e-19)
(-0.213912 0.259613 3.57127e-20)
(0.778525 -0.66437 0)
(1.67685 -0.98056 1.85051e-20)
(0.594505 -0.554417 0)
(2.37124 0.297526 1.30835e-19)
(1.15542 -0.174358 -2.73449e-19)
(1.71967 -0.102962 1.53677e-19)
(1.33384 0.302573 -1.37738e-19)
(1.33281 0.530571 0)
(0.887658 0.133207 -8.44523e-21)
(1.34831 0.386778 -7.8981e-20)
(1.26794 -0.748038 -9.85798e-20)
(1.16161 0.659575 4.1568e-20)
(0.673171 0.0535908 -4.73897e-19)
(0.81538 0.0474121 0)
(2.1267 -0.212546 -7.60963e-20)
(-0.313472 -0.615531 -1.52285e-19)
(1.89013 -0.435426 -1.37717e-19)
(0.720326 -0.055049 -2.08123e-19)
(0.888337 -0.530103 0)
(0.825322 0.169653 -7.65578e-20)
(0.561613 -0.522913 -2.46005e-19)
(2.38062 -0.345504 0)
(1.00242 0.00989046 2.97113e-19)
(-0.104784 -0.242093 0)
(1.9336 0.463169 0)
(0.851468 0.434926 1.61132e-19)
(0.822037 0.104428 -1.53371e-20)
(1.03581 0.00663484 3.28035e-20)
(1.31114 0.425607 2.05811e-20)
(0.973458 0.0200603 3.43483e-19)
(1.03649 0.0261391 -8.16051e-21)
(0.662168 0.155718 -2.83594e-19)
(1.16909 0.0667724 -7.83201e-22)
(0.284134 -0.0943532 0)
(-0.0710317 -0.0414833 1.10776e-19)
(0.875811 -0.636317 -1.29792e-19)
(-0.10636 0.508034 -3.21867e-21)
(1.12411 -0.0736969 1.97664e-19)
(0.817611 -0.192935 0)
(0.972485 0.0217891 3.29687e-20)
(1.35805 0.649467 0)
(1.63803 -0.965729 0)
(1.28677 0.221304 0)
(-0.488557 0.703833 0)
(0.807035 -0.680514 2.33772e-19)
(0.656186 0.153947 -4.87316e-19)
(0.819614 0.316727 3.13993e-19)
(1.52479 0.195782 0)
(1.13822 -0.0964361 -1.80697e-19)
(1.10285 0.0212015 1.47248e-19)
(-0.0672372 0.602093 1.40299e-19)
(0.624947 0.488532 0)
(2.19147 -0.171607 -1.49446e-19)
(0.980647 -0.490792 6.52738e-20)
(-1.54275 0.16477 2.11446e-19)
(1.69456 0.336321 1.23759e-19)
(-0.310444 0.689781 -3.21513e-19)
(0.830186 -0.755359 0)
(0.553784 0.326815 1.43413e-19)
(1.68817 -0.251302 -6.10904e-19)
(-0.488767 -0.264881 -4.91212e-19)
(1.19364 0.10649 6.9269e-20)
(1.99192 -0.581341 0)
(-0.0945895 -0.0456517 -3.31788e-19)
(0.70629 -0.0898674 6.57898e-20)
(1.53903 0.876073 0)
(-0.301327 0.864332 -3.62538e-19)
(0.873957 0.750247 -2.22487e-19)
(-0.935685 0.536891 5.4928e-19)
(1.02614 -0.0247533 0)
(1.2679 0.145168 -8.72784e-20)
(-0.40099 0.666869 0)
(0.711032 -0.509178 -8.78282e-20)
(-0.839373 0.585288 -2.94217e-19)
(0.80317 -0.733849 0)
(0.447383 -0.300347 3.50323e-19)
(0.555845 -0.472685 2.32302e-19)
(0.419392 -0.379881 0)
(0.999514 -0.796221 -8.95344e-20)
(0.866368 0.309142 0)
(-0.166973 0.826252 -1.77149e-19)
(0.827003 -0.712622 1.09799e-19)
(2.4131 -0.248843 3.32442e-19)
(2.2895 0.184234 0)
(-0.0689433 -0.160666 0)
(0.674182 0.626347 -2.72524e-19)
(1.8024 -0.639356 2.60499e-20)
(-0.211652 -0.296598 0)
(1.00012 -0.821815 -9.9986e-21)
(1.15629 -0.094319 0)
(1.10762 -0.130441 3.15245e-19)
(2.11449 -0.187735 -1.46381e-19)
(-0.487103 0.59794 0)
(1.24518 -0.569743 -3.91515e-20)
(-0.179563 0.399958 -4.46036e-20)
(-0.291343 0.546476 0)
(1.10906 -0.828449 1.25012e-20)
(1.00629 0.00618057 -4.96328e-19)
(0.664739 -0.495655 -8.68766e-21)
(0.831292 -0.529687 0)
(1.21625 -0.744602 -6.42595e-20)
(0.648573 0.216538 2.21214e-19)
(1.22971 0.101791 0)
(1.49583 0.108194 -1.39044e-19)
(1.21279 -0.870341 -1.17273e-19)
(-0.0595619 -0.137889 -1.22339e-19)
(-0.267052 -0.284009 -2.23416e-19)
(1.06454 0.0062042 1.85521e-19)
(0.932569 -0.475546 -8.2082e-20)
(1.16295 0.106721 7.25138e-22)
(1.28238 0.0586958 1.58496e-21)
(0.741708 -0.123233 1.37251e-19)
(-0.207774 -0.0264412 -3.02536e-19)
(1.31515 -0.385683 0)
(1.30664 -0.491295 4.96627e-20)
(1.43267 0.650058 9.11684e-20)
(0.82389 -0.628533 -1.70524e-19)
(0.99682 0.0067007 1.01703e-20)
(0.735598 -0.545777 2.41448e-19)
(1.28831 0.796488 8.79655e-20)
(1.88729 0.0842225 2.65723e-20)
(-0.526709 0.535352 0)
(1.07745 0.0533984 -1.9207e-19)
(-0.997597 -0.108998 -3.05277e-19)
(1.06738 0.484659 6.45077e-20)
(0.0677232 -0.11243 1.82773e-19)
(1.14447 0.0251899 -3.51205e-20)
(-0.130517 0.259552 -1.75347e-19)
(1.2889 0.587589 -5.55095e-20)
(1.12192 0.875783 0)
(-0.584967 0.548921 -1.15717e-19)
(-0.184958 -0.0588697 0)
(0.641031 0.548016 -2.3234e-19)
(2.07676 0.26926 -2.8549e-20)
(-0.49878 -0.518796 1.75983e-19)
(-0.844419 0.353748 -7.51121e-19)
(0.718506 0.0565842 2.08044e-19)
(2.19354 -0.0786429 -7.09316e-20)
(0.997359 -0.353196 -2.42864e-20)
(-0.0186231 -0.0346199 0)
(-0.930351 -0.0718648 3.24732e-19)
(1.30579 0.959823 6.48702e-21)
(0.838375 0.0653567 -1.13147e-19)
(0.54465 0.510265 1.61034e-19)
(0.401605 0.182295 0)
(-0.106013 -0.553696 -2.6827e-19)
(-0.544095 -0.0162049 1.69873e-19)
(1.31223 -0.971275 7.54014e-23)
(0.987548 -0.0390533 -1.54158e-19)
(-0.165011 -0.148347 7.03193e-21)
(-0.187236 0.236049 1.77459e-19)
(-0.323223 -0.129931 -2.1655e-19)
(1.99527 -0.550496 0)
(1.12371 0.0400525 -2.56908e-19)
(2.28402 0.00259831 2.69366e-19)
(1.29741 -0.637459 6.44985e-20)
(0.397404 -0.00848903 1.7274e-20)
(0.582344 0.306228 0)
(0.930725 0.739498 -1.3054e-20)
(0.672242 0.617869 1.49865e-19)
(0.912809 -0.577564 1.17509e-19)
(0.673957 0.48511 0)
(1.02443 -0.00389317 6.59543e-21)
(0.898102 -0.678211 1.67086e-19)
(0.831778 0.408038 -3.80544e-19)
(1.22625 -0.112252 0)
(-0.206318 -0.175983 -3.24875e-19)
(0.00280519 0.516315 -1.08523e-19)
(1.57069 0.725809 0)
(1.36618 -0.9526 -6.45341e-23)
(-0.687839 0.677254 0)
(-0.432253 0.610473 1.36408e-19)
(0.723454 0.639212 -8.09018e-20)
(0.85341 -0.225399 0)
(-0.214823 -0.160835 0)
(1.6223 -0.468305 0)
(-0.772307 -0.328811 5.91225e-19)
(1.22882 -0.898184 7.7154e-20)
(1.19748 -0.621068 4.34748e-20)
(1.04977 -0.189191 -1.23847e-19)
(0.89493 -0.708254 -1.30891e-19)
(0.191255 -0.195453 0)
(-1.21219 0.303521 0)
(1.01859 -0.52417 1.34791e-19)
(-0.128417 -0.264139 0)
(-0.370629 0.763601 0)
(-0.476353 -0.222264 4.19552e-19)
(0.780036 0.657766 7.01884e-20)
(0.99894 0.783585 0)
(0.684717 0.537893 -7.10079e-20)
(0.825004 -0.0571183 -1.85995e-19)
(0.734819 0.548004 -1.89292e-19)
(0.579392 0.537539 -1.38692e-19)
(-0.246931 -0.61819 3.31026e-21)
(0.733348 -0.658359 0)
(0.894993 0.169423 -2.66803e-19)
(-0.376891 -0.653756 7.05774e-20)
(0.592046 0.548418 3.09362e-19)
(0.943035 0.785504 0)
(-0.831547 -0.188446 4.90084e-19)
(-0.0665749 -0.454913 3.70473e-19)
(0.0166097 -0.350457 -1.90377e-19)
(0.650879 0.554154 -1.23522e-20)
(0.971236 -0.00836226 4.8057e-20)
(-0.478619 -0.536944 0)
(2.31371 -0.00172331 -3.43508e-19)
(1.67932 -0.661844 -1.68911e-19)
(0.66644 -0.617498 -5.94712e-20)
(-0.460406 0.461676 1.9797e-20)
(1.18673 0.459257 1.40678e-19)
(0.878335 0.398086 0)
(1.06094 -0.161792 1.50987e-19)
(0.148229 -0.5588 -9.73442e-21)
(-0.0510855 0.130216 4.07409e-19)
(0.929936 0.0239586 -4.23092e-20)
(1.12081 0.134137 0)
(1.9433 -0.0570849 -3.50022e-19)
(1.96338 0.111337 0)
(0.536286 0.230251 -3.89277e-19)
(-0.208679 0.28452 0)
(-0.286136 -0.558502 2.98726e-19)
(0.706404 0.11143 0)
(0.635062 -0.529778 -1.49229e-19)
(1.12557 0.0152215 1.68194e-19)
(-0.513027 0.659484 5.08053e-20)
(2.12114 -0.112392 -2.31788e-21)
(2.10682 -0.258764 -1.55689e-19)
(1.11088 0.219848 -1.76082e-19)
(-0.4057 -0.644998 -1.38982e-19)
(1.09094 -0.865802 0)
(0.804376 0.0179387 -1.22471e-19)
(0.939705 -0.384473 -2.33682e-19)
(1.74894 -0.585522 -1.07478e-20)
(1.74481 0.0239016 3.26491e-19)
(1.07411 -0.0073111 3.08727e-19)
(0.169482 -0.494418 -1.89047e-19)
(1.01138 -0.447837 -9.87047e-20)
(0.201461 -0.194017 2.11364e-19)
(1.00569 -0.00814532 0)
(1.00773 -0.00638882 0)
(1.23609 -0.705121 6.11306e-20)
(-0.0999011 0.724126 -1.18398e-19)
(0.179931 -0.119532 -1.59582e-19)
(1.81758 -0.162839 2.03926e-20)
(1.27879 -0.424805 0)
(2.11943 -0.0578425 -1.81555e-19)
(0.957848 -0.83465 -4.71397e-20)
(1.81555 -0.56928 -9.9132e-20)
(1.08969 0.826506 0)
(0.484005 -0.46633 0)
(0.59151 0.50123 -1.48742e-19)
(1.09658 0.274422 -3.23547e-19)
(2.27635 -0.256339 5.04479e-22)
(0.864904 0.153449 1.14742e-19)
(0.0805626 -0.46266 -5.62706e-19)
(1.02946 -0.0600073 -3.68392e-20)
(-0.341704 -0.322434 0)
(-0.0763846 -0.164195 0)
(-0.542988 -0.364128 0)
(1.3577 -0.737752 -4.13263e-20)
(-0.301804 0.56136 -2.54394e-19)
(-0.103316 0.240992 0)
(1.26744 0.961907 -1.68065e-20)
(1.10929 0.141692 -3.36862e-19)
(1.67081 0.477445 -4.63796e-20)
(1.0617 0.908044 5.33842e-20)
(-0.281667 0.694716 1.65012e-19)
(0.530283 -0.0265156 0)
(-0.545125 -0.275321 -3.66206e-19)
(-0.362437 0.674078 3.11062e-19)
(0.771514 0.0185436 1.52683e-19)
(1.50852 0.938464 3.13739e-20)
(1.49644 0.394344 -2.35945e-20)
(-0.166751 0.483131 -4.50463e-21)
(0.759827 -0.693825 -2.77987e-20)
(1.14379 0.00647223 0)
(1.73995 -0.0377832 0)
(1.04163 0.0595025 0)
(-1.09116 0.278243 -1.87732e-19)
(-0.522907 -0.352088 1.35112e-19)
(1.03106 0.831728 0)
(1.00067 -0.00567933 4.1423e-19)
(0.755957 0.590456 -1.89237e-19)
(-1.61269 -0.0558455 -1.8494e-19)
(0.861869 0.0110619 -3.39881e-20)
(0.728668 -0.665468 -1.69487e-19)
(1.37141 0.707432 -1.88305e-20)
(0.576947 -0.468275 -2.42426e-19)
(1.11932 -0.00181004 -3.71917e-19)
(0.826574 0.0405966 3.57067e-20)
(1.5441 -0.178929 3.30865e-20)
(1.01209 -0.118112 -4.29986e-20)
(-0.0447018 -0.0704421 -2.49658e-22)
(1.0756 0.458783 -2.1519e-19)
(1.28747 0.602709 8.69291e-20)
(-0.0864035 -0.398932 0)
(-0.0151453 -0.345338 2.0863e-19)
(-0.283818 -0.213109 1.36721e-19)
(-0.205344 -0.0866756 -1.53847e-19)
(0.461499 0.290724 0)
(1.39252 -0.715676 0)
(0.0287777 -0.0257146 -1.4791e-19)
(-0.301757 -0.710984 -8.06285e-20)
(1.0503 -0.0281117 1.47418e-19)
(-0.469827 0.509535 -5.35199e-20)
(1.71004 -0.437033 -6.15477e-19)
(-0.117685 0.746177 0)
(0.848 -0.752559 -2.23444e-19)
(0.686234 -0.129908 6.83288e-20)
(-0.650704 -0.178585 1.92668e-19)
(0.71327 0.142032 2.76113e-19)
(0.616039 0.114499 8.99156e-20)
(0.513347 -0.48655 1.65044e-19)
(-0.234584 -0.371437 -1.57303e-19)
(1.41933 0.414279 0)
(0.378372 0.321883 -1.65526e-19)
(1.02731 -0.010794 -2.34798e-19)
(-0.938758 0.346013 2.93112e-19)
(1.40611 0.493685 -7.80009e-20)
(-0.154655 -0.348022 -5.97919e-20)
(0.697404 -0.637075 -1.02958e-20)
(0.814066 0.173911 -1.71567e-19)
(0.971703 0.411608 1.85812e-20)
(1.17009 -0.136989 2.67455e-20)
(0.612618 -0.247573 -2.50591e-19)
(2.03016 -0.3675 -2.11331e-19)
(1.17865 -0.198692 0)
(1.25111 0.443219 -3.52603e-20)
(1.71677 0.106658 -2.02454e-20)
(0.941566 -0.221313 1.50981e-19)
(0.875925 0.334292 -1.94148e-19)
(0.904895 0.0925543 2.75261e-20)
(0.405192 0.371247 -2.1366e-19)
(-0.167927 0.527789 3.38753e-19)
(1.97601 -0.174847 0)
(0.931183 0.00561481 0)
(0.887306 -0.785993 4.0587e-20)
(-0.0571012 -0.558458 -4.05132e-19)
(-0.860484 0.194197 -3.78099e-19)
(-0.0653564 -0.113936 -2.59037e-19)
(-0.475727 0.82175 -2.16177e-19)
(-0.421527 -0.237908 0)
(-0.0597305 -0.115525 4.63867e-20)
(0.280072 0.593499 -1.06623e-19)
(-0.210465 0.267028 -4.06007e-19)
(0.798288 -0.122217 0)
(1.45192 -0.628987 6.46785e-20)
(-0.28433 -0.288279 0)
(0.994041 0.0191481 2.98528e-19)
(-0.162828 -0.384639 2.39356e-20)
(0.552673 -0.440438 3.24891e-19)
(-0.998156 -0.0556913 5.06352e-19)
(-1.61628 -0.0887822 0)
(0.191634 0.677565 1.35696e-19)
(1.00645 0.0203324 -8.94639e-21)
(-0.199453 -0.10818 0)
(1.00518 -0.0118754 -4.65493e-20)
(0.875508 -0.740381 -2.18876e-19)
(1.38688 -0.825576 0)
(0.944063 -0.275409 1.66323e-19)
(0.0892957 0.792533 3.02985e-19)
(-0.012043 -0.00788923 0)
(-0.188153 -0.441644 -7.70142e-21)
(0.740198 -0.647095 -3.39084e-19)
(0.965295 -0.029689 -2.11398e-19)
(-0.0467389 -0.622486 5.06238e-19)
(-0.203234 -0.507048 1.83684e-19)
(-0.395314 -0.294149 0)
(0.950944 0.462458 0)
(-0.503628 -0.305141 2.44562e-19)
(1.87565 0.0505549 -2.50336e-19)
(1.05792 0.883473 1.3437e-20)
(1.0687 0.205199 -9.97911e-20)
(1.1474 0.00970113 -1.7331e-19)
(1.05951 -0.0763791 -5.88582e-20)
(-0.0251606 -0.656055 -4.67904e-19)
(2.00782 0.0411152 5.54568e-19)
(0.684758 0.0257566 1.63537e-19)
(1.94686 -0.0688354 1.60866e-19)
(1.0387 -0.154681 0)
(-0.0367972 0.516794 4.6227e-19)
(1.12234 0.0264159 -4.04568e-19)
(1.72808 0.625715 -1.62882e-20)
(0.752686 -0.467816 -1.3162e-19)
(-0.0783348 -0.0376298 2.48132e-19)
(0.811923 -0.713125 2.89845e-19)
(1.22303 0.194448 5.71754e-20)
(1.00797 -0.00703088 2.06248e-19)
(0.148003 -0.505127 -2.10478e-19)
(1.02895 0.0192984 0)
(1.54038 0.170608 -2.05788e-19)
(-0.0245447 -0.0136663 0)
(1.02607 0.0106967 -1.20962e-19)
(-1.26319 -0.166413 -6.45236e-19)
(1.68416 0.335711 9.47402e-21)
(-0.419883 -0.169577 1.80398e-19)
(1.62369 0.0199066 -3.04612e-20)
(1.0146 -0.018032 4.25876e-20)
(1.32595 -0.099839 0)
(1.46915 -0.624264 -7.0785e-20)
(1.02366 0.0380227 -1.26028e-19)
(1.42536 0.785721 -1.82797e-20)
(1.37733 -0.0631989 0)
(0.789612 -0.176173 -9.48952e-21)
(0.0286993 -0.0262508 0)
(1.36259 0.0495472 0)
(-0.503504 -0.450667 0)
(1.2325 0.438028 0)
(1.85197 0.350803 6.28082e-20)
(0.728802 0.602418 3.31438e-19)
(0.298618 -0.300395 -1.95356e-19)
(-0.258549 -0.678684 -4.45335e-19)
(-0.0198122 -0.0355942 0)
(1.46861 -0.531369 7.85598e-20)
(1.29333 0.508163 0)
(1.43744 0.300879 0)
(-0.571927 -0.214888 1.62414e-19)
(0.795485 0.702482 1.02104e-19)
(1.69073 -0.030279 0)
(-0.427051 -0.546183 1.00228e-19)
(0.901622 0.212664 1.56616e-19)
(1.53162 -0.426586 -4.36814e-20)
(1.22335 0.916419 3.02466e-20)
(0.934678 -0.841656 -1.65283e-20)
(0.803869 -0.194231 -2.85403e-20)
(0.781722 0.706143 1.03884e-19)
(1.16034 0.914261 0)
(2.1093 -0.405374 1.52952e-19)
(1.21084 0.669753 0)
(1.35494 -0.4861 2.47991e-20)
(0.843459 0.0810565 1.89704e-19)
(1.00625 -0.00265087 0)
(-0.0462945 0.21463 3.97756e-19)
(0.889072 -0.179604 3.88787e-20)
(0.641205 -0.423185 0)
(0.678823 -0.395478 1.75213e-19)
(1.23081 0.554758 -2.56899e-20)
(0.464115 0.436633 2.32344e-19)
(-0.249163 0.346694 4.84576e-20)
(0.0974608 0.106918 1.01517e-19)
(0.771483 0.0579936 0)
(1.33822 -0.91377 -1.8928e-20)
(1.04474 -0.0422041 3.26924e-19)
(1.446 0.321558 1.53915e-19)
(-0.452456 -0.535149 8.68453e-20)
(-1.04592 -0.128857 0)
(1.23402 -0.239807 -8.47876e-20)
(-0.00946327 -0.00863543 -2.13324e-19)
(-0.0744203 -0.00185729 -5.66383e-20)
(-0.117844 0.0223347 -3.42463e-22)
(-0.194891 0.0755333 3.22256e-19)
(1.24119 0.0130469 2.86638e-22)
(2.36989 -0.0412876 4.6e-19)
(1.18942 0.463887 -2.26855e-19)
(0.898039 -0.0346638 0)
(1.93294 -0.0874854 3.22894e-19)
(1.85358 0.117445 1.43631e-19)
(0.925966 -0.779031 1.04657e-19)
(1.17002 -0.987301 -5.39057e-21)
(0.46886 0.434392 1.55019e-19)
(1.41573 0.432331 0)
(1.73707 0.586933 4.90674e-20)
(-0.0140418 -0.0185114 -4.34759e-19)
(0.871484 0.760362 0)
(1.23786 0.269541 0)
(0.299902 -0.299607 -3.8206e-21)
(0.311148 0.28289 0)
(-1.38512 -0.0615514 -4.89563e-19)
(-0.350191 0.516392 -1.42121e-19)
(1.7572 -0.427522 0)
(1.27908 0.0717915 9.41296e-20)
(-0.626717 0.227685 3.17362e-19)
(0.545445 -0.518124 -3.71502e-19)
(1.96826 -0.0848127 -5.90603e-20)
(0.624028 -0.566804 0)
(1.03308 0.116672 0)
(1.38508 -0.234961 0)
(1.10779 0.220169 -1.86006e-19)
(1.324 0.108338 2.60764e-19)
(-1.39061 -0.0622848 0)
(0.879232 -0.0558483 0)
(1.98989 -0.124117 1.10379e-20)
(-0.103216 0.264697 1.14175e-19)
(2.50619 -0.21034 -3.57226e-19)
(1.07431 -0.517867 2.23698e-19)
(1.95747 -0.0608318 -3.65572e-19)
(-1.12355 0.367434 -2.4939e-19)
(2.03712 0.115453 -2.74328e-19)
(1.01439 -0.0272218 3.35423e-19)
(1.50666 0.611812 0)
(-0.392038 0.63703 3.80757e-20)
(1.01847 -0.842447 1.21101e-19)
(0.852108 -0.0263187 3.97277e-20)
(0.646188 -0.446086 0)
(1.92416 -0.548154 1.148e-20)
(1.21443 -0.197503 1.08388e-19)
(1.48432 -0.577905 0)
(0.619104 -0.575404 3.31405e-19)
(0.547308 0.106154 -4.78595e-20)
(2.43694 -0.243825 6.67045e-19)
(-0.16069 0.38142 -2.41286e-19)
(1.32378 0.619678 1.06497e-19)
(1.14436 0.400829 2.92551e-21)
(0.897619 0.358613 1.85979e-19)
(1.95008 0.113737 -2.60701e-19)
(-0.0535958 -0.660808 -6.93407e-21)
(0.923848 -0.172666 0)
(-0.15165 -0.106171 4.08794e-19)
(1.10389 -0.961113 0)
(1.07801 -0.665118 1.60602e-20)
(1.21751 -0.0102645 -7.26204e-19)
(1.27896 -0.0484794 2.3103e-21)
(-0.753822 -0.0669116 -4.60397e-19)
(0.982185 0.473909 1.42711e-19)
(-0.21165 0.251941 2.07657e-19)
(0.708755 -0.0412527 0)
(1.53616 -0.176377 0)
(1.37237 0.154193 2.27299e-20)
(0.760148 -0.014752 0)
(1.36418 -0.210644 -1.1153e-19)
(-1.61979 0.20288 6.77588e-19)
(1.90947 0.501909 4.64107e-20)
(1.04691 -0.0302934 0)
(0.562858 -0.365951 8.58805e-20)
(1.01209 0.0263359 1.60244e-19)
(0.813313 0.777622 -2.04182e-19)
(-0.509311 0.867543 0)
(1.132 -0.492146 3.67374e-19)
(1.37862 -0.111695 -3.69926e-22)
(1.11942 -0.509213 -1.60198e-19)
(2.37518 0.254632 2.28797e-19)
(1.27623 0.786744 0)
(0.868262 0.0202242 0)
(-0.502149 -0.445213 -2.17243e-19)
(0.0291789 -0.0234452 1.66374e-19)
(0.946268 0.354464 -1.70497e-19)
(0.320919 -0.387455 -1.83304e-19)
(0.638696 0.39166 2.0473e-19)
(0.806242 -0.149529 0)
(0.549081 -0.510679 0)
(1.16093 -0.101969 2.7731e-21)
(1.25532 -0.5242 -7.07893e-20)
(0.66963 -0.0052582 1.54068e-20)
(0.729134 -0.166725 9.84133e-20)
(-0.052582 0.137668 -3.00307e-19)
(1.45275 0.142157 3.88976e-19)
(0.650171 0.605463 0)
(1.2617 0.694613 0)
(1.58303 0.263148 0)
(-0.515791 -0.24908 -2.03861e-19)
(1.22521 0.549218 2.24742e-19)
(1.98147 0.0911988 5.76113e-20)
(0.943606 -0.00162369 0)
(1.24968 -0.350619 0)
(2.18827 -0.103603 -4.29151e-19)
(0.746663 0.47145 2.3406e-19)
(1.00596 0.00638241 -1.60046e-19)
(1.4788 0.472442 0)
(-0.328513 0.788144 0)
(1.23886 0.319945 2.24956e-19)
(1.01722 0.520111 -1.04564e-19)
(1.06263 0.0214263 0)
(1.72818 0.254636 0)
(1.93857 0.675711 -3.37433e-19)
(-0.152706 0.583245 -5.90439e-21)
(1.00102 0.0118601 0)
(0.700061 0.458648 -2.7925e-20)
(0.948828 -0.837374 0)
(1.01114 0.0173056 3.71351e-20)
(1.06703 -0.341632 5.21481e-20)
(0.913534 -0.326768 2.45173e-19)
(1.06185 -0.12353 -5.26273e-20)
(2.17492 -0.133024 4.23739e-19)
(1.18828 0.158199 8.26905e-20)
(0.772021 -0.0229848 0)
(1.02122 0.0104365 0)
(-0.744528 -0.198091 0)
(0.655056 0.626928 -1.51894e-19)
(-0.0138713 0.0617985 2.03071e-19)
(1.1628 0.341584 -3.62025e-19)
(-0.648401 0.569418 0)
(0.81896 0.631732 1.38427e-19)
(1.02126 -0.336997 0)
(1.00418 0.00136454 9.38475e-20)
(0.407952 0.0683257 6.78759e-20)
(1.03183 0.396422 2.06909e-19)
(1.55036 0.157337 0)
(2.2124 0.217026 -1.1121e-19)
(0.819272 -0.122435 -2.99058e-19)
(-1.27387 -0.0761228 -6.58011e-19)
(1.16294 0.372066 0)
(0.873711 0.231987 1.45466e-19)
(2.03988 -0.1374 0)
(0.76811 0.509342 3.01757e-19)
(-1.6586 0.0751697 2.75282e-19)
(-0.0473026 0.141512 0)
(0.580404 0.551097 -5.83951e-20)
(1.03865 -0.65216 -1.13088e-19)
(0.488397 -0.267135 -1.03041e-19)
(1.01739 -0.014957 0)
(-0.403101 0.426634 -3.21715e-19)
(0.650383 -0.580644 6.58355e-20)
(0.898637 0.276568 0)
(1.59886 -0.684548 9.55784e-20)
(0.969231 0.826177 1.88481e-20)
(1.0986 -0.281305 -3.87228e-20)
(0.231528 -0.232095 -2.93194e-19)
(0.237267 -0.0725808 -4.70643e-19)
(-0.0982883 -0.239106 1.11924e-20)
(0.811445 0.343056 2.05334e-19)
(-0.319325 0.581911 -6.34971e-21)
(1.43559 -0.665724 3.49038e-21)
(1.02231 0.00901314 -2.76991e-19)
(-0.610719 -0.176504 0)
(1.03142 0.0363342 -3.27628e-19)
(2.1347 0.258102 2.16753e-19)
(0.877011 0.679478 2.28999e-19)
(1.12504 -0.0759308 1.26703e-19)
(1.00384 -0.0307894 1.28314e-19)
(1.33053 -0.0437789 -2.1045e-21)
(-0.399529 -0.429596 4.33217e-22)
(1.74416 -0.881639 1.53846e-20)
(1.14618 -0.120204 -5.49742e-20)
(0.819542 0.0532853 6.24327e-20)
(0.91636 -0.295461 7.28011e-20)
(0.655647 0.169466 0)
(0.950817 0.72467 0)
(0.804148 0.200316 -8.09156e-20)
(2.07362 0.215025 -4.03867e-20)
(-1.24348 0.0344989 2.3812e-19)
(1.04439 -0.551303 -3.94876e-19)
(0.628884 -0.546337 3.18896e-19)
(1.28769 0.311596 -1.9819e-19)
(0.344616 -0.470553 2.11384e-20)
(1.37572 -0.286792 0)
(0.749252 0.100194 -5.64804e-21)
(1.36703 -0.411345 -4.95922e-20)
(1.02804 0.752634 0)
(1.23274 -0.432699 0)
(0.654349 0.0690221 0)
(-0.208611 -0.399928 -7.25722e-20)
(-0.160934 0.152485 0)
(1.5407 0.717983 2.71721e-19)
(1.20934 0.180195 5.02619e-21)
(-1.24378 0.160796 2.39522e-19)
(1.51073 0.47967 2.52637e-20)
(1.79641 0.488401 -9.38631e-20)
(2.15028 -0.323313 -4.47083e-20)
(-0.164716 -0.0106368 -2.28288e-19)
(-0.220866 -0.394523 5.74237e-21)
(0.866851 0.0974781 0)
(0.688047 -0.0343559 0)
(1.00076 -0.000547857 3.09627e-22)
(-0.569211 -0.220942 0)
(1.53997 0.00211758 -1.49814e-19)
(0.683223 -0.0297177 0)
(1.07183 0.00313386 1.01258e-19)
(0.998726 0.0167095 -3.64404e-20)
(1.38778 0.00751742 2.38134e-19)
(1.05783 -0.0204222 -7.47983e-22)
(0.954336 -0.193634 -4.39234e-20)
(1.02309 -0.0340226 2.96938e-19)
(0.684033 -0.622217 1.4756e-19)
(-0.605013 -0.230129 -2.3026e-19)
(1.05655 0.291944 4.57267e-20)
(0.0278552 -0.0122633 0)
(1.11324 0.786606 0)
(1.02498 -0.0073079 0)
(1.01578 -0.786751 -7.56665e-20)
(1.05137 -0.901814 5.80512e-21)
(0.714876 -0.044043 -4.29756e-20)
(0.131835 0.436792 -9.05318e-19)
(1.23273 -0.180063 3.89538e-21)
(0.596042 -0.398358 -5.24703e-19)
(1.07179 0.409268 -6.47573e-20)
(1.15799 0.0264615 -4.08292e-20)
(2.08351 -0.326785 1.44767e-19)
(0.392425 0.00749047 -5.01721e-20)
(-0.382028 -0.571805 -1.51421e-19)
(1.10891 0.546344 1.55394e-19)
(-0.103517 -0.362414 0)
(0.205557 -0.378542 4.57344e-19)
(-0.0725856 -0.0961209 7.75305e-23)
(1.04042 -0.0431698 2.68206e-19)
(1.02501 -0.00125635 -6.88079e-21)
(1.10389 -0.0117277 -7.42092e-20)
(1.16881 -0.109339 -1.07153e-20)
(1.60652 0.32099 3.20744e-20)
(0.409042 -0.384148 -2.5901e-19)
(0.735336 -0.0627466 7.62707e-20)
(1.0337 -0.000938232 -1.95868e-19)
(0.83826 0.157448 -4.7063e-20)
(1.09733 -0.149712 0)
(1.10232 0.586345 -2.90416e-19)
(1.00169 -0.00293602 7.65929e-20)
(0.663347 0.590878 2.1581e-19)
(1.22916 -0.0676037 6.54776e-22)
(1.06131 -0.00866304 -2.43238e-20)
(1.1173 0.016173 6.90934e-22)
(2.50349 -0.0724239 2.55337e-20)
(0.0724028 0.0335551 0)
(1.05753 -0.0394446 0)
(1.06117 -0.0371649 4.71875e-19)
(1.00377 -0.00189059 0)
(-0.0379815 -0.0627222 0)
(0.961869 -0.585447 0)
(1.00177 -0.0020554 -4.4523e-19)
(1.17163 -0.695611 5.67722e-20)
(1.02216 -0.00193473 9.29709e-21)
(1.32385 0.9463 -1.17363e-20)
(1.50365 0.995457 -8.45056e-20)
(1.20918 -0.0612235 -6.33712e-21)
(1.56178 0.295181 2.23868e-19)
(1.12836 0.249161 0)
(-0.0212276 0.625179 0)
(2.15987 -0.0346785 5.39376e-19)
(1.24479 -0.61501 0)
(0.998209 -0.00342098 -1.38303e-19)
(1.01034 -0.0010672 2.68598e-19)
(1.41494 0.142409 -5.36156e-20)
(0.00221499 -0.123799 3.14674e-19)
(0.97147 0.00158036 1.45481e-19)
(0.388558 -0.0755085 4.55899e-20)
(0.406291 0.0961383 -2.74646e-20)
(1.15078 -0.151021 -1.04819e-22)
(0.926639 0.0165607 -1.45879e-19)
(1.00032 0.00401216 1.73136e-19)
(1.00341 0.00118987 1.0219e-20)
(0.789554 -0.0130978 0)
(0.724084 -0.02623 0)
(0.721599 -0.027151 6.90188e-22)
(0.700812 -0.0308439 0)
(0.413564 -0.096586 0)
(0.129316 -0.000975057 0)
(0.318008 0.0171136 2.20522e-20)
(0.498919 0.0929388 -1.42687e-20)
(1.07243 0.111408 0)
(1.23659 0.0269978 -1.13201e-21)
(1.16529 -0.109111 0)
(0.332703 -0.0235378 0)
(0.136278 -0.0123591 0)
(0.040143 0.0163087 6.65083e-21)
(0.304765 0.0863559 9.57242e-20)
(0.788234 0.0259871 0)
(0.804 0.0180333 0)
(0.964009 0.022696 -1.80116e-19)
(0.827151 0.0104981 3.37854e-19)
(1.00607 -0.0017561 0)
(1.00024 -0.00141865 3.19753e-19)
(1.00077 -0.00226319 -4.21884e-22)
(0.799393 0.023592 2.85661e-19)
(0.992351 -0.00813285 -1.67133e-19)
(0.476961 -0.0667576 0)
(0.180899 0.0103911 2.74906e-20)
(0.99963 -0.00190824 -1.61793e-19)
(0.997376 0.00375327 -2.77347e-19)
(1.05184 -0.146104 0)
(1.0011 0.000892619 0)
(0.999286 -0.000623454 0)
(1.28079 -0.129616 1.92508e-20)
(1.26536 0.0271056 4.81935e-21)
(0.824969 0.0773735 0)
(-0.428827 0.497756 2.50213e-19)
(-0.62194 0.429317 -3.87517e-19)
(1.02085 -0.0152092 -2.14691e-19)
(-0.411189 -0.551666 -1.43123e-19)
(1.0235 0.00205833 -1.72664e-19)
(1.16893 -0.220884 -6.61627e-20)
(0.809307 -0.482877 2.44514e-19)
(-0.0452979 -0.0790565 -1.0511e-19)
(1.02556 0.0142053 0)
(1.05679 -0.0113472 -4.66337e-20)
(0.862545 0.0208975 0)
(-0.0142017 0.0461554 2.9314e-19)
(1.21038 -0.566372 0)
(-0.571784 -0.275813 -3.53061e-19)
(0.362559 -0.0573952 -4.89246e-20)
(1.63996 0.687967 5.67508e-20)
(-0.0403622 -0.0577543 0)
(1.06911 -0.0382624 1.45648e-19)
(1.25226 -0.0690739 7.94435e-22)
(0.930672 -0.00961579 2.30977e-19)
(1.0132 -0.00785003 -1.46545e-19)
(1.65141 0.860221 6.55508e-20)
(0.511186 0.478072 0)
(0.432671 0.382571 1.72816e-19)
(1.20211 -0.180409 -5.47339e-21)
(1.13868 0.122044 1.54524e-19)
(1.09807 -0.723092 0)
(1.0204 0.00343453 0)
(0.999219 -0.0190015 -3.38024e-19)
(1.01449 0.0170944 -3.2825e-19)
(-0.140943 -0.401512 0)
(1.20834 0.814618 -8.98005e-20)
(1.22364 -0.0561633 -6.97092e-22)
(1.0184 0.00725476 1.26348e-19)
(1.01048 0.0108978 -1.58797e-19)
(-0.619943 -0.168831 -3.46309e-20)
(1.27826 0.0173372 -1.59994e-20)
(1.01867 -0.011486 5.39977e-19)
(1.13088 0.025189 0)
(1.82951 0.661466 -7.78218e-20)
(1.0164 -0.00773348 -1.68063e-19)
(1.93295 0.13802 -1.47044e-19)
(1.05867 0.00505924 -3.87528e-22)
(1.0117 -0.0063733 3.37329e-20)
(2.07464 -0.229528 -3.48304e-19)
(1.01722 0.00780117 1.62946e-19)
(1.29086 0.180928 6.87255e-21)
(1.02053 6.84605e-05 0)
(0.926822 0.151333 4.07235e-20)
(-1.24542 -0.0921198 6.69976e-21)
(0.993741 0.0243482 1.62193e-19)
(1.03541 0.0189886 -6.16122e-22)
(1.22759 -0.0194564 1.02952e-21)
(1.24183 0.313004 3.14405e-19)
(0.998806 0.015767 1.1096e-19)
(1.0157 -0.0160924 4.95161e-22)
(1.72826 0.263041 -6.26773e-21)
(1.73521 0.92781 -1.12733e-19)
(0.786736 -0.706707 4.30027e-20)
(0.460373 -0.341562 -2.55875e-19)
(1.00564 -0.0102187 0)
(1.02284 0.00256862 4.04792e-20)
(1.01352 -0.0126055 8.54107e-20)
(1.29667 0.0862662 3.5682e-21)
(1.01329 0.0063723 -1.69482e-19)
(1.03109 -0.0251322 1.93207e-19)
(1.00967 -0.00775098 -1.59753e-19)
(1.01415 0.00881488 -4.06602e-22)
(1.0114 0.00085928 -3.26636e-22)
(1.02116 0.0139628 1.62257e-19)
(0.905233 0.0865508 4.20443e-19)
(1.75039 0.647568 0)
(0.53045 -0.0637578 2.76769e-19)
(1.01194 -0.00287761 0)
(1.02364 -0.0148732 -4.70677e-20)
(1.52443 0.459919 -4.32814e-20)
(1.79383 0.0028889 0)
(1.84387 -0.417764 -8.20557e-20)
(1.36294 0.664851 -4.34867e-20)
(0.770351 -0.0123608 0)
(1.95171 -0.0718307 0)
(0.513371 0.433185 -1.41136e-19)
(1.30325 -0.00154185 1.46234e-21)
(1.01521 -0.00413778 -1.70952e-19)
(1.1348 -0.576873 -4.48836e-20)
(1.29256 0.0478015 -9.76323e-22)
(1.49238 0.444728 0)
(1.27145 -0.173061 0)
(1.71137 0.51742 0)
(0.169959 0.610239 1.24208e-19)
(1.36385 0.1604 9.45538e-21)
(-0.172692 0.0875282 0)
(3.93065e-05 0.691683 -3.97283e-19)
(1.67342 0.962418 -9.63207e-20)
(1.00832 -0.00223673 -3.34293e-19)
(1.36775 0.0482673 1.76059e-21)
(1.02162 0.00576526 2.20935e-19)
(0.7036 -0.0405402 0)
(-0.118195 -0.330407 -3.22572e-20)
(0.604297 0.41706 -2.88158e-19)
(1.72323 0.70598 8.29504e-20)
(0.0622648 0.733936 0)
(0.799411 0.0477638 5.77068e-20)
(0.509726 0.486079 4.32945e-20)
(1.17167 0.876181 -2.35692e-20)
(-0.0364837 -0.0196186 1.57613e-19)
(1.02624 0.0152461 0)
(1.42791 0.2867 9.46762e-21)
(1.01301 -0.0027618 1.25419e-19)
(2.47583 0.0782357 0)
(1.01158 0.00782639 2.10459e-19)
(0.327205 -0.409143 -2.16672e-19)
(1.01769 0.0107124 -1.3004e-19)
(1.38204 0.151361 0)
(1.70443 -0.478243 4.00119e-22)
(1.00965 0.00165741 -8.74526e-20)
(0.996685 -0.0294047 2.31259e-19)
(1.09179 0.0901127 -2.50014e-21)
(1.33516 0.283554 -2.31903e-20)
(-0.158549 -0.0744234 4.13518e-19)
(1.98691 0.386631 2.39082e-19)
(1.01582 0.262884 2.72242e-20)
(0.814934 0.0144191 -3.16319e-19)
(0.802251 0.0229772 0)
(1.14612 0.132963 2.60546e-20)
(1.02226 -0.0195312 -2.53144e-20)
(0.975672 0.0273386 0)
(1.04931 0.00182473 -1.60706e-19)
(0.686298 -0.166129 -5.65798e-20)
(-1.57875 -0.124292 2.83999e-19)
(2.16972 -0.589914 0)
(-0.979801 -0.258461 -8.78092e-19)
(1.53218 -0.352219 0)
(1.03656 -0.0152294 4.71734e-20)
(0.982116 -0.162578 9.90871e-22)
(1.01742 -0.00155305 1.35541e-19)
(-1.07289 0.147008 6.15672e-19)
(1.01932 0.00452912 0)
(0.990795 0.00249664 -3.2895e-19)
(1.00797 0.00886684 1.72604e-19)
(0.955249 0.107876 0)
(0.91287 -0.124609 -3.46434e-21)
(0.965143 -0.00104672 -1.48198e-19)
(-0.289846 -0.6191 4.92529e-19)