/*--------------------------------*- C++ -*----------------------------------*\
| =========                 |                                                 |
| \\      /  F ield         | OpenFOAM: The Open Source CFD Toolbox           |
|  \\    /   O peration     | Version:  2306                                  |
|   \\  /    A nd           | Website:  www.openfoam.com                      |
|    \\/     M anipulation  |                                                 |
\*---------------------------------------------------------------------------*/
FoamFile
{
    version     2.0;
    format      ascii;
    arch        "LSB;label=32;scalar=64";
    class       volVectorField;
    location    "44.6";
    object      U;
}
// * * * * * * * * * * * * * * * * * * * * * * * * * * * * * * * * * * * * * //

dimensions      [0 1 -1 0 0 0 0];

internalField   nonuniform List<vector> 
2186
(
(1.37567 -0.0705507 1.97592e-19)
(1.83149 -1.03674 -1.90405e-19)
(1.63853 -1.00947 -4.70968e-21)
(0.836967 -0.680397 -1.28298e-19)
(0.251223 -0.36303 -1.12598e-19)
(0.189666 0.109474 0)
(0.82838 -0.764055 0)
(-0.344534 -0.471403 1.99543e-19)
(2.17646 0.173091 2.7731e-19)
(0.634313 -0.439305 -3.02715e-21)
(0.593977 0.529908 0)
(1.24339 -0.277435 -2.32951e-19)
(-0.406234 -0.551218 -8.11059e-20)
(1.22118 0.0173504 -3.74005e-19)
(2.04423 -0.710702 -1.86563e-19)
(1.00497 -0.0105628 1.81512e-19)
(0.979018 0.0102834 0)
(-0.389863 0.300754 0)
(0.593881 1.11726 0)
(-0.225927 0.0364077 -1.75341e-20)
(0.474632 -0.0728592 -1.18056e-19)
(-0.146338 0.159013 2.56484e-20)
(1.20354 0.0208094 3.10063e-19)
(-0.286992 -0.158438 6.38462e-21)
(1.04183 -0.00401487 -2.44023e-19)
(0.889501 -0.650804 0)
(0.775182 -0.124726 1.43659e-19)
(0.704078 -0.681367 -1.401e-19)
(1.10977 0.6379 0)
(0.97391 0.021241 -3.33018e-19)
(-0.13278 0.0287424 0)
(1.03221 -0.0221898 1.15451e-20)
(-0.329953 -0.113223 0)
(1.12619 0.323415 8.86345e-21)
(-0.0943207 -0.18991 2.42705e-21)
(1.41466 0.703625 1.78544e-19)
(1.04395 0.102272 -2.54033e-21)
(0.478921 -0.0198463 -3.55982e-19)
(1.65547 0.182539 5.84072e-20)
(0.310853 -0.0349102 -1.59774e-20)
(-0.446076 -0.643924 0)
(-0.0848092 0.0723859 0)
(2.18291 -0.936934 1.52349e-19)
(-0.349757 -0.0223301 0)
(1.04084 0.232847 1.80706e-19)
(0.666928 -0.414971 2.67817e-19)
(1.06046 -0.896852 0)
(1.32342 -0.868131 6.93154e-20)
(2.31162 -0.0613338 0)
(-0.0685705 0.0777329 6.98729e-20)
(-0.139702 0.000894271 2.58923e-20)
(0.552304 0.508442 1.00953e-19)
(2.36053 -0.74405 1.91338e-19)
(0.542716 0.141941 -2.92895e-19)
(-0.343848 -0.286452 1.19784e-20)
(0.866594 -0.743188 0)
(1.96394 -1.08762 2.62734e-20)
(0.670539 -0.627064 0)
(2.01863 0.181008 -1.71158e-20)
(1.2 -0.197056 -3.20266e-19)
(1.84151 -0.159896 9.92894e-21)
(1.25673 0.263768 -2.36814e-19)
(1.24439 0.477613 0)
(0.43648 0.194803 1.75061e-20)
(1.26661 0.350328 -1.58985e-19)
(1.38515 -0.813969 -8.67786e-20)
(1.07295 0.591855 7.04902e-20)
(0.675481 -0.0372655 -5.69456e-19)
(0.810598 -0.027461 0)
(2.55764 0.251251 -8.03861e-20)
(-0.324597 -0.507194 -2.31646e-19)
(2.07203 -0.110884 -3.11623e-20)
(0.740306 -0.146601 -2.46254e-19)
(0.970784 -0.60434 0)
(0.795115 0.0922761 -9.54156e-20)
(0.638375 -0.601442 -2.65944e-19)
(2.61326 -0.183306 0)
(1.00729 0.00555473 3.68046e-19)
(-0.0494207 -0.255102 0)
(1.8654 0.280484 0)
(0.311798 0.416679 2.28625e-21)
(0.475258 -0.0338561 2.42854e-20)
(1.02785 -0.000505628 4.04805e-20)
(1.21942 0.364997 3.83901e-20)
(0.983245 0.0179982 4.22915e-19)
(1.05028 0.0184615 -1.00861e-20)
(0.636916 0.0612107 -3.48519e-19)
(0.437584 0.0199874 -5.45816e-21)
(-0.156835 -0.100969 0)
(-0.0756627 -0.0838024 1.7201e-19)
(0.964311 -0.712997 -1.36642e-19)
(-0.0991912 -0.193096 -2.60794e-21)
(1.16094 -0.103885 2.34923e-19)
(0.868085 -0.2716 0)
(0.980196 0.0213576 4.06726e-20)
(1.25706 0.582951 0)
(1.82938 -1.0329 0)
(1.21077 0.200183 0)
(0.10514 -0.131545 0)
(0.897456 -0.765382 2.48253e-19)
(0.397762 0.715988 -5.50056e-20)
(0.371349 0.645961 2.849e-20)
(1.4712 0.176073 0)
(1.18658 -0.123973 -2.14749e-19)
(1.12586 0.0213909 1.81726e-19)
(-0.355852 0.0107028 3.49785e-20)
(0.549332 0.400061 0)
(2.14811 0.0834117 -1.19518e-19)
(1.05773 -0.560624 7.04927e-20)
(-0.0542087 1.53548 8.98225e-20)
(1.61089 0.271418 3.29409e-20)
(-0.0127395 -0.0377865 -1.21501e-19)
(0.933717 -0.84674 0)
(0.489265 0.220894 1.80819e-19)
(2.13124 0.0277507 -8.30917e-19)
(-0.515558 -0.933407 -8.57386e-19)
(1.45133 -0.3122 7.49631e-20)
(2.02767 -0.0835186 0)
(-0.105606 -0.122331 -5.13994e-19)
(0.737118 -0.181677 7.6493e-20)
(1.43395 0.802643 0)
(-0.235353 0.272937 -6.41148e-20)
(0.792496 0.674487 -3.34307e-19)
(-0.645043 0.426786 2.06586e-19)
(1.02485 -0.0310525 0)
(1.42393 -0.646691 -9.44029e-20)
(0.179909 -0.223182 0)
(0.79025 -0.59526 -9.51034e-20)
(-0.495748 0.323471 -1.02805e-19)
(0.900899 -0.820993 0)
(0.523648 -0.434401 3.88134e-19)
(0.638997 -0.564734 2.52438e-19)
(0.486781 -0.440884 0)
(1.1101 -0.878345 -8.45438e-20)
(0.369079 0.399781 0)
(-0.16916 0.214233 -5.47633e-20)
(0.919675 -0.796638 1.14795e-19)
(2.25133 0.100524 3.19016e-19)
(2.06272 0.123257 0)
(-0.172409 -0.244994 0)
(0.605148 0.560143 -4.30723e-19)
(1.98944 -0.626496 4.78003e-20)
(-0.237109 -0.285403 0)
(1.10616 -0.905621 -9.73139e-21)
(1.1978 -0.116348 0)
(1.12485 -0.151258 3.70293e-19)
(2.12349 -0.00979927 -1.38861e-19)
(0.188773 -0.31151 0)
(1.34287 -0.612399 -3.88984e-20)
(-0.470055 0.0221477 -1.49474e-20)
(0.196797 -0.275637 0)
(1.22005 -0.910853 1.53454e-20)
(1.00794 0.00270043 -6.14804e-19)
(0.746679 -0.586773 -9.44346e-21)
(0.912914 -0.611215 0)
(1.33437 -0.811268 -6.03351e-20)
(0.602673 0.121384 2.74469e-19)
(1.14053 0.102963 0)
(1.35261 0.0921323 -4.67248e-19)
(1.3361 -0.954829 -8.7283e-20)
(-0.161831 -0.227799 -1.87475e-19)
(0.221616 -0.327856 -3.22662e-19)
(1.04863 -0.0116626 2.39485e-19)
(1.01365 -0.546305 -8.86292e-20)
(0.459 0.899826 5.05328e-21)
(0.565703 0.975377 1.20268e-19)
(1.07018 -0.1636 2.14197e-19)
(-0.00125211 -0.00329427 -4.70251e-19)
(1.51183 -0.67043 0)
(1.58484 -0.94224 3.80009e-20)
(1.33604 0.585478 2.24324e-19)
(0.909978 -0.70896 -1.81151e-19)
(0.995992 0.00641401 1.25889e-20)
(0.820795 -0.628877 2.6118e-19)
(1.19419 0.725221 1.94423e-19)
(1.71185 0.107404 -1.69287e-20)
(0.15854 -0.380066 0)
(1.06396 0.0362109 -2.51138e-19)
(-0.325303 0.340539 -4.02465e-19)
(0.98579 0.425021 9.58321e-20)
(0.509505 -0.0980908 2.83621e-19)
(1.16839 0.022686 -4.34602e-20)
(-0.242928 -0.159179 -4.40287e-20)
(1.19151 0.51901 -1.13415e-19)
(1.03242 0.800117 0)
(0.04698 -0.327786 -8.03822e-20)
(-0.106099 -0.752396 0)
(0.56556 0.47351 -3.13845e-19)
(1.87336 0.199334 6.63388e-21)
(-0.533295 -0.706357 2.76136e-19)
(-0.393291 -0.272441 -6.43107e-19)
(0.714607 -0.0390571 2.50481e-19)
(1.75085 0.319602 -4.75943e-21)
(1.06482 -0.413319 -2.67926e-20)
(-0.104805 -0.122504 0)
(-0.266692 1.68242 2.58174e-19)
(1.20621 0.881285 -8.74799e-20)
(0.822839 -0.0134229 -1.39714e-19)
(0.479874 0.447263 2.20388e-19)
(0.418498 0.190981 0)
(0.0169283 -0.494333 -3.72301e-19)
(0.244835 0.0789116 2.84446e-19)
(1.46942 -1.06891 -1.63818e-22)
(1.00341 -0.0764455 -1.88595e-19)
(-0.141951 -0.216743 6.40805e-21)
(0.266233 -0.286479 8.40491e-20)
(-0.254533 -0.270629 -3.37395e-19)
(2.15966 -0.259873 0)
(1.10117 0.0323025 -3.42294e-19)
(2.11664 0.261647 4.21252e-20)
(1.4077 -0.67863 5.79256e-20)
(0.516268 0.190477 3.75624e-21)
(0.522795 0.200013 0)
(0.848733 0.666216 -2.01116e-20)
(0.601751 0.549937 2.20891e-19)
(0.998693 -0.652192 1.24913e-19)
(0.599078 0.400584 0)
(1.0282 -0.0111381 8.16703e-21)
(0.989958 -0.756726 1.75988e-19)
(0.767646 0.335677 -5.06921e-19)
(1.30036 -0.12501 0)
(-0.190733 -0.294189 -6.50116e-19)
(-0.312536 -0.092813 -3.42832e-20)
(1.46255 0.654873 0)
(1.52489 -1.03411 1.40288e-22)
(-0.311173 0.288427 0)
(0.250664 -0.322723 6.71391e-20)
(0.647638 0.564745 -1.13511e-19)
(0.897263 -0.299211 0)
(-0.184444 -0.316301 0)
(2.06467 -0.429092 0)
(-0.188592 0.817114 3.4646e-19)
(1.36751 -0.979096 5.749e-20)
(1.30093 -0.674521 4.31737e-20)
(1.12549 -0.190319 -1.42073e-19)
(0.991672 -0.787139 -1.36522e-19)
(0.221093 -0.226623 0)
(-0.861436 0.5993 0)
(1.10652 -0.583835 1.43112e-19)
(-0.212951 -0.302023 0)
(-0.0444461 0.109783 0)
(-0.444307 -0.922369 7.30134e-19)
(0.703456 0.583447 9.8429e-20)
(0.916025 0.709764 0)
(0.609686 0.456377 -9.50398e-20)
(0.846538 -0.13094 -2.21162e-19)
(0.659574 0.468531 -2.55446e-19)
(0.511597 0.469867 -1.90051e-19)
(-0.269826 -0.482774 1.13292e-21)
(0.819839 -0.734171 0)
(0.866019 0.100063 -3.42687e-19)
(-0.347082 -0.590825 1.0357e-19)
(0.525 0.484394 4.38277e-19)
(0.860708 0.710968 0)
(-0.0956115 1.07691 2.5244e-19)
(-0.0946773 -0.309147 5.73812e-19)
(-0.125645 -0.180833 -3.0146e-19)
(0.575432 0.474157 -1.6523e-20)
(0.96954 -0.0113758 6.01694e-20)
(-0.458821 -0.698976 0)
(1.80235 0.439697 -1.75022e-19)
(2.16905 -0.983239 -1.52634e-19)
(0.750275 -0.696408 -6.23592e-20)
(-0.35513 0.522496 4.72329e-21)
(1.1034 0.400987 2.2819e-19)
(0.814968 0.3298 0)
(1.1121 -0.207839 1.77226e-19)
(0.0281926 -0.359577 -5.53219e-22)
(-0.138482 -0.148203 1.02113e-19)
(0.943098 0.0158237 -5.18433e-20)
(1.03824 0.117018 0)
(1.67866 0.131799 -2.19253e-19)
(1.76062 0.139971 0)
(0.497175 0.114997 -4.76777e-19)
(0.294945 -0.306478 0)
(-0.307289 -0.469969 4.55218e-19)
(0.748837 0.106152 0)
(0.718856 -0.619922 -1.61645e-19)
(1.15894 0.0120095 2.06525e-19)
(0.0529138 -0.138797 2.3283e-20)
(1.95065 -0.134272 6.07962e-21)
(2.32028 0.0314594 -1.88421e-19)
(1.04973 0.182979 -2.4703e-19)
(-0.362797 -0.635597 -2.01224e-19)
(1.20857 -0.951027 0)
(0.825026 0.0164348 -1.50487e-19)
(1.00941 -0.454727 -2.59862e-19)
(1.89551 -0.580538 -1.6839e-20)
(1.67601 -0.0181114 2.40416e-19)
(1.05079 -0.0207788 4.05014e-19)
(0.0203846 -0.283071 -2.71112e-19)
(1.0848 -0.510961 -1.07099e-19)
(0.232913 -0.224703 2.28912e-19)
(1.00738 -0.0127466 0)
(1.00489 -0.011246 0)
(1.71298 -0.733597 1.30632e-19)
(-0.173176 0.156996 -3.57547e-20)
(0.262323 -0.115439 -2.45214e-19)
(2.04813 -0.00974955 7.18935e-23)
(1.48023 0.178568 0)
(1.61867 0.283199 -7.92331e-21)
(1.08125 -0.936314 -3.43828e-20)
(2.04431 -0.538594 -1.44472e-19)
(1.0032 0.751891 0)
(0.5542 -0.539023 0)
(0.516319 0.417773 -1.95332e-19)
(1.028 0.230945 -4.65477e-19)
(2.18814 0.013773 5.47246e-22)
(0.835346 0.0853552 1.45778e-19)
(0.220405 -0.307871 -7.80758e-19)
(0.995199 0.327861 -8.40323e-22)
(-0.00418369 -0.486819 0)
(-0.164246 -0.247219 0)
(-0.532697 -0.8308 0)
(1.49059 -0.791539 -2.29854e-20)
(0.150103 -0.262865 -9.70351e-20)
(0.199833 -0.300023 0)
(1.17176 0.882372 -7.01228e-20)
(1.05137 0.111708 -4.72037e-19)
(0.691282 -0.195513 7.07877e-20)
(0.973656 0.828366 1.39043e-19)
(-0.0331338 -0.0517995 5.98478e-20)
(0.488998 0.185346 0)
(-0.513168 -0.812864 -5.70848e-19)
(0.124102 -0.180266 1.23433e-19)
(0.773385 -0.0586794 1.8301e-19)
(1.40291 0.861774 -9.94103e-20)
(0.859716 -1.05495 5.65579e-21)
(-0.195071 -0.205454 -3.72268e-21)
(0.852269 -0.775609 -2.81124e-20)
(1.01473 0.00243995 0)
(1.46958 -0.103756 0)
(1.11244 0.0585308 0)
(-0.0834445 0.503001 -1.35492e-19)
(-0.418611 -0.770969 1.99479e-19)
(0.945184 0.756585 0)
(1.01043 -0.0362207 5.06603e-19)
(0.678699 0.511324 -2.58833e-19)
(0.0952216 1.296 -1.24744e-19)
(0.855937 -0.0567851 -4.1143e-20)
(0.81255 -0.7438 -1.76264e-19)
(1.27371 0.639018 -5.75841e-20)
(0.660759 -0.569473 -2.64532e-19)
(1.11524 -0.00472858 -4.72121e-19)
(0.846063 0.0281523 4.31458e-20)
(1.61852 -0.14521 3.10242e-20)
(0.997547 -0.303604 5.49555e-20)
(-0.124175 -0.145254 -1.34389e-22)
(0.995145 0.396129 -3.14551e-19)
(1.19773 0.546399 6.57153e-21)
(-0.147753 -0.27909 0)
(0.256685 -0.407676 2.90661e-19)
(-0.213254 -0.413515 2.72533e-19)
(-0.161193 -0.241693 -2.38797e-19)
(0.390626 0.169074 0)
(1.83471 -0.991259 0)
(-0.00693472 -0.0237956 -3.3986e-20)
(-0.263315 -0.580944 -1.08924e-19)
(1.03844 -0.0362332 1.86988e-19)
(0.219377 -0.473387 -3.64782e-20)
(1.53642 0.319778 -2.32693e-19)
(-0.348101 0.0990542 0)
(0.945649 -0.836498 -2.24373e-19)
(0.453234 -0.0874206 -6.70882e-20)
(0.0686301 -0.06584 2.86772e-19)
(0.684136 0.0512483 3.40052e-19)
(0.593419 0.000724721 1.09109e-19)
(0.585058 -0.558043 1.77916e-19)
(-0.263369 -0.338338 -2.43857e-19)
(0.648086 -1.02441 0)
(0.30717 0.201791 -2.06374e-19)
(1.02437 -0.0232583 -2.96242e-19)
(-0.368738 -0.215217 2.51842e-19)
(1.30661 0.429957 -1.91866e-19)
(-0.232504 -0.349615 -9.21204e-20)
(0.812722 -0.738085 1.92815e-20)
(0.769883 0.102935 -2.18974e-19)
(0.902491 0.351685 2.62711e-20)
(1.20632 -0.176283 3.14381e-20)
(0.665019 -0.354055 -2.80832e-19)
(2.20529 -0.204524 -2.6942e-19)
(1.54212 -0.270662 0)
(1.11003 -0.309842 7.23468e-20)
(0.662114 0.19712 -1.78867e-20)
(1.76208 0.433379 1.98495e-19)
(0.850397 0.339336 -5.99736e-20)
(0.591059 0.0281278 -3.83766e-20)
(0.334831 0.285109 -2.71414e-19)
(-0.206983 0.435629 4.60415e-20)
(2.46555 0.455145 0)
(0.923946 0.00290382 0)
(0.995977 -0.87819 3.80424e-20)
(-0.0881157 -0.364168 -6.28348e-19)
(-0.568468 0.74717 -1.17993e-19)
(-0.151666 -0.187513 -3.98094e-19)
(-0.21707 0.235 -6.65852e-20)
(0.035527 -0.451851 0)
(-0.156208 -0.21657 7.1194e-20)
(-0.502886 0.0961559 -2.78368e-20)
(0.270282 -0.277318 -1.93658e-19)
(0.842817 -0.1996 0)
(1.76715 -0.962444 6.01204e-20)
(-0.225304 -0.31813 0)
(0.998867 0.0224281 3.68889e-19)
(0.290472 -0.31364 4.0917e-20)
(0.635486 -0.5421 3.54387e-19)
(-0.266543 0.0165832 6.67197e-19)
(-0.667581 1.38355 0)
(-0.249308 0.16014 1.55231e-20)
(1.01075 0.015253 -1.10886e-20)
(0.037517 -0.0841492 0)
(1.0042 -0.0116233 -5.81384e-20)
(0.96997 -0.822047 -2.25225e-19)
(1.99541 -0.831944 0)
(0.997405 -0.343783 1.88304e-19)
(-0.169555 0.31986 5.34787e-20)
(-0.0772685 -0.0784344 0)
(0.01981 -0.507107 -1.0611e-20)
(0.825599 -0.728266 -3.6115e-19)
(0.986925 -0.0270348 -2.55173e-19)
(-0.0493472 -0.383526 7.63733e-19)
(-0.249285 -0.425747 2.79456e-19)
(-0.0220234 -0.551734 0)
(0.882965 0.398989 0)
(0.252954 -0.261292 3.59293e-19)
(1.82962 0.843273 -9.13157e-20)
(0.972235 0.805155 2.694e-20)
(1.0267 0.168171 -1.34606e-19)
(1.1812 0.00036968 -2.03424e-19)
(1.12156 -0.0808993 -6.70912e-20)
(-0.0496889 -0.424765 -6.92448e-19)
(1.90225 0.176845 -2.45636e-20)
(0.616041 0.03119 2.36491e-19)
(1.31684 0.203994 4.51471e-20)
(1.11242 -0.172788 0)
(0.623785 1.11736 1.90321e-19)
(1.14708 0.0221211 -4.9995e-19)
(1.61887 0.560244 7.93534e-20)
(0.831415 -0.553489 -1.44344e-19)
(-0.118764 -0.11946 3.84323e-19)
(0.904333 -0.794581 2.9998e-19)
(1.15575 0.170979 9.14398e-20)
(1.0062 -0.00918905 2.57573e-19)
(0.193968 -0.416425 -2.93657e-19)
(1.00921 -0.00283428 0)
(0.781099 0.0343633 4.79323e-20)
(-0.102083 -0.0977241 0)
(1.01689 0.00724364 -1.49946e-19)
(-0.165987 1.04402 -3.77079e-19)
(1.59707 0.277176 8.92375e-20)
(-0.390391 -0.955571 2.92179e-19)
(1.42386 -0.0160813 6.16181e-20)
(1.00995 -0.0236003 5.37762e-20)
(1.36487 -0.110638 0)
(1.59914 -0.646702 -4.8012e-20)
(1.00877 0.00690343 -1.61583e-19)
(1.32314 0.715312 -1.44219e-19)
(1.32592 -0.0411175 0)
(2.1538 0.925558 3.46858e-20)
(-0.0255857 -0.0227165 0)
(1.42436 0.0830883 0)
(-0.413592 -0.728863 0)
(1.15417 0.390538 0)
(1.66661 0.194004 -8.00364e-21)
(0.651843 0.52691 4.54299e-19)
(0.342805 -0.345687 -2.1045e-19)
(-0.246061 -0.530852 -6.59213e-19)
(-0.110268 -0.13018 0)
(1.63763 -0.849785 -1.23718e-21)
(1.219 0.480796 0)
(1.3422 0.267077 0)
(-0.466312 -0.82579 2.46105e-19)
(0.719116 0.631798 1.59273e-19)
(1.73786 0.0457096 0)
(-0.411856 -0.500408 1.54921e-19)
(0.860084 0.1439 2.0129e-19)
(1.93623 -0.783775 -3.44718e-20)
(1.13048 0.839981 7.17837e-20)
(1.06236 -0.951755 -6.91826e-21)
(0.838829 -0.370513 1.5714e-20)
(0.705237 0.63479 1.66375e-19)
(1.06998 0.837282 0)
(2.49635 -0.406878 3.46052e-20)
(0.471792 0.807637 0)
(1.58726 -0.922749 1.94685e-20)
(1.01095 0.0903606 6.59517e-20)
(1.00508 -0.0113731 0)
(0.107755 1.39223 1.06579e-19)
(0.937545 -0.249293 4.48214e-20)
(0.718231 -0.518449 0)
(0.750504 -0.490936 1.94023e-19)
(1.14044 0.494947 -4.37966e-20)
(0.401326 0.373259 3.07702e-19)
(0.299413 -0.309305 2.4721e-20)
(-0.237243 -0.205761 2.50444e-20)
(0.798347 0.0575019 0)
(1.48096 -0.995662 1.51367e-20)
(1.02238 -0.0475655 4.16916e-19)
(1.42015 0.323047 4.75479e-20)
(-0.46191 -0.573143 1.34931e-19)
(-0.147294 0.541414 0)
(1.31046 -0.260679 -9.48657e-20)
(-0.0788976 -0.0829793 -3.28379e-19)
(0.849504 1.49315 -3.21429e-20)
(-0.122312 0.0625884 -8.16875e-22)
(-0.176739 0.0923593 9.33537e-20)
(0.346002 0.17603 4.24553e-20)
(2.01879 0.223056 2.34511e-19)
(1.10088 0.406202 -3.67938e-19)
(0.788129 -0.0373962 0)
(1.6303 -0.162423 -5.81693e-20)
(1.52721 0.0914304 8.14002e-20)
(1.02656 -0.862369 1.05252e-19)
(1.32704 -1.10739 1.86772e-20)
(0.407383 0.37445 2.09036e-19)
(1.03133 0.916046 0)
(1.61771 0.526098 -4.0211e-20)
(-0.0942727 -0.108757 -6.68306e-19)
(0.793605 0.687757 0)
(1.13266 -0.752986 0)
(0.346026 -0.345981 -4.64317e-21)
(0.239625 0.166555 0)
(-0.609243 0.760922 -4.95115e-19)
(0.328201 -0.352647 -6.39865e-20)
(2.03619 -0.366639 0)
(1.17821 0.0729931 3.55787e-19)
(-0.595184 0.694011 9.59456e-20)
(0.618436 -0.589225 -3.96265e-19)
(1.50589 0.112714 -2.2447e-20)
(0.702907 -0.641076 0)
(0.950224 0.105997 0)
(1.6502 -0.2121 0)
(1.05878 0.183136 -2.67262e-19)
(1.2829 0.0919535 3.82077e-19)
(-0.807018 1.2551 0)
(0.920794 -0.0628127 0)
(1.93172 -0.198747 -7.40896e-21)
(0.0457299 -0.271017 3.26762e-20)
(2.47787 0.0666944 -5.61398e-20)
(1.32584 -0.611757 3.41051e-19)
(1.99468 0.0813063 -3.82178e-21)
(-0.67066 0.461187 -6.69508e-20)
(1.83816 0.173576 5.68131e-20)
(1.02411 -0.043358 4.1495e-19)
(1.39699 0.543905 0)
(0.196476 -0.225349 1.6859e-20)
(1.1318 -0.929406 1.14673e-19)
(0.869178 -0.092941 4.80935e-20)
(0.727155 -0.539385 0)
(2.11967 -0.48755 1.79928e-20)
(1.2868 -0.223057 1.21286e-19)
(1.77141 -1.00172 0)
(0.699093 -0.650036 3.35222e-19)
(1.31778 -0.106938 1.31593e-19)
(2.21414 0.137151 8.10962e-20)
(0.128703 -0.294063 -8.30519e-20)
(1.22567 0.554586 2.17485e-19)
(1.06564 0.350136 4.41667e-21)
(0.838104 0.293106 2.48306e-19)
(1.47207 0.831291 -5.79251e-20)
(-0.0380301 -0.457987 -3.70301e-21)
(1.75218 0.457048 0)
(-0.119299 -0.117097 6.28219e-19)
(1.27019 -1.09547 0)
(1.18419 -0.731803 1.63531e-20)
(1.6105 1.05797 -4.17178e-19)
(1.30028 1.03753 1.39543e-19)
(-0.365168 -0.36045 -6.33261e-19)
(0.905577 0.411354 2.04263e-19)
(-0.223667 0.136498 1.49532e-19)
(0.676839 -0.0416182 0)
(1.90385 -0.133474 0)
(0.456485 0.0208571 1.69236e-20)
(0.801803 -0.00725064 0)
(1.44016 -0.215452 -1.24802e-19)
(-0.830618 0.640684 4.60452e-19)
(1.79948 0.453023 -9.73786e-20)
(1.02249 -0.038174 0)
(0.640089 -0.473696 9.36595e-20)
(1.01093 0.0254884 1.98056e-19)
(0.159142 0.806563 3.90955e-21)
(-0.329348 0.358891 0)
(1.2129 -0.528635 3.86968e-19)
(1.55771 -0.172704 2.73717e-23)
(1.20113 -0.565248 -1.6897e-19)
(2.14732 0.222624 -4.21878e-20)
(1.18385 0.712456 0)
(0.842849 0.0149977 0)
(-0.522505 -0.734815 -3.4003e-19)
(-0.00256373 -0.0442448 3.82302e-20)
(0.882397 0.297053 -2.33215e-19)
(0.389414 -0.261738 -2.62767e-19)
(0.572963 0.29964 2.61576e-19)
(1.85043 0.767951 0)
(0.623714 -0.579415 0)
(0.555305 -0.961614 -6.05091e-21)
(1.34826 -0.559957 -7.29738e-20)
(1.07726 -0.0679855 2.61513e-20)
(0.760262 -0.261597 1.13271e-19)
(-0.0385225 -0.203776 -7.42914e-20)
(0.896019 0.283252 2.58828e-20)
(0.578561 0.535963 0)
(1.16702 0.62532 0)
(1.51098 0.23386 0)
(-0.195865 -0.564042 -2.90506e-19)
(1.13727 0.491922 5.10159e-20)
(1.52612 0.236943 2.19231e-20)
(0.87745 -0.00740137 0)
(1.27757 -0.424398 0)
(1.91894 -0.0958744 2.44633e-20)
(-0.0877636 0.186742 1.55171e-21)
(1.00571 -0.00243155 -1.99353e-19)
(1.3888 0.429364 0)
(-0.16547 0.302883 0)
(1.15802 0.27218 3.52644e-19)
(0.939783 0.455426 -1.55424e-19)
(1.05342 0.0120733 0)
(1.44958 0.866737 0)
(1.82627 0.612205 -5.57221e-20)
(-0.0992596 -0.15579 -1.90047e-21)
(0.99942 0.00752728 0)
(0.628284 0.371607 -3.68271e-20)
(1.06778 -0.936142 0)
(1.00299 0.0113079 4.59535e-20)
(1.28549 -1.28269 -6.70992e-20)
(0.975918 -0.395249 2.7197e-19)
(0.915534 -1.20131 8.45397e-20)
(2.04601 0.13359 3.64746e-19)
(0.881505 -0.175284 -4.55952e-20)
(0.814392 -0.0218884 0)
(1.0402 0.00207286 0)
(0.052656 -0.0137371 0)
(0.585461 0.55822 -2.29469e-19)
(0.00423782 -0.199213 5.05805e-20)
(1.09382 0.298993 -5.60987e-19)
(-0.09036 -0.144526 0)
(0.740754 0.554906 1.93573e-19)
(1.08597 -0.401255 0)
(1.0052 -0.00576576 1.16904e-19)
(0.980529 1.3019 2.33157e-20)
(0.959025 0.340198 3.03065e-19)
(0.926329 0.391583 0)
(1.95891 0.167799 1.22947e-20)
(0.849086 -0.196057 -3.52459e-19)
(-0.370973 1.01996 -5.83819e-19)
(0.713663 0.816163 0)
(0.829831 0.165466 1.88026e-19)
(2.2092 0.452882 0)
(0.694297 0.428977 4.0674e-19)
(-0.929283 0.948409 2.01429e-19)
(0.102161 -0.265755 0)
(0.512604 0.483546 -8.11687e-20)
(1.13948 -0.722722 -1.16635e-19)
(0.56057 -0.400366 -1.13784e-19)
(1.02283 -0.0318603 0)
(-0.378526 0.519898 -4.06256e-20)
(0.731654 -0.660695 7.08871e-20)
(0.848852 0.213903 0)
(1.93845 -0.753625 8.67772e-20)
(0.886675 0.750449 3.16107e-20)
(1.08792 -0.950525 4.45025e-20)
(0.650197 -0.00932832 -4.83477e-19)
(0.268838 -0.303518 -5.29943e-19)
(-0.195492 -0.293852 1.71879e-20)
(0.746272 0.270817 2.72099e-19)
(0.214308 -0.275431 -2.60985e-21)
(1.56019 -0.701119 3.30145e-21)
(1.02878 -0.00996016 -3.42998e-19)
(-0.197208 -0.528616 0)
(1.01635 0.0103718 -4.22108e-19)
(1.45764 0.58972 4.81641e-20)
(0.797752 0.604147 3.34637e-19)
(1.16348 -0.0870821 1.52415e-19)
(1.01504 -0.0552629 1.58494e-19)
(1.36647 0.986331 -1.27433e-19)
(-0.381765 -0.425506 -1.09975e-21)
(1.98954 -0.947543 2.08264e-20)
(1.21572 -0.143612 -6.0493e-20)
(0.86883 0.0489291 6.85718e-20)
(0.971869 -0.36058 8.24187e-20)
(1.05399 -0.178802 0)
(0.868897 0.649243 0)
(1.13996 1.20552 -2.7802e-20)
(1.89105 0.123376 2.57281e-20)
(-0.716255 0.460425 2.11286e-19)
(1.1289 -0.616337 -4.19532e-19)
(0.710015 -0.630342 3.4551e-19)
(0.981684 0.0712937 3.65526e-20)
(0.404012 -0.138262 3.03041e-20)
(1.25016 -0.464038 0)
(0.732702 0.0149458 -6.87254e-21)
(1.49823 -0.686948 -3.94176e-20)
(0.94398 0.67868 0)
(1.36976 -0.913256 0)
(0.266024 0.780414 0)
(-0.261459 -0.373232 -1.10473e-19)
(-0.0576811 0.184113 0)
(0.262065 0.554484 -7.63528e-20)
(1.15631 0.156065 7.46579e-21)
(-0.492274 1.31835 1.41353e-19)
(0.517924 -0.750652 -5.42528e-20)
(1.67915 0.415228 4.80625e-20)
(2.15618 -0.150957 -4.6226e-20)
(-0.154844 0.0389427 -6.03837e-20)
(0.0442191 -0.511368 7.90094e-21)
(1.05206 -0.121879 0)
(0.662364 -0.0359457 0)
(1.00057 -0.00323685 2.58981e-22)
(-0.180845 -0.568513 0)
(1.35007 0.089439 -1.17195e-19)
(0.666009 -0.0322576 0)
(1.08663 -0.00933277 1.22591e-19)
(0.989365 0.0117875 -4.50399e-20)
(0.870928 0.616393 5.49279e-20)
(1.04527 -0.0276902 -9.63884e-22)
(1.00127 -0.24942 -5.06346e-20)
(1.03741 -0.0543373 3.64164e-19)
(0.767342 -0.706108 1.57997e-19)
(0.00753701 0.783854 -2.0633e-19)
(1.25729 -0.601742 -6.79383e-20)
(-0.00275433 -0.081014 0)
(1.0254 0.712411 0)
(1.04319 -0.0312759 0)
(1.11738 -0.865795 -7.48168e-20)
(1.19418 -1.01125 -2.0126e-20)
(2.16775 -0.134959 3.07993e-20)
(0.543779 1.79067 -3.62588e-19)
(0.565338 -0.692052 -1.9699e-20)
(0.676489 -0.505869 -5.76978e-19)
(1.14076 -0.47973 1.47102e-19)
(0.667852 -1.09587 1.82225e-19)
(2.27605 -0.104229 1.74251e-19)
(1.65982 0.0161711 1.21512e-19)
(-0.373744 -0.496046 -2.3216e-19)
(1.02501 0.481368 2.46224e-19)
(-0.128025 -0.390551 0)
(0.453042 -0.257293 6.43011e-19)
(-0.157866 -0.202785 -4.38198e-22)
(1.02035 -0.0485483 3.40032e-19)
(1.0309 -0.0155711 -8.52027e-21)
(1.09892 -0.0154575 -9.35689e-20)
(1.63852 1.04499 -1.87692e-19)
(1.5123 0.284856 1.09297e-19)
(0.477428 -0.452794 -2.81473e-19)
(2.11117 0.144809 -5.53647e-20)
(1.04804 -0.0172697 -2.40382e-19)
(1.90383 -0.576801 6.99279e-20)
(1.94196 0.989234 0)
(1.01799 0.520501 -4.64942e-19)
(1.00262 -0.00849541 9.52658e-20)
(0.587944 0.514991 2.91468e-19)
(0.466842 -0.560016 3.27861e-22)
(1.04527 -0.0231204 -3.16732e-20)
(1.10841 0.00642996 8.90368e-22)
(2.27284 0.15169 7.4548e-22)
(1.75682 -0.190875 0)
(1.03901 -0.042983 0)
(1.04801 -0.0367409 5.9027e-19)
(1.00253 -0.00521597 0)
(-0.135851 -0.169185 0)
(1.17455 -0.714403 0)
(1.00066 -0.00351108 -5.54006e-19)
(1.28245 -0.760294 5.33113e-20)
(1.02809 -0.0111675 1.15233e-20)
(1.22744 0.869408 -5.98894e-20)
(1.39911 0.91442 2.39624e-19)
(0.450874 -0.814162 2.51919e-20)
(0.97494 0.894703 9.65119e-21)
(0.738988 -0.0897351 0)
(-0.326278 0.0364282 0)
(1.81792 0.648257 2.44959e-19)
(1.67172 -1.13501 0)
(0.999477 -0.00652398 -1.72408e-19)
(1.01081 -0.00144961 3.3474e-19)
(1.37296 0.127459 -8.57447e-20)
(0.029349 -0.113283 4.84473e-19)
(0.967738 -0.00139262 1.84089e-19)
(1.8898 0.159764 -7.95954e-20)
(0.556886 0.156798 2.44687e-20)
(1.67598 1.29873 -1.54411e-21)
(0.939934 0.0149859 -1.79878e-19)
(1.00387 0.00232614 2.14461e-19)
(1.00054 -0.00181437 1.27183e-20)
(0.788321 -0.0136634 0)
(0.721779 -0.0273303 0)
(0.715093 -0.0278912 3.59479e-22)
(0.688771 -0.0302291 0)
(0.0157919 -0.0730095 0)
(0.186917 -0.047016 0)
(0.573942 -0.113561 -6.30789e-20)
(0.688505 0.209252 3.06138e-20)
(0.606374 0.945775 0)
(0.843326 1.28249 -8.12449e-20)
(1.50099 1.18722 0)
(1.51892 0.308704 0)
(1.9662 0.122693 0)
(2.06041 -0.0104503 -1.03749e-20)
(1.41634 -0.274103 -2.4599e-19)
(0.785969 0.0234412 0)
(0.790467 0.0201917 0)
(0.974545 0.0177799 -2.22181e-19)
(0.815229 0.00806121 4.16842e-19)
(1.00853 -0.0013085 0)
(1.00003 -0.000959414 3.97264e-19)
(1.00034 -0.00120096 -5.20466e-22)
(0.791513 0.0222144 3.52302e-19)
(0.99026 -0.00758396 -2.10945e-19)
(1.43369 0.399517 0)
(0.455952 -0.0304923 -2.44935e-20)
(1.00078 -0.00273956 -2.01584e-19)
(0.9995 -0.00109891 -3.44579e-19)
(1.80613 1.06735 0)
(0.999045 0.00108293 0)
(0.999577 -0.000383509 0)
(0.836372 -0.233142 -2.33823e-20)
(0.547329 -0.564253 -9.16707e-20)
(1.77955 -0.399254 0)
(0.288191 -0.478219 1.6363e-19)
(-0.17264 1.27966 -1.0571e-19)
(1.0164 -0.0255343 -2.6907e-19)
(-0.298805 -0.650182 -2.02726e-19)
(1.0216 -0.0097941 -2.14997e-19)
(1.2533 -0.239917 -7.23892e-20)
(0.886797 -0.564129 2.66895e-19)
(-0.135416 -0.163606 -1.61444e-19)
(1.03662 0.00227776 0)
(1.02759 -0.0200447 -6.1787e-20)
(0.87824 0.013057 0)
(-0.0933715 -0.0879286 6.99322e-20)
(1.51911 -1.33611 0)
(-0.361585 -0.698814 -5.16728e-19)
(1.92982 -0.00764632 8.45695e-20)
(1.52517 0.62156 -1.82679e-19)
(-0.0871436 0.0272976 0)
(1.05016 -0.0400759 1.82728e-19)
(0.410119 -0.498607 -6.62691e-21)
(0.924813 -0.0657511 2.84105e-19)
(1.00934 -0.0161421 -1.83924e-19)
(1.54142 0.785508 -5.56526e-20)
(0.442888 0.406943 0)
(0.358542 0.280063 2.16804e-19)
(1.00826 0.0326335 -1.19175e-21)
(1.0907 0.0999499 2.22005e-19)
(1.20677 -0.79662 0)
(1.01956 -0.00732143 0)
(0.998847 -0.022038 -4.23748e-19)
(1.02091 0.00872251 -4.07502e-19)
(-0.20548 -0.364192 0)
(1.11705 0.740513 -1.98521e-19)
(0.307584 -0.322967 -3.4916e-22)
(1.01502 -0.00477378 1.58374e-19)
(1.01303 0.00837349 -1.96926e-19)
(-0.448477 -0.721014 -5.01198e-20)
(0.539612 -0.517084 2.70152e-19)
(1.01488 -0.0224644 6.77664e-19)
(0.277502 -0.267245 0)
(1.71659 0.585179 6.37712e-20)
(1.01382 -0.0201475 -2.10288e-19)
(1.28699 0.11375 -4.44782e-20)
(1.04727 -0.00207676 -4.94953e-22)
(1.00747 -0.0145503 4.22056e-20)
(2.14315 0.248065 -3.05227e-19)
(1.01864 0.00159973 2.02279e-19)
(0.834047 -1.04377 6.85046e-21)
(1.01986 -0.0079651 0)
(0.897419 0.0899547 5.27639e-20)
(-0.442064 1.66569 4.73196e-21)
(1.00379 0.0196685 2.00181e-19)
(1.04247 0.0191794 -7.46531e-22)
(0.217958 -0.450884 2.27251e-20)
(1.17299 0.280413 5.26653e-19)
(1.00193 0.00948346 1.37484e-19)
(1.01464 -0.0213526 3.16401e-22)
(1.6135 0.236037 -5.90325e-20)
(1.61129 0.84597 -3.75845e-20)
(0.881608 -0.789607 4.2964e-20)
(0.541709 -0.464488 -2.81601e-19)
(1.00486 -0.0161183 0)
(1.02413 -0.00356712 5.02567e-20)
(1.01036 -0.0160174 1.06993e-19)
(0.814068 -0.406122 -1.53203e-20)
(1.01676 -0.00342211 -2.10884e-19)
(1.03988 -0.0402824 2.38217e-19)
(1.00651 -0.0145681 -2.00177e-19)
(1.01377 -0.0029595 -4.19853e-22)
(1.01217 -0.00538289 -2.51215e-22)
(1.02908 0.00554846 2.01389e-19)
(0.881745 0.0160766 5.2589e-19)
(0.259088 -0.108848 0)
(1.22234 1.30537 1.98244e-19)
(1.01365 -0.0120461 0)
(1.01661 -0.0303352 -5.90008e-20)
(1.41939 0.397715 -1.55481e-19)
(0.897027 0.132207 0)
(2.25685 -0.566969 1.29219e-21)
(0.412703 0.156401 1.39738e-20)
(0.718717 -0.0190329 0)
(2.05379 0.694741 0)
(-0.0534808 0.109647 -1.57471e-20)
(1.09324 1.09473 1.10174e-19)
(1.01743 -0.0141864 -2.13404e-19)
(1.22714 -0.631654 -4.67087e-20)
(0.484106 0.243499 1.2811e-19)
(0.587281 -1.30723 0)
(0.995132 -0.103219 0)
(0.875119 -0.164738 0)
(-0.310956 -0.109662 -2.5569e-21)
(0.823786 -0.617589 -3.21064e-19)
(0.030345 -0.326132 0)
(-0.214683 0.441021 -5.39456e-20)
(1.56675 0.882126 8.18074e-20)
(1.00928 -0.010154 -4.15657e-19)
(0.805361 0.236943 -1.18662e-19)
(1.02353 -0.00682849 2.75104e-19)
(0.665692 -0.0433088 0)
(-0.173753 -0.317727 -4.9627e-20)
(0.535922 0.323715 -3.69791e-19)
(0.322449 -0.210082 -8.48555e-20)
(-0.191842 0.246288 0)
(0.855342 0.0782772 6.58047e-20)
(0.445012 0.419393 5.79694e-20)
(1.08273 0.800127 -5.59569e-20)
(-0.100222 -0.0977631 2.43303e-19)
(1.01472 -0.00541922 0)
(0.672621 -1.23665 -1.13624e-19)
(1.01219 -0.0108432 1.56606e-19)
(2.13155 0.209194 0)
(1.01426 -0.000535903 2.61733e-19)
(0.458345 -0.105132 -3.03123e-19)
(1.0184 0.000367491 -1.62605e-19)
(1.12404 -0.878276 0)
(1.94251 -0.47745 -2.96045e-23)
(1.00968 -0.00359896 -1.08803e-19)
(0.995566 -0.0654097 2.87101e-19)
(1.04442 0.0663778 -6.25578e-22)
(0.835345 -1.52677 6.38915e-20)
(-0.104633 -0.173633 6.41423e-19)
(1.79211 0.143021 -3.31354e-20)
(0.479766 -1.40784 -7.04613e-20)
(0.801774 0.0148501 -3.90394e-19)
(0.765126 0.0238863 0)
(0.609622 -1.22036 -8.61174e-20)
(1.01524 -0.0306435 -3.17631e-20)
(0.974412 -0.0140831 0)
(1.04067 -0.00670433 -2.03842e-19)
(1.17123 -1.35524 5.01065e-20)
(-0.736902 0.962523 2.88448e-19)
(2.41392 -0.496747 0)
(-0.742909 1.31634 -4.57442e-19)
(1.6263 -0.356084 0)
(1.03582 -0.0228509 5.93919e-20)
(1.94967 1.03224 3.40337e-21)
(1.01687 -0.0126839 1.68651e-19)
(-0.799588 0.891358 2.61406e-19)
(1.01717 -0.00681439 0)
(0.99399 0.00354855 -4.09653e-19)
(1.01021 0.00104631 2.14645e-19)
(0.698362 0.664163 0)
(1.19361 0.559105 1.16453e-20)
(0.955746 -0.00164512 -1.83121e-19)
(-0.196107 -0.575571 7.0048e-19)
(1.00464 -0.00683515 -2.09406e-19)
(1.00294 -0.00207147 -4.92091e-19)