/*--------------------------------*- C++ -*----------------------------------*\
| =========                 |                                                 |
| \\      /  F ield         | OpenFOAM: The Open Source CFD Toolbox           |
|  \\    /   O peration     | Version:  2306                                  |
|   \\  /    A nd           | Website:  www.openfoam.com                      |
|    \\/     M anipulation  |                                                 |
\*---------------------------------------------------------------------------*/
FoamFile
{
    version     2.0;
    format      ascii;
    arch        "LSB;label=32;scalar=64";
    class       volScalarField;
    location    "27";
    object      p;
}
// * * * * * * * * * * * * * * * * * * * * * * * * * * * * * * * * * * * * * //

dimensions      [0 2 -2 0 0 0 0];

internalField   nonuniform List<scalar> 
2186
(
1.14905
0.0798234
0.376496
1.46317
-0.791721
0.136778
1.07558
-0.498058
-0.353591
1.70227
1.33961
-0.50997
-0.503963
1.36737
-0.138363
1.36664
1.39401
-0.825601
0.0916409
-0.707713
1.75217
-0.667296
1.37546
-0.582871
1.36679
1.43777
1.58985
1.29674
0.856698
1.36737
-0.681979
1.36714
-0.663344
-0.437813
-0.516813
0.339847
-0.49539
1.73433
-0.603368
0.114675
-0.505229
-0.649644
-0.25118
-0.766881
1.20927
1.68242
0.755659
0.917965
-1.15237
-0.796192
-0.690444
1.17627
-0.243794
1.65513
-0.657005
1.34495
-0.302613
1.37235
-0.696904
1.18282
-0.772056
0.918251
0.819701
0.129991
0.847552
0.860905
0.93926
1.64683
1.54231
-0.320505
-0.494693
-0.754418
1.62699
1.39037
1.51891
1.55072
-0.932802
1.38806
-0.521149
-0.625209
-0.986156
0.144177
1.36262
0.896668
1.35725
1.36378
1.63995
0.133831
-0.0285825
-0.528324
1.34416
-0.718084
1.29567
1.541
1.37606
0.674134
0.255725
0.869672
-0.789788
1.38535
-1.14796
-1.03846
0.931787
1.3109
1.39597
-0.734041
1.5249
-0.127527
1.32214
-1.06293
-0.576147
-0.778473
0.944414
1.64203
-0.407459
-0.586684
0.0779197
-1.22185
-0.528625
1.63317
0.193701
-0.829894
1.13466
-0.872252
1.37209
0.0448339
-0.783762
1.5385
-0.832344
1.05713
1.777
1.63524
0.646574
1.04897
-1.06119
-0.807458
1.31619
-0.274344
-0.472294
-0.493747
1.0742
0.209619
-0.496638
1.09929
1.28648
1.3231
-0.112401
-0.790287
1.00706
-0.748227
-0.757377
0.979349
1.39129
1.57784
1.43683
0.928258
1.62849
0.708605
0.600759
0.82601
-0.496514
-0.43998
1.33401
1.3778
0.0885547
0.114203
-0.462127
-0.531607
-0.218326
-0.303405
0.611786
1.38934
1.39463
1.50544
0.677901
-0.127449
-0.792132
1.33545
-0.565173
1.15289
-0.517735
1.38079
-0.699329
0.811743
0.786712
-0.782169
-0.65891
1.43936
-0.395754
-0.524047
-0.719929
1.6136
-1.12851
1.36334
-0.498179
-1.2489
0.306262
1.53161
1.37067
-0.676073
-0.472398
-1.36407
0.494152
1.39952
-0.515186
-0.773841
-0.542788
-1.02994
1.29633
-0.927142
0.91945
0.0299142
1.63259
1.10563
1.20717
1.34382
1.49688
1.36978
1.29372
1.41893
0.782161
-0.600405
-0.691279
0.328063
0.599186
-0.832926
-0.783567
1.3379
1.51292
-0.609595
-0.461118
-1.37845
0.777102
1.05029
1.16011
1.29591
1.51896
-0.949341
1.27784
-0.490477
-0.797975
-0.600288
1.29613
1.0012
1.4622
1.54726
1.42022
1.39349
-0.490858
1.22495
1.45626
-0.494722
1.28091
1.05145
-1.39114
-0.501686
-0.518797
1.46212
1.39042
-0.512237
-0.242736
-0.35933
1.35412
-0.910014
1.039
1.38678
1.23797
-0.475494
-0.695335
1.34922
0.918999
-0.0788466
-0.364623
1.68318
-0.770145
-0.493261
1.21894
1.58297
1.35942
-0.790589
-0.792043
-0.25394
1.23479
-0.498425
0.949278
1.3447
1.4084
0.219668
0.0199027
1.31671
-0.479375
1.31811
1.59451
1.3864
1.38378
0.0121856
-0.798009
-0.592817
-0.824616
-1.4094
-1.15975
0.78659
-0.12949
0.871823
1.57064
1.5198
1.23361
-0.175571
1.49221
-0.45477
0.00810439
-0.474403
-0.4968
-0.537596
0.757625
-0.753025
-0.728842
0.395384
1.25477
-0.970382
0.629105
-0.768594
-0.12733
-0.552549
-0.772865
1.58073
0.201623
-0.309675
-0.706335
1.1902
0.840456
-0.252683
0.923641
-1.41138
-0.522538
0.928149
1.39471
1.38006
-1.30123
1.51402
1.28948
0.627726
1.64477
1.36109
1.31142
0.773488
-0.519204
-0.492673
1.17008
-0.785885
-0.548199
-0.443143
-0.628478
-0.536974
1.69259
-0.735533
-0.694211
-0.490404
1.36095
-0.796748
-1.41774
-0.799916
1.16192
-0.299795
-0.47252
1.60444
1.6666
1.52745
-0.496462
-0.6274
1.70465
1.3666
-0.738979
0.711826
-0.48995
0.583654
1.52195
1.29884
1.25461
1.69013
-0.0653787
-0.528137
-0.721348
-0.565698
-0.287632
-0.644003
0.137799
1.62878
-0.88172
-0.26294
1.35088
0.987756
-0.49725
-1.00475
-0.490486
-0.820031
-0.468949
-0.501908
-0.72784
-0.771822
1.56836
-0.619143
-0.582729
1.38255
-0.439209
1.66278
-0.613741
-1.20595
-0.799745
1.36599
-0.51256
1.38898
1.2485
-0.694947
1.4254
-0.846151
-0.511523
-0.471862
1.41292
1.31525
-0.491017
-0.490787
-0.477328
1.29488
-0.445483
-0.286077
0.767736
1.28181
1.25827
1.09342
-0.487655
-0.770024
1.15747
-0.313961
1.1882
-0.693698
1.38809
0.179591
1.52796
-0.526236
1.25393
1.0052
1.39591
-0.459688
1.35583
-0.638884
-0.511984
1.36907
-1.35466
0.372116
-0.626628
0.0494856
1.36887
0.531038
0.698853
1.36375
0.481374
0.316206
0.0745356
-0.693559
0.658407
-0.511186
0.994446
-0.548646
1.37731
1.53645
-0.48954
-0.500373
-0.576125
-0.667253
0.688845
-0.562807
1.11897
0.402703
-0.511502
1.43894
-0.558226
0.620996
0.707113
-0.388148
1.07882
0.590803
-0.68677
-0.971529
-0.198776
-0.576012
1.38195
-0.971001
1.48745
1.62632
1.61065
0.931232
1.47862
-0.777698
-0.611712
1.27268
0.629706
1.35219
-0.645534
-0.518964
-0.589769
1.1782
-0.505129
-0.521168
-0.697041
-0.739775
0.201621
-0.213112
1.02596
1.01101
-0.480562
-0.167434
1.15303
0.489807
1.44649
-0.563425
0.0274201
-0.503468
1.03972
-0.111399
1.57538
1.71961
-0.739486
-0.781743
-0.429373
0.542461
-1.00101
1.44066
-0.192673
1.39636
1.07193
-0.600569
1.19377
1.15575
-1.28191
1.2537
-0.820394
-0.711662
-0.995185
-0.490182
-0.787189
-0.867074
-0.605432
1.36988
0.456319
-0.775637
0.99589
1.51627
1.61381
0.0747315
1.13977
-0.309851
1.18026
-0.229961
-1.09839
-0.727725
0.761256
1.11556
1.38564
-0.33044
-0.48406
-0.299212
-0.531748
0.303872
1.13272
-0.236931
0.168639
-0.546733
1.24993
-1.43096
1.30786
-0.71296
-0.616361
1.32161
1.05462
-0.912256
0.0309151
1.32059
1.69214
1.39019
-1.60694
-0.851467
1.19585
-0.653754
1.18195
-0.440443
0.703492
1.31733
-0.532467
-0.693619
1.34304
-0.408885
1.5681
0.0888948
1.28003
0.0725402
1.02394
-0.512693
1.61457
-0.700363
-1.10987
1.25963
0.787233
0.774233
-0.49858
-0.686933
-0.246551
1.09729
-0.160374
-0.71367
-1.30568
1.38299
0.653605
-0.833503
1.0473
1.19784
1.34259
-0.394993
-0.590938
-0.729835
1.38174
1.49587
0.899309
1.378
-0.0599217
1.44379
0.0815038
-0.181464
-0.690772
1.29837
1.34023
-0.491958
1.14023
-0.705899
1.1167
-0.783246
1.30548
1.34088
1.38309
-0.656494
1.23709
-1.05698
-0.603053
1.54207
-0.791486
-0.748554
1.45487
-0.265965
1.42189
-0.991167
-0.716356
1.35021
1.18185
1.75623
1.36731
-0.917774
1.48685
1.41995
-0.548966
0.909277
-0.125867
-0.473491
1.86427
-0.490442
1.46264
-0.763322
0.712423
1.36813
-0.512353
1.34891
-0.345298
1.22386
1.32302
1.3837
0.14434
-0.538517
-0.180954
0.977339
1.05505
1.45256
-0.461195
1.11998
-0.550095
-0.213163
-0.730727
1.23094
1.54946
-0.827179
-0.463795
-0.157354
1.59304
-0.197013
1.01932
-0.0553494
-1.2533
-0.491165
-0.681523
-1.41588
1.12382
-1.20192
-0.660126
-0.115457
-0.0709875
-0.716353
-0.4632
-0.523681
1.32774
1.38636
-0.508057
0.0910009
1.3438
1.31
1.38695
-1.21224
1.3411
1.438
1.36705
1.46338
-1.39516
-0.0621854
-0.696533
0.894372
1.37242
1.11152
0.569186
0.236854
-0.789597
0.0576946
1.66131
-0.36557
0.17966
-0.171493
0.0511882
-0.501932
1.08452
-0.570537
-0.398955
-0.510416
1.36387
1.36988
1.37495
-0.0104345
0.598699
1.64217
0.268411
1.36721
0.056439
0.0259709
1.05586
1.38514
1.4031
0.161165
1.33474
1.3341
-0.917901
0.220095
1.37565
1.38874
1.38658
-0.499454
-0.57679
1.38696
1.01528
1.37014
0.452598
0.0898293
0.164245
-0.524784
-0.571391
-0.746263
-0.263924
-0.310182
1.39192
1.39618
1.07101
-0.541017
1.36345
0.310844
0.126062
-0.0304667
1.36897
1.39219
1.3877
1.39906
1.37534
1.3679
1.35738
-0.189324
0.0650324
0.130501
0.155916
0.0501288
0.100056
-0.0148426
0.188321
0.311433
0.322662
-0.112056
1.36405
1.38266
1.37763
1.39946
1.39653
1.38789
1.39045
1.37273
1.37277
0.232438
0.130414
1.38797
1.38767
-0.0421425
1.39028
1.38788
0.129153
0.185649
0.221388
-0.802937
-0.965611
1.3699
-0.495231
1.36844
1.0265
1.47635
-0.492624
1.36915
1.29758
1.32245
-0.692931
-0.549741
-0.521543
0.292956
0.182671
-0.682921
1.38186
0.168937
1.45851
1.37284
0.0385885
1.49629
1.6527
-0.0268256
1.20964
1.07102
1.36493
1.38322
1.37827
-0.49194
0.751685
0.12456
1.37232
1.38354
-0.558873
0.285277
1.37344
0.0918561
-0.137626
1.37373
-0.34126
1.34889
1.38544
-0.21736
1.3808
0.071773
1.37071
1.43154
-0.95727
1.38729
1.39449
0.195273
0.995463
1.37314
1.37564
0.393325
-0.581686
1.12466
1.75339
1.3817
1.37486
1.37775
0.218856
1.37411
1.36333
1.37851
1.37357
1.37556
1.37379
1.46859
-1.44622
-0.292773
1.37583
1.368
0.549533
-0.383528
-0.566225
-1.67625
1.22025
-0.26676
-1.89244
0.181394
1.37068
1.13016
0.27941
-0.476219
-0.000143037
-1.04685
-0.767577
0.131578
-1.62134
-0.893212
-0.13203
1.37907
0.348403
1.36602
1.27471
-0.497606
1.57831
-1.43537
-0.840099
1.14133
1.45453
0.723502
-0.519396
1.36643
-0.0337067
1.37656
-0.79091
1.37719
-0.403731
1.36787
-0.00607729
-0.620733
1.37878
1.39392
1.29632
-0.22387
-0.529744
-0.595045
-0.182586
1.39254
1.25657
0.0601771
1.3671
1.41087
1.35841
-0.0825769
-0.940436
-0.23027
-1.46289
0.746116
1.37324
-0.0331024
1.37322
-1.1186
1.36896
1.40772
1.3808
0.0293431
-0.0442263
1.40763
-0.48596
1.38297
1.38572
0.434973
-0.499909
1.25532
1.48043
1.36591
1.35998
-0.506905
-0.920562
1.34693
0.826673
1.38114
1.25007
-0.770011
-0.494308
1.19483
1.63233
1.36843
0.758085
-1.90534
0.0183296
-1.43941
-1.87235
1.36013
-0.917333
1.35129
-0.814071
-0.495223
-0.782642
0.744381
-0.471601
-1.82229
-1.05169
1.36667
-0.520802
1.22578
-0.490798
0.251267
-0.61172
0.312683
-1.30806
1.33564
-0.0952824
-0.494401
-0.863798
-0.839927
1.36227
-1.37445
0.34971
-1.35416
1.4261
-1.56971
-0.492277
1.43788
1.36069
1.3532
0.891381
-0.501568
1.37229
1.3955
-0.919611
-0.745791
1.36639
1.20324
1.59346
1.38623
-0.820925
-1.09546
-0.753819
-0.565071
-0.762771
-0.508785
-0.144511
-0.46313
1.20685
0.400825
1.37992
1.56457
1.36362
-0.529361
-0.468247
1.36803
-0.750034
-0.919487
1.35252
0.202339
-0.783638
-1.12375
-0.73486
1.30761
1.27779
-1.14191
1.22101
0.985573
-1.17064
1.35824
-0.402758
1.15608
-0.701158
1.37428
-1.40647
0.834396
1.36934
1.419
-1.45051
-0.789962
1.17706
1.74
1.38942
1.34381
-1.10008
1.65286
-0.489355
-0.826828
-0.392594
0.884718
-1.4368
1.47836
1.55928
-0.490762
-0.807192
1.36394
-0.65502
1.24951
1.39861
1.32456
-1.3935
1.36917
0.0678884
1.39862
-0.00315294
-1.25405
0.0928951
1.37246
0.0952745
-0.270503
-1.83237
1.38312
-1.50667
1.52828
0.680349
1.66162
1.30893
-0.704974
1.35583
-0.720107
1.33467
1.3383
-0.417685
-1.79891
1.46011
1.35486
1.5579
1.31746
0.505553
1.31768
1.36299
1.21012
1.3756
-0.512735
-0.791506
-1.05818
1.48007
-0.462921
-0.622415
-0.70544
-0.627572
-1.44589
0.080243
1.18556
-1.25166
1.33212
1.38923
-0.75093
-0.317912
-0.726726
-0.243535
-0.821105
-0.720319
1.37055
-1.4796
1.38563
1.63286
1.4268
0.0348994
1.39239
1.29418
-0.285747
1.33974
1.3487
-0.751353
1.34847
1.26727
0.104463
-0.798792
1.84055
-1.43738
-0.716014
-0.500614
0.655407
1.35198
-0.785373
-1.265
-0.680925
1.49957
-0.747568
1.17569
1.37951
1.36051
-0.269058
1.34955
-1.45771
1.38156
1.39666
-0.221323
1.38728
0.800497
1.36609
1.11336
-1.23997
0.238311
0.0614189
0.153102
1.58936
0.195898
1.39346
1.74457
-0.825305
0.00933938
1.43713
0.0208879
1.43435
0.0256399
0.0711946
1.4319
1.43666
0.841166
-0.37928
1.08129
-0.6218
-0.77134
-0.492256
1.39095
1.37486
1.82536
-0.521077
-0.593867
1.15218
-0.536705
1.43741
1.3349
1.36937
1.35895
1.3338
-0.672289
-0.506182
-0.489948
1.15235
1.28085
-1.52969
-0.731646
-0.491156
1.38671
1.40966
-0.529064
-0.903108
1.40554
-1.02949
0.508266
1.09116
1.24764
-0.653531
-0.50458
0.00796672
-0.544653
-0.612024
-0.262868
-1.25419
1.78355
1.69707
-0.817401
-0.567111
1.38638
1.36318
-0.781603
0.364851
0.0688664
0.968058
1.46277
-0.278698
1.37641
-0.759932
-0.496767
-0.760621
-0.746823
-0.779712
1.36123
-0.545873
-0.239187
1.70888
-0.529715
1.37817
1.57533
-0.734113
1.4554
1.66316
-0.78866
1.57688
-0.518189
-0.484229
1.37034
-0.819006
1.42457
1.38054
-0.509342
1.43772
0.568785
-0.691252
1.41084
1.44312
-0.468454
-0.50945
1.3058
1.37045
-0.4938
-1.47781
1.61681
-0.502617
1.26864
-0.0905594
1.32422
-0.526867
-0.576222
-0.489274
-0.796293
1.42527
1.41186
1.70114
1.54085
1.30791
1.43
1.39716
-0.490308
1.46706
1.55466
-0.766817
-0.49755
-0.748502
1.65794
-1.10486
-0.480768
0.107429
1.26648
-0.775619
-0.830207
1.35264
1.43252
-0.489474
-0.741729
-0.48761
0.355985
-1.39628
-0.781529
-0.491727
1.21775
1.30698
-0.721285
-0.222637
-0.428321
1.16673
-0.502482
-0.806366
-0.494324
1.3578
-0.425412
-0.749465
1.74134
1.27955
0.815842
1.60663
-0.317282
1.39334
1.38082
1.50184
1.6203
-0.97781
1.00195
1.34454
0.687615
-0.4977
1.79076
1.34605
1.30236
1.44424
-0.758237
-0.365479
1.24727
1.14318
1.34241
-0.556991
-1.01597
1.36191
-0.494512
1.21931
-0.875033
1.75011
-0.502226
1.05869
1.15485
-0.704276
-0.506971
-0.954093
1.46337
-0.709588
-0.51777
1.1163
0.935967
-0.635473
1.43578
1.23805
-0.714677
-0.873717
1.31559
-0.469915
-0.512692
-0.483547
-0.680291
-0.192243
1.34032
1.38856
-0.952352
1.03761
1.37902
1.70212
0.699168
0.591326
0.308909
1.29311
-0.0158763
-0.69965
-0.981888
-0.36729
-0.695885
1.36039
-0.705927
0.474901
-0.517124
0.86465
0.988645
-0.690736
1.05292
-0.374876
0.91731
-0.686675
0.785919
-0.700255
0.814182
-0.525862
0.697504
-0.683236
1.23329
-0.474152
-0.683559
-0.69048
-0.511464
1.38761
0.516555
-0.720665
-0.536257
0.333608
0.415626
-0.702197
-0.504055
-0.766218
0.313076
-0.550601
0.159944
-0.583835
-0.0597356
-0.848233
0.142479
1.24579
0.112492
-0.566927
1.34584
0.191072
-0.10924
0.865687
1.34844
-0.962851
-0.877235
-0.531855
-0.691093
1.28364
1.7669
-0.635613
-1.30019
0.452045
-0.542678
-0.143555
0.0727362
1.33423
-0.773527
1.33343
-1.02262
1.82274
0.870182
1.82948
-0.734758
1.60209
-0.3146
1.41499
-0.207237
-0.529207
1.48877
1.37202
-1.21083
-0.517673
-0.686445
1.32428
-0.748059
1.35471
-0.856196
-0.485078
-0.489807
1.67236
1.39786
1.52271
1.37667
1.38944
-1.21667
-0.0231653
1.5416
-0.337846
-0.574441
1.75491
-0.738812
1.27317
1.34573
1.74835
1.82156
-0.750401
-0.361686
1.41217
0.65007
-0.0235974
-0.633591
-1.12471
-0.633893
-0.738527
0.960315
-0.733446
1.61329
-0.351304
1.38305
1.48807
1.39366
-1.00652
-0.509211
-0.581598
1.46358
-0.610605
1.50871
-0.509374
-0.68922
1.5756
1.71522
-0.542671
0.378676
1.3256
-0.606043
-0.763615
1.06739
1.60967
1.61371
-0.806039
1.23615
1.17746
-0.526779
1.62898
0.586365
-0.727181
-0.715352
0.089243
0.0896285
1.45864
-0.655911
0.561841
0.0361195
-0.099157
-0.744154
-0.525743
1.35674
-1.03768
1.37993
0.173772
0.512476
1.0933
0.684882
-0.530452
-0.395349
-0.750274
-0.226235
0.136989
-0.954722
1.26689
-0.50806
-0.180999
1.36402
-0.531382
-0.768437
1.38635
-0.46261
1.30525
0.0701191
-0.491645
0.103267
1.18982
-0.410117
-0.3216
1.28511
-0.488293
1.45175
-0.149647
-0.634082
-0.554824
-0.525204
1.8877
-1.22253
1.51935
0.131521
1.34196
1.55173
1.12497
1.40964
1.49441
0.10508
-1.33631
1.34914
1.494
1.75678
-0.536423
1.41308
0.993537
-0.522759
1.19561
1.62167
-0.361239
1.67759
0.433987
-0.824946
1.24333
-0.513056
-0.686682
1.32313
-0.242267
1.43472
1.46821
1.31792
-0.812517
1.24954
1.5962
-0.794033
-0.0947104
-1.40165
-1.03413
-0.607652
-0.512889
1.76402
1.1607
-0.793055
1.32242
-0.5053
-0.639148
1.68344
1.5597
-1.0317
-0.573462
-0.522408
-0.489262
1.36046
-0.784887
0.500884
-0.695642
-0.234893
1.44026
-0.494735
1.724
1.41425
1.27264
1.38672
1.63686
-0.665202
-0.499343
1.40277
1.54402
-0.799058
1.38418
-1.15519
-0.488588
-0.492449
1.41641
1.44586
-0.488558
-0.788112
0.959327
0.356512
-0.870036
1.34881
1.28953
-0.690164
1.33112
1.37551
-0.376365
-0.770704
-0.800967
-0.48988
-0.491566
1.7187
-0.658955
1.24109
-0.78079
1.72121
1.23773
1.19016
1.29169
-0.578849
-0.616696
-0.492075
0.836375
-0.746244
1.33059
0.715338
-0.395314
1.20807
1.41541
1.41087
1.37412
0.0436593
1.4134
0.0194085
0.827578
1.14494
-0.358025
-0.762378
-0.786734
-0.493886
1.38473
1.37848
1.38445
-0.303272
-0.378451
-0.495305
-0.613258
1.37979
1.62591
1.39343
-0.753968
-0.713148
-0.674303
-0.333004
-0.520011
-0.524934
0.0338113
1.36229
-0.839077
-0.718385
0.0324732
0.331743
1.03495
-0.937671
-0.499701
-0.385222
1.28657
1.80541
0.232954
1.47995
1.84299
0.970638
1.55949
-0.772851
-0.409877
1.8068
-0.504291
0.725642
-0.738768
-0.490746
-0.68112
-0.707548
1.36696
1.14444
1.52507
1.48614
0.0433817
1.1904
0.310339
0.00237479
-0.509632
1.48686
1.03686
1.38878
1.40541
0.119266
0.112109
1.40488
-0.313723
-0.530303
-0.712792
-0.6938
0.995805
-0.70256
1.33947
1.08178
-0.505219
1.643
-0.755332
-0.1006
1.35873
-0.695402
-0.589811
-0.328493
0.902632
-0.724957
-0.870156
1.23659
1.39702
-0.188803
0.472539
-0.429541
-0.514769
-0.700569
-0.919167
0.237076
1.01566
-0.634277
-0.699077
1.59938
0.538695
0.64767
-0.693658
-0.491647
1.37434
1.45524
0.827347
0.951405
-0.688753
-0.552778
-0.343767
0.745365
0.861856
-0.684925
1.19543
0.412649
-0.680718
1.78146
-0.68368
-0.283011
-0.489916
-0.624261
1.25438
-0.70033
-0.790616
-0.540228
0.430607
-0.739889
0.25714
-0.813014
0.257005
1.52048
-0.799793
0.249973
-0.567587
0.0642252
1.67563
1.79873
1.56373
1.37971
1.53938
-0.519788
1.36428
-0.761644
1.45093
-0.533351
-0.519397
1.67278
-0.229749
0.891037
-0.971753
1.79004
0.202652
1.72808
0.900793
1.10862
-0.731291
-0.743362
-0.528762
-0.844258
1.68571
1.54029
1.36036
1.03025
1.36964
1.27849
1.12635
-0.680315
-0.49034
0.525164
0.233128
1.09924
1.38103
0.392974
-0.732066
-0.676922
-0.372363
-0.530373
-1.22019
1.7526
1.39997
1.37636
0.0525519
0.0849504
1.40101
-0.935801
-0.515942
-0.290143
-0.530216
1.08805
-0.714917
-0.689438
0.115343
1.36705
-0.395443
-0.490508
1.36863
1.02346
1.1088
1.3654
-0.520146
1.18587
1.57589
1.24878
-0.523582
1.36492
0.774897
0.744843
-0.659401
-0.704824
1.79902
0.668115
-0.86765
0.461353
1.22747
1.31694
-0.562078
-0.550205
0.102336
-0.731389
-0.461417
-0.793682
0.0599501
1.35976
-0.800323
1.35004
1.66763
1.50028
1.342
1.42085
1.48525
1.36964
-0.640397
-0.23341
-0.200074
-0.611549
-0.386128
-0.687073
1.49634
1.38201
-0.506622
1.34801
-0.779671
-0.449277
-0.684706
-1.14049
0.94351
-0.396981
1.35548
1.21892
-0.908825
0.0230222
1.70472
-0.362035
-0.310398
-0.400644
-0.794534
-0.650965
1.41736
1.08332
1.48877
-0.553452
-0.821074
-0.494584
-0.145429
-0.509257
-0.273641
-0.798564
-0.456813
1.22912
-0.327234
1.85561
-0.941454
-0.143415
-0.561246
-0.685263
1.31456
-0.569481
-0.581236
-0.477629
0.126069
1.52138
1.61525
-0.494678
-0.836373
1.13562
-0.548771
-0.437153
1.49368
-0.946978
-1.3019
-0.848261
1.05766
-0.00213875
-0.513892
1.35997
0.269267
-0.785638
1.36869
-0.747799
-0.788777
-0.803456
-0.765054
0.358735
-0.516804
1.64951
-0.5016
0.581932
-0.532814
1.10048
-0.643665
-0.664167
0.943879
1.15468
1.42816
1.33969
1.52519
-0.697951
1.2335
0.955539
-0.784448
1.27844
-0.16097
-0.67459
-0.409644
1.5736
1.55689
-0.667057
-0.693855
-0.610112
1.33199
-0.750023
0.336208
-0.374132
-0.691505
1.61636
1.34105
-0.73694
-0.808608
-0.740374
-0.722859
1.25745
-0.771576
1.30352
0.499497
1.00699
1.14691
-0.664419
-0.710938
1.26278
-0.68955
0.0456607
1.65169
-0.494088
-0.718022
1.12448
-0.799127
-0.797646
0.241736
-0.563659
1.73207
-0.198922
0.565468
-0.741065
1.71383
-0.751254
-0.809217
0.938745
-0.383392
-0.532849
1.7226
0.970435
1.41639
-0.794684
1.55827
-0.930576
-0.315541
-0.787681
-0.78819
-0.756122
1.59142
0.866753
-0.492316
-0.748563
-0.523376
1.47032
-0.825338
1.68918
-0.531341
1.04262
-0.710839
0.649245
0.827511
0.791085
0.704776
0.601013
-0.811541
1.33923
-0.78411
-0.502773
-0.407682
0.688179
1.72928
0.135192
-0.79821
-0.766675
-0.714324
0.535616
-0.932677
-0.707377
1.25383
0.603747
-0.727758
1.7933
-0.518221
-0.816222
1.74179
-0.717859
0.413156
-0.792056
-0.686156
-0.703487
1.76759
-0.673671
1.66368
-0.70068
-0.737558
1.51673
0.224986
-0.798798
0.856195
-0.5544
0.270176
0.0181508
-0.707689
1.19879
-0.47627
-0.709083
-0.68831
-0.686887
-0.537508
1.23384
0.085168
0.0189086
-0.731443
1.68895
-0.434359
-0.801056
-0.654103
0.252884
-0.822319
-0.667552
-0.726547
0.341997
1.57388
-0.761094
-0.525783
-0.818037
-0.262275
-0.000734766
-0.54262
1.77555
1.70099
0.695635
-0.705813
-0.534365
0.604891
-0.5319
1.78012
0.475813
1.48154
0.998197
1.69261
0.349134
-0.830667
-0.682269
0.186332
-0.78438
0.185778
0.306033
-0.7002
1.67972
0.170841
0.488468
0.0665421
-0.51497
-0.724003
)
;

boundaryField
{
    frontback
    {
        type            empty;
    }
    Top
    {
        type            zeroGradient;
    }
    outlet
    {
        type            fixedValue;
        value           uniform 0;
    }
    bottom
    {
        type            zeroGradient;
    }
    Inlet
    {
        type            zeroGradient;
    }
    rectangle
    {
        type            zeroGradient;
    }
}


// ************************************************************************* //
