/*--------------------------------*- C++ -*----------------------------------*\
| =========                 |                                                 |
| \\      /  F ield         | OpenFOAM: The Open Source CFD Toolbox           |
|  \\    /   O peration     | Version:  2306                                  |
|   \\  /    A nd           | Website:  www.openfoam.com                      |
|    \\/     M anipulation  |                                                 |
\*---------------------------------------------------------------------------*/
FoamFile
{
    version     2.0;
    format      ascii;
    arch        "LSB;label=32;scalar=64";
    class       surfaceScalarField;
    location    "27";
    object      phi;
}
// * * * * * * * * * * * * * * * * * * * * * * * * * * * * * * * * * * * * * //

dimensions      [0 3 -1 0 0 0 0];

oriented        oriented;

internalField   nonuniform List<scalar> 
3181
(
-1.00536
0.386408
0.618952
-0.380069
0.35553
0.0245385
0.506487
-0.349181
-0.157306
0.112604
-0.188704
0.0761
-0.0535783
0.0669338
-0.0133555
0.717835
1.08592
-1.80376
0.142869
-0.136818
-0.00605127
-0.0105829
0.000957435
0.00962549
0.505014
-0.754991
0.249977
-0.0767007
0.128173
-0.051472
-0.0105638
-0.0541729
0.0647368
0.135884
0.0405528
-0.176437
-0.0041531
0.0115113
-0.00735822
-1.0984
0.155331
0.943073
-0.313761
0.680002
-0.366241
-1.12381
0.642746
0.481061
0.0840658
-0.930361
0.846295
-0.131602
0.153203
-0.0216015
-1.29373
-0.291645
-0.00218702
0.0795359
-0.0773489
0.0531374
-0.0960101
0.0428727
-0.0712369
0.0660563
0.00518058
1.06329
-1.04093
-0.0223532
0.0371064
0.027752
-0.0648584
-0.957981
0.332568
0.625414
-0.105612
0.218216
0.301801
-0.257649
-0.0441518
0.0282664
0.0596819
-0.0879483
-0.427958
0.353689
0.0742689
-0.0351168
-0.0186387
0.0223236
-0.00368484
-0.0431373
-0.914844
0.0948791
-0.066503
-0.0283761
0.377089
1.18342
-1.56051
-0.0610551
0.0490036
0.0120515
0.185736
0.287836
-0.473572
1.81278
-1.43569
0.0773886
-0.0242512
1.62219
-0.856306
-0.76588
-0.823922
1.54176
0.00879492
-0.012948
-0.0623211
-0.00891581
-0.399304
0.0855428
-0.155988
0.0936666
-0.650092
0.124715
0.525377
-0.138425
0.0617242
-0.162982
0.166971
-0.00398908
-0.259953
-0.0757135
0.335667
0.107855
1.39246
-1.50032
0.0784978
0.0775724
-0.15607
-0.0208257
-0.105066
0.111494
-0.00642769
0.491143
0.188859
-0.0939593
0.153571
-0.0596122
0.0764518
0.0184273
-0.163172
0.187972
-0.0248001
0.157082
0.0575464
-0.214628
0.103859
-0.109566
0.00570734
1.29197
0.330214
-0.829124
-0.176235
0.0349761
-1.64145
1.60647
0.568512
0.243012
-0.811524
-0.459565
-0.21729
0.676855
-1.48353
0.659607
-0.285295
0.853808
-0.309899
-0.10283
0.412729
-0.213937
-0.214021
-0.182211
0.172482
0.009729
0.155511
0.275956
-0.431467
-0.245161
0.750175
-0.0070947
-0.00348822
-1.99942
2.03439
0.170614
0.131187
-0.166495
-0.110327
0.276822
-0.267037
0.36852
-0.101484
-0.0757907
0.0842936
-0.0085029
-1.89156
-0.919897
0.0106176
0.90928
-0.0249291
-0.036126
-1.12095
0.838467
0.28248
0.286784
-0.18984
-0.0969445
-1.28838
-0.195153
1.10199
-0.946661
-0.74486
1.14495
-0.201872
1.05885
0.180428
-0.169986
-0.0104425
1.68042
-0.594503
1.42445
-1.42445
-0.00752658
-0.00232944
0.00985601
-0.200215
-0.0530416
0.253256
0.112784
-0.0879284
-0.0248561
-0.457046
0.820314
-0.363267
-0.0349238
-0.216153
0.251077
-1.08299
0.0420586
0.362132
0.0566823
-0.418814
0.126418
-0.888103
1.13111
0.0732122
0.0432233
-0.116436
-0.0180011
-0.14517
-0.202612
-0.0703033
0.272915
-0.0971429
-0.105469
0.125773
-1.01388
0.313893
-0.770939
0.924803
-0.840737
0.00203089
0.13756
-0.139591
0.0920889
0.0545562
-0.146645
-1.27227
-0.119131
1.3914
-0.230338
0.393866
-0.163528
-0.811923
-0.0593922
0.871316
-0.496353
-0.624594
0.115172
-0.036674
-0.147357
0.141902
0.00545456
-0.0793469
-0.0196679
0.0990149
-0.576612
-0.178379
0.0385773
-0.0103786
-0.0281987
-0.859221
-0.649198
1.50842
1.79472
-0.40226
-0.0201617
0.0126351
0.0202214
0.150392
-0.209128
0.394864
0.0637727
0.081494
-0.145267
0.145943
0.0715258
-0.217469
0.0342273
0.158108
-0.192336
-0.593668
-0.530139
-1.40506
0.545842
-0.0311829
0.104395
-0.0959666
0.173941
-0.0779745
-0.0973745
0.0236277
0.119241
-0.0561698
0.0629457
-0.00677588
-0.0892416
-0.0190356
0.108277
0.0722018
-0.0722018
-0.177896
0.201524
0.189642
0.141345
0.0991748
0.0887969
-1.17651
0.931347
-1.61132
0.0967182
1.5146
0.00822506
-0.0106802
0.00245511
-0.0278924
-0.0539397
0.0818321
0.511696
-0.0137314
-0.497965
0.00639033
-0.00688955
0.000499222
-0.191506
0.0136094
0.168881
0.651432
-0.351883
0.520764
-0.111502
-1.16077
-0.0898956
0.0363174
0.468358
-0.288973
-0.179384
0.101629
-0.0956672
-0.0059622
0.0471538
-0.307107
0.0229443
-0.942841
0.0479848
-0.143951
-0.272107
-0.385612
0.0864689
1.43961
-0.972173
-0.467442
1.12397
0.31564
0.0653473
0.270319
0.00333685
0.0048882
0.0794348
0.0167768
-0.0962116
-0.247023
-0.598845
0.845868
-0.340666
0.386693
0.604022
-0.895667
0.17299
0.02628
-0.0272352
0.000955257
-1.81096
0.109796
1.70116
-0.0867358
-1.72422
-0.31597
0.678102
-0.907416
-0.0147625
0.00610172
-0.279222
0.27312
1.51377
-1.64012
0.126342
-0.0674703
-0.0224253
0.582888
-0.829911
0.212207
-0.252661
0.0404541
-0.303554
-0.128424
0.431979
0.19927
-1.00999
-0.072998
-0.024385
-0.0529639
-0.58123
0.36394
-0.257637
0.0191306
0.238507
0.029193
-0.0966633
-0.032237
0.032237
-0.126951
0.139664
-0.0127129
-0.288703
-1.32262
-0.0177886
-0.00108759
0.0188762
0.0329949
-0.0782907
0.0452958
-0.231804
0.0495929
1.57927
-0.406093
-1.17318
-0.175558
0.430352
-0.254794
0.00704433
-0.00778762
0.000743296
-1.04875
0.236829
-0.193486
-0.00506966
0.198556
-0.161225
0.316736
-0.107531
0.105786
0.00174534
0.0787327
0.0113186
-0.0900512
-0.0310122
0.00401993
0.0269922
0.150867
0.784673
-0.93554
-0.212593
-0.0487793
0.261373
-0.681408
0.662713
0.0186949
-0.0087706
0.0365226
0.0244298
-0.0252902
0.000860401
-0.0225498
-0.0423085
0.958287
0.836435
0.169752
-0.897314
0.727562
-0.0161674
2.0674
-2.05124
0.365528
0.418225
1.00622
0.0742245
0.214171
-0.0682279
-0.0751147
-0.0299517
0.22378
0.167907
-0.0758181
0.734327
-0.401759
0.0588282
0.194428
0.0589321
-0.177114
0.118182
-0.737495
-0.127355
0.86485
0.0209177
-0.0209177
-0.0644721
-0.27634
0.564176
0.0109305
-0.223524
0.10155
0.0516535
0.0366627
-0.0678456
0.14427
-0.154834
-0.347458
0.312534
0.0165924
0.0504186
-0.067011
0.375405
-0.334852
0.0370362
0.0986136
-0.13565
-0.19856
0.263907
0.181618
-0.470592
-0.199238
0.585645
0.158003
-0.0319224
0.0319224
0.13987
0.0848404
-0.224711
0.365293
0.0285726
-0.00372141
0.00135519
0.00236622
-0.112847
0.0485492
-0.00997188
-0.0510727
0.195343
-0.189582
0.252829
-0.063247
0.139675
0.0282317
-0.381041
0.123392
0.202663
-0.0629881
-0.0483319
-0.059199
0.00607952
0.00649191
-0.0125714
0.141394
-0.100414
-0.0409796
-0.0331879
0.41348
-0.380292
-1.82478e-05
-0.00707645
0.110179
-0.114711
0.00453139
0.0245898
0.229318
-0.192282
-0.0554835
0.0339066
0.0215769
-0.0397601
0.0815601
-0.0418
-0.0987193
0.0967319
-0.720083
0.623351
-0.00899369
-1.30828
-0.388774
1.69706
0.205429
1.24897
-1.4544
0.0790588
-0.0502339
0.208342
0.29351
0.257461
-0.550972
-0.211278
0.27021
0.13048
-0.858311
0.727831
-0.0724266
0.0326665
-0.0385328
0.0141477
-0.98017
0.441067
0.539103
0.972173
-0.846399
-1.54884
1.42971
-1.51377
1.61049
0.0365607
-0.0961729
0.00268677
0.0217431
0.0025913
0.766887
-0.636407
0.114382
-0.0663973
0.41027
0.734676
-0.0801182
-1.73898
1.72281
-0.656734
-0.519774
-0.242938
-0.407154
-0.0129663
-0.158865
0.206019
-0.569901
-0.355217
0.179659
0.747449
-0.235753
-0.821013
-0.727825
0.75264
-0.0412155
-0.0312111
0.266825
0.0358279
-0.0358279
0.66967
0.149894
-0.819563
-0.226077
0.895746
0.610884
-0.764791
0.153907
0.129181
0.0121639
0.00463654
0.00917059
-0.0138071
-1.64145
-1.08652
0.684255
1.05175
0.527525
-0.0336489
-0.129333
-0.242857
0.734
-0.207204
-0.0504337
-0.00267523
-0.0731155
-0.0584127
0.112969
0.38727
-0.262555
-0.768235
-0.300224
-0.0286714
0.0685608
-0.0398894
-1.15352
1.57174
-0.0293654
-0.00383947
0.0332049
0.0228316
-0.0194947
0.0267471
-0.0274308
0.000683675
0.0110935
0.401635
0.0568088
0.0448206
0.0142639
0.0199434
-0.0342072
-0.0166574
-0.176829
-0.74347
0.386549
0.356921
1.22039
-2.26579
1.04539
0.144583
-0.166707
0.0221241
0.0258977
0.0892741
-0.12952
-1.29493
0.00941662
0.0173305
-0.083657
0.0469831
0.149558
-0.358686
-1.88019
0.449764
1.43043
0.0483123
0.0888417
0.0525519
-0.737495
0.740211
-0.589344
-0.00652244
-0.0209084
0.0456249
-0.641894
-0.0395143
0.0635019
0.139162
-0.264079
0.0218506
-0.453318
0.117063
0.361599
-0.304917
-0.106906
0.0176641
0.218975
0.842639
-1.06161
0.106265
-0.701786
0.595521
-0.904566
0.777211
-1.44461
0.0629416
1.38166
-0.00206029
0.00127714
0.000783149
0.181572
-0.485127
0.217991
-0.127105
-0.0908859
0.0571074
0.0244527
-0.0685042
0.0398328
-0.0113193
0.0142581
-0.0368079
0.0195747
0.0904109
-0.109986
0.816313
0.00367489
-0.00344989
-0.000225003
0.0110684
-0.0181449
0.861721
0.0380988
-0.0605241
-0.334564
-0.751951
0.085536
0.0436452
0.0070503
0.0817914
-1.38166
1.29493
0.0123884
-0.162882
0.150494
-0.264846
0.0948602
0.120424
-0.130867
-0.00123025
0.0855238
0.00734777
-1.95034
0.070143
-0.0522766
0.0718512
0.741286
-0.260225
-0.0692779
0.102273
0.360885
-0.00720773
0.00348632
-0.00761668
0.0798184
0.141207
0.227313
0.157061
-0.346433
0.189373
0.101294
0.550139
-0.0281304
-0.110294
0.876101
-0.224043
-0.652058
-1.44461
-0.407255
1.62765
1.81278
-0.151462
0.154854
-0.00339168
0.378769
-0.0765743
-0.302195
-0.0937039
-1.19467
-0.0800666
0.081433
-0.00136632
-0.0360383
-0.0973425
0.133381
0.367224
-0.870467
0.503243
0.0384966
0.666434
-0.70493
-0.0426589
-0.104698
-0.0537755
-0.00170803
0.212709
-0.072838
0.000701146
-0.00276143
0.0797553
0.0149695
-0.0947247
0.0622744
0.0171605
0.00986051
0.0129711
0.0300899
0.10747
-0.023094
-0.00219622
0.204743
-0.420896
-0.148131
1.3971
-0.0106747
-0.010243
-0.991117
-0.0188776
-0.0517275
-0.067883
-0.0390227
0.083358
0.128849
0.282603
-0.716429
0.433826
0.088767
-0.00323097
-0.93729
-0.00937063
-0.0106428
-0.649481
0.746213
-0.0166493
0.174652
0.214814
-0.979604
0.188423
-0.427972
0.239549
-0.0487558
0.13025
0.00762221
-0.00837786
0.000755648
-0.0359934
0.00498119
-0.0194212
-0.125749
0.731226
-0.624961
-0.0211089
-0.000715824
0.032909
0.324926
-0.167866
-0.0838232
0.937896
-0.256079
-0.681817
-0.126361
0.145492
-0.510503
-0.232966
-0.544418
0.581176
-0.567649
-0.0135267
-0.0447988
0.0236899
-1.73898
0.568351
-0.568351
-1.66759
1.66759
0.766887
-0.0909593
0.254564
-0.163605
-0.899546
-0.0915706
0.655524
-0.38383
-0.271693
0.149287
-0.227262
-0.0136259
-0.00653574
-0.923956
-0.0899198
-0.932995
0.212912
0.0433384
0.0252224
0.695939
-0.0973966
-0.598543
1.58369
0.229091
-0.0033335
0.0109557
-0.959643
0.775822
-0.677208
-0.0826327
-0.629135
0.711767
0.0372299
-0.909643
-0.730474
0.221934
-0.815602
-0.86485
1.28099
-0.416137
-0.137277
0.270917
-0.133639
-0.0376283
0.733568
-0.111973
-0.939435
0.939435
-0.588428
0.642285
-0.0538569
0.00190068
0.00177421
-0.0155161
-0.45135
0.876969
-0.038502
-0.091332
-0.0331526
-0.00150299
0.0012196
0.00582473
1.87235
-1.80941
-0.34714
0.425873
-0.663673
1.05722
-0.39355
-0.0288211
0.0382377
0.130306
-0.0587804
0.341552
-0.000393998
0.0119053
0.359216
0.0542639
0.0444172
-0.258614
0.214197
0.134078
0.0328931
0.102414
0.189
1.71118
0.323215
-0.423205
0.297895
0.12531
-1.3215
1.43129
0.237943
-0.144276
0.0746906
-0.766327
0.691637
-0.514164
0.111943
-0.459401
-0.0747482
0.126287
-0.051539
0.118323
-0.193071
-0.466855
-0.114375
-0.076645
0.0800266
-0.00338163
-0.0051092
-0.0179848
0.0248499
-0.00642259
0.636407
-0.595521
-0.0408864
-0.281413
0.292343
0.881136
0.640629
-0.26186
0.00900092
-0.0100885
-0.0660159
-0.186645
0.158889
-0.558176
0.399287
-0.00825823
-0.000119632
0.129638
-0.307601
0.177962
0.00520282
-0.0117196
0.0065168
-0.0253194
0.0169909
0.00832851
-0.95785
0.363346
-0.0935145
-1.21477
-0.209394
-0.846399
1.61049
1.42971
-0.184455
-0.166845
0.118065
-0.0673138
0.0733973
-0.0060836
-0.287138
0.441414
-0.154276
0.577248
0.0782755
-0.00243416
-0.00582407
0.127004
-0.955299
0.0331526
-0.0565708
0.00429425
-0.322371
0.256356
-0.0343619
0.0710246
-0.238357
0.613762
1.12397
0.162475
-0.0580255
0.00101118
0.0570143
1.7611
-0.331396
-0.0580033
-0.051563
-1.01023
0.16383
0.426463
-0.227192
-0.485963
-0.143611
0.629574
0.846528
-0.382633
-0.463895
-0.0989202
0.381524
-1.72281
0.0813596
-0.0118463
-0.0512297
0.063076
0.257203
1.8102
-0.168644
0.173281
-0.107495
2.24555
-0.635054
-0.669992
0.0419536
0.628038
0.401763
0.0207381
-0.35919
0.504593
0.777841
0.075602
0.0729382
-0.0203863
-1.49712
0.212047
1.28507
1.30895
0.0760858
-0.0618219
-0.0548741
-0.369399
0.117661
-0.328939
0.41026
0.527636
-0.00342921
-0.0413696
0.152245
-0.303708
-0.0241006
0.01533
0.106942
-0.142776
0.0358337
-0.287191
0.299007
-0.0118163
0.108395
-0.364474
-1.8854
0.465114
1.42029
-0.0441198
-0.011442
0.0555617
0.286231
0.0386951
0.462876
0.277335
-0.673363
0.673363
1.60647
1.58369
-0.701786
0.310562
0.467279
-0.194889
-0.0298218
0.957064
-0.379816
0.0115669
-0.884776
0.873209
0.119422
0.00875066
0.0252563
0.332406
0.130471
0.0655115
-0.165812
-0.112145
0.277957
0.161867
-0.492494
0.326682
-1.14501
-0.298815
-0.661796
0.0195599
-0.00314107
-0.00030882
-0.228772
-0.0601449
0.0202555
0.0316713
-0.156471
0.124799
-0.594128
0.0057001
-0.00542868
0.0651106
0.0120162
-0.108343
0.096327
-0.54535
0.365966
-0.149969
0.200388
0.224964
-0.00848443
-0.0300483
-0.852127
0.446034
0.0364978
0.0736815
-0.00240084
0.0353098
0.209923
0.00806734
-0.441879
1.57164
0.50657
0.6303
0.865723
-0.791033
0.821143
-0.460258
-0.638224
0.186874
0.157807
-0.796672
0.777594
0.0190777
0.776155
-0.365895
-0.20779
-0.139351
-0.0824363
-0.00549213
0.950014
-0.838784
-0.11123
-0.195507
0.119688
0.02619
0.115712
0.877016
-0.116056
-0.00113936
0.117195
-0.315016
-0.0402003
0.0472601
-0.0352439
0.159734
1.23167
1.90437
-0.320681
0.162683
0.548605
-0.711288
-0.122428
0.0527137
-0.0173643
0.00887983
-0.526782
-0.111442
0.107341
-0.0781476
-0.197984
0.146911
-0.512464
0.25767
-0.992404
-0.0325735
-0.295754
-0.662486
1.5763
-0.061702
-0.297504
-0.118316
-0.204056
0.566723
0.315478
0.0437386
1.14381
-0.776587
-0.202025
0.139037
-0.221321
0.089379
0.131942
-0.0242856
0.0124394
0.0516126
-0.0605138
-0.226677
-0.107642
0.6978
-0.428165
-0.269636
0.111
0.126062
-0.0911167
-0.0349458
0.245898
0.0695796
-0.0636347
-1.39076
-0.100741
0.146366
0.0880592
-0.204115
-0.0522514
0.0104514
-0.0269385
0.0124624
0.0144761
-0.0120864
0.00140625
-0.254159
0.0770444
-0.0486842
-0.535867
0.39859
0.0278088
0.0458121
-0.0899319
-0.696241
1.41952
-0.891886
0.0155804
-0.203303
0.187722
-0.145922
-0.5273
0.673222
0.062847
-0.704741
-1.18819
-0.69721
0.0157966
0.000803013
-0.0165997
-0.242223
-0.581176
-0.156319
-0.126593
-1.49712
-0.242831
0.174603
0.0970648
-1.19628
-0.193409
0.0395444
0.153865
0.253149
0.105879
0.496914
0.239244
-0.736158
-0.0633221
0.0221066
1.03835
0.138672
-1.17702
-0.215253
0.0945457
1.33675
-0.253291
0.190044
-0.473406
0.567952
0.209847
-0.28015
0.00494608
-0.00235478
-0.010518
1.04639
-0.416094
0.760126
0.0864016
-1.71815
-0.232191
0.249978
0.707085
0.881991
-0.00588954
-0.0201165
-1.90437
-0.661796
-0.712429
0.723046
0.0434113
-0.821013
0.666434
0.585304
-0.930355
0.718949
0.00053184
-0.797204
-0.316029
0.639159
-0.761908
0.122748
0.0764133
0.0496492
-0.941287
-0.352912
1.87603
-1.52312
0.000330185
-0.00347126
-0.275494
0.22506
0.702006
0.212094
-0.198485
-0.174461
0.627386
-1.27658
0.279939
-0.443544
0.372573
0.182751
-0.555324
-1.54326
1.75531
0.0617359
-0.170079
0.113756
0.932157
-1.28507
0.00226727
0.222585
-0.00990356
0.0412956
-0.0930231
0.0113177
-0.0337663
0.0224486
-1.02751
-0.0341076
0.306162
-0.805573
-0.997895
1.47248
-0.47458
0.38564
0.671583
-0.0460134
0.0491462
-0.00313275
-0.299445
0.926831
-0.719954
0.920728
0.0800435
-1.07794
0.328312
-0.105727
-0.584012
-0.408392
-0.782421
1.15499
-0.0523168
-0.884245
-1.94056
-0.110671
0.932157
0.051387
-0.85696
0.830471
-0.645956
-0.184515
-0.981853
0.397841
0.0110801
0.111098
0.000762799
-0.111861
-0.971526
0.563134
-0.203994
0.913233
-0.922603
0.200355
-0.217013
-0.100051
0.249609
0.279078
0.621879
-0.0959459
-1.20526
0.523443
0.915911
-0.840309
-0.552906
-0.518298
1.0712
0.447094
0.0195154
-0.0103448
-0.739038
0.70493
0.276857
-0.576302
-1.00622
0.78436
0.221864
1.29675
0.175728
0.771773
-0.80689
-0.493394
-0.449447
-0.471676
-0.499849
0.804099
-0.804099
0.687651
-0.687651
-0.739038
-0.589207
0.589207
-0.784359
-1.19969
-0.584322
-0.18309
-0.00909611
0.00909611
0.276857
-0.576302
0.771773
0.764831
-0.764831
0.80689
0.758452
-0.758452
0.506606
0.528324
0.481702
0.267761
-0.500151
-0.550553
1.07888
-0.719821
-1.6162
0.833779
0.20261
-0.140874
-0.355855
-0.0119507
0.0500496
-0.884504
0.0885503
0.795954
-0.0061239
-0.00684237
-0.9941
0.592341
0.882681
-0.572119
-0.12282
0.00373225
-0.00161145
-0.820893
-0.0764217
-0.539103
-0.0120047
0.0261524
0.442505
0.00588746
-0.0267958
0.180345
-0.000347128
-0.00786019
0.00820731
-0.812062
0.0680675
0.743995
0.0114751
0.267603
-0.525452
0.425529
0.0999226
0.915396
-0.745302
-0.170094
0.0828209
0.312043
-0.0142496
-0.0623954
-0.066743
-0.0133237
0.577853
-1.73137
-0.868596
0.0950132
-0.747548
0.794488
-0.0469392
0.120442
-0.900308
0.779866
-0.803904
0.902507
-0.0986038
-0.0163136
0.00422718
0.0201071
-0.299329
0.464748
0.690247
-0.0907535
-0.79375
0.915134
-0.0899143
-0.82522
-0.0443473
0.0155262
0.214085
0.824643
-1.33901
0.477567
-0.399291
0.098162
-0.891912
1.43569
0.231896
-0.794106
-0.003098
1.01655
-0.896107
1.09108
0.853695
-1.04239
0.18869
-0.884459
-0.10964
-0.427538
0.0472455
-0.0869188
0.520745
-0.783709
0.783709
-0.624651
-0.082627
-0.863219
0.117917
-0.987223
0.90459
0.0796466
-0.206751
-0.0550265
0.0508762
0.0120695
0.186024
0.830525
0.81988
0.773996
0.136192
-0.910188
-0.942804
0.801931
-0.784651
-0.10142
0.886071
0.162075
-0.882029
-0.677195
0.88578
-0.787618
-0.102723
0.46145
-0.00738473
-0.454065
-0.555074
1.57315
-1.01807
0.160435
-0.0281179
-0.132317
-0.887374
-0.828369
0.0808205
0.54925
0.271892
-1.87304
0.49132
-0.596422
0.596422
-0.755037
-0.450222
0.367803
-0.237333
-0.597894
1.06301
0.784361
-0.192635
0.588608
-0.225261
1.12081
-0.885914
-0.234898
-0.585115
-1.68067
0.118857
-0.0891096
0.069257
-0.658601
0.084625
0.314861
-0.23204
0.782428
-0.881032
0.91613
-0.114199
-0.141939
0.73428
0.596942
-0.596942
-0.0313124
0.0118176
0.117983
-0.086312
1.08501
0.488134
0.127019
0.00229614
0.00832741
-0.0106235
-0.676435
0.691796
-0.0153613
-0.214727
-0.827658
0.104946
-0.892564
-1.12374
1.43399
-0.310254
-0.0188492
0.872911
-1.74137
1.52665
-0.756372
0.611899
-0.651414
-0.676336
0.165833
0.293154
0.0268932
0.111089
-0.00549817
0.298652
0.00051907
0.0186112
0.0611868
0.733301
0.687146
-0.0752468
0.0691436
0.792577
-0.0986975
-0.364524
0.463221
-0.339637
0.495643
0.130398
-0.914235
0.697204
0.217031
-0.68531
-0.130292
0.722329
-0.255618
0.18278
-0.0324154
0.485901
0.514099
-0.771681
-0.109351
-0.342065
-0.825982
-0.00250762
-0.249404
0.400811
0.599189
-0.0182176
7.27239e-05
-0.861595
-0.0544813
-0.596932
-0.156136
-0.234851
0.390987
0.00622998
0.00111778
0.11938
0.0759629
-0.128194
-0.125965
0.763271
-0.649547
0.718691
0.552231
-0.557729
-0.453533
0.539988
-0.0864545
-0.744483
-0.183895
0.928378
-0.232209
0.220104
-0.0256758
-0.0603728
-0.0362905
-0.00194348
0.735751
-0.139328
0.110153
0.114811
-0.734628
0.0581931
0.859124
0.317264
-0.0453288
-0.090321
-0.168076
-0.280028
1.0147
-0.0015286
0.0728853
-0.180381
-0.00289942
-0.0394711
0.0121273
0.26767
0.591453
0.586391
-0.79714
0.210749
0.844091
-0.0345001
0.00157379
0.0329263
0.13496
-1.26059e-06
0.000702407
0.211008
-0.104066
0.307059
-0.904953
0.802268
-0.215877
0.00463721
0.276493
-0.257152
-1.04778
1.33942
-0.291636
-0.778827
0.828373
-0.0495466
0.143667
0.232844
-0.0229977
-0.0830411
1.35268
-0.466845
-0.0586065
0.27022
0.439404
0.178204
-0.617608
0.38657
0.028552
0.663244
-0.571745
0.575626
-0.00388068
1.0828
-0.516072
-0.03918
0.0447876
-0.00560759
0.702152
-0.00980304
-0.0822463
0.0184088
1.2815
0.783267
-0.6396
0.0827065
0.0876862
-0.0991282
0.109818
-0.0545338
-0.0552839
0.0199636
-0.00864595
0.502509
-0.363837
-0.0430666
0.210301
-0.0247105
-0.0767029
0.236067
0.0917386
0.00279255
0.0292424
0.763339
0.828747
-0.46569
-0.363057
-0.76463
0.385512
0.379118
0.644478
0.118422
-0.0303188
-0.0286175
0.0589363
-0.166239
0.324082
-1.21
-0.0130184
0.765659
0.728081
0.666702
-0.264813
-0.676474
0.806552
0.08426
-0.168083
-0.905774
0.13232
-0.272915
-0.310142
-0.170339
0.698925
0.0644135
0.0141983
0.536
-0.303156
0.0629466
0.1674
0.0133441
-0.109354
0.421723
-0.0588222
-0.152274
-0.0650491
0.148137
-0.441366
-0.323265
-0.145994
0.201436
-0.0277883
-0.108939
-0.00236496
0.00050845
0.00185651
-1.23518
0.719111
-0.00132708
0.941251
-0.225669
-0.622633
0.656693
-0.0340595
0.415794
0.757118
0.31886
-0.405315
0.0818592
-0.18191
0.64035
0.116769
0.972808
0.598933
-0.279815
0.757382
0.065093
0.52636
-0.585876
0.352654
0.233222
0.102983
-0.0707071
0.0403835
0.0707429
-0.0499739
1.23027
0.736412
0.0701401
0.635652
0.210216
-0.879607
-0.0823367
-0.681585
0.678487
-0.0286617
-0.563686
0.40755
0.859161
0.668902
0.032558
0.0272224
-0.137001
-0.3224
0.613304
0.806217
0.596261
0.0330276
0.638962
-0.112601
0.296929
1.21149
-0.082509
0.233647
-0.729269
0.922162
-0.192894
-0.414627
-0.17125
-0.0451422
-0.120292
-0.182489
0.827129
0.0248455
-0.00490212
0.625616
0.0265631
-0.116884
0.614421
-0.131347
0.220301
0.788526
0.251143
-1.03967
0.276957
-0.922913
0.326489
-1.21838
-0.165482
0.753427
-0.587945
-0.677164
-0.0239904
-0.0363824
-0.0563918
-1.43271
0.00796241
-0.0349009
0.710818
0.150436
-0.0851022
-0.0653336
-0.02164
-0.569901
-0.0811579
0.154043
-1.60319
-0.00366357
0.00331644
-0.0433383
-0.0551082
-0.604071
0.0323263
0.568361
0.2908
1.00212
0.694932
-0.229112
-0.390159
0.619271
0.0845516
-0.619583
0.619583
-0.244584
-0.958229
1.20281
0.0316143
-0.157975
0.671039
-0.102677
-0.218669
-0.00683297
0.189613
0.478686
1.2372
-0.0528153
0.188289
-0.10182
-0.326367
0.482507
0.093119
0.0734248
0.00396379
-2.00135
-0.328121
-0.0947099
0.69319
0.30681
-0.328121
0.69319
0.166323
0.127843
0.166323
-0.696473
0.696473
0.303527
-0.0136208
-0.00876312
-0.0786883
0.23152
0.101438
-0.487605
0.635965
-0.0215444
0.643738
-0.505557
-0.138181
-0.0477389
0.0437141
0.00402485
-0.0182039
0.0205
-0.509028
0.0179117
-0.0384599
-0.434923
-0.369548
0.140776
0.0371061
0.817855
-0.26925
-0.433901
0.229845
-0.0207952
-0.0727715
-0.00140543
0.691675
0.0739842
-0.10773
-0.034437
0.0002298
-0.0170294
0.0840599
0.550084
-0.479843
-0.0702416
1.98964
0.560718
-0.148244
0.93489
0.0119065
-0.0658462
0.112461
0.0843892
0.00851396
1.17697
-0.388448
-7.17803e-05
0.0196317
0.26883
-0.458386
0.0192831
-0.0192831
0.0228751
-0.0228751
-0.00806813
0.00806813
-0.0106747
0.366448
0.464644
0.0316702
-0.693048
0.457295
0.182098
0.0289105
-0.0854495
-0.481853
0.655489
0.112965
-0.798275
-1.08887
0.109263
-0.0131261
0.0208436
-0.00385277
0.00680793
-0.00680793
0.205266
0.00600491
-0.00600491
0.700233
0.106043
-0.0280566
-0.00638049
0.0062856
-0.0643111
-0.02105
0.02105
-0.00670827
0.00670827
-0.0236781
0.0236781
0.00449605
-0.00449605
0.0200788
-0.299968
-0.0774245
0.218551
0.00406283
-0.00406283
-0.378835
0.497834
-0.119
0.482075
-0.211158
-0.389229
-0.0446719
0.556837
0.0777225
0.0867253
0.569967
0.564418
0.00206657
-0.00206657
-0.130728
0.026617
-0.026617
0.00368357
-0.00368357
0.7784
-1.19553
0.0383608
-0.620792
0.313191
-0.000513546
0.000513546
0.00731574
-0.00731574
0.019237
-0.019237
0.0215123
-0.0215123
-0.0248393
0.0248393
0.0368194
-0.0368194
0.498231
-0.0334354
0.0334354
-0.000188861
0.000188861
0.0253206
-0.0253206
-0.00535425
0.00535425
-0.00256579
0.00256579
-0.0785243
-0.0279834
0.0279834
0.252432
0.02506
-0.0413508
0.0413508
0.00449385
-0.00449385
0.00981691
-0.00981691
0.0351807
-0.0351807
0.0244749
-0.0244749
-0.001022
0.001022
-0.00403051
0.00403051
0.0111768
-0.137561
-0.00669007
0.00669007
-0.000972011
0.000972011
-0.0399176
0.0399176
-0.0267441
0.0267441
0.00216145
-0.00216145
-0.432545
0.682524
0.258824
-0.0334899
0.0334899
0.00849725
-0.00718077
0.00718077
-0.00180485
0.00180485
0.0356337
-0.0356337
-0.15887
-0.00921311
0.00479413
-0.00479413
-0.0209178
0.0209178
-0.474831
0.0418799
0.580417
-0.0299263
0.0299263
-0.434505
0.0312356
0.0179106
-0.100228
-1.61792
-0.0384224
0.0384224
-0.211261
0.152439
-0.0393087
-0.00254814
0.00254814
-0.013839
0.0567117
0.267388
-0.322682
-0.262243
0.584925
0.175434
-0.00519218
0.00519218
-0.0415144
0.0753058
-0.0337914
0.749497
-0.375593
-0.373904
-0.480841
-0.659129
-0.15427
0.384115
-0.131516
-0.208121
-0.575867
-0.0270852
0.191321
-1.13985
0.0185808
-0.0185808
-0.0025488
0.0025488
0.0322639
-0.0322639
0.0250601
-0.0250601
-0.000760089
0.000760089
-0.00242917
0.00242917
-0.0415488
-0.148291
0.161007
-0.283827
0.0012074
-0.0012074
-0.0429718
0.0429718
-0.0421582
0.0421582
-0.0267177
0.115624
-0.088906
0.0163776
0.298104
-0.523773
-0.00171755
0.00171755
-0.0150196
0.0150196
-0.106369
0.159894
-0.314164
-0.00318482
0.00318482
0.027065
0.0134077
0.900273
-0.48863
-0.0935368
0.582167
-0.618024
0.340853
-0.427772
-0.0369205
0.0369205
-0.673635
0.267996
0.0517632
-0.0517632
-0.673655
0.401962
0.252353
0.113307
-0.000428966
0.000428966
-0.869179
-0.000120147
0.000120147
0.326019
0.407548
0.08134
-0.0559151
0.0559151
-0.00351699
0.00351699
-0.044279
0.044279
-0.051464
0.051464
0.000104856
-0.000104856
-0.0569186
0.0569186
2.81814e-05
-2.81814e-05
-0.0477255
0.0477255
-0.0116745
-0.0432977
0.0432977
0.00530866
-0.00530866
0.0503549
-0.0503549
-0.000511466
0.000511466
0.0454464
-0.0454464
-0.281298
-0.00236887
0.00236887
-0.00437729
0.00437729
-0.0457242
0.0798184
-0.0108941
0.0108941
0.00492679
-0.00492679
-0.0619576
0.0619576
0.305755
-0.0192226
0.0192226
-0.0551079
0.0551079
-0.00739543
0.00739543
-0.0700797
0.0700797
-0.0130443
0.0130443
-0.0837147
0.0837147
-0.0227983
0.0227983
-0.0909417
0.0909417
-0.702763
0.19747
-0.544342
0.510283
-0.909643
-0.15973
-0.544723
0.374384
0.0335318
0.077468
0.00384698
-0.00384698
0.122902
-0.698276
0.0490582
-0.0450944
-1.41077
1.63986
1.25245
0.247224
0.0157249
-0.0193011
-0.379972
-0.594999
-0.0666094
0.394862
-1.28385
-0.0260934
0.0260934
-0.726362
0.0164872
-0.0164872
-0.00333218
0.00333218
0.324837
-0.314494
-0.00297922
0.00297922
0.0181893
0.0137331
0.599329
-0.0905371
-0.0166301
-0.0100522
-0.0100644
-0.108525
0.511104
-0.402579
0.140109
-0.0212519
0.00132342
1.02916
0.0236358
0.0416157
-0.410596
0.457841
-0.504132
-0.934798
-0.225972
-0.0773459
0.0189332
-0.0490464
0.0209285
-0.0206216
-0.00751256
0.000270247
0.802065
-0.535158
-0.0460893
0.0594335
-0.0397765
0.0256178
-0.0343809
0.414806
0.247908
-0.165096
0.206637
0.0128669
-0.00154836
-0.936486
0.0167311
-0.14144
0.0563378
-0.0179173
-1.23402
-0.0722239
0.271052
-0.354229
0.408493
0.254687
-0.917172
0.0460296
0.0548383
-0.0393121
-0.356442
0.456364
-0.0242278
0.0524937
-0.0282659
-0.0287022
0.0287022
0.186655
-0.448515
-0.0945605
0.0162698
-0.0875374
0.0588757
-0.0596269
-0.00421708
0.063844
-0.0413533
-0.158331
0.0609686
0.0469888
-0.284834
-0.340383
0.625217
0.0174154
0.0640176
0.149389
-0.039236
-0.0978774
0.0756366
-0.165562
0.32337
0.00299249
0.0299338
-0.0171419
0.166531
0.0028161
0.270304
0.00281347
-0.00281347
-0.600463
0.897392
0.0981425
-0.180479
-0.0136633
0.0508932
1.48231
0.0443312
0.0436263
-0.0113893
-0.536236
-0.00810652
0.0719375
0.103612
-0.707717
0.327902
-0.0568372
0.363648
-0.648482
0.200714
0.49649
-0.0932883
0.0932883
0.0007628
-1.39321
0.090815
1.30239
-0.222644
0.166252
-0.0838286
-0.0262594
-0.338215
0.00495142
-0.0357821
0.0384689
0.929582
0.213712
-0.181155
-0.0702051
-0.903092
-0.174846
-0.0287932
-0.267562
0.772155
0.559052
-0.260947
-0.29958
0.576073
0.0219057
0.132949
-0.266103
0.0221328
-0.456331
0.337331
0.119852
-0.119852
-0.0306105
-0.0378991
0.0685096
-0.00386675
0.00687411
0.0124624
0.007163
-0.173402
0.215671
-0.185941
-0.0297307
0.528088
-1.11892
0.191368
-0.943319
0.685662
-0.108356
-0.175471
-0.0274156
-0.0802262
-0.498884
0.0639619
-0.299471
-0.00150886
-0.0179173
0.394508
-0.00510827
0.00174878
-0.000433216
0.013728
-0.0112321
-0.0024959
-0.097717
-0.0175684
-0.173591
0.191159
-0.111767
-0.344564
0.0181893
0.349201
0.000887364
-0.389325
0.0935713
0.00293896
0.113726
-0.082056
-0.0131897
0.0131897
-0.00163466
0.00060746
-0.00888954
-0.000379262
0.0388303
0.000462317
-0.00116124
0.0214057
0.107444
-0.00303569
0.00303569
0.00510334
0.50061
1.82004e-05
-0.285498
0.514
1.18351
-0.468208
0.318822
-0.440171
-0.05029
-0.0442705
0.21206
-0.217295
0.0286067
-0.00300359
0.00106011
-0.000911838
-0.178757
-0.372041
0.829337
0.38168
-0.423229
-0.0185376
-0.00163869
-0.0222261
0.00337691
-0.000134969
-1.55381e-05
-0.00298805
-0.0239965
0.00143314
-0.000594578
0.738374
-0.662737
-0.248549
0.268519
0.578862
-0.000832834
0.000763624
-0.0393087
-0.00545138
0.817627
-0.431768
0.524887
-0.920692
0.906
-0.121562
0.559332
-0.184947
0.715976
0.000162074
0.00357574
0.0172679
-0.123678
0.138549
-0.0196087
0.00799138
0.00234889
0.0701221
-0.0574192
-0.0127028
0.00039805
-0.0395039
0.0649795
-0.0254757
-0.0930968
0.00880871
-0.000481299
0.00227297
0.492388
-0.439874
0.00520272
0.000443891
1.17179
-1.08098
0.373643
-0.00615853
-6.59671e-07
0.0432297
-0.0862963
-0.0487399
-0.0971738
-0.0116173
-0.00373573
0.134247
0.0352425
-0.00279587
0.394236
0.000698328
0.00100646
-0.00100646
0.00302484
-0.013077
0.000447306
-0.323098
-0.00386293
0.0756736
-0.107626
0.175419
0.261085
-0.0652627
0.000510158
0.00200843
0.44646
0.000331123
0.000623023
-0.0457653
-0.00212086
0.000652021
0.0438762
0.0831425
-0.710001
0.450217
-0.822258
0.180823
-0.000332163
0.355121
0.0194765
0.0651485
0.561774
-0.0145435
-0.0821696
-0.00415194
-0.00140822
-0.556867
-0.00344642
-7.66741e-05
0.0118581
0.917535
-0.530965
-0.00262949
-0.00053965
-0.00604252
-0.0018574
0.0705728
-0.0213155
0.0213155
-0.0233428
0.0239503
-0.00246864
-0.00812203
0.0322464
-0.0304976
-0.174142
0.103435
-0.0056489
-0.013635
0.0369382
-0.0184702
0.0662583
-0.0473251
-0.623741
0.576802
0.0219051