/*--------------------------------*- C++ -*----------------------------------*\
| =========                 |                                                 |
| \\      /  F ield         | OpenFOAM: The Open Source CFD Toolbox           |
|  \\    /   O peration     | Version:  2306                                  |
|   \\  /    A nd           | Website:  www.openfoam.com                      |
|    \\/     M anipulation  |                                                 |
\*---------------------------------------------------------------------------*/
FoamFile
{
    version     2.0;
    format      ascii;
    arch        "LSB;label=32;scalar=64";
    class       volVectorField;
    location    "27";
    object      U;
}
// * * * * * * * * * * * * * * * * * * * * * * * * * * * * * * * * * * * * * //

dimensions      [0 1 -1 0 0 0 0];

internalField   nonuniform List<vector> 
2186
(
(1.28004 -0.0653903 2.74172e-19)
(1.58633 -0.912784 7.19116e-21)
(1.43073 -0.890579 9.78013e-21)
(0.715236 -0.553326 -1.74529e-19)
(-0.309189 0.372044 -1.63365e-19)
(1.66516 -0.392881 0)
(0.704767 -0.650343 0)
(0.017316 0.0622233 6.05183e-20)
(1.51352 -0.0800333 7.46986e-20)
(0.532006 -0.27056 -2.20318e-21)
(0.707291 0.64039 0)
(0.872055 -0.270095 -7.52813e-20)
(0.0289851 0.0796033 -2.45971e-20)
(1.20259 0.0272081 -4.35371e-19)
(1.77151 -0.6605 -3.88582e-21)
(1.01543 0.000544198 2.04184e-19)
(0.980305 0.0126433 0)
(-0.19514 0.368449 0)
(1.56657 -0.325358 0)
(-0.0755977 0.316621 -5.63851e-20)
(0.49265 0.149297 -1.27404e-19)
(-0.188887 0.213056 7.56128e-20)
(1.19182 0.0298636 3.58717e-19)
(-0.18764 -0.0895237 5.29236e-21)
(1.03016 0.0127547 -2.82419e-19)
(0.765844 -0.529646 0)
(0.760415 0.00242425 1.66324e-19)
(0.594713 -0.574212 -2.07705e-19)
(1.25096 0.744129 0)
(0.962587 0.0256466 -3.85201e-19)
(-0.0197498 0.100319 0)
(1.02343 -0.00544548 1.33551e-20)
(-0.0385514 0.29182 0)
(2.27079 -0.154505 9.8064e-20)
(-0.200046 -0.132057 -9.26354e-22)
(1.58696 0.807104 1.13603e-19)
(2.00572 0.019534 8.01481e-20)
(0.522945 0.196792 -3.79654e-19)
(1.9951 0.263971 -2.55799e-19)
(1.49128 -0.354742 -1.6368e-20)
(0.00727431 0.0700397 0)
(-0.152278 0.193656 0)
(1.85287 -0.845875 4.92349e-20)
(-0.414712 0.239082 0)
(1.13546 0.300673 1.79485e-19)
(0.579545 -0.253441 3.22811e-19)
(0.900566 -0.765824 0)
(1.15737 -0.764026 1.5096e-19)
(2.39771 -0.182985 0)
(-0.29939 0.363608 1.53471e-19)
(-0.010197 0.171689 8.33757e-20)
(0.654995 0.60499 9.31176e-20)
(2.03658 -0.716377 3.5221e-20)
(0.614293 0.320322 -3.05979e-19)
(-0.256548 0.151526 2.93498e-20)
(0.740651 -0.627397 0)
(1.64586 -0.938787 1.82292e-20)
(0.564681 -0.525013 0)
(2.39499 0.235493 8.38834e-20)
(1.11434 -0.156866 -4.43256e-19)
(1.90868 -0.0553396 1.34513e-19)
(1.39248 0.320833 -2.17464e-19)
(1.38662 0.561388 0)
(1.42142 -0.321171 1.79288e-20)
(1.40394 0.405406 -1.3632e-19)
(1.22267 -0.707516 -2.18953e-19)
(1.20916 0.691962 6.30363e-20)
(0.684635 0.109382 -6.26728e-19)
(0.822999 0.0867466 0)
(2.0355 -0.0857309 -2.09985e-20)
(-0.00852693 0.0516055 -6.92648e-20)
(2.39528 -0.201612 -1.17722e-19)
(0.724217 -0.000380629 -2.77331e-19)
(0.851376 -0.491979 0)
(0.839928 0.211136 -1.02646e-19)
(0.527994 -0.486223 -3.48487e-19)
(2.26053 -0.205205 0)
(1.00704 0.00997833 4.20309e-19)
(-0.202116 -0.12618 0)
(2.08031 0.41201 0)
(0.626583 0.124167 7.879e-20)
(1.36665 -0.291195 2.09332e-20)
(1.02255 0.00988186 4.69293e-20)
(1.35924 0.43952 3.38289e-20)
(0.967161 0.0258093 4.92558e-19)
(1.03639 0.0323502 -1.16675e-20)
(0.680107 0.218602 -3.7228e-19)
(1.47942 -0.284151 3.57656e-21)
(1.38903 -0.124402 0)
(-0.0729545 -0.0718514 5.58077e-20)
(0.83655 -0.597176 -1.99625e-19)
(-0.167728 0.372313 -2.15425e-21)
(1.09989 -0.0636317 2.93761e-19)
(0.805009 -0.153888 0)
(0.971928 0.0239936 4.69117e-20)
(1.41018 0.673398 0)
(1.59061 -0.922415 0)
(1.34112 0.234532 0)
(-0.312735 0.382173 0)
(0.766164 -0.639396 3.49485e-19)
(-0.0163257 0.322517 -2.50244e-19)
(0.522599 0.134076 1.42034e-19)
(1.61403 0.200934 0)
(1.13685 -0.0912617 -2.6855e-19)
(1.12413 0.0243902 2.07857e-19)
(-0.0750912 0.366731 1.09529e-19)
(0.669947 0.544785 0)
(2.05643 -0.136625 -2.90919e-20)
(0.942895 -0.453776 9.79245e-20)
(-1.0419 -0.738159 1.34447e-19)
(1.79983 0.342246 9.66885e-20)
(-0.288887 0.366653 -2.33368e-19)
(0.797357 -0.723713 0)
(0.594506 0.394946 1.84249e-19)
(1.67405 -0.109206 -2.32595e-19)
(0.0948227 0.227401 -2.94528e-19)
(1.34008 0.857898 -1.94049e-20)
(1.9866 -0.305535 0)
(-0.0964319 -0.0981831 -1.66584e-19)
(0.704419 -0.0363042 8.79625e-20)
(1.60887 0.914086 0)
(-0.234972 0.313894 -2.1073e-19)
(0.920902 0.79386 -3.12305e-19)
(-0.171953 0.408881 2.54514e-19)
(1.03143 -0.0223315 0)
(1.53467 0.92153 2.44606e-20)
(-0.310967 0.37133 0)
(0.674217 -0.464635 -1.25327e-19)
(-0.185208 0.398985 -1.40845e-19)
(0.769694 -0.701522 0)
(0.411237 -0.225699 4.67801e-19)
(0.517222 -0.424795 3.23008e-19)
(0.404677 -0.36596 0)
(0.959167 -0.759431 -1.68487e-19)
(0.140153 0.151869 0)
(-0.235906 0.337263 -1.20289e-19)
(0.787463 -0.673814 1.70168e-19)
(2.19654 -0.154893 7.90249e-20)
(2.27414 0.17722 0)
(-0.0655476 -0.0118985 0)
(0.711454 0.661231 -3.93245e-19)
(1.74366 -0.591545 -2.91541e-20)
(0.0309395 0.0458003 0)
(0.958723 -0.782897 -1.79001e-20)
(1.13114 -0.0890074 0)
(1.07025 -0.109369 4.64478e-19)
(1.97659 -0.119407 -2.148e-20)
(-0.308349 0.397755 0)
(1.19437 -0.53262 -7.18191e-20)
(-0.147903 0.403588 -3.66313e-20)
(-0.275439 0.352126 0)
(1.06971 -0.790178 1.19599e-20)
(1.00641 0.00492787 -7.02055e-19)
(0.627495 -0.448656 -1.22375e-20)
(0.794556 -0.488427 0)
(1.173 -0.706571 -1.25924e-19)
(0.675746 0.27827 2.8699e-19)
(1.26688 0.123174 0)
(1.54555 0.0874543 -3.33423e-19)
(1.17241 -0.831767 -2.99673e-19)
(-0.0787385 -0.0242622 -5.73615e-20)
(-0.23728 0.100746 -6.99124e-20)
(1.08054 0.012769 2.63849e-19)
(0.896016 -0.438978 -1.23152e-19)
(1.52332 -0.339643 -3.31106e-21)
(0.879802 0.00313775 -6.14968e-20)
(0.776801 -0.133001 6.88338e-20)
(-0.0799165 -0.0763458 -1.57479e-19)
(1.65678 -0.164169 0)
(2.27748 -0.279595 6.89141e-20)
(1.4893 0.676795 1.76216e-19)
(0.784853 -0.588315 -2.54886e-19)
(0.994705 0.00928878 1.43822e-20)
(0.696618 -0.502862 3.44589e-19)
(1.34626 0.831761 1.5657e-19)
(1.92369 0.0506437 9.3816e-21)
(-0.292434 0.409215 0)
(1.09282 0.063917 -2.73879e-19)
(-0.437589 0.172845 -1.13897e-19)
(1.10531 0.515936 9.14947e-20)
(0.19063 -0.142819 9.51497e-20)
(1.16168 0.0300666 -4.99492e-20)
(-0.173387 0.285001 -1.37196e-19)
(1.33623 0.610302 -9.4756e-20)
(1.17635 0.918795 0)
(-0.265625 0.438248 -8.29794e-20)
(0.120898 0.216893 0)
(0.684262 0.593528 -3.07425e-19)
(2.16769 0.197382 -1.61795e-20)
(0.0428215 0.110752 8.64352e-20)
(-0.178121 0.415483 -4.35822e-19)
(0.730921 0.112727 2.75459e-19)
(2.10983 0.0573164 -4.31065e-20)
(0.960559 -0.324951 -3.56877e-20)
(-0.0488906 -0.0303586 0)
(-1.07672 -0.952907 3.12107e-19)
(1.37005 1.005 -4.04683e-20)
(0.846872 0.105345 -1.52012e-19)
(0.579097 0.544588 2.14841e-19)
(0.435666 0.194322 0)
(-0.153082 0.00390493 -1.02928e-19)
(-1.19529 -0.903174 2.60601e-19)
(1.27121 -0.934421 8.52709e-22)
(0.985349 -0.0159913 -2.19059e-19)
(-0.136282 -0.163866 5.15912e-21)
(-0.138148 0.151648 1.35508e-19)
(-0.217023 -0.214432 -1.11878e-19)
(1.94105 -0.286749 0)
(1.14532 0.0511413 -3.68828e-19)
(2.49401 0.055308 1.89509e-19)
(1.24655 -0.595235 1.39659e-19)
(1.06204 -0.0809495 -1.14339e-21)
(0.61746 0.374451 0)
(0.978144 0.781207 -1.85918e-20)
(0.709837 0.654509 2.07809e-19)
(0.874177 -0.538571 1.79885e-19)
(0.716577 0.537873 0)
(1.02108 0.00743638 9.40356e-21)
(0.858226 -0.63913 2.56931e-19)
(0.866017 0.455165 -5.08706e-19)
(1.18375 -0.0997465 0)
(0.0805964 0.130697 -2.20085e-19)
(-0.0333651 0.351137 -8.58753e-20)
(1.63577 0.751931 0)
(1.32168 -0.912732 -7.29695e-22)
(-0.236544 0.359729 0)
(-0.314182 0.359695 1.01961e-19)
(0.767358 0.683524 -1.09387e-19)
(0.838599 -0.189607 0)
(-0.170576 -0.0635627 0)
(1.62593 -0.434631 0)
(-0.0121137 0.0401437 4.6163e-19)
(1.18529 -0.859725 1.95877e-19)
(1.15059 -0.580863 7.97719e-20)
(1.02995 -0.161148 -2.04262e-19)
(0.85284 -0.668723 -2.04323e-19)
(0.181182 -0.184425 0)
(-0.205639 0.459189 0)
(0.978157 -0.488304 2.1587e-19)
(-0.0239427 0.0184159 0)
(-0.298824 0.35273 0)
(0.067179 0.266871 2.55986e-19)
(0.824534 0.701531 9.49303e-20)
(1.04775 0.824794 0)
(0.728556 0.588878 -9.37954e-20)
(0.829426 -0.0123696 -2.52069e-19)
(0.776948 0.595667 -2.51892e-19)
(0.616387 0.575353 -1.84906e-19)
(-0.0535613 0.0262634 -9.14363e-23)
(0.700537 -0.62708 0)
(0.914079 0.201237 -3.62512e-19)
(-0.0347736 0.0400451 3.05899e-20)
(0.626919 0.582504 4.19794e-19)
(0.991677 0.828542 0)
(-0.11913 -0.244541 3.46234e-19)
(-0.234703 -0.034769 1.77307e-19)
(-0.197995 0.0960599 -9.16284e-20)
(0.695612 0.604012 -1.62575e-20)
(0.968814 -0.00719599 6.7966e-20)
(0.000284623 0.0892635 0)
(2.04261 -0.0974022 -6.39526e-20)
(1.61032 -0.407502 -1.63518e-19)
(0.633405 -0.584904 -9.09742e-20)
(-0.0765004 0.385392 8.91956e-21)
(1.22748 0.483548 2.11025e-19)
(0.912922 0.444379 0)
(1.03013 -0.154965 2.29931e-19)
(-0.248842 -0.0453323 2.27283e-21)
(-0.110725 0.206005 3.18387e-19)
(0.911342 0.0208859 -6.11667e-20)
(1.15828 0.154676 0)
(1.75202 -0.0143505 -3.1929e-20)
(1.97943 0.0730618 0)
(0.564618 0.302023 -5.00769e-19)
(-0.171782 0.187454 0)
(-0.0132564 0.0421492 1.35511e-19)
(0.673106 0.0952052 0)
(0.595685 -0.483271 -2.1088e-19)
(1.1346 0.0209029 2.42296e-19)
(-0.308552 0.377555 3.50821e-20)
(2.11721 -0.0671962 1.52307e-21)
(1.99197 -0.159698 -4.71087e-20)
(1.13862 0.246677 -2.50772e-19)
(-0.0343946 0.0494052 -5.90023e-20)
(1.04967 -0.827472 0)
(0.807872 0.017298 -1.76221e-19)
(0.907597 -0.352124 -3.37525e-19)
(1.68613 -0.551678 4.1474e-21)
(1.63626 0.00279996 -7.35781e-21)
(1.09257 -0.00217035 4.40746e-19)
(-0.192178 0.00479945 -7.68508e-20)
(0.97365 -0.415008 -1.51659e-19)
(0.189808 -0.182297 2.96628e-19)
(1.00829 -0.006897 0)
(1.00441 -0.00540199 0)
(0.339879 -0.225542 1.97049e-20)
(-0.212646 0.349846 -8.4474e-20)
(0.204636 -0.111586 -8.59171e-20)
(1.92575 -0.0805112 4.04325e-21)
(1.15452 -0.0941307 0)
(2.02264 0.0219127 -1.25369e-19)
(0.923019 -0.800739 -1.18872e-19)
(1.7619 -0.535831 -2.65936e-20)
(1.14142 0.867627 0)
(0.45378 -0.43334 0)
(0.636385 0.553591 -1.93715e-19)
(1.12447 0.299767 -4.61769e-19)
(2.13836 -0.199934 9.43959e-23)
(0.876073 0.184448 1.55655e-19)
(-0.202151 0.0563864 -1.91688e-19)
(1.5271 -0.171339 5.75591e-21)
(-0.151513 0.0569129 0)
(-0.116521 -0.0356342 0)
(-0.00448401 0.146982 0)
(1.31119 -0.699 -1.3837e-19)
(-0.278512 0.369675 -1.91774e-19)
(-0.156065 0.23528 0)
(1.32862 1.00692 -4.66131e-20)
(1.1344 0.165145 -4.82664e-19)
(2.64292 0.210336 -1.21806e-19)
(1.11468 0.952768 1.05042e-19)
(-0.272077 0.387748 1.19376e-19)
(1.22167 -0.0641238 0)
(0.00341796 0.181974 -1.93244e-19)
(-0.307899 0.381566 2.27103e-19)
(0.782346 0.0629179 2.05412e-19)
(1.57909 0.978962 -3.06145e-20)
(1.76614 0.894326 -6.39067e-20)
(-0.193937 0.364425 -2.17161e-21)
(0.725959 -0.661357 -4.61628e-20)
(1.16443 -0.0217713 0)
(1.75989 -0.0249268 0)
(0.974109 0.0467739 0)
(-0.616744 -0.413202 -2.98028e-19)
(-0.0486271 0.116034 6.03512e-20)
(1.08224 0.874851 0)
(0.995422 0.010169 5.87508e-19)
(0.799674 0.638288 -2.52406e-19)
(-0.981603 -0.779923 -1.55086e-19)
(0.867065 0.0435476 -4.64442e-20)
(0.694783 -0.63202 -2.65624e-19)
(1.42758 0.737053 -4.19618e-20)
(0.537665 -0.415041 -3.33811e-19)
(1.13136 0.00417861 -5.28368e-19)
(0.795329 0.0427716 5.25543e-20)
(1.47746 -0.167653 1.07222e-19)
(1.5811 -0.064238 -7.13732e-20)
(-0.0202761 -0.00347089 6.45775e-23)
(1.10892 0.495747 -3.04847e-19)
(1.36285 0.640926 6.14464e-20)
(-0.251873 0.0636748 0)
(-0.187283 0.0224629 7.14356e-20)
(0.117018 0.25339 9.4515e-20)
(-0.157031 -0.166114 -7.78963e-20)
(0.507911 0.3693 0)
(1.65767 0.00623775 0)
(-0.0136222 0.0201061 -1.15532e-19)
(-0.0792754 0.0193263 -3.02604e-20)
(1.05074 -0.0273957 2.09463e-19)
(-0.284108 0.407228 -4.18927e-20)
(1.53618 -0.144395 -4.25141e-19)
(-0.139926 0.362602 0)
(0.811401 -0.717745 -3.76655e-19)
(1.3946 -0.0419858 1.01859e-19)
(-0.344226 0.141897 7.0972e-20)
(0.732783 0.197521 3.62976e-19)
(0.635157 0.185308 1.16594e-19)
(0.483099 -0.454858 2.35122e-19)
(0.0333187 0.0544631 -7.335e-20)
(1.93525 0.853866 0)
(0.424209 0.394701 -2.09933e-19)
(1.03026 -0.0117057 -3.33247e-19)
(-0.188713 0.416341 1.73743e-19)
(1.46214 0.505799 -1.50786e-19)
(-0.0268307 0.0256091 -2.76536e-20)
(0.673773 -0.613825 -1.01873e-19)
(0.834233 0.216792 -2.29512e-19)
(1.00388 0.45253 2.5853e-20)
(1.13557 -0.124828 4.14401e-20)
(0.593115 -0.189786 -3.38851e-19)
(1.95448 -0.288608 -2.63037e-20)
(1.63721 -0.00240617 0)
(2.246 0.153095 -7.20705e-20)
(1.99512 -0.146349 1.11673e-20)
(0.40272 0.15276 3.31689e-20)
(0.960024 0.365973 -1.5178e-19)
(1.58292 -0.292583 -3.48297e-20)
(0.446541 0.423226 -2.73442e-19)
(-0.172654 0.256077 1.72123e-19)
(1.80912 -0.030872 0)
(0.945143 0.00813871 0)
(0.851702 -0.752119 7.68561e-20)
(-0.228554 -0.0154457 -1.94686e-19)
(-0.0631418 0.457208 -1.75993e-19)
(-0.0193013 0.00497407 -1.19891e-19)
(-0.270605 0.351751 -1.22808e-19)
(-0.22043 0.15145 0)
(-0.115086 -0.0559131 2.21684e-20)
(0.158382 0.387847 -8.36072e-20)
(-0.14751 0.159602 -3.09293e-19)
(0.794294 -0.0792835 0)
(1.73548 -0.336685 7.3291e-20)
(0.0915253 0.156568 0)
(0.993716 0.0241625 4.23378e-19)
(-0.214549 0.0730789 1.18257e-20)
(0.514339 -0.386696 4.47551e-19)
(-0.421138 0.26692 1.88845e-19)
(-0.962582 -0.561295 0)
(0.0538689 0.286333 9.6523e-20)
(1.00082 0.0266452 -1.27696e-20)
(-0.02716 -0.104658 0)
(1.005 -0.00838501 -6.57292e-20)
(0.835674 -0.702753 -3.52015e-19)
(1.46316 -0.484541 0)
(0.919273 -0.246577 2.41494e-19)
(-0.105611 0.272491 1.75788e-19)
(-0.060099 -0.0544239 0)
(-0.149683 0.0138846 -2.77047e-21)
(0.702138 -0.608658 -4.99904e-19)
(0.937214 -0.0208841 -3.11501e-19)
(-0.237539 0.000102024 2.27481e-19)
(-0.0539342 0.0184079 8.36776e-20)
(-0.17446 0.105308 0)
(0.986594 0.503157 0)
(-0.328588 0.121868 7.37329e-20)
(1.41481 -0.180469 -4.77515e-20)
(1.1098 0.92766 2.23364e-20)
(1.08944 0.229475 -1.41579e-19)
(1.11602 0.00957474 -2.63942e-19)
(1.0197 -0.0618623 -9.76149e-20)
(-0.194043 -0.0155811 -2.05498e-19)
(1.96961 0.0540058 3.67629e-19)
(0.705457 0.0417068 2.41897e-19)
(1.77421 -0.0748899 5.02837e-20)
(1.02368 -0.135501 0)
(0.11879 -0.330096 1.89385e-19)
(1.1436 0.02694 -5.73597e-19)
(1.79932 0.645507 3.05685e-20)
(0.717511 -0.423973 -1.85418e-19)
(-0.0980398 -0.0962165 1.246e-19)
(0.77504 -0.677556 4.59482e-19)
(1.27066 0.20817 8.77882e-20)
(1.00716 -0.00817365 2.90991e-19)
(-0.212993 0.0227888 -8.23069e-20)
(1.03059 0.0264535 0)
(2.06963 0.0272207 -1.74141e-19)
(-0.0808782 -0.0668165 0)
(1.01444 0.0150981 -1.72554e-19)
(-0.880291 -0.764702 -5.06023e-19)
(1.77683 0.328719 5.19146e-20)
(0.0991492 0.306937 1.27215e-19)
(1.66237 0.0323719 1.04367e-20)
(1.01555 -0.0160381 6.03671e-20)
(1.26067 -0.0845797 0)
(1.41275 -0.586016 -2.13142e-19)
(1.02823 0.0468606 -1.78291e-19)
(1.4854 0.819346 -8.62841e-20)
(1.27717 -0.0505208 0)
(0.45757 0.401553 1.05651e-20)
(-0.017932 0.0244956 0)
(1.27382 0.0494779 0)
(-0.0341505 0.0826916 0)
(1.27612 0.468662 0)
(1.94597 0.30819 4.04811e-20)
(0.773356 0.64812 4.42679e-19)
(0.282393 -0.283511 -2.78388e-19)
(-0.0824931 0.0140391 -1.95246e-19)
(-0.0621212 -0.0369308 0)
(2.35521 -0.219029 9.43791e-20)
(1.3779 0.539521 0)
(1.50618 0.304911 0)
(-0.0287888 0.208903 8.38692e-20)
(0.838322 0.741766 1.46288e-19)
(1.59491 -0.0134276 0)
(0.0487 0.0908525 4.75737e-20)
(0.926832 0.248484 2.12628e-19)
(1.87986 -0.14223 -5.81465e-20)
(1.28146 0.959495 5.61759e-20)
(0.900476 -0.808902 -5.56728e-20)
(1.52647 -0.0693291 -3.552e-20)
(0.824043 0.745124 1.51064e-19)
(1.21651 0.957199 0)
(2.10789 -0.224813 1.30706e-19)
(0.330514 -0.645811 0)
(1.53776 -0.270607 3.36557e-20)
(1.01215 0.117935 1.53185e-19)
(1.0057 -0.00395303 0)
(-0.435746 -0.644117 2.54084e-19)
(0.878065 -0.143503 5.50268e-20)
(0.605848 -0.37271 0)
(0.64758 -0.345458 2.41417e-19)
(1.27691 0.582881 -3.93203e-20)
(0.498189 0.472014 3.03564e-19)
(-0.174994 0.202235 3.70018e-20)
(0.201885 0.0461929 8.26598e-20)
(0.737524 0.0593515 0)
(1.29642 -0.874887 -1.41167e-19)
(1.03704 -0.0428588 4.65079e-19)
(1.54626 0.349175 1.20228e-19)
(0.056683 0.109236 4.06521e-20)
(-0.571425 0.134203 0)
(1.20608 -0.22459 -1.38329e-19)
(-0.0585721 -0.0481495 -1.02067e-19)
(-0.742742 -0.612879 -1.60166e-20)
(-0.136005 0.046583 -6.54113e-22)
(-0.213769 0.096862 2.60645e-19)
(0.976546 -0.110921 -2.03327e-20)
(2.13658 -0.110246 8.56634e-20)
(1.22979 0.485035 -3.40316e-19)
(0.899939 -0.0636986 0)
(1.91176 -0.0882707 1.84885e-19)
(1.71455 0.0505416 1.94681e-20)
(0.886139 -0.741904 1.75764e-19)
(1.13338 -0.950661 -7.84734e-20)
(0.501557 0.467144 2.04871e-19)
(0.567781 -0.285312 0)
(1.8161 0.603256 1.09281e-20)
(-0.0667131 -0.0510934 -2.07573e-19)
(0.916292 0.800911 0)
(1.63871 0.89928 0)
(0.282459 -0.281265 -3.66836e-21)
(0.355316 0.352 0)
(-0.531903 0.220138 -2.09141e-19)
(-0.270161 0.307292 -1.06447e-19)
(1.72468 -0.405048 0)
(1.31354 0.0723737 2.47676e-19)
(-0.121502 0.357662 1.46682e-19)
(0.516061 -0.488755 -5.45189e-19)
(1.75127 -0.0225107 -1.29738e-20)
(0.592447 -0.535552 0)
(1.06709 0.138124 0)
(1.38009 -0.234227 0)
(1.14071 0.244745 -2.70244e-19)
(1.38892 0.115072 3.86119e-19)
(-0.769644 -0.210104 0)
(0.864037 -0.0491652 0)
(2.05258 -0.0771736 -3.07932e-21)
(-0.160609 0.268027 8.91334e-20)
(2.3676 -0.0943764 -2.49586e-19)
(1.07122 -0.494733 1.05694e-19)
(1.95704 -0.0197557 -2.60087e-19)
(-0.128687 0.442807 -1.10207e-19)
(2.02883 0.0705636 -1.54084e-19)
(1.01563 -0.0129769 4.78639e-19)
(1.567 0.629771 0)
(-0.313106 0.364715 2.87547e-20)
(0.977577 -0.805214 2.26503e-19)
(0.85545 0.0120676 5.42861e-20)
(0.609236 -0.396598 0)
(1.85766 -0.48926 -4.4288e-21)
(1.18119 -0.18177 1.8517e-19)
(1.6847 -0.166583 0)
(0.590712 -0.547789 5.50753e-19)
(1.62078 0.153868 -2.85845e-20)
(2.45714 -0.0558373 4.33203e-19)
(-0.201802 0.311308 -1.86989e-19)
(1.37524 0.646802 1.81838e-19)
(1.18125 0.430227 4.22356e-21)
(0.931098 0.404627 2.51529e-19)
(1.45885 -0.124074 -5.47814e-20)
(-0.187862 -0.0104286 1.13528e-21)
(0.479511 0.0048179 0)
(-0.12705 -0.108322 2.04009e-19)
(1.07107 -0.928149 0)
(1.03577 -0.627768 2.69253e-20)
(0.526351 -0.0772525 -9.99114e-20)
(1.61746 0.602554 -3.52124e-20)
(-0.180496 0.270814 -1.89715e-19)
(1.02021 0.513846 1.97624e-19)
(-0.658619 -0.772667 3.29019e-19)
(0.705142 -0.0409141 0)
(1.83045 -0.0516817 0)
(1.93404 -0.109671 -4.16873e-21)
(0.770692 -0.00976827 0)
(1.32469 -0.196299 -1.90539e-19)
(-0.242062 0.443147 3.18559e-19)
(1.98513 0.518744 -1.88933e-20)
(1.05365 -0.0317471 0)
(0.528142 -0.307687 1.20302e-19)
(1.00831 0.0263957 2.27014e-19)
(0.105075 -0.735064 -2.76973e-19)
(-0.185926 0.331993 0)
(1.08119 -0.454035 5.97187e-19)
(1.73773 -0.0467014 -4.01033e-22)
(1.07363 -0.473251 -2.59637e-19)
(2.40652 0.244321 1.38394e-19)
(1.32931 0.823073 0)
(0.884335 0.0243422 0)
(0.0398291 0.138296 -1.07157e-19)
(-0.0159855 0.0233524 1.30006e-19)
(0.976942 0.394696 -2.3418e-19)
(-0.205354 -0.00586461 -6.47709e-20)
(0.675726 0.449972 2.6481e-19)
(0.672165 0.446817 0)
(0.522112 -0.485081 0)
(-0.100433 0.107952 1.65339e-21)
(1.20164 -0.48362 -1.25281e-19)
(0.818495 -0.00662852 8.35582e-21)
(0.725647 -0.115167 1.33357e-19)
(-0.118942 0.202339 -2.34053e-19)
(1.12976 0.0955782 2.11616e-19)
(0.688244 0.642651 0)
(1.31271 0.72553 0)
(1.66946 0.270014 0)
(-0.143267 0.131527 -8.06633e-20)
(1.30116 0.589337 1.74557e-19)
(1.87866 0.00797222 1.26583e-20)
(0.960394 -0.0186921 0)
(2.29967 -0.235161 0)
(2.1552 -0.0830329 -2.80811e-19)
(0.338577 -0.535436 3.38588e-19)
(1.00505 0.00525869 -2.27014e-19)
(1.54117 0.500707 0)
(-0.248915 0.325225 0)
(1.28034 0.339315 3.36426e-19)
(1.0564 0.557184 -1.48268e-19)
(1.07748 0.0333901 0)
(1.02921 -0.180175 0)
(2.05671 0.700581 -2.45947e-19)
(-0.199312 0.398108 -2.86633e-21)
(0.993512 0.0150781 0)
(0.738962 0.51229 -3.67745e-20)
(0.912057 -0.802253 0)
(1.00209 0.0179103 5.28147e-20)
(-0.854818 -0.109844 -4.4002e-20)
(0.884371 -0.296278 3.56633e-19)
(0.0552171 -0.526759 1.26905e-21)
(1.99028 -0.0813645 7.54837e-20)
(2.06092 0.103045 9.9112e-20)
(0.775785 -0.0204674 0)
(1.00292 0.0131173 0)
(-0.446156 0.104349 0)
(0.691365 0.662503 -2.1361e-19)
(-0.0828387 0.133959 1.58103e-19)
(1.19869 0.370555 -5.38331e-19)
(-0.274666 0.400076 0)
(0.862927 0.676976 1.8728e-19)
(0.986075 -0.309222 0)
(1.00557 -0.000613209 1.32792e-19)
(-0.184313 -0.397303 2.16996e-20)
(1.06498 0.43062 2.93377e-19)
(1.40387 0.171698 0)
(2.27548 0.145807 -6.75154e-20)
(0.819767 -0.0800862 -4.12308e-19)
(-0.685088 0.118901 -2.88917e-19)
(0.518293 -0.325903 0)
(0.899014 0.271784 1.95613e-19)
(1.82389 -0.11324 0)
(0.80746 0.557555 4.01237e-19)
(-0.406002 0.331541 1.32095e-19)
(-0.114929 0.188218 0)
(0.616522 0.587422 -7.85913e-20)
(0.999803 -0.615223 -1.87773e-19)
(0.45485 -0.19454 -1.36807e-19)
(1.01896 -0.00645653 0)
(-0.137468 0.332527 -1.46804e-19)
(0.614237 -0.54273 9.45596e-20)
(0.928554 0.318963 0)
(1.65261 -0.193316 7.67239e-20)
(1.01792 0.868585 2.81692e-20)
(0.695834 -0.0955436 2.23155e-20)
(0.144936 0.111544 -1.47733e-19)
(0.208441 0.0541392 -6.07892e-19)
(-0.0687431 0.00145293 5.18548e-21)
(0.845307 0.392688 2.74267e-19)
(-0.289218 0.358975 -4.74342e-21)
(1.37987 -0.622502 3.2811e-21)
(1.0211 0.0193688 -3.95476e-19)
(-0.217575 0.2247 0)
(1.03633 0.0454302 -4.65861e-19)
(1.82401 -0.244807 4.55518e-20)
(0.922012 0.722696 3.17399e-19)
(1.12186 -0.0593159 1.86127e-19)
(1.00211 -0.0151184 1.82955e-19)
(1.77721 0.706573 3.11894e-20)
(0.0815804 0.113105 5.99122e-22)
(1.70573 -0.840705 1.50254e-20)
(1.10393 -0.119452 -9.7113e-20)
(0.756314 0.0439878 1.12274e-19)
(0.890989 -0.266229 1.03207e-19)
(1.91788 0.197594 0)
(0.997344 0.767043 0)
(0.185776 -0.432924 -2.58754e-20)
(2.0949 0.208879 -1.42591e-20)
(-0.33329 0.318991 1.07336e-19)
(1.00425 -0.513975 -6.20992e-19)
(0.591738 -0.504556 4.49584e-19)
(1.34915 0.201621 -1.2333e-19)
(-0.218163 -0.0130575 8.24148e-21)
(1.57152 -0.26777 0)
(0.761636 0.153369 -7.50032e-21)
(1.61949 -0.200392 -7.16452e-20)
(1.07606 0.793437 0)
(0.629574 -0.208451 0)
(0.524929 0.392581 0)
(0.00227992 0.0427182 -3.28535e-20)
(-0.146334 0.174297 0)
(1.14669 -0.411506 3.83828e-19)
(1.25197 0.192118 7.46143e-21)
(-0.884586 -0.666245 1.88673e-19)
(2.01189 0.757521 3.92945e-20)
(1.88886 0.486187 -3.61747e-20)
(2.03854 -0.272875 -1.14159e-20)
(-0.181129 0.0105566 -1.8152e-19)
(-0.174375 0.0474632 2.06551e-21)
(1.91208 0.171257 0)
(0.684154 -0.0353939 0)
(1.00082 0.000589876 1.95717e-22)
(-0.162378 0.176926 0)
(1.38708 0.0169623 1.41947e-20)
(0.682814 -0.0316643 0)
(1.04136 0.0114272 1.49753e-19)
(0.990015 0.016018 -5.16221e-20)
(1.16869 0.185867 1.25471e-19)
(1.07123 -0.0129377 -1.0656e-21)
(0.933469 -0.167998 -6.21674e-20)
(1.019 -0.0203287 4.25581e-19)
(0.647019 -0.582843 2.15183e-19)
(-1.15311 -0.996631 -2.48659e-19)
(1.62151 0.642254 2.93741e-22)
(-0.0220795 0.0438529 0)
(1.16356 0.826412 0)
(1.02283 0.00647746 0)
(0.975798 -0.748162 -1.33605e-19)
(1.01583 -0.868846 8.4484e-20)
(1.23107 0.576626 4.50442e-20)
(-0.708112 -0.665258 -3.74402e-19)
(0.437824 0.122245 1.32296e-20)
(0.559718 -0.34159 -7.17039e-19)
(1.98832 0.4009 -1.05843e-19)
(0.0262828 0.0880355 -4.10124e-20)
(1.99307 -0.227752 2.4473e-20)
(1.24497 0.123221 -4.96835e-21)
(0.0339851 0.0713209 -6.96749e-20)
(1.14771 0.581192 2.28265e-19)
(-0.283709 -0.127032 0)
(-0.250224 -0.00414551 1.31425e-19)
(-0.147114 -0.0915994 -1.6659e-22)
(1.0289 -0.0437612 3.80884e-19)
(1.02088 0.0108437 -9.81052e-21)
(1.10999 -0.00807148 -1.05233e-19)
(1.3232 0.547488 -8.49533e-22)
(1.68728 0.331709 7.859e-20)
(0.378998 -0.352175 -3.59246e-19)
(0.817134 0.523472 -8.59137e-20)
(1.02935 0.0125202 -2.80593e-19)
(1.7316 0.608972 -3.02569e-22)
(1.10224 0.628598 0)
(1.14567 0.619978 -4.28679e-19)
(1.00265 -0.00304464 1.08336e-19)
(0.706708 0.636341 2.85378e-19)
(1.06827 -0.21094 -2.70455e-21)
(1.07751 -0.00429265 -3.47243e-20)
(1.13479 0.0200319 9.84322e-22)
(2.38235 -0.00339616 1.55225e-20)
(1.16445 0.272631 0)
(1.04348 -0.0395761 0)
(1.04781 -0.0342929 6.65641e-19)
(1.00258 -0.00195704 0)
(-0.092293 -0.0495145 0)
(0.956181 -0.56863 0)
(1.00072 0.000291424 -6.30188e-19)
(1.12739 -0.656659 1.11248e-19)
(1.02193 0.000468202 1.32702e-20)
(1.38656 0.989253 -3.8312e-20)
(1.57451 1.03907 6.80328e-20)
(0.466491 -0.0917112 -2.30115e-20)
(1.09165 -0.234162 8.37863e-20)
(2.0668 0.0451015 0)
(-0.102499 0.37651 0)
(1.82176 -0.0668544 8.91354e-20)
(0.933093 -0.312073 0)
(0.999694 -0.00474482 -1.94721e-19)
(1.01084 -0.00106479 3.78567e-19)
(1.49451 0.14871 -8.23245e-20)
(0.0221204 -0.112966 1.61716e-19)
(0.981259 0.00207191 2.06336e-19)
(0.39661 0.0962044 -5.62524e-20)
(0.885761 -0.0897542 2.05474e-20)
(1.31099 0.552706 -8.88325e-23)
(0.925847 0.0183926 -2.08336e-19)
(1.00361 0.00454892 2.44854e-19)
(1.0003 -0.000153634 1.44613e-20)
(0.790136 -0.0131777 0)
(0.729631 -0.0266663 0)
(0.725615 -0.027143 7.57977e-22)
(0.702423 -0.029498 0)
(1.3778 -0.0584078 0)
(1.2366 -0.141158 0)
(0.812479 -0.0996595 -4.26357e-20)
(0.662434 -0.0991655 2.39852e-20)
(1.57859 -0.40999 0)
(1.17438 0.144052 3.68952e-20)
(1.49196 0.42487 0)
(0.12313 0.226291 0)
(0.354863 0.0856741 0)
(0.759955 0.220878 1.42532e-21)
(1.60011 0.258914 3.34285e-20)
(0.773332 0.0243078 0)
(0.785953 0.0200713 0)
(0.964706 0.021612 -2.56585e-19)
(0.815138 0.00764876 4.7718e-19)
(1.00785 -0.0013091 0)
(1.00009 -0.000606617 4.52447e-19)
(1.00027 -0.000651432 -3.10601e-22)
(0.783587 0.0226021 4.0751e-19)
(0.998622 -0.00479046 -2.36814e-19)
(0.0846909 0.204582 0)
(1.04524 -0.143904 -2.05616e-20)
(1.00068 -0.000982752 -2.28567e-19)
(0.999987 0.00167514 -3.92444e-19)
(0.911185 0.335697 0)
(0.998884 0.00158356 0)
(0.999662 0.000251286 0)
(1.66225 -0.321521 -1.61267e-20)
(0.103643 0.268592 4.88113e-20)
(1.19568 0.579937 0)
(-0.271647 0.345003 1.95697e-19)
(-0.123927 -0.446205 -2.52157e-19)
(1.02093 -0.0101479 -3.053e-19)
(-0.0678493 0.0372179 -5.83944e-20)
(1.01825 0.0103863 -2.45917e-19)
(1.13881 -0.203224 -1.36393e-19)
(0.774321 -0.441745 3.52037e-19)
(-0.0353346 -0.00830179 -4.88731e-20)
(1.02857 0.0171762 0)
(1.06971 -0.00871961 -6.69641e-20)
(0.842461 0.0262927 0)
(-0.0751494 0.12343 2.28796e-19)
(0.917871 -0.212226 0)
(-0.0768209 0.128214 -1.56722e-19)
(0.767195 0.150121 5.04898e-20)
(1.71059 0.712025 -5.82841e-20)
(-0.0553724 -0.00471793 0)
(1.05194 -0.0375945 2.05968e-19)
(0.0914614 0.214334 3.64988e-21)
(0.929488 0.0129843 3.20686e-19)
(1.01315 -0.00513919 -2.07877e-19)
(1.72708 0.894693 1.31132e-20)
(0.549414 0.5191 0)
(0.478064 0.445813 2.19761e-19)
(2.11351 -0.254218 -1.65382e-21)
(1.17576 0.136769 2.24524e-19)
(1.0586 -0.686042 0)
(1.02422 0.00916634 0)
(1.00006 -0.0168857 -4.78018e-19)
(1.01817 0.0185042 -4.66768e-19)
(-0.0969559 -0.00634619 0)
(1.26176 0.853866 -1.59814e-19)
(1.27433 -0.267138 2.87951e-21)
(1.01627 0.00779001 1.79736e-19)
(1.01185 0.0154945 -2.25133e-19)
(-0.0723482 0.215991 -1.62829e-20)
(0.338994 -0.0103099 -9.587e-20)
(1.01949 -0.0105957 7.66279e-19)
(1.50025 -0.265338 0)
(1.91642 0.68113 -1.73334e-20)
(1.01645 -0.00748778 -2.38726e-19)
(1.92768 -0.018029 -4.72953e-20)
(1.06739 0.014878 -5.51257e-22)
(1.00961 -0.00846615 4.76706e-20)
(1.90497 -0.12217 -7.45607e-20)
(1.01543 0.00845908 2.3159e-19)
(1.01307 0.817546 8.79074e-21)
(1.01857 0.00911169 0)
(0.94905 0.174057 5.60457e-20)
(-0.885619 -0.463024 3.05484e-21)
(0.997807 0.022862 2.29887e-19)
(1.03932 0.0217075 -5.79628e-22)
(0.920204 -0.184678 -1.64102e-20)
(1.29183 0.33213 4.89711e-19)
(0.99367 0.0186463 1.58383e-19)
(1.01774 -0.0103092 4.85936e-22)
(1.8134 0.257489 -3.4343e-20)
(1.83283 0.980328 -9.37468e-20)
(0.753041 -0.674567 7.30828e-20)
(0.42186 -0.273363 -3.44938e-19)
(1.00772 -0.00802704 0)
(1.01986 0.00532465 5.75022e-20)
(1.0116 -0.00577589 1.21296e-19)
(1.04015 0.70986 1.1855e-20)
(1.01428 0.0104937 -2.41181e-19)
(1.02405 -0.0143059 2.76803e-19)
(1.00845 -0.00563598 -2.26671e-19)
(1.01358 0.00931728 -5.14966e-22)
(1.013 0.00601919 -3.57428e-22)
(1.02407 0.0176666 2.31002e-19)
(0.9117 0.113436 5.7519e-19)
(1.919 0.108062 0)
(-0.147163 -0.270619 3.92384e-20)
(1.01037 0.000947486 0)
(1.02271 -0.0102448 -6.69617e-20)
(1.58632 0.466503 -1.11051e-19)
(1.77057 -0.0988279 0)
(1.95808 -0.167355 -9.85852e-20)
(1.29311 -0.207795 -8.30524e-20)
(0.783481 -0.0197143 0)
(1.65397 -0.136871 0)
(0.13348 -0.304024 -4.62514e-19)
(1.41905 0.399066 -4.73886e-20)
(1.01801 0.000645775 -2.42994e-19)
(1.0894 -0.53993 -7.4283e-20)
(0.608359 -0.0824416 -5.70472e-20)
(0.955392 0.810042 0)
(1.44445 -0.239682 0)
(2.27481 0.0769912 0)
(0.0293218 0.23785 8.6947e-20)
(0.929188 0.562031 5.75994e-20)
(-0.898724 -0.547834 0)
(-0.132031 0.283667 -2.01733e-19)
(1.7512 1.00318 -1.92633e-20)
(1.00748 -0.000405 -4.74734e-19)
(0.773575 0.40884 5.27711e-20)
(1.02088 0.0169541 3.14669e-19)
(0.706464 -0.0447263 0)
(-0.153655 -0.0375255 -1.53659e-20)
(0.645539 0.477032 -3.74002e-19)
(1.8336 0.200614 3.18958e-19)
(-0.0105929 0.295898 0)
(0.756476 0.0705982 9.56859e-20)
(0.544669 0.523094 5.69081e-20)
(1.22633 0.917703 -4.37645e-20)
(-0.0830585 -0.0787051 7.7539e-20)
(1.02467 0.0216614 0)
(0.896921 0.649062 3.46671e-21)
(1.01152 0.00178881 1.78243e-19)
(2.40623 0.0877794 0)
(1.01203 0.0107594 2.98916e-19)
(-0.147823 0.00806105 -6.14417e-20)
(1.0189 0.0157822 -1.85205e-19)
(1.54925 1.07379 0)
(2.38096 -0.275621 4.33744e-22)
(1.00899 0.00657193 -1.24076e-19)
(0.99667 -0.011011 3.26966e-19)
(1.11275 0.110403 -3.22174e-21)
(1.05929 0.82745 3.87547e-20)
(-0.116916 -0.131012 2.08951e-19)
(2.10014 0.295478 1.54035e-19)
(0.178689 0.494938 -4.62703e-20)
(0.799759 0.0146313 -4.48006e-19)
(0.826038 0.031554 0)
(0.178911 0.215783 2.99489e-20)
(1.02402 -0.00611703 -3.59754e-20)
(0.971578 0.0458717 0)
(1.05454 0.00691312 -2.28345e-19)
(-0.805614 0.236417 3.96878e-20)
(-0.544824 0.082299 1.14198e-19)
(2.10806 -0.521804 0)
(-0.308451 -0.168796 -6.19261e-19)
(1.47023 -0.326111 0)
(1.04205 -0.015989 6.69208e-20)
(0.778664 0.441097 4.40835e-22)
(1.01298 0.00421723 1.92882e-19)
(-0.149258 0.425503 3.12662e-19)
(1.01987 0.00710758 0)
(0.994591 0.00369367 -4.62114e-19)
(1.00873 0.0101748 2.45101e-19)
(1.16872 -0.30326 0)
(0.264099 0.189702 -1.3584e-21)
(0.95676 -0.00118972 -2.09201e-19)
(-0.107003 0.00580626 2.01909e-19)