/*--------------------------------*- C++ -*----------------------------------*\
| =========                 |                                                 |
| \\      /  F ield         | OpenFOAM: The Open Source CFD Toolbox           |
|  \\    /   O peration     | Version:  2306                                  |
|   \\  /    A nd           | Website:  www.openfoam.com                      |
|    \\/     M anipulation  |                                                 |
\*---------------------------------------------------------------------------*/
FoamFile
{
    version     2.0;
    format      ascii;
    arch        "LSB;label=32;scalar=64";
    class       volScalarField;
    location    "46";
    object      p;
}
// * * * * * * * * * * * * * * * * * * * * * * * * * * * * * * * * * * * * * //

dimensions      [0 2 -2 0 0 0 0];

internalField   nonuniform List<scalar> 
2186
(
1.0803
-0.328918
0.0513214
1.32911
-0.572241
0.238914
0.887614
-1.53858
-0.911221
1.59785
1.47233
-1.11577
-1.66656
1.36351
-0.577227
1.3788
1.39557
-0.709229
-0.0669558
-0.393983
1.77448
-0.373385
1.37389
-1.23871
1.36566
1.30413
1.57897
1.13706
1.02477
1.36386
-0.350887
1.36568
-0.37392
0.033622
-1.11885
0.573814
0.126726
1.77492
0.0634769
0.203386
-1.65435
-0.342169
-0.74726
-0.513383
1.29715
1.58856
0.498145
0.715291
0.44848
-0.448114
-0.358996
1.32359
-0.710596
1.72968
-0.478561
1.19402
-0.825383
1.22229
0.13387
1.12498
0.455921
1.05225
0.98441
0.187113
0.996869
0.652651
1.09495
1.65942
1.55758
-0.962338
-1.48947
0.314388
1.6089
1.26536
1.56209
1.41537
0.343667
1.39089
-1.13729
-0.207776
0.164948
0.230451
1.36076
1.04237
1.35124
1.361
1.68463
0.0521905
0.253158
-1.14856
1.2029
-0.363343
1.25294
1.48775
1.37449
0.858583
-0.0993982
1.0036
-0.498861
1.24013
0.295215
0.185617
1.0523
1.29013
1.39746
-0.404095
1.64403
-0.430129
1.20236
-0.774943
-0.221109
-0.431431
0.732662
1.74245
-0.969843
-1.94866
0.395103
0.249793
-1.15205
1.60366
0.444117
-0.413154
1.28382
-0.870097
1.38259
0.310506
-0.484126
1.41405
-0.837889
0.864705
1.66274
1.50207
0.373803
0.856165
0.200784
-0.425285
1.16285
-0.785555
0.245103
-1.2256
1.23008
-0.130292
-1.48731
0.917288
1.23908
1.28932
-0.45623
-0.596844
0.838654
-0.490757
-0.40367
0.785008
1.39371
1.45271
1.31127
0.727337
1.69412
0.884095
0.814403
0.601183
-1.21537
-1.58357
1.35842
1.25916
0.0637712
-0.176355
-1.07911
-1.0904
0.0870007
0.385647
0.80384
1.24995
1.39665
1.37454
0.868114
0.371758
-0.701067
1.35817
-2.12997
1.27512
-1.06593
1.38088
-0.373059
0.977308
0.969541
-0.743408
-2.41242
1.56658
0.220687
-1.78775
-1.19806
1.63074
0.554795
1.26598
-1.20115
-0.575842
0.545813
1.55292
1.50146
-0.355206
-1.25739
-0.578492
0.189468
1.38982
-1.12839
-0.448179
-1.17962
0.0834478
1.32964
0.397763
0.734439
-0.0472837
1.72362
1.25606
1.3512
1.20996
1.61437
1.37073
1.14342
1.51633
0.63255
-2.08471
-0.390728
0.562397
0.319127
-0.637007
-0.501596
1.46948
1.45642
-1.18022
-1.03287
-0.567759
0.536206
0.883517
1.0965
1.14234
1.38099
-1.25305
1.14919
-1.29615
-0.481829
-1.94729
1.43009
1.16027
1.58263
1.53093
1.54099
1.52375
-1.35656
1.05881
1.50316
-1.48603
1.41838
1.20649
-0.60908
-1.12534
-1.08243
1.58651
1.39823
-1.73669
-0.412443
-0.338456
1.20181
-0.642744
1.16499
1.48565
1.19079
-1.11671
-0.337201
1.33733
1.04125
-0.202024
0.326077
1.74929
-0.438266
-1.40867
1.1751
1.45378
1.3534
-0.558349
0.412496
-0.719224
1.31134
-1.57488
0.741081
1.33491
1.31308
-0.109536
-0.140752
1.34359
-1.11764
1.21185
1.46277
1.39317
1.39001
-0.839337
-0.402373
-1.22295
0.426824
0.310007
0.725278
0.537988
-0.555108
1.0446
1.43611
1.643
1.32192
-0.575583
1.52915
-1.25304
-0.103031
-1.42772
-1.19728
-1.78052
0.527823
-0.393477
-0.337336
0.622612
1.32283
0.431838
0.829601
-0.406812
0.4301
-1.79914
-0.435524
1.58745
0.451167
0.357963
-0.383524
1.01833
0.983728
0.337846
0.803398
-0.469084
-1.701
1.09597
1.38803
1.50619
-0.578541
1.52206
1.13104
0.81932
1.51559
1.37556
1.28824
0.620345
0.531064
-1.25247
1.28514
-0.427352
-1.12144
-1.35304
-2.02533
-1.15694
1.79342
-0.570391
-0.335334
-1.40926
1.37429
-0.748999
0.420806
-0.41278
0.986849
0.75608
-1.89591
1.64606
1.70641
1.3902
-1.51224
0.332863
1.8139
1.37764
-1.13826
0.888517
-1.32233
0.296745
1.57717
1.3976
1.20243
1.61234
-0.419858
0.441026
0.491832
0.206321
-1.52278
-0.353076
0.217511
1.74999
-0.460342
-0.941939
1.36804
0.784685
-1.13796
-1.06112
-1.27073
-0.510625
-1.60384
-1.18034
-0.484695
-0.474611
1.52824
-0.266201
-2.08177
1.38249
-1.45475
1.53419
-2.05892
-1.09252
-0.306095
1.36575
-1.0368
1.39646
1.0889
-0.665441
1.36
-0.358444
-1.16825
-1.29225
1.27034
1.29446
-1.14066
-1.31047
-1.49844
1.40061
-1.73908
-0.819194
0.954044
1.34157
1.21215
1.01614
-1.16543
0.402274
1.22176
-0.179892
1.12852
-0.678542
1.38918
0.431065
1.4111
-1.15043
1.09271
1.11035
1.40383
-1.24107
1.37413
0.207394
-1.16168
1.36899
-0.605928
0.630797
-1.99292
0.456403
1.38001
0.342028
0.468858
1.38175
0.694556
0.0966414
-0.00612819
-0.337768
0.490562
-1.68001
1.125
-0.0907314
1.50652
1.39859
-1.3404
-1.1951
0.301803
-0.33821
0.875251
-1.73202
1.27153
0.200017
-1.72649
1.49758
0.268001
0.821096
0.441824
0.690797
1.23435
0.795257
0.187948
-0.150294
-0.0796591
-0.469391
1.3873
-0.485476
1.43971
1.50899
1.50203
1.07909
1.60652
-0.49062
-0.413692
1.24114
0.361214
1.36822
-0.394611
-1.80764
-2.28717
1.09691
-1.17079
-1.49553
-0.373319
-0.40204
0.132738
-0.387555
1.15781
1.1151
0.335398
-0.179807
0.978364
0.178854
1.57503
-0.304885
0.298378
-1.17565
1.19736
0.552714
1.44035
1.82748
-2.23037
-0.48154
-0.947107
0.792679
-0.678215
1.2959
-0.117253
1.24881
1.16563
-1.15282
1.27179
1.23231
-1.28064
1.21703
0.460254
-0.336232
0.42953
-1.08526
0.468493
-1.12553
0.348487
1.36786
0.66892
-0.461735
0.794369
1.50985
1.49141
-0.288015
1.0552
-0.352424
1.00716
0.612545
0.535281
-0.350954
0.936478
1.22941
1.47656
-0.561143
-1.18104
-1.47389
-1.14866
-0.0519176
0.964633
-1.23296
-0.478314
-1.66977
1.36585
-0.285453
1.33604
0.386401
0.151998
1.30142
0.952422
-1.48474
0.304109
1.34565
1.57566
1.391
-0.16819
-0.534788
1.06387
0.421118
1.05165
0.0946877
0.888795
1.34347
-1.84485
-0.325231
1.43374
-1.24834
1.66831
0.0251007
1.11845
0.0574657
0.866105
-1.01485
1.57338
-0.331518
0.527429
1.39939
0.962523
0.931994
-1.55153
-0.350448
-0.119127
1.17256
-0.00664723
0.374474
0.0683497
1.38743
0.837689
-0.45834
1.16265
1.3189
1.36245
-0.637413
-0.261843
-0.370873
1.38293
1.60715
0.677556
1.37865
-0.512968
1.36053
-0.0590053
-0.511325
0.222745
1.27516
1.32632
-2.03072
1.29154
-0.321121
1.22128
-0.684758
1.43619
1.25047
1.38863
-0.670133
1.34089
0.458537
0.257141
1.51642
-2.29486
-0.0922935
1.52075
-0.891736
1.5373
-1.7442
-0.322736
1.48239
1.02455
1.65094
1.36857
-0.44378
1.34805
1.49317
-0.220079
1.08067
-0.29168
-0.992443
1.81224
-1.2476
1.555
-0.413502
0.487302
1.3688
-1.66645
1.3672
-0.238949
1.36035
1.30499
1.37735
-0.591613
-1.85308
-0.658779
0.866972
0.974855
1.38316
0.557913
1.26647
-1.05416
0.287836
-1.94353
1.09898
1.41662
-0.0870359
-1.09358
0.0436636
1.62149
-0.0739597
1.17398
-0.300312
0.0683293
-1.39855
-0.375878
0.178998
1.20576
-0.980404
0.47584
0.176156
-0.422486
-0.388003
-1.36849
0.409829
1.35109
1.3896
-1.59885
-0.101273
1.36287
1.28775
1.38812
0.492522
1.3613
1.38494
1.36023
1.32263
-0.798177
0.76327
-0.319948
1.0619
1.36638
0.936897
0.277157
0.725764
-1.12192
0.227177
1.54037
0.632262
-0.0156037
-0.57422
0.791188
-1.58041
1.21529
-1.16661
-1.45995
-1.15897
1.37722
1.36999
1.38657
-0.424362
0.811957
1.50672
0.636381
1.36238
0.737674
-0.319075
1.19396
1.39049
1.53188
0.312934
1.35645
1.35568
0.450506
0.877348
1.38689
1.39791
1.3924
-1.18197
-1.17724
1.39181
0.831332
1.37077
0.671386
0.355017
0.213512
-0.32594
0.370172
-0.413922
-0.645068
-0.588806
1.39919
1.40416
1.1637
-1.14554
1.37755
0.688754
0.0944914
-0.345804
1.36485
1.39489
1.39265
1.40823
1.38693
1.38113
1.37333
0.657561
0.0076742
0.203524
0.204553
-0.083481
-0.152388
-0.192947
0.245812
0.551108
0.806467
0.730414
1.35881
1.3813
1.37547
1.40014
1.39947
1.39215
1.39693
1.36996
1.38482
0.339411
0.206284
1.39385
1.39146
-0.131387
1.39349
1.39341
0.186303
-0.0887172
0.896372
-0.724896
-0.433968
1.37654
-1.51964
1.37231
0.934974
1.35831
-1.23942
1.37014
1.32985
1.30721
-0.330961
-0.514563
-1.64003
0.900842
0.435093
-0.353318
1.39197
0.220693
1.46118
1.38103
0.306421
1.62339
1.76918
-0.115477
1.27934
0.893763
1.37457
1.39271
1.3805
-1.23492
0.934948
0.345053
1.37898
1.38602
-1.6601
-0.0503482
1.3812
0.385409
0.165192
1.37979
0.015128
1.3664
1.39314
-0.604052
1.38274
-0.0993868
1.3751
1.47362
-1.58395
1.38646
1.39485
0.237666
1.11422
1.37368
1.38314
0.660949
-0.246237
0.944464
1.63157
1.38936
1.37626
1.38344
-0.201489
1.3777
1.35873
1.38612
1.37929
1.38197
1.37538
1.49439
0.296679
-1.74518
1.37849
1.37543
0.755534
0.0836509
0.168929
0.180719
1.2699
-0.869266
-0.215055
-0.368987
1.37643
0.981164
-0.120963
0.146808
0.151396
0.314367
-0.458391
-0.158121
-0.422849
-0.353269
0.151499
1.38206
-0.328861
1.37035
1.31047
-1.1845
1.68467
0.284159
-0.322478
1.07339
1.58354
0.912335
-1.15461
1.37797
-0.0746984
1.38127
0.419159
1.38064
-1.33777
1.37442
0.0372985
0.26202
1.38365
1.39673
1.34766
-0.0342077
-1.14797
-0.0962622
-0.181179
1.39229
1.29759
-0.11926
1.3764
1.41641
1.37184
-0.416943
-1.98672
-0.682201
-0.925384
0.569772
1.38352
-0.190597
1.37624
-1.12706
1.37685
1.41551
1.38449
0.00234822
0.0610928
1.40855
-1.36184
1.38613
1.39051
0.145751
-1.57019
1.39382
1.56339
1.37153
1.37267
-0.302841
-0.738724
1.33689
0.593064
1.3855
1.09608
-0.892956
-1.44947
1.25018
1.57913
1.37844
0.521461
0.0214077
-0.184892
-0.193867
-0.40576
1.3523
0.422775
1.36745
-1.29818
-1.21049
-0.497407
0.915076
-1.12363
0.0529215
-0.996712
1.37269
-1.14874
1.36452
-1.28672
-0.113219
-0.500613
-0.269982
-0.885775
1.35664
-0.22804
-0.968606
-0.914555
0.229428
1.358
-0.891761
-0.224987
0.0943285
1.50647
0.15744
-1.27616
1.44383
1.35546
1.34272
0.739909
-1.0185
1.38315
1.41502
0.0265953
-0.376728
1.37109
1.03764
1.68392
1.39537
0.0131931
-0.953869
-0.39066
-1.72684
-0.902619
-1.16574
-0.047663
-1.19185
1.04498
0.0681667
1.37716
1.61875
1.37477
-1.14676
-1.22297
1.37448
-0.950206
-1.09695
1.34588
0.00404635
-0.927542
-1.40244
-0.0159339
1.34066
1.31523
0.163279
1.16944
1.13162
-0.700489
1.35194
-1.74999
1.22471
-0.511972
1.29944
-0.307762
0.63621
1.37483
1.5479
0.412362
-2.04953
1.2409
1.74456
1.39664
1.47037
-0.933906
1.51706
-1.08551
-0.844242
-0.934145
0.662113
0.358882
1.48963
1.45186
-1.33445
0.0721858
1.37512
0.302123
1.13657
1.40648
1.36075
0.508581
1.37694
0.156071
1.40047
-0.203816
-0.63897
0.358196
1.37924
0.0819725
0.0432325
-0.181869
1.34386
-0.69109
1.63097
0.417378
1.76303
1.44396
0.245854
1.34743
-0.348692
1.36293
1.35822
-0.669509
-0.389872
1.56977
1.36967
1.67331
1.34378
0.237175
1.35159
1.35408
1.28444
1.38489
-1.0994
-0.591997
-0.864836
1.44421
-0.0324759
-1.13159
-0.34474
-0.131277
-0.140896
0.215568
1.32907
-0.306252
1.31474
1.35816
-0.387868
-1.04261
0.328018
-0.753415
0.035032
-0.330629
1.38471
-0.021379
1.39374
1.53624
1.43037
0.370219
1.40123
1.32646
-0.217663
1.31305
1.36567
-0.958836
1.36581
1.3989
0.281036
0.467374
1.78515
0.124185
-1.48091
-1.58003
0.383121
1.34329
-1.12472
0.294421
-0.349773
1.52527
-1.18778
1.31529
1.4001
1.34796
-0.274701
1.32266
0.181211
1.39228
1.40615
0.114776
1.39445
0.98349
1.35254
0.976519
-0.751471
-0.286095
-0.273929
0.0389974
1.66261
0.170026
1.4178
1.80782
0.209336
0.0666248
1.43909
0.127963
1.43545
0.10809
0.171551
1.4408
1.44516
0.606411
-1.57038
1.229
-0.388862
-0.405279
-0.175566
1.40223
1.35448
1.70223
-1.15411
-1.0986
0.975194
-1.6347
1.46927
1.42013
1.34324
1.37208
1.32146
-2.32384
-1.16664
-1.70349
1.24839
1.32135
-0.22222
-0.3486
-1.26475
1.38909
1.39427
0.0622415
-1.78805
1.41491
-0.719956
0.728521
1.24586
1.38829
0.537854
-1.57147
0.382092
-1.89067
-0.421802
-1.40485
-0.29184
1.63884
1.81978
-0.808169
-1.99266
1.38999
1.36635
-0.755722
0.082543
-0.346928
1.12607
1.48168
-1.26026
1.38694
-0.403754
-1.53094
0.241883
-1.27588
-0.4351
1.34306
-1.91234
-1.17692
1.78879
-1.83165
1.38666
1.65893
-0.354314
1.31161
1.52374
-0.549499
1.70526
-1.76342
-1.44436
1.44624
-0.239703
1.28123
1.38702
-1.68704
1.41361
0.308101
-2.12707
1.42454
1.29913
-1.04621
-1.85079
1.34919
1.37938
-1.46165
-0.205143
1.74426
-1.61129
1.31562
0.307093
1.29057
-1.12296
-1.64601
-1.30054
-0.609413
1.55746
1.3875
1.55997
1.66853
1.44418
1.44291
1.52618
-1.26597
1.59667
1.4182
-0.424502
-1.53639
-0.989849
1.78308
-0.106694
-1.38138
-0.0981444
1.40511
-0.45822
-0.984296
1.48557
1.28731
-1.34578
-0.352662
-1.4115
-0.210154
-0.675346
-0.49839
-1.23689
1.36072
1.14821
-0.313864
0.0689132
-0.992238
1.315
-1.60872
-0.693059
-1.21386
1.20717
-1.89328
-0.372836
1.59846
1.24611
0.654317
1.47466
-0.576007
1.24438
1.39664
1.47642
1.48626
0.388255
1.16376
1.46699
0.418747
-1.19456
1.80388
1.31615
1.22874
1.41182
-0.397339
-1.83695
1.18028
1.24639
1.32758
-2.34498
-1.86881
1.35988
-1.20234
1.1461
0.130201
1.86
-1.18021
1.21516
0.974592
-0.311153
-1.16886
0.00499855
1.35374
-0.30827
-1.15498
0.93576
1.10485
-1.66486
1.45477
1.13189
-0.30858
-1.32735
1.36059
-2.22866
-1.16138
-1.28815
-0.362017
-0.438085
1.3872
1.3718
-1.48838
0.839997
1.37957
1.74873
0.463356
0.798394
0.542755
1.15579
-0.44518
-0.317604
-0.173585
-0.00349805
-0.324744
1.38249
-0.370559
0.694943
-1.15506
1.04108
0.784065
-0.335695
0.872604
-1.02161
0.698922
-0.343663
0.970841
-0.326673
0.572173
-1.15053
0.892183
-0.350382
1.07241
-2.03366
-0.357703
-0.369175
-1.15674
1.39434
0.212411
-0.393478
-1.15172
0.569131
0.658392
-0.389239
-1.1673
-0.429621
-0.0435112
-1.1638
0.414619
-1.20208
0.216467
-0.501309
-0.253417
1.30223
0.085582
-2.29498
1.3785
0.548875
-0.0393834
0.678537
1.336
-0.160366
-1.93069
-1.1501
-1.92605
1.2233
1.83566
0.143022
0.191496
0.160841
-1.88548
0.290549
-0.306405
1.37645
-0.967388
1.31549
0.523701
1.90182
0.732878
1.68662
-0.336046
1.46821
-0.00400685
1.30604
-0.48068
-1.15041
1.34574
1.36259
-0.327573
-1.1537
-0.354646
1.39697
-0.313299
1.36986
0.385681
-1.24317
-1.31657
1.69601
1.44624
1.38946
1.42242
1.39111
0.05454
-0.312763
1.66539
-1.86865
-2.01981
1.85519
-0.375238
1.3136
1.27565
1.73264
1.73548
-0.383084
-1.58152
1.4062
0.415764
-0.466355
-0.329736
0.258892
-1.41687
-0.362534
0.853147
-1.58516
1.47937
-0.0990873
1.49921
1.55375
1.45381
0.47269
-1.10587
-1.62691
1.45853
-1.65805
1.63541
-0.202282
-1.33542
1.69454
1.58474
-1.15364
0.605125
1.31002
-1.67404
-0.973765
0.942532
1.73071
1.55304
-0.514355
1.29101
1.30589
-1.14236
1.55737
0.788981
-0.322746
-0.215218
0.147014
0.102547
1.56168
-1.74934
0.767727
0.083251
-0.223779
-2.04332
-1.13921
1.38357
-0.358333
1.43533
0.437332
0.219939
0.989647
0.492391
-1.13486
-0.0892861
-1.39734
0.622491
-0.306025
0.455119
1.39537
-2.14448
-1.487
1.43345
-1.62825
-0.433736
1.39026
-1.15096
1.42898
-0.157706
-1.18351
-0.236357
1.08359
-0.885717
-1.61751
1.19181
-1.28115
1.43439
-0.627675
-1.52861
-1.96425
-1.14952
1.74948
-1.39578
1.44281
-0.120636
1.32659
1.5815
1.0018
1.36924
1.61949
0.477099
0.528989
1.33359
1.39366
1.66903
-1.87145
1.4439
1.14535
-1.80057
1.05043
1.48207
-0.0550876
1.8021
0.650993
-0.877765
1.09351
-1.72633
-0.360649
1.30503
0.053239
1.42473
1.32198
1.37258
-0.740349
1.34466
1.72478
-0.711121
0.223149
-0.977168
-0.68251
-1.5958
-1.15892
1.62023
0.994403
-0.575169
1.16616
-1.64669
-1.61783
1.54273
1.68775
-0.113053
-1.8854
-1.15236
-1.24291
1.32012
-0.520672
0.248313
-0.37811
0.142478
1.43518
-1.49279
1.84164
1.43853
1.18921
1.42474
1.76409
-1.47528
-1.57494
1.35154
1.44664
-1.69977
1.37299
-1.54173
-1.28358
-1.4163
1.54572
1.57696
-1.3236
-0.544633
0.794838
0.0849886
0.0702674
1.37519
1.42693
-1.7679
1.46577
1.50674
-1.35536
-0.439052
-0.644059
-1.25103
-1.38855
1.59677
-0.695354
1.38229
-0.474893
1.57899
1.28493
1.33616
1.37935
-2.02984
0.159494
-1.22404
1.00895
-0.361007
1.17578
0.44978
0.0476379
1.30185
1.26838
1.4196
1.40237
0.221657
1.41463
0.0891866
0.642037
1.23241
-0.0341896
-0.409481
-0.43431
-0.185404
1.38853
1.2288
1.38782
-1.73253
-0.913218
-1.20297
-0.311017
1.39041
1.73561
1.40352
-0.383284
-1.42784
-1.53361
-0.0313258
-1.15233
-1.1528
0.304389
1.38737
-1.11391
-0.30923
-0.330121
-0.00133245
1.19368
-1.08447
-1.18752
-1.19502
1.36976
1.78275
-0.443047
1.46345
1.85848
1.13594
1.62753
-0.460581
0.295258
1.66304
-1.17433
0.51739
-0.342496
-1.39937
-0.357611
-0.307203
1.31038
0.965133
1.65219
1.61486
-0.0837489
1.02033
0.55269
-0.38218
-1.16384
1.4772
1.19517
1.3976
1.41414
0.205007
0.153845
1.40592
-0.0901614
-1.15516
-0.305923
-0.367066
0.855155
-0.311466
1.32662
0.894682
-1.17525
1.50338
-0.403656
0.182276
1.35201
-1.70131
-1.77173
-1.78314
1.07497
-0.316269
-0.302132
1.37819
1.40571
0.0821883
0.232897
-2.13605
-1.15684
-1.0765
-0.203217
-0.059039
0.814026
-1.53174
-0.319625
1.71706
0.75163
0.848226
-0.330443
-1.42869
1.37704
1.3107
1.00788
0.739532
-0.339598
-1.92082
-0.813891
0.934676
0.631449
-0.347114
1.25095
0.639586
-0.35316
1.87492
-0.361744
-1.47306
-1.37034
-0.295396
1.08788
-0.377936
-0.575639
-1.15418
0.106606
-0.408659
0.501207
-0.880544
0.366572
1.61577
-0.458903
-0.121903
-1.18242
0.329148
1.79242
1.67792
1.68673
1.38548
1.66466
-0.240885
1.37452
-0.41759
1.3117
-1.15064
-1.08405
1.5365
-0.704517
0.741322
-0.0739033
1.71767
0.488773
1.65439
1.07311
1.20789
-0.327515
-0.366835
-1.15192
-0.306919
1.67318
1.62649
1.37546
0.915615
1.37148
1.11592
1.27979
-0.350527
-1.21024
0.765622
-0.069486
1.25622
1.39118
0.0660308
-0.35881
-0.350747
-1.50836
-1.15017
0.492906
1.61502
1.40884
1.38462
0.195492
0.232064
1.40245
0.299481
-1.15784
-1.80344
-1.84932
1.24335
-0.317
-0.337661
-0.267112
1.40193
-1.84946
-1.3629
1.37277
0.824659
1.03592
1.37541
-1.15354
1.32135
1.51339
1.08556
-1.14955
1.36296
0.524089
0.933571
-1.43015
-0.31503
1.84145
0.483094
0.173301
0.221125
1.3536
1.3848
-1.9535
-1.84696
0.0159832
-0.278921
-1.05581
-0.585232
0.0986829
1.37194
-0.568992
1.38654
1.59812
1.36071
1.40042
1.52358
1.58123
1.37844
-1.77446
-0.736719
0.0905731
-1.22876
-0.918399
-0.342352
1.56842
1.49235
-1.65507
1.29997
-1.31951
-0.825077
-0.355298
0.376212
0.802908
-1.32314
1.37079
1.36063
-0.245354
-0.406683
1.71207
-1.70727
-1.04314
-1.21595
-0.615818
-0.326628
1.40781
1.22232
1.40218
-1.65652
0.180253
-1.08979
0.148668
-1.69609
-0.351888
-0.981988
-2.07496
1.35905
-0.78751
1.72195
-0.587073
-0.552611
-1.17192
-0.347565
1.26483
-1.1987
-1.62837
-1.07372
-0.148459
1.64735
1.52962
-2.07897
0.189583
1.271
-1.16419
-0.941965
1.42599
0.264027
0.541962
-0.220686
1.20172
-0.361695
-1.73027
1.37261
0.593261
-0.21465
1.39116
-1.29938
-1.54384
-0.630822
-0.414443
0.0895531
-1.73684
1.76023
-1.18583
0.366068
-1.14902
1.24298
-0.405064
-1.46987
1.1116
1.06505
1.42764
1.31809
1.59872
-0.363668
1.17112
0.817833
-0.92383
1.34727
0.125011
-0.504998
-1.92731
1.4883
1.48116
-0.238486
-1.36279
-1.60872
1.46602
-1.07888
0.633477
-1.35888
-0.349765
1.72145
1.45325
-0.34599
-0.730294
-0.367171
-0.321033
1.30006
-0.439358
1.42248
0.711766
1.16818
1.28409
-0.348404
-1.21571
1.38317
-0.349555
-0.171686
1.6463
-1.2244
-0.328659
1.27715
-0.789241
-0.644167
-0.0412243
-1.89032
1.70288
-0.621182
0.35996
-0.355733
1.57481
-0.390386
-0.789031
1.10699
-1.24365
-1.15163
1.66506
1.13549
1.26979
-0.603858
1.68423
0.455785
-0.816587
-0.543062
-0.544846
-0.402116
1.71578
1.04287
-1.36497
-0.378057
-1.79775
1.54739
-1.08105
1.5529
-1.15117
1.14915
-0.311573
0.848945
1.00768
0.974806
0.897926
0.33872
-0.956544
1.44479
-0.520168
-0.17857
-1.18919
0.483798
1.5941
-0.157731
-0.680398
-0.422966
-0.315138
0.748211
-0.57762
-0.312968
1.09096
0.384878
-0.333463
1.65785
-1.76328
-1.69205
1.69666
-0.318766
0.640576
-1.1418
-0.348975
-0.316625
1.6354
-0.350332
1.60632
-0.317614
-1.06361
1.59748
-0.0575678
-0.872478
1.03337
-1.91851
0.512033
-0.319793
-0.321337
1.10973
-1.17614
-0.318962
-0.346828
-0.352713
-1.15121
1.15279
0.347069
-0.276554
-0.338713
1.63974
-1.00622
-0.678476
-0.327081
-0.0948486
-0.46683
-0.349165
-0.327501
0.0707357
1.69807
-0.41593
-1.13923
-0.586217
-0.716497
0.269146
-1.15683
1.72331
1.67587
0.889447
-1.20821
-1.15027
0.809058
-1.14484
1.75053
0.695448
1.33938
1.16024
1.5613
0.584557
-0.48246
-1.32704
0.436346
-0.527379
0.43906
-0.0171892
-0.322196
1.64559
-0.0959666
0.705423
-0.19117
-1.12255
-1.13276
)
;

boundaryField
{
    frontback
    {
        type            empty;
    }
    Top
    {
        type            zeroGradient;
    }
    outlet
    {
        type            fixedValue;
        value           uniform 0;
    }
    bottom
    {
        type            zeroGradient;
    }
    Inlet
    {
        type            zeroGradient;
    }
    rectangle
    {
        type            zeroGradient;
    }
}


// ************************************************************************* //
