/*--------------------------------*- C++ -*----------------------------------*\
| =========                 |                                                 |
| \\      /  F ield         | OpenFOAM: The Open Source CFD Toolbox           |
|  \\    /   O peration     | Version:  2306                                  |
|   \\  /    A nd           | Website:  www.openfoam.com                      |
|    \\/     M anipulation  |                                                 |
\*---------------------------------------------------------------------------*/
FoamFile
{
    version     2.0;
    format      ascii;
    arch        "LSB;label=32;scalar=64";
    class       surfaceScalarField;
    location    "46";
    object      phi;
}
// * * * * * * * * * * * * * * * * * * * * * * * * * * * * * * * * * * * * * //

dimensions      [0 3 -1 0 0 0 0];

oriented        oriented;

internalField   nonuniform List<scalar> 
3181
(
-1.1054
0.434846
0.670552
-0.433771
0.405304
0.028467
0.577198
-0.397648
-0.179549
0.14211
-0.230893
0.0887825
0.0390741
-0.0809273
0.0418531
0.0398226
0.61056
-0.650382
0.166594
-0.159567
-0.00702683
0.0101391
0.00345564
-0.0135947
0.590867
-0.949689
0.358822
-0.0730065
0.158937
-0.0859302
-0.0101656
-0.0445443
0.05471
0.172987
0.0394888
-0.212475
-0.00953403
-0.00906702
0.0186011
-1.10969
0.144199
0.965487
-0.359077
0.779346
-0.420269
-1.11746
0.627188
0.490272
0.0863316
-0.93135
0.845019
-0.105705
-0.052506
0.158211
0.340506
-0.655041
0.0264294
0.0149887
-0.0414181
0.00406768
-0.066081
0.0620133
-0.0200878
0.0303145
-0.0102267
1.07929
-1.04658
-0.0327191
0.0445389
0.0415774
-0.0861162
-0.958547
0.316892
0.641655
-0.116626
0.258736
0.321453
-0.22108
-0.100373
0.033342
0.0703846
-0.103727
-0.376056
0.305976
0.0700804
-0.0303919
-0.0344118
0.0307608
0.00365106
-0.0254735
-0.933073
0.0171616
-0.0816174
0.0644558
-0.178067
1.04
-0.861934
-0.051274
0.0475612
0.00371274
0.171141
0.246612
-0.417753
0.722953
-0.90102
0.0600044
-0.0559367
1.35287
-0.776468
-0.576402
-0.278436
0.318258
-0.109655
0.100121
-0.00664178
-0.013446
-0.4606
0.101523
-0.0933969
0.0867551
-0.599245
0.136622
0.462623
-0.172446
0.0994396
-0.189699
0.194604
-0.00490458
-0.299051
-0.0850554
0.384107
0.504541
0.678984
-1.18353
0.0436459
-0.102343
0.0586975
-0.00798246
-0.0894979
0.0948315
-0.00533359
0.557144
0.222202
-0.0994583
0.114435
-0.0149772
0.0784082
-0.0612466
-0.192371
0.222258
-0.0298866
0.182684
0.0664109
-0.249095
0.123095
-0.129749
0.0066541
0.963508
0.389363
-0.898762
-0.206636
-0.134522
-1.52759
1.66211
0.517177
0.203892
-0.721069
-0.419213
-0.178816
0.598028
-0.575756
0.29732
-0.239577
0.756754
-0.357006
-0.11219
0.469196
-0.194197
-0.181859
-0.209297
0.155795
0.0535016
0.0893664
0.303368
-0.392735
-0.448469
1.03934
-0.038412
0.0485511
-2.03212
1.8976
0.223441
0.098012
-0.20619
-0.11603
0.322221
-0.275677
0.331963
-0.0562856
-0.0938117
0.101871
-0.00805922
-1.52758
-0.919223
0.00752639
0.911697
-0.0524485
0.00117457
-1.02179
0.691767
0.330021
-0.0246421
-0.134484
0.159126
-0.715042
0.139286
1.10329
-0.959086
-0.65879
1.16556
-0.200071
1.07781
0.141411
-0.183215
0.0418042
0.432342
0.178218
0.359264
-0.359264
-0.00793781
-0.0021188
0.0100566
-0.241176
-0.0550526
0.296229
-0.00300321
-0.0438988
0.046902
-0.449699
0.867149
-0.41745
0.0136402
-0.278744
0.265104
-1.0931
0.0465276
0.310906
0.0580411
-0.368947
0.143426
-0.804327
1.00822
-0.0128718
-0.0844923
0.0973641
-0.0175599
-0.174811
0.0894097
-0.169941
0.080531
-0.0218431
0.111253
0.102672
-0.906999
0.35507
-0.804769
0.926772
-0.84044
0.136534
-0.0825522
-0.0539816
0.0648984
0.046852
-0.11175
-1.37302
-0.245453
1.61847
-0.279255
0.449079
-0.169824
0.188338
0.959621
-1.14796
-0.422065
-0.599723
-0.023869
0.067515
-0.171394
0.164935
0.0064597
-0.0739202
-0.0013991
0.0753193
-0.743579
-0.20611
-0.147901
0.0108855
0.137015
-1.43289
0.764371
0.668514
1.42895
-0.749964
-0.0221013
0.0141635
0.0742242
0.149217
-0.181531
0.352672
0.142686
-0.158059
0.0153732
0.12295
0.0619476
-0.184898
0.313958
-0.359089
0.0451314
-0.598817
-0.518643
-0.390874
-1.04201
0.0617347
-0.0746064
-0.127577
0.207859
-0.0802821
0.208253
0.0275461
0.139048
-0.0596817
0.0873303
-0.0276486
-0.110849
-0.0271645
0.138013
0.0853429
-0.0853429
-0.205872
0.233418
-0.0464853
0.0403427
0.118465
0.103793
-1.37378
0.925306
-1.31418
0.0448101
1.26937
0.0229658
-0.0251395
0.0021737
-0.0241757
-0.0460569
0.0702326
0.577991
-0.0113529
-0.566638
0.00932265
-0.0108367
0.00151401
-0.222906
0.0170348
0.15327
0.713878
-0.392616
0.545887
-0.0362101
-1.33681
0.125725
-0.0866509
0.531271
-0.335783
-0.195488
-0.0758664
0.0589134
0.016953
0.0535191
-0.35257
0.0246564
-0.94388
0.0531904
-0.180767
-0.322817
-0.442062
0.0419527
1.25363
-0.839753
-0.413874
0.971462
0.282166
0.074568
0.309539
0.0185323
0.00443343
-0.288075
0.156134
0.131942
-0.267156
-0.561566
0.828723
-0.395285
0.772848
-0.140088
-0.514953
0.217525
0.014648
-0.0407806
0.0261326
-2.03828
0.80424
1.23404
-0.546261
-1.49202
-0.291201
0.602107
-0.906694
-0.023034
0.000328238
-0.243012
0.242684
1.21792
-1.36143
0.143503
0.0572932
0.0684318
0.547021
-0.814177
-0.216511
0.128413
0.0880978
-0.279255
-0.0979368
0.377192
0.232173
-1.01225
-0.0808494
0.0336338
-0.0750519
-0.507338
0.328522
-0.225209
0.0182094
0.206999
-0.108413
0.165707
0.0632132
-0.0632132
-0.104282
0.113324
-0.00904222
-0.180548
-1.13363
0.0979691
0.00116763
-0.0991368
-0.209564
0.220636
-0.0110713
-0.202995
-0.00630162
0.949563
-0.229225
-0.720338
-0.225099
0.489705
-0.264606
0.0066686
-0.00749636
0.000827762
1.01085
-0.822513
-0.172794
-0.00348189
0.176275
-0.200822
0.290188
-0.0894037
0.0877851
0.00161868
0.0680495
0.0241324
-0.0921819
-0.206337
0.224083
-0.0177464
-0.976628
0.100375
0.876253
-0.244141
-0.0559094
0.300051
-0.719465
0.661599
0.0578654
-0.0134687
0.055046
-0.0573987
0.0596716
-0.0022729
-0.0254128
-0.0607034
1.20631
0.222638
0.18328
-0.864551
0.681271
0.0471315
1.5713
-1.61843
0.419081
0.294128
0.0651366
0.0405153
0.184323
-0.0613725
-0.0635068
-0.0259911
0.267168
0.13581
-0.0709117
0.740435
-0.423544
0.0664998
0.229729
0.030419
-0.141696
0.111277
-0.83763
-0.136231
0.973861
-0.00369787
0.00369787
0.0549164
-0.255751
0.502363
0.0121982
-0.25634
-0.143236
0.0907297
-0.0328113
0.094546
0.118537
-0.128703
-0.346511
0.360151
0.0333765
0.105453
-0.13883
0.43348
-0.393992
0.277035
-1.11207
0.835033
-0.228546
0.303114
0.203341
-0.539124
-0.21837
0.653216
0.184964
-0.0377507
0.0377507
-0.379846
0.27172
0.108126
0.425094
0.0239852
-0.0210368
0.0164198
0.00461695
-0.0257948
-0.192605
0.0447044
-0.0460589
0.164596
-0.161927
0.219362
-0.0574353
0.108201
0.0276094
-0.413806
0.192726
0.167308
-0.0591069
-0.0409141
-0.0484896
-0.0284684
0.0570377
-0.0285693
0.165129
-0.11701
-0.0481186
0.0171291
0.359841
-0.37697
-0.121962
0.0835501
0.0924606
-0.0964216
0.003961
0.0223954
-0.45498
0.732015
-0.101113
0.0111914
0.0899215
-0.099856
0.0477337
0.0521222
-0.0766725
0.100019
-0.721279
0.62126
-0.0116862
-1.50908
-0.113613
1.62269
0.343555
1.49669
-1.84025
0.0932079
-0.327162
-0.0319268
0.24429
0.241214
-0.485504
-0.199195
0.229614
0.162037
-0.936098
0.774061
-0.00172378
-0.0981322
0.00291177
0.0307221
-1.01082
0.451511
0.559311
0.839753
-0.737081
-1.63808
1.39262
-1.21792
1.26273
0.0466572
-0.0616344
-0.0106189
-0.0467798
0.0200827
0.859287
-0.69725
0.140668
-0.087478
0.424652
0.740907
0.0107132
-1.40557
1.45271
-0.795783
-0.577992
-0.237077
-0.362168
-0.0218408
-0.183913
0.237432
-0.586171
-0.415702
0.190604
0.849525
-0.271534
-0.880867
-0.757208
0.730301
0.140017
-0.141741
0.319881
0.0432317
-0.0432317
0.673647
0.145489
-0.819136
-0.222404
0.896051
0.943618
-1.43673
0.493115
-0.0516523
0.091995
0.00718568
0.0067438
-0.0139295
-1.52759
-0.622579
-0.127385
0.819341
0.130222
-0.03911
-0.150589
-0.289737
0.846881
-0.178541
-0.0466675
-0.00369392
-0.0901178
-0.0428174
0.0896694
0.356502
-0.21988
-0.831993
-0.258548
-0.127624
-0.0783944
0.206019
-0.547519
0.841647
-0.20558
0.240565
-0.0349843
0.0381697
-0.0196374
-0.239922
0.216218
0.023704
0.0119242
0.457272
-0.0617469
-0.0141195
-0.0269951
-0.015722
0.0427171
-0.0172864
-0.155507
-0.687224
0.342688
0.344535
0.46086
-0.764276
0.303416
0.12595
-0.145739
0.0197891
0.0509399
-0.0748089
0.476163
-0.835428
-0.142444
-0.0974781
0.0749073
-0.00739237
0.137227
-0.318758
-0.637551
0.992332
-0.354781
0.0519132
0.103589
0.0615396
-0.83763
-1.05177
0.075139
0.217822
-0.00160388
0.040821
-0.635285
-0.0841801
0.0562929
0.111015
1.11123
0.0837234
-0.476458
0.137135
0.32392
-0.265879
-0.140394
0.0295455
0.230118
0.824648
-1.05477
0.100382
-0.740309
0.639927
-1.01229
0.876064
-1.58468
0.20299
1.38169
-0.00302336
0.00185056
0.0011728
0.143876
-0.423131
0.20475
-0.122584
-0.0821665
0.0796002
-0.0318665
0.0849843
-0.212609
0.0595153
0.0159714
-0.0413842
0.023385
0.0529057
-0.0762907
1.28717
0.00642401
-0.00733375
0.000909741
0.115098
-0.0315475
0.857306
-0.0534219
0.121854
-0.485852
-0.136727
-0.170349
0.118696
0.00845977
0.0951296
-1.38169
0.835428
0.132216
0.140847
-0.273063
-0.227601
0.0443857
0.117571
-0.0757669
-0.00178702
0.103658
0.0127783
0.0466874
-0.684238
-0.0235832
0.0469681
0.73678
-0.246508
-0.0508337
-0.158731
0.306827
-0.0128564
-0.00818038
-0.0091174
0.0944603
0.156952
0.175011
0.154203
-0.301251
0.147048
0.124701
0.589177
-0.0647413
-0.107705
0.966838
-0.236959
-0.729879
-1.58468
0.036179
0.424681
0.722953
-0.524339
0.721074
-0.196735
0.367282
-0.0708155
-0.296467
-0.327225
-0.387817
-0.0577368
0.0573582
0.000378547
0.25371
-0.206218
-0.0474927
0.229545
-1.14641
0.916864
0.0443794
0.645281
-0.68966
-0.0495052
-0.121889
-0.0363762
-0.0647366
0.00482174
-0.384668
0.000874799
-0.00389816
-0.125848
0.101153
0.0246951
-0.068594
-0.219481
0.010461
0.0277087
-0.106652
0.0240994
0.0517308
0.00794077
0.179828
-0.458573
-0.543921
2.04061
-0.0136247
0.0173226
-0.995958
-0.0162959
0.241118
-0.0834531
-0.0569413
-0.194212
-0.0222995
0.710481
0.155494
-0.865975
-0.0542119
-0.116137
-0.935584
-0.0235024
-0.00740402
-0.647562
0.747581
-0.0201248
0.205089
-0.857235
-0.579498
0.176898
-0.476348
0.29945
-0.149137
-0.00892284
0.00493024
-0.00569502
0.000764778
-0.0279561
-0.178381
-0.0243063
-0.150505
0.76676
-0.666378
-0.134508
0.0441813
-0.274174
0.2855
-0.131297
0.264158
1.17608
0.221205
-1.39728
-0.109411
0.12762
-0.497175
-0.190048
-0.581028
0.662447
-0.640917
-0.0215303
-0.130383
-0.00412572
-1.40557
0.500687
-0.500687
-1.34575
1.34575
0.859287
0.645871
-1.39579
0.749921
-0.899814
-0.0961436
0.587842
-0.331032
-0.25681
0.192312
-0.272594
-0.0165208
-0.00558051
-0.841169
-0.0658308
-0.933263
0.211984
0.0336101
-0.112004
0.699066
-0.128775
-0.570291
0.315809
0.407144
-0.00446679
0.00939704
-0.968303
-1.11511
0.00304718
-0.10196
-0.53893
0.640889
-0.13309
-0.768677
-0.59275
0.210904
-0.809721
-0.973861
1.42329
-0.449426
-0.154306
0.306937
-0.152631
-0.00663574
0.705702
-0.0938327
-1.01925
1.01925
-1.98631
0.925067
1.06124
-0.00235805
0.00878207
0.206136
-0.4145
0.790255
-0.0984879
-0.07241
-0.0395377
0.0865283
0.00209936
0.00456924
2.03594
-1.83295
-0.325479
0.393528
-0.594345
0.93115
-0.336806
0.0940005
-0.236445
0.111807
-0.049859
0.404039
-0.00187154
-0.00719548
0.345797
0.0140444
0.0406543
-0.227848
0.187194
0.155779
0.0388251
0.0876309
0.166604
1.84568
0.051927
0.656074
0.536221
-1.1923
-1.36068
2.16492
0.296366
-0.209611
0.0814256
-0.769095
0.687669
1.30195
0.163413
-0.509924
-0.0749168
0.151222
-0.0763048
0.159738
-0.234655
-0.415644
-0.0916942
-0.0619596
0.0644456
-0.002486
0.00702105
0.0447097
0.0132532
-0.0744998
0.69725
-0.639927
-0.0573227
-0.321463
0.333661
0.869028
0.631676
-0.264394
-0.00554912
0.00671676
-0.00301953
0.131433
0.193046
-0.621355
0.42831
-0.00616849
0.000473463
-0.123401
0.87524
-0.75184
0.0108048
-0.0155866
0.00478182
-0.0233717
0.0169003
0.00647145
-0.654157
0.832375
-0.276111
-1.23297
-0.174429
-0.737081
1.26273
1.39262
-0.214447
-0.193436
0.137527
-0.0554034
0.0602978
-0.00489443
0.389263
0.887799
-1.27706
0.498682
0.0891597
-0.00216318
-0.0040053
0.110026
0.601458
0.0395377
-0.0290287
0.00544554
0.0407131
-0.0437326
0.0646924
-0.0975037
-0.288106
0.721587
0.971462
-0.322341
-0.0694053
0.0018602
0.0675451
1.62186
-0.229243
-0.0685344
-0.0612142
-0.896689
0.159608
0.513921
-0.281748
-0.460266
-0.105612
0.565878
0.774935
-0.335327
-0.439609
0.756245
-0.0457631
-1.45271
-0.0748811
0.0272904
-0.0071325
-0.0201579
-0.0311652
1.60246
-0.198733
0.205919
0.316852
1.77295
-0.510219
-0.693938
0.074064
0.619874
0.346356
0.000300933
-0.330083
0.559788
0.863597
0.679928
0.0856435
-0.0241039
-0.471067
-0.127684
0.598752
0.788176
-0.0397695
0.0127744
-0.0404247
-0.341628
0.081654
-0.280849
1.32334
-0.147263
-0.126435
-0.00394815
0.150783
-0.675122
-0.028568
0.0150993
0.123937
-0.166465
0.0425279
-0.3288
0.345613
-0.0168126
1.2098
-0.98859
-0.75818
-0.0262044
0.784384
0.233541
-0.189289
-0.0442519
0.242964
0.0425362
-0.572335
-0.479432
-0.63454
0.63454
1.66211
0.315809
-0.740309
0.352041
0.511557
-0.133456
0.241582
0.860188
-0.361505
0.00186387
-0.852314
0.85045
0.159758
-0.00082113
0.0269572
-0.857399
0.285065
0.110475
-0.176761
-0.136849
0.31361
0.07743
-0.558067
0.381306
-0.957017
-0.265551
-0.632677
-0.0754328
-0.00823977
0.000906018
-0.219597
0.163573
0.0424454
0.0387442
-0.124881
0.0861371
-0.982954
-1.00336
-0.00638944
0.076774
-1.19807
1.46114
-0.263076
-0.616166
0.420677
-0.187295
0.292749
0.254053
0.024071
-0.0211592
-0.418923
0.189698
0.0300167
0.0624439
-0.243521
-0.0306537
0.193038
0.0117125
-0.396003
1.7102
0.367378
-0.321179
0.869621
-0.788196
0.726775
-0.419948
-0.563982
0.149482
0.145027
-0.785296
0.745679
0.0396178
1.10763
0.215709
-0.205724
-0.119755
0.0380019
-0.0819007
0.95603
-0.837361
-0.118669
-0.15808
0.0871683
0.0302247
0.13471
0.875181
0.497315
-1.3264
0.829087
-0.3469
-0.0688018
0.598489
-1.79656
0.322948
1.29552
0.434888
-0.119079
0.180998
0.560023
-0.741021
0.228945
0.0449726
0.017385
0.00668595
-0.484458
-0.079524
-0.11117
0.00275697
-0.166064
0.120005
-0.576158
0.311551
-0.991499
-1.00653
-0.276082
-0.465409
1.2595
0.00987407
-0.265846
0.1791
-0.138386
-0.304496
0.269962
0.0758347
1.31111
-1.08157
-0.166594
0.107487
-0.230237
-0.0086885
0.238925
0.028749
-0.00145863
0.0432407
-0.0627313
-0.266069
-0.145612
0.697294
-0.406387
-0.290906
-0.238144
0.152703
-0.109575
-0.0431278
0.235063
0.0348991
-0.0901587
-1.75009
-0.0866869
0.127508
1.48071
-0.983392
-0.0821713
0.134294
-0.0101819
0.0318981
-0.0217163
-0.0126178
-0.0125216
-0.220629
0.0789336
0.051521
-0.607598
0.453291
0.00335584
0.0183729
0.215168
-0.690341
1.15758
-1.30484
0.0162758
-0.172971
0.156695
-0.128409
-0.558507
0.686916
0.0980366
-0.733321
-1.00361
0.245433
0.00761662
-0.00130212
-0.0063145
-0.277916
-0.662447
-0.175183
-0.170002
-0.471067
-0.208422
0.147049
-1.12993
-0.990131
-0.0617369
0.190666
-0.128929
0.288245
0.132609
0.258092
0.388587
-0.646678
0.12049
0.0195265
0.726936
0.829272
-1.55621
-0.233903
0.977019
1.1879
-0.219313
0.161878
-0.860395
1.83741
-0.334606
0.164666
0.00626439
0.0138183
-0.040501
0.558173
-0.879351
0.68156
0.0933749
-0.263334
0.310022
0.252163
0.608025
1.00555
-0.0387075
-0.0125669
-0.434888
-0.632677
-0.713822
0.721349
-0.225148
-0.880867
0.645281
0.638351
-0.933505
0.270229
-0.0151736
-0.770123
-0.312935
0.634465
-0.790017
0.155553
0.0909805
0.0617225
1.11427
0.282816
0.391435
-0.674251
-0.00936235
0.00112258
-0.240448
0.19378
0.732501
0.245678
-0.228644
-0.202553
1.40271
-0.638342
-0.250286
1.00021
0.142114
1.22533
-1.36744
-0.491914
0.36423
0.927888
0.533256
0.173552
0.881568
-0.598752
0.00500635
0.202762
-0.0592296
0.019086
0.222032
0.0108162
-0.0422704
0.0314542
-1.0154
-0.0393657
0.334048
-0.804497
-0.446106
1.58503
-1.13893
0.351616
0.579535
-0.0574071
0.0614227
-0.00401557
0.344351
1.05836
-0.715953
0.992893
0.90451
-1.35062
0.285891
-0.0831291
-0.586342
-0.405157
-0.847616
0.989731
-0.0684985
-0.867488
-1.44577
-0.172656
0.881568
0.0471555
-0.851652
0.830455
-0.644048
-0.186407
-0.981994
0.395652
0.0125604
0.132322
-0.000461954
-0.13186
-0.971508
0.566351
-0.238721
0.909625
-0.933127
0.175262
-0.192549
-0.0862981
0.223525
0.962253
-0.16943
0.0647147
-1.49663
0.0993487
1.9088
-1.22887
-0.553354
-0.517692
1.07105
0.446646
0.0158108
-0.009067
-0.729026
0.68966
1.58047
-1.23612
-0.0651366
0.328267
-0.263131
1.19896
0.38607
0.786242
-0.816634
-0.493421
-0.450458
-0.471194
-0.500314
0.802972
-0.802972
0.68187
-0.68187
-0.729026
-0.467553
0.467553
-0.328267
0.332118
-0.636903
-0.0419642
-2.02754
2.02754
1.58047
-1.23612
0.786242
0.770106
-0.770106
0.816634
0.759445
-0.759445
0.506579
0.528806
0.482308
-0.447069
-0.499686
-0.549542
1.07835
-1.36169
-1.52131
0.673698
-0.453505
1.38139
0.354551
0.0422676
-0.0956895
-0.889023
0.105681
0.783342
-0.204645
0.182804
-1.00015
0.576609
0.983727
-0.631686
-0.130505
0.00402427
-0.0234482
-0.781952
-0.0825994
-0.559311
0.0100145
0.0207075
1.0484
-0.263283
0.261679
0.171331
-0.0108098
-0.00398294
0.0147928
-0.808567
0.0653054
0.743262
1.18462
-0.222364
-0.545064
0.390793
0.154271
0.919517
-0.736267
-0.18325
0.0816516
0.27102
-0.0129969
-0.0489627
-0.0413796
-0.0163572
0.794378
-1.3419
-0.795593
0.106892
-0.731255
0.798321
-0.0670664
0.126071
-0.899607
0.773536
-0.800771
0.909351
-0.10858
-0.0656254
0.0530075
0.0208484
-0.26386
0.113209
0.876521
-0.104213
-0.78481
0.91944
-0.0962291
-0.823211
0.301593
-0.207593
0.731113
0.815304
-0.537173
0.437096
-0.347937
0.111362
-0.896172
0.90102
0.444734
-0.785112
0.0149892
1.01914
-0.89307
1.24825
1.05209
0.517755
-1.56985
-0.871835
-0.128318
-0.381925
0.00495463
-0.692652
-0.173323
-0.786402
0.786402
-0.571587
-0.0931221
-0.865207
0.12894
-0.8617
0.759741
0.0626846
-0.185268
-0.0644375
0.0772912
0.0100391
0.194561
0.82458
0.816229
0.767232
0.145842
-0.913074
0.510125
0.871267
-0.777989
-0.117294
0.895283
0.188867
-0.90482
-0.670646
0.891158
-0.779797
-0.116899
0.45937
-0.0551248
-0.404245
0.219519
0.148568
-0.368087
-0.295575
-0.638132
0.933707
-0.894887
-0.833257
0.102002
0.472627
0.254148
-1.92311
0.777692
-0.539242
0.539242
-1.1975
-0.299134
-0.487415
0.772479
-0.708003
0.681799
0.773864
-0.225513
0.700514
0.131861
-0.409525
-0.667967
1.07749
-0.0934955
-0.670781
-0.160863
1.56222
-0.633372
0.708511
-0.196629
0.285863
-0.204212
0.777377
-0.885957
-0.340532
1.2118
-0.165346
0.741955
0.551941
-0.551941
-0.0754563
0.0558189
0.0957272
-0.056983
0.229263
-0.0806951
-0.125059
0.000405104
0.00816707
-0.00857218
-0.653958
0.697905
-0.0439472
1.49951
-0.981754
0.117511
-0.897307
-0.849549
1.0784
-0.228847
0.182659
0.879545
0.319301
1.18021
-0.751465
0.587377
-0.671557
-0.624498
0.127322
-1.39128
0.0301349
0.213853
-0.808497
-0.582781
0.0126987
-1.03659
0.0849035
0.713418
0.706056
-0.118679
0.0863376
0.770968
0.57264
1.02088
-1.59352
-0.0511374
0.558775
0.301264
-1.01521
0.774181
0.241033
-0.687034
-0.122687
1.82958
-0.201003
-0.183664
-0.0499153
0.486616
0.513384
-0.7678
-0.118156
-0.650376
0.0545353
-0.467886
-1.37914
0.400115
0.599885
-0.201955
0.170408
-0.86403
-0.091134
-0.580423
-0.179854
-0.266568
0.446422
0.00954004
0.00323825
0.0994624
0.0651337
-0.12987
-0.0907586
0.751227
-0.630816
0.717154
-1.2974
0.488905
0.724763
-0.932208
0.207445
-0.750445
-0.206628
0.957073
-0.267656
0.254814
-0.0250843
0.0715546
0.094152
-0.00457227
0.658091
-0.118849
0.149731
0.104321
-0.738377
0.0844189
0.290277
-1.61937
0.00519935
0.829833
0.139107
-0.299048
1.03996
-0.014144
0.166803
0.150048
-0.00306293
0.0717134
-0.108131
-0.0709117
0.361189
-0.203004
0.731543
-0.528539
0.853229
-0.0351669
0.00299756
0.0321694
0.115738
-0.000446578
0.00132138
0.244439
-0.120501
-0.185561
-0.522442
-0.308057
0.105053
0.0126041
0.326626
-0.200665
-0.873112
0.997632
-0.12452
-0.778764
0.849647
-0.0708829
0.400455
0.120272
-0.454879
-0.0457862
0.158352
-0.437949
-0.107116
0.28951
0.486346
0.203752
-0.690098
0.439839
0.0609665
0.636939
-0.576523
0.538171
0.0383527
0.82038
-1.12488
0.0419892
-0.0536542
0.011665
0.687883
-0.00935749
-0.084366
0.0218881
1.25824
-0.133254
0.533709
-0.010807
-0.291695
0.102406
-0.14364
0.185256
-0.0416158
0.0212135
-0.0103972
1.68329
-0.854022
0.162936
0.245456
-0.0289385
-0.113448
0.201338
0.105964
0.00156693
0.112079
0.772787
-0.881637
0.686512
0.195125
1.2431
-0.120881
-1.12222
0.643019
0.138381
0.0399948
0.0686243
-0.108619
-0.209692
-0.980821
0.312854
0.0138308
0.71647
0.693969
-0.0589717
0.975634
0.138639
0.831886
-0.022904
0.287062
-0.835611
0.0373526
-0.276708
0.980833
-0.188516
0.680557
0.0922299
0.0118082
-0.0113523
0.131625
-0.10547
0.157404
0.0527049
-0.118786
0.423484
-0.0550489
0.742998
-0.0845716
0.210577
0.278
0.965102
-0.171789
-0.497204
-0.0856648
-0.112856
-0.00417037
0.0015639
0.00260646
-1.02931
-0.0955667
-0.0249594
0.749279
-0.238186
-0.607625
0.609535
-0.00191043
0.401854
0.764976
-0.392543
0.599988
0.0745127
-0.160811
0.61774
0.147236
0.650947
0.1907
-0.237239
0.674336
0.148383
0.212806
-0.632671
0.349102
0.283569
-0.28749
-0.0719429
0.0467748
0.0515066
-0.0417117
0.973382
0.7372
0.0946863
0.593794
0.234929
-0.854884
-0.0794258
-0.661351
0.67634
-0.0160232
-0.638629
0.458775
0.892752
0.678706
0.15382
-0.100457
-0.20205
-0.307874
1.19874
-0.0411633
-0.64942
-0.0413171
-0.108072
0.320878
1.35923
-0.690712
-0.0691593
0.491916
-0.762075
0.945404
-0.183329
-0.412132
-0.220539
0.0589422
-0.107073
-0.10027
0.647454
-0.0260312
0.0103092
0.630303
0.657372
0.172461
0.587572
-0.135215
0.268107
0.650744
0.257647
-0.908391
0.278347
-0.922395
-0.205092
-1.09975
-0.199927
0.795359
-0.595432
-0.650723
-0.0421529
0.113708
-0.0529661
-0.864398
0.047839
-0.0580209
0.529987
-0.231529
-0.0645806
0.29611
0.00149061
-0.586171
0.282363
-0.115559
-0.461583
-0.0145881
0.00377827
-0.115711
-0.0517268
-0.57044
-0.00608344
0.566365
0.326387
0.622292
1.0004
-0.27237
-0.377909
0.650279
-0.324743
-0.616565
0.616565
-0.159443
-0.865672
1.02512
0.0278049
-0.137215
0.704072
-0.137707
-0.23486
-0.447824
0.26416
0.0448955
0.74242
0.31585
0.152335
-0.110383
-1.43002
0.487022
0.0511483
0.0296334
0.030371
-0.78986
-0.457809
-0.3616
0.693558
0.306442
-0.457809
0.693558
-1.40713
-0.302507
-1.40713
-0.696299
0.696299
0.303701
-0.0158791
0.199128
-0.0722638
0.221866
0.0171861
-0.442963
0.647435
-0.0598631
0.684502
-0.504145
-0.180357
-0.0761612
0.0814955
-0.00533431
-0.0197442
0.0201493
0.570801
0.0212061
0.0383102
-0.43705
-0.321953
0.102356
0.0558027
0.849708
-0.289685
0.238862
-0.377248
-0.0145617
-0.0043136
-0.0218353
0.66284
0.0536305
0.407272
0.0407527
0.00196445
-0.0214441
0.0884859
0.58747
-0.472303
-0.115168
0.998837
0.528757
-0.66211
0.824243
0.0101002
-0.0561572
0.0951505
-0.067233
0.231025
1.02052
-0.369775
-0.00939017
-0.0660426
0.91422
0.318723
0.026609
-0.026609
0.0146081
-0.0146081
0.0454185
-0.0454185
-0.0136247
0.364525
0.451049
-0.140883
-0.780701
0.509167
0.210604
0.0338347
-0.0785697
-0.48991
1.06765
0.10839
-0.795424
-1.07135
0.491851
0.232516
0.0158134
0.0010869
0.0136954
-0.0136954
0.768513
0.0149976
-0.0149976
0.701893
0.0679694
0.0278044
0.0129483
0.00757007
-0.0769754
-0.025407
0.025407
0.0260434
-0.0260434
-0.0189706
0.0189706
0.0144716
-0.0144716
0.197531
-0.287054
-0.0928407
0.225405
0.0151349
-0.0151349
-0.366932
0.537762
-0.17083
0.547591
-0.240654
0.674082
-0.43522
0.567109
-0.277377
0.054886
0.554649
0.568796
0.00991281
-0.00991281
-0.0476067
0.0205752
-0.0205752
0.0146651
-0.0146651
0.717726
-0.72271
0.0401572
1.09069
-0.215449
-0.00467678
0.00467678
-0.0311357
0.0311357
0.0162354
-0.0162354
0.0265548
-0.0265548
-0.0202283
0.0202283
0.0311913
-0.0311913
0.459994
-0.0280436
0.0280436
0.0033554
-0.0033554
0.0211298
-0.0211298
0.0184845
-0.0184845
-0.0114268
0.0114268
0.143103
-0.0201967
0.0201967
0.84871
0.0191508
-0.0351523
0.0351523
-0.0162116
0.0162116
-0.0585799
0.0585799
0.0296623
-0.0296623
0.0288756
-0.0288756
-0.00624068
0.00624068
0.0143394
-0.0143394
-0.862974
-0.495431
0.0241524
-0.0241524
0.0021826
-0.0021826
-0.0340894
0.0340894
-0.0313419
0.0313419
-0.0079843
0.0079843
-0.36646
0.618623
0.307442
-0.0287558
0.0287558
0.0145464
0.0358622
-0.0358622
0.00122126
-0.00122126
0.0418605
-0.0418605
0.0891241
0.197938
-0.0164936
0.0164936
-0.0267456
0.0267456
-0.528867
0.0505353
-0.764437
-0.0352064
0.0352064
-0.467897
0.0395824
0.0218403
-0.107846
-0.155488
-0.0329929
0.0329929
-0.17715
0.122101
-0.0465178
0.000393498
-0.000393498
0.0324768
0.0295366
0.257663
-0.330679
-0.314893
0.645571
0.229888
0.0179425
-0.0179425
-0.521497
0.583823
-0.0623262
0.813436
-0.430894
-0.382541
-0.421152
-0.667388
-0.06014
-0.317108
-0.500759
0.449621
-0.570772
-0.0224488
0.192081
-0.371384
0.00916258
-0.00916258
-0.000170434
0.000170434
0.0276714
-0.0276714
0.029504
-0.029504
0.000973607
-0.000973607
-0.000643897
0.000643897
-0.303958
0.169474
0.204681
-0.335186
-0.00334013
0.00334013
-0.0507101
0.0507101
-0.0363297
0.0363297
0.231397
-0.234093
0.00269566
-0.0299166
0.350161
-0.588347
0.00580877
-0.00580877
0.0799812
-0.0799812
-0.0698488
-0.528943
0.468803
-0.00140867
0.00140867
0.152661
0.0173148
1.06628
-0.478418
-0.0534641
0.531882
-0.65266
-0.840404
0.147752
-0.0436832
0.0436832
-0.693871
0.304641
0.0450655
-0.0450655
-0.600504
0.343694
0.291153
0.127388
-0.00136914
0.00136914
-0.759166
-0.00227516
0.00227516
0.292791
0.412911
0.0105961
-0.0488308
0.0488308
-0.00223353
0.00223353
-0.0382367
0.0382367
-0.0608418
0.0608418
-0.0031849
0.0031849
-0.0673015
0.0673015
-0.00370101
0.00370101
-0.0413295
0.0413295
0.000652194
-0.0514224
0.0514224
0.00482009
-0.00482009
0.0436998
-0.0436998
-0.00399758
0.00399758
0.0536079
-0.0536079
0.318069
-0.00465462
0.00465462
-0.0050617
0.0050617
-0.0670103
0.0944603
-0.00984353
0.00984353
0.00424827
-0.00424827
-0.0543204
0.0543204
0.285314
-0.016315
0.016315
-0.0655219
0.0655219
-0.00723593
0.00723593
-0.0618763
0.0618763
-0.0143914
0.0143914
-0.0745692
0.0745692
-0.0193745
0.0193745
-0.10805
0.10805
-0.66827
-0.185675
-0.503078
0.501168
-0.768677
0.368303
-0.615191
0.426675
-0.217737
-0.020407
0.00333672
-0.00333672
-0.00354535
-0.761573
0.0318571
-0.00148608
-0.397166
0.80431
0.050506
0.281023
-0.00177356
0.030389
-0.431622
-0.548267
0.134147
0.386898
-0.892994
-0.00633421
0.00633421
-0.808543
0.0265638
-0.0265638
0.0122279
-0.0122279
0.307876
-0.166688
-0.00270129
0.00270129
0.0213055
0.0164452
0.594794
0.428825
-0.0167467
-0.0103712
-0.0021957
-0.0708709
0.458257
-0.387386
-0.00444961
-0.156414
0.0256168
0.768785
0.0262269
0.0800285
-0.402111
0.407065
-0.455575
-1.02595
-0.310852
-0.0588227
0.0160053
-0.765304
0.127172
0.028208
0.00282836
0.027195
0.7476
-0.591601
-0.0198903
0.0725952
-0.0283222
-0.136617
0.335745
0.4434
0.218199
-0.185338
0.239071
0.0384474
-0.014315
-0.520555
-0.0258498
0.19812
-0.262701
-0.0213914
-1.06703
-0.0696627
0.250846
-0.34388
0.357924
0.124209
-0.589617
0.0580551
-0.246202
0.0386089
-0.329512
0.483783
0.0479227
-0.239663
0.19174
-0.0236158
0.0236158
0.140544
-0.404937
0.168946
0.0516893
-0.0626319
0.0466087
-0.0764701
-0.010333
0.0868031
-0.0345708
-0.143496
-0.0602977
-0.200346
-0.304742
-0.390185
0.694927
0.0091462
0.048212
0.158118
-0.00838634
0.0753579
0.0494556
-0.137375
0.282402
-0.00558637
0.0377557
-0.0470745
0.205192
0.00535527
0.237329
-0.0103099
0.0103099
0.371661
0.987565
0.0709197
-0.150346
0.0658206
-0.198911
-0.507081
1.68729
-0.145693
0.0824802
-0.52772
0.0246417
0.106485
0.0631851
-0.629007
0.267502
-0.0639872
0.40954
-0.714282
0.217822
0.556358
-0.0844208
0.0844208
-0.000461954
-1.05514
1.26332
-0.208186
-0.18933
0.136364
0.132394
0.181481
-1.17007
-0.186837
0.0463188
-0.0569377
0.930877
0.41113
-0.25731
-0.0672293
0.0157901
-1.36641
-0.0871854
-0.310124
0.869912
0.625045
-0.274884
-0.365707
0.692333
0.319517
0.401557
-0.276796
0.112755
-0.485027
0.314197
0.141884
-0.141884
0.198279
0.0218151
-0.220094
7.07633e-05
0.00362851
0.0318981
0.194167
-0.403858
0.257177
-0.190149
-0.0670283
0.57899
-0.962526
0.395349
-0.532076
0.713285
-0.146811
-0.188376
-0.0672517
-0.0783601
-0.457106
0.0200562
-0.260429
-0.000525961
-0.0213914
0.348548
-0.00558853
-0.0131614
0.000663334
0.0159937
-0.00547313
-0.0105206
-0.117853
-0.0193136
-0.154183
0.173496
-0.156794
-0.328233
0.0213055
0.341834
-0.00955631
-0.340733
0.0646502
0.00160465
-0.0903256
-0.0505579
-0.00951791
0.00951791
-0.000136538
-0.00509224
-0.0105186
-0.000469868
-0.173842
0.00114783
-0.00125772
0.174971
-0.19727
-0.0023016
0.0023016
0.0913111
0.541232
-0.00189108
-0.321927
0.551887
1.0555
-0.486306
0.368775
-0.435518
-0.0620169
0.230963
0.266055
-0.259667
-0.0657122
-0.00863193
0.00405966
0.0136187
-0.194514
-0.422003
0.93117
0.0666834
-0.370641
0.194575
-0.00152903
0.333353
-0.150694
-0.0047265
-0.000387533
-0.0082444
0.0583046
0.00106292
0.000190754
0.678207
-0.628751
-0.238377
-0.65067
0.601671
-0.00096134
-0.00215424
-0.0465178
-0.00633084
0.817084
-0.43147
0.482618
-0.307064
0.906327
-1.68165
0.62922
-0.202545
0.659253
-0.000542006
0.00305954
0.0127538
-0.0970612
0.142681
-0.20198
0.0100241
-0.00205354
0.0534857
-0.0351494
-0.0183363
-0.00144887
0.11643
-0.184242
0.067812
-0.094415
0.008099
6.80725e-05
0.00251849
0.442352
-0.406828
-0.0214013
-0.00217554
0.893495
0.369828
0.424449
-0.00532147
-0.000563932
0.347847
-0.184911
-0.0255441
-0.1537
-0.0280505
-0.00333682
0.0909553
-0.0511849
-4.51948e-05
0.443882
-0.00211151
0.00585315
-0.00585315
-0.00931964
-0.00105158
-0.00236652
-0.325545
-0.00338755
0.0649112
-0.106673
0.620405
0.00974403
-0.0658871
-0.00246864
0.000407091
0.500413
-0.00234274
0.00264155
0.0563007
-0.001907
-0.00232561
-0.0134955
-0.111564
-0.710411
0.497343
-0.919347
-0.401771
-0.000824857
-1.06392
-0.138719
-0.0579102
0.621046
-0.0171586
0.252778
-0.00376532
-0.00136574
-0.546635
-0.00309278
-0.000516109
-0.00170279
1.07424
-0.634397
-0.00237028
-0.000296577
-0.00548953
-0.000657032
0.0732827
-0.0249525
0.0249525
0.0564986
-0.0615908
-0.00298766
-0.00755597
-0.097207
0.0840455
-0.143355
0.071412
-0.00715551
-0.0126928
0.0538469
-0.0122141
0.0523503
-0.0363449
-0.624845
0.557779
-0.0473218
-0.000911556
0.46342
-0.252843
-0.0834237
-0.731412
-0.0955739
-0.143101
-0.0849137
0.0830067
0.637417
-0.00191795
-0.0366184
0.0344642
-0.0179451
0.0387574
-0.151514
0.112756
-0.0753855
-0.614239
0.921097
-0.543279
0.0175712
0.0111846
0.0133319