/*--------------------------------*- C++ -*----------------------------------*\
| =========                 |                                                 |
| \\      /  F ield         | OpenFOAM: The Open Source CFD Toolbox           |
|  \\    /   O peration     | Version:  2306                                  |
|   \\  /    A nd           | Website:  www.openfoam.com                      |
|    \\/     M anipulation  |                                                 |
\*---------------------------------------------------------------------------*/
FoamFile
{
    version     2.0;
    format      ascii;
    arch        "LSB;label=32;scalar=64";
    class       volVectorField;
    location    "46";
    object      U;
}
// * * * * * * * * * * * * * * * * * * * * * * * * * * * * * * * * * * * * * //

dimensions      [0 1 -1 0 0 0 0];

internalField   nonuniform List<vector> 
2186
(
(1.39087 -0.0734381 2.59559e-19)
(1.81076 -1.04615 -9.38701e-20)
(1.62788 -1.01723 3.10147e-21)
(0.844214 -0.689273 -1.58032e-19)
(0.300837 -0.601279 -1.14553e-19)
(0.46834 -0.211192 0)
(0.822355 -0.758699 0)
(-0.12476 -0.0463361 1.88511e-19)
(2.08439 0.0513785 1.83963e-19)
(0.639341 -0.453462 -2.58795e-21)
(0.593138 0.526751 0)
(1.08818 -0.31108 -1.64118e-19)
(-0.166148 -0.182593 -8.24496e-20)
(1.22466 0.0147095 -4.33837e-19)
(2.02553 -0.746018 -9.58421e-20)
(1.00604 -0.013886 2.05903e-19)
(0.977605 0.0114472 0)
(-0.484397 -0.454029 0)
(0.326154 0.626428 0)
(-0.191658 0.167944 -3.023e-20)
(0.477987 -0.0855197 -1.29743e-19)
(-0.025781 0.18213 4.05849e-20)
(1.20506 0.0188547 3.58022e-19)
(-0.31896 -0.125397 6.41636e-21)
(1.0423 -0.00792268 -2.82092e-19)
(0.896804 -0.661261 0)
(0.777009 -0.132243 1.63602e-19)
(0.698944 -0.675696 -1.82795e-19)
(1.10765 0.628082 0)
(0.971234 0.0195116 -3.84488e-19)
(-0.110541 0.0963676 0)
(1.03196 -0.0255609 1.33348e-20)
(-0.373843 0.0354167 0)
(1.4011 0.440031 -9.83492e-21)
(-0.131393 -0.198284 3.82712e-21)
(1.42042 0.684955 1.7468e-19)
(1.05265 0.140502 -2.52202e-20)
(0.476497 -0.0318496 -3.90156e-19)
(1.69215 0.0144822 1.03755e-20)
(0.400533 -0.319884 -2.599e-20)
(-0.332532 -0.475471 0)
(0.039416 0.148985 0)
(2.14634 -0.969347 1.06911e-19)
(-0.247917 0.0940429 0)
(1.03957 0.224569 1.92451e-19)
(0.672084 -0.426875 3.06279e-19)
(1.05092 -0.891765 0)
(1.32765 -0.877135 1.19472e-19)
(1.72588 0.264227 0)
(-0.194044 -0.233638 8.40474e-20)
(-0.104674 0.107316 4.46583e-20)
(0.558163 0.512376 1.05808e-19)
(2.34258 -0.797832 1.16394e-19)
(0.538147 0.128406 -3.19297e-19)
(-0.210593 -0.151707 2.01541e-20)
(0.869363 -0.747735 0)
(1.91396 -1.09724 2.3916e-20)
(0.665522 -0.622412 0)
(1.90618 0.0659901 -8.1864e-21)
(1.20981 -0.203086 -4.19667e-19)
(1.82644 -0.0785795 -7.44083e-20)
(1.24621 0.25501 -2.46079e-19)
(1.23672 0.466186 0)
(0.549547 0.0495121 2.8473e-20)
(1.2525 0.344285 -1.6293e-19)
(1.38864 -0.823424 -1.6799e-19)
(1.06862 0.581344 7.30148e-20)
(0.672024 -0.0488733 -6.32151e-19)
(0.812333 -0.0376161 0)
(2.67499 0.152456 -5.69639e-20)
(-0.274236 -0.193766 -2.02572e-19)
(1.95779 0.223773 4.05919e-20)
(0.740354 -0.158627 -2.75676e-19)
(0.977379 -0.61332 0)
(0.791609 0.0832083 -1.05058e-19)
(0.637883 -0.602148 -3.18253e-19)
(2.36194 0.16985 0)
(1.00735 0.00623936 4.21099e-19)
(-0.122029 -0.253453 0)
(1.92384 0.159482 0)
(0.0199443 -0.301316 -2.6334e-21)
(0.644528 0.023393 3.32525e-20)
(1.02735 -0.00236585 4.68305e-20)
(1.21542 0.349063 3.95351e-20)
(0.981335 0.016743 4.90737e-19)
(1.05053 0.0153732 -1.16497e-20)
(0.634854 0.0488664 -3.82226e-19)
(0.432431 -0.532977 1.84386e-21)
(0.154625 -0.176677 0)
(-0.0755738 -0.0738546 1.21443e-19)
(0.971011 -0.721702 -1.77446e-19)
(-0.2621 -0.124366 1.14112e-21)
(1.16587 -0.108455 2.86493e-19)
(0.871818 -0.280463 0)
(0.977931 0.0208895 4.68477e-20)
(1.25147 0.569001 0)
(1.82356 -1.04739 0)
(1.2045 0.195651 0)
(0.0314336 -0.371945 0)
(0.904408 -0.772759 3.13281e-19)
(-0.214369 0.134048 8.24721e-20)
(-0.120071 -0.012175 -3.35665e-21)
(1.44895 0.165609 0)
(1.1906 -0.130305 -2.6189e-19)
(1.12453 0.021121 2.08074e-19)
(-0.415359 0.0077481 6.63493e-20)
(0.543115 0.389504 0)
(2.28152 0.000507325 -7.53557e-20)
(1.06079 -0.56803 8.93048e-20)
(0.674668 1.66751 1.33358e-19)
(1.63307 0.213359 5.39146e-20)
(-0.135327 -0.231107 -1.2876e-19)
(0.927321 -0.84149 0)
(0.483145 0.205798 1.9584e-19)
(2.08567 -0.0751065 -5.56206e-19)
(-0.146234 -1.1249 -9.80268e-19)
(0.878528 -1.08443 -1.13496e-19)
(1.41083 0.447862 0)
(-0.106989 -0.103796 -3.63389e-19)
(0.737397 -0.190819 8.62393e-20)
(1.44284 0.790725 0)
(-0.360845 -0.228628 -9.79561e-20)
(0.789831 0.6702 -3.51465e-19)
(-0.592581 -0.66488 2.84131e-19)
(1.02556 -0.032126 0)
(0.881076 -1.02403 1.42909e-19)
(0.114788 -0.411304 0)
(0.798656 -0.606919 -1.14717e-19)
(-0.597315 -0.532441 -1.42263e-19)
(0.896739 -0.816389 0)
(0.530576 -0.452184 4.39e-19)
(0.643496 -0.573557 2.96455e-19)
(0.476725 -0.431622 0)
(1.11056 -0.882888 -1.35627e-19)
(0.116578 -0.177321 0)
(-0.321498 -0.171493 -6.58097e-20)
(0.92283 -0.800809 1.50109e-19)
(2.34314 -0.0172099 2.27003e-19)
(1.92135 0.0444586 0)
(-0.123209 -0.0901108 0)
(0.609869 0.564615 -4.50133e-19)
(2.00049 -0.661738 6.64371e-21)
(0.0583289 0.0795265 0)
(1.11049 -0.910804 -1.47548e-20)
(1.20521 -0.122495 0)
(1.13147 -0.15758 4.5216e-19)
(2.19219 -0.0270145 -8.00392e-20)
(0.200527 -0.577854 0)
(1.34842 -0.622565 -6.01419e-20)
(-0.295811 0.120109 -2.51603e-20)
(0.070843 -0.330417 0)
(1.2205 -0.916417 1.39574e-20)
(1.00796 0.00380289 -7.03362e-19)
(0.753305 -0.597627 -1.12406e-20)
(0.917675 -0.619791 0)
(1.3373 -0.819613 -1.00836e-19)
(0.598766 0.110791 2.99165e-19)
(1.1274 0.11572 0)
(1.31518 0.0620273 -4.69981e-19)
(1.33487 -0.960435 -2.12175e-19)
(-0.123124 -0.0936553 -1.40106e-19)
(0.200211 -0.764673 -2.41068e-19)
(1.04448 -0.011455 2.68e-19)
(1.01919 -0.5556 -1.1228e-19)
(0.364768 0.378994 -1.70667e-21)
(0.44432 0.291939 7.04669e-20)
(0.966863 -0.168418 1.5139e-19)
(-0.111769 -0.0321714 -3.23685e-19)
(1.96703 -0.966131 0)
(1.64669 -0.800499 -5.20688e-20)
(1.33356 0.570167 2.25863e-19)
(0.916984 -0.717967 -2.28609e-19)
(0.99628 0.00663955 1.44051e-20)
(0.827282 -0.639929 3.15157e-19)
(1.1935 0.713353 1.97338e-19)
(1.60861 0.0682617 -1.68259e-20)
(0.258471 -0.709133 0)
(1.06112 0.0292191 -2.79014e-19)
(0.210483 -0.412605 -3.97566e-19)
(0.978753 0.414701 1.00891e-19)
(0.289454 -0.129677 1.95331e-19)
(1.16804 0.0213385 -4.99625e-20)
(-0.311682 -0.051968 -6.92176e-20)
(1.18787 0.508208 -1.15695e-19)
(1.03158 0.795161 0)
(0.132658 -0.721656 -9.13831e-20)
(0.12721 -0.866905 0)
(0.562897 0.466378 -3.35099e-19)
(1.76097 0.0552237 5.61498e-21)
(-0.233951 -0.513538 2.96309e-19)
(-0.249361 -0.951644 -7.23995e-19)
(0.714045 -0.0487467 2.7799e-19)
(1.41013 0.182762 2.42907e-20)
(1.06963 -0.422082 -3.32142e-20)
(-0.0395336 -0.0263192 0)
(0.269585 1.51879 1.41176e-19)
(1.21961 0.879126 -8.26556e-20)
(0.822903 -0.0205312 -1.5456e-19)
(0.483699 0.44932 2.34713e-19)
(0.531298 0.180941 0)
(-0.195271 -0.714285 -2.73201e-19)
(-0.150165 1.29238 1.63613e-19)
(1.4611 -1.06963 3.91363e-22)
(1.00269 -0.0824682 -2.17615e-19)
(-0.172429 -0.222785 6.85614e-21)
(0.31935 -0.385986 8.15515e-20)
(-0.301949 -0.231809 -2.40412e-19)
(1.68699 0.291463 0)
(1.09471 0.0277212 -3.78426e-19)
(1.74462 0.165583 -8.15882e-20)
(1.41314 -0.691821 1.08473e-19)
(0.393294 0.0366605 4.87318e-21)
(0.518208 0.188088 0)
(0.844457 0.659333 -2.10722e-20)
(0.605687 0.551774 2.32782e-19)
(1.00397 -0.661038 1.61426e-19)
(0.592525 0.388912 0)
(1.02816 -0.0142599 9.40728e-21)
(0.99528 -0.764586 2.28549e-19)
(0.761462 0.326405 -5.43762e-19)
(1.31811 -0.132171 0)
(-0.000309321 -0.0734268 -7.51577e-19)
(-0.372954 -0.0564816 -4.75758e-20)
(1.46478 0.633841 0)
(1.52103 -1.04211 -3.3514e-22)
(-0.417802 -0.445816 0)
(0.225948 -0.495347 6.76053e-20)
(0.643146 0.558629 -1.20424e-19)
(0.90513 -0.3112 0)
(-0.315963 -0.347199 0)
(1.96577 -0.477466 0)
(-0.0863326 1.6453 1.98104e-19)
(1.36708 -0.985166 1.38458e-19)
(1.3052 -0.684209 6.67484e-20)
(1.14269 -0.196305 -1.91914e-19)
(0.998537 -0.796081 -1.79829e-19)
(0.21411 -0.220058 0)
(-0.731474 -0.4785 0)
(1.11246 -0.594987 1.93366e-19)
(-0.110044 -0.062511 0)
(-0.163458 -0.270598 0)
(-0.111804 -1.18002 8.38573e-19)
(0.697702 0.576262 1.04417e-19)
(0.912287 0.703631 0)
(0.602506 0.445557 -1.01643e-19)
(0.845938 -0.141128 -2.49896e-19)
(0.653603 0.459094 -2.72832e-19)
(0.513446 0.470029 -2.02394e-19)
(-0.305587 -0.248964 2.70414e-21)
(0.817232 -0.733143 0)
(0.863273 0.0914285 -3.74787e-19)
(-0.398387 -0.429082 8.99643e-20)
(0.53058 0.487832 4.64335e-19)
(0.856642 0.705311 0)
(-0.221539 1.05165 2.05151e-19)
(-0.189302 -0.318281 4.02141e-19)
(-0.146238 -0.187156 -2.02969e-19)
(0.569835 0.464964 -1.76754e-20)
(0.970175 -0.0109606 6.84375e-20)
(-0.361928 -0.654589 0)
(2.00394 0.434068 -1.12813e-19)
(2.18899 -0.466468 -1.00891e-19)
(0.746259 -0.692877 -8.04373e-20)
(-0.631408 -0.333132 6.17086e-21)
(1.09833 0.391266 2.37601e-19)
(0.808744 0.318483 0)
(1.12168 -0.216471 2.21358e-19)
(-0.0228128 -0.46028 -6.24178e-21)
(-0.200962 -0.0463384 1.58325e-19)
(0.947981 0.0127278 -6.06749e-20)
(1.03181 0.122165 0)
(1.80122 0.13941 -8.07622e-20)
(1.59709 0.0766576 0)
(0.491245 0.103862 -5.20756e-19)
(0.328689 -0.403946 0)
(-0.211874 -0.128319 3.93588e-19)
(0.753964 0.117402 0)
(0.726559 -0.630608 -1.93083e-19)
(1.1627 0.00896219 2.40885e-19)
(0.0314398 -0.47754 2.56189e-20)
(1.71048 -0.0308695 -5.89296e-21)
(2.42752 -0.0498943 -1.25969e-19)
(1.04555 0.176754 -2.65314e-19)
(-0.422798 -0.52551 -1.83764e-19)
(1.21046 -0.955546 0)
(0.826434 0.0175818 -1.75326e-19)
(1.01528 -0.463095 -3.16773e-19)
(1.88892 -0.608381 -5.75801e-21)
(1.73467 -0.0407193 7.31489e-20)
(1.0481 -0.0204878 4.496e-19)
(0.015638 -0.417327 -1.81319e-19)
(1.09165 -0.520126 -1.38759e-19)
(0.226135 -0.217814 2.71521e-19)
(1.00765 -0.0118604 0)
(1.0049 -0.0103526 0)
(1.53448 0.0335785 1.13955e-19)
(-0.360253 -0.147385 -4.36563e-20)
(0.203052 -0.121083 -1.74655e-19)
(1.86311 0.0393446 -3.36056e-22)
(0.841236 0.600062 0)
(1.12269 0.181079 8.19109e-20)
(1.07237 -0.931218 -8.29192e-20)
(2.03693 -0.586186 -8.79139e-20)
(1.00119 0.745551 0)
(0.551601 -0.536968 0)
(0.51132 0.408746 -2.09812e-19)
(1.02014 0.221193 -4.95484e-19)
(2.232 -0.0637688 3.29218e-22)
(0.831086 0.0782662 1.60035e-19)
(0.189127 -0.515673 -5.4614e-19)
(1.21367 -0.253083 -5.22904e-21)
(-0.0865892 -0.896602 0)
(-0.17294 -0.144412 0)
(-0.373091 -1.2394 0)
(1.49125 -0.804914 -9.11503e-20)
(-0.00149706 -0.297838 -9.98762e-20)
(0.0940161 -0.265769 0)
(1.18157 0.880435 -6.92048e-20)
(1.05179 0.103266 -5.08771e-19)
(0.706043 0.100468 4.60592e-20)
(0.979496 0.830895 1.3995e-19)
(-0.206374 -0.204224 6.46788e-20)
(0.610679 -0.132536 0)
(-0.306337 -1.29619 -6.22289e-19)
(-0.0364505 -0.306021 1.28194e-19)
(0.771324 -0.0686303 2.05238e-19)
(1.41691 0.848493 -9.07663e-20)
(0.562683 -0.798888 5.62799e-20)
(-0.304242 -0.10779 2.37033e-21)
(0.847096 -0.77219 -3.94173e-20)
(0.969752 -0.0156057 0)
(1.36884 -0.109082 0)
(1.14619 0.0629769 0)
(0.388029 1.25872 -7.81375e-20)
(-0.401605 -1.23685 1.92715e-19)
(0.942653 0.751178 0)
(1.01209 -0.0388919 5.84458e-19)
(0.672782 0.501467 -2.75718e-19)
(0.434415 1.63352 -5.93595e-20)
(0.853489 -0.0643707 -4.64529e-20)
(0.812197 -0.743178 -2.32884e-19)
(1.273 0.622285 -5.73437e-20)
(0.667389 -0.581097 -3.07474e-19)
(1.11655 -0.00840195 -5.33952e-19)
(0.851608 0.0325337 5.16796e-20)
(1.64714 -0.152327 8.15777e-20)
(1.59842 -0.126493 9.56625e-20)
(-0.0197619 0.00290531 1.87319e-21)
(0.991634 0.387442 -3.32551e-19)
(1.2736 0.544261 1.90373e-20)
(-0.251664 -0.279781 0)
(0.131107 -0.70091 2.04203e-19)
(0.0905249 -0.138993 3.15368e-19)
(-0.185103 -0.205768 -1.68364e-19)
(0.385718 0.155241 0)
(1.71768 -0.274341 0)
(-0.05557 0.0401404 -5.49329e-20)
(-0.443919 -0.484162 -9.36462e-20)
(1.03802 -0.0373821 2.11526e-19)
(0.34494 -0.817922 -3.89105e-20)
(0.586257 0.62951 1.32065e-19)
(-0.503503 -0.210312 0)
(0.944496 -0.836383 -3.19268e-19)
(1.12548 -0.349679 -2.13779e-19)
(0.286576 -0.708054 2.5826e-19)
(0.682619 0.041667 3.72829e-19)
(0.591032 -0.0103426 1.19708e-19)
(0.582123 -0.556059 2.14221e-19)
(0.0462898 0.0546702 -2.27703e-19)
(0.498949 -0.513425 0)
(0.302454 0.191754 -2.24198e-19)
(1.02328 -0.025256 -3.36045e-19)
(-0.277507 -0.941539 2.81373e-19)
(1.30371 0.407178 -1.93175e-19)
(-0.149229 -0.0900609 -7.5886e-20)
(0.797385 -0.725594 -4.69218e-20)
(0.768281 0.091972 -2.38732e-19)
(0.896136 0.342041 2.79146e-20)
(1.20961 -0.17919 3.97157e-20)
(0.668211 -0.367017 -3.21379e-19)
(2.25251 -0.273572 -1.43542e-19)
(1.89854 -0.139182 0)
(0.897769 -0.155865 5.42427e-20)
(0.778781 0.218853 -6.16448e-21)
(1.62889 0.182231 1.50193e-19)
(0.999386 0.320285 -8.74867e-20)
(0.691138 0.26811 -6.01626e-20)
(0.333556 0.280316 -2.93544e-19)
(-0.416241 -0.311354 7.82396e-20)
(2.59306 0.334672 0)
(0.917156 0.000248284 0)
(0.991267 -0.874524 6.1538e-20)
(-0.205243 -0.383699 -4.40047e-19)
(-0.690762 -0.182149 -1.57409e-19)
(-0.0361368 -0.00794739 -3.0876e-19)
(-0.299146 -0.355968 -8.35498e-20)
(0.0781778 -0.86673 0)
(-0.147126 -0.127844 5.16695e-20)
(-0.459394 -0.12679 -5.0216e-20)
(0.33859 -0.38486 -1.87455e-19)
(0.84205 -0.211357 0)
(2.05688 -0.697166 5.29478e-20)
(0.0757664 0.0102116 0)
(0.997391 0.0229791 4.23534e-19)
(0.323569 -0.578899 3.72402e-20)
(0.640901 -0.552669 4.12018e-19)
(-0.0922205 -0.734937 6.57127e-19)
(0.105665 1.51531 0)
(-0.364139 -0.0823413 4.76723e-20)
(1.0106 0.012729 -1.27715e-20)
(-0.0866739 -0.162393 0)
(1.00502 -0.0109941 -6.60907e-20)
(0.97487 -0.826541 -3.05266e-19)
(1.50765 0.269301 0)
(1.00038 -0.35043 2.29417e-19)
(-0.363579 -0.185865 8.1562e-20)
(-0.0460182 -0.0320298 0)
(-0.214315 -0.825336 -7.80858e-21)
(0.830294 -0.73307 -4.49079e-19)
(0.99799 -0.0336235 -3.06358e-19)
(-0.207516 -0.474922 5.30598e-19)
(-0.249995 -0.191815 2.27242e-19)
(-0.0827773 -1.00246 0)
(0.875213 0.388513 0)
(0.451419 -0.575726 2.91396e-19)
(2.09919 0.889293 -6.91698e-20)
(0.97321 0.802893 2.75534e-20)
(1.01885 0.162224 -1.46604e-19)
(1.19343 0.00360526 -2.54074e-19)
(1.13405 -0.0877742 -9.12434e-20)
(-0.2558 -0.520083 -4.89609e-19)
(1.60397 0.146769 -1.92224e-19)
(0.604131 0.0243375 2.55154e-19)
(1.50648 0.20084 1.09625e-20)
(1.13029 -0.183601 0)
(1.04549 1.65778 2.50401e-19)
(1.14578 0.0214923 -5.7385e-19)
(1.61708 0.529351 7.30884e-20)
(0.836371 -0.563597 -1.71965e-19)
(-0.116159 -0.0946375 2.71718e-19)
(0.904511 -0.796057 4.00809e-19)
(1.15229 0.169025 9.61913e-20)
(1.00643 -0.00840467 2.92634e-19)
(0.104008 -0.596635 -2.02843e-19)
(1.00709 -0.00545804 0)
(0.638832 0.182855 5.57482e-20)
(-0.0779503 -0.0498049 0)
(1.01541 0.00603969 -1.72604e-19)
(0.315779 1.47213 -2.48051e-19)
(1.55358 0.223194 8.77041e-20)
(-0.0243682 -1.22483 3.53564e-19)
(1.36368 -0.0269157 5.99861e-20)
(1.00987 -0.0250792 6.08968e-20)
(1.39555 -0.119847 0)
(1.60233 -0.664768 -1.47963e-19)
(1.00526 0.00144248 -1.80967e-19)
(1.32567 0.70242 -1.40051e-19)
(1.37587 -0.0269089 0)
(2.04938 -0.0791402 1.77446e-20)
(-0.0680993 0.0447564 0)
(1.46773 0.0842135 0)
(-0.479238 -1.11788 0)
(1.14622 0.382225 0)
(1.73521 0.146162 2.50728e-21)
(0.646164 0.518191 4.83809e-19)
(0.335008 -0.337276 -2.53396e-19)
(-0.402217 -0.412393 -5.44153e-19)
(-0.0580005 -0.0324882 0)
(1.98701 -0.409726 -3.86595e-20)
(1.31912 0.459917 0)
(1.32728 0.253473 0)
(-0.308064 -1.53124 2.64041e-19)
(0.719907 0.630313 1.66707e-19)
(1.78615 0.0377423 0)
(-0.0404565 -0.0384179 1.5886e-19)
(0.856827 0.135685 2.20042e-19)
(2.32719 -0.599958 5.31752e-20)
(1.13273 0.834554 7.25554e-20)
(1.05172 -0.94357 -3.42292e-20)
(1.56946 -0.248218 1.26823e-19)
(0.707834 0.635943 1.736e-19)
(1.07474 0.835011 0)
(2.5359 -0.0164599 -4.50556e-20)
(1.00134 1.13162 0)
(1.8913 -0.973961 1.30502e-20)
(1.17626 0.0792129 1.16155e-19)
(1.0047 -0.0108115 0)
(0.631779 1.51165 1.23529e-19)
(0.936922 -0.257123 5.31302e-20)
(0.726179 -0.531601 0)
(0.755111 -0.501744 2.26129e-19)
(1.13749 0.485082 -4.53364e-20)
(0.404588 0.37465 3.29938e-19)
(0.379966 -0.447707 2.41082e-20)
(0.254189 -0.216725 5.37212e-20)
(0.804969 0.0674543 0)
(1.47669 -1.00258 -7.17192e-20)
(1.01873 -0.0475085 4.70582e-19)
(1.49309 0.305 6.93005e-20)
(-0.076196 -0.186776 1.35554e-19)
(0.289301 -0.176728 0)
(1.32027 -0.268441 -1.28077e-19)
(-0.0406498 -0.0296353 -2.3719e-19)
(1.33468 1.36737 -4.57535e-20)
(-0.130426 0.0802305 -1.07428e-21)
(-0.178232 0.103993 1.43219e-19)
(0.537059 -0.547483 1.4473e-20)
(2.17606 0.19941 1.51118e-19)
(1.09418 0.391229 -3.83112e-19)
(0.750871 -0.0346856 0)
(1.44781 -0.141159 -1.15554e-19)
(1.60612 0.0965724 3.21184e-20)
(1.02939 -0.865701 1.49209e-19)
(1.31311 -1.10177 -3.39738e-20)
(0.411563 0.376775 2.23186e-19)
(1.36023 1.18401 0)
(1.62025 0.490157 -3.20912e-20)
(-0.0552806 -0.0412127 -4.84723e-19)
(0.793349 0.685649 0)
(0.58528 -0.771974 0)
(0.33791 -0.338332 -4.10106e-21)
(0.237575 0.159846 0)
(0.0321002 -0.0366667 -5.72801e-19)
(0.341386 -0.502229 -6.35088e-20)
(2.00833 -0.423277 0)
(1.13739 0.0997948 3.58254e-19)
(-0.722153 -0.469183 1.27209e-19)
(0.614467 -0.584682 -4.90688e-19)
(1.65221 0.106406 -6.99192e-21)
(0.69903 -0.638462 0)
(0.942519 0.100759 0)
(1.60257 -0.256291 0)
(1.05437 0.178186 -2.86977e-19)
(1.26192 0.0849312 4.10356e-19)
(0.0514187 1.27634 0)
(0.938244 -0.0728336 0)
(1.75801 -0.0655359 -3.44568e-21)
(-0.0675156 -0.173931 4.29059e-20)
(2.10777 0.192294 1.09319e-19)
(1.25401 -0.609243 2.36727e-19)
(1.7 0.0880669 1.47273e-19)
(-0.708545 -0.409101 -9.82206e-20)
(1.59466 0.0838479 1.04171e-19)
(1.02467 -0.0469278 4.78214e-19)
(1.39644 0.523117 0)
(0.0857035 -0.375888 1.64908e-20)
(1.13227 -0.932027 1.8253e-19)
(0.871612 -0.101256 5.43008e-20)
(0.734105 -0.552479 0)
(2.14236 -0.536909 6.1532e-21)
(1.29698 -0.229691 1.69389e-19)
(2.22152 -0.990729 0)
(0.693772 -0.644674 4.70233e-19)
(0.650312 -0.0339826 1.15464e-19)
(1.72861 0.253456 -2.3519e-19)
(-0.00189415 -0.24262 -9.11168e-20)
(1.2233 0.541737 2.21853e-19)
(1.06154 0.341127 4.64698e-21)
(0.834205 0.284085 2.66841e-19)
(2.03654 0.947572 -6.74253e-20)
(-0.285559 -0.576977 -1.06836e-21)
(1.61866 0.271253 0)
(-0.130232 -0.134724 4.42841e-19)
(1.25038 -1.08342 0)
(1.18757 -0.741028 2.31207e-20)
(2.02803 0.804355 -4.64068e-19)
(0.86848 -0.123367 1.1607e-19)
(-0.128774 -1.00871 -5.80142e-19)
(0.901814 0.39994 2.1621e-19)
(0.413169 1.0306 8.62656e-20)
(0.670217 -0.0402116 0)
(1.9629 -0.023945 0)
(0.284368 0.026414 1.0976e-21)
(0.808321 -0.0115538 0)
(1.45663 -0.220323 -1.743e-19)
(-0.485603 -0.251884 5.80832e-19)
(1.78553 0.417209 -8.50679e-20)
(1.01593 -0.0390491 0)
(0.645685 -0.48805 1.10905e-19)
(1.01027 0.0264305 2.27169e-19)
(0.521145 0.991295 -5.3277e-21)
(-0.540712 -0.307689 0)
(1.22539 -0.544405 5.30647e-19)
(1.80811 -0.106845 2.132e-22)
(1.20698 -0.57292 -2.3102e-19)
(2.04363 0.152478 -2.54071e-20)
(1.18182 0.703965 0)
(0.833746 0.0124386 0)
(-0.268735 -0.697382 -3.65567e-19)
(-0.0580279 0.0179841 6.18272e-20)
(0.876356 0.288029 -2.49613e-19)
(0.381661 -0.459763 -1.76493e-19)
(0.567216 0.288986 2.82483e-19)
(1.78398 -0.299929 0)
(0.61692 -0.573002 0)
(0.954759 -1.18419 3.88827e-23)
(1.3538 -0.570721 -1.07925e-19)
(0.947631 -0.070406 1.75379e-20)
(0.764926 -0.271573 1.2931e-19)
(-0.121647 -0.107616 -1.10274e-19)
(0.51307 -0.0991425 -9.28343e-20)
(0.582438 0.538988 0)
(1.16438 0.61387 0)
(1.48817 0.225421 0)
(-0.219794 -1.08375 -2.49492e-19)
(1.21085 0.49099 8.64339e-20)
(1.6312 0.236618 6.82686e-21)
(0.858006 -0.00507081 0)
(1.52628 -0.973952 0)
(1.66165 -0.0578239 1.47047e-19)
(0.439053 0.752172 1.11028e-20)
(1.00566 -0.00121208 -2.27685e-19)
(1.37376 0.419801 0)
(-0.32615 -0.245956 0)
(1.15175 0.260585 3.70595e-19)
(0.933563 0.445712 -1.63641e-19)
(1.05257 0.00654644 0)
(1.74432 1.10989 0)
(1.88184 0.565836 -1.01574e-19)
(-0.281282 -0.154925 -1.76074e-21)
(0.999926 0.00723645 0)
(0.622553 0.360824 -3.9517e-20)
(1.06136 -0.931878 0)
(1.00122 0.0108924 5.28289e-20)
(1.46388 -1.35551 -1.58363e-19)
(0.979141 -0.404129 3.33843e-19)
(1.3865 -1.29288 4.57315e-20)
(2.16515 0.11169 2.24023e-19)
(0.571754 -0.067212 -2.81686e-20)
(0.824599 -0.032167 0)
(1.04489 0.000356406 0)
(0.396319 -0.4068 0)
(0.591664 0.563888 -2.4106e-19)
(-0.0717324 -0.114008 7.34344e-20)
(1.08718 0.290401 -5.90631e-19)
(-0.0607817 -0.621471 0)
(0.734728 0.545456 2.05454e-19)
(1.09087 -0.409275 0)
(1.00553 -0.00485241 1.33315e-19)
(1.345 1.53523 3.18198e-20)
(0.953203 0.331894 3.20325e-19)
(0.77736 -0.153666 0)
(1.77746 0.0386458 2.96626e-20)
(0.853471 -0.204956 -4.05399e-19)
(0.137363 0.392401 -7.28491e-19)
(1.07383 1.0588 0)
(0.825735 0.154712 2.04312e-19)
(2.38052 0.352056 0)
(0.688745 0.418852 4.34493e-19)
(-0.420113 0.188676 2.56268e-19)
(0.0045192 -0.193836 0)
(0.516264 0.486807 -8.62235e-20)
(1.14382 -0.731297 -1.63465e-19)
(0.56407 -0.416584 -1.2792e-19)
(1.02454 -0.0357358 0)
(-0.499763 -0.492495 -4.5908e-20)
(0.734302 -0.664445 8.60259e-20)
(0.844961 0.203886 0)
(1.95337 -0.162302 4.73745e-20)
(0.886575 0.748154 3.28143e-20)
(1.56927 -1.50481 1.13664e-19)
(0.454954 -0.0482108 -3.18363e-19)
(0.265972 -0.320136 -5.85455e-19)
(-0.165391 -0.116395 1.33494e-20)
(0.743607 0.259222 2.92218e-19)
(0.0908687 -0.350861 -2.63149e-21)
(1.56397 -0.714687 3.43962e-21)
(1.02899 -0.015003 -3.95301e-19)
(-0.132148 -1.03829 0)
(1.01721 0.00489553 -4.72785e-19)
(1.80389 0.723228 5.60624e-20)
(0.791318 0.595797 3.52803e-19)
(1.17023 -0.0959257 1.83312e-19)
(1.01541 -0.0614648 1.82605e-19)
(1.08905 -0.429696 -1.06777e-19)
(0.0743281 0.0242521 1.19764e-21)
(1.95734 -0.966544 1.92478e-20)
(1.2291 -0.150393 -8.84173e-20)
(0.89031 0.058339 1.01605e-19)
(0.979174 -0.371522 9.84009e-20)
(0.49868 -0.0655562 0)
(0.863784 0.641373 0)
(1.47306 1.46966 -3.7929e-20)
(1.81998 0.0855219 2.55716e-20)
(-0.230879 -0.555536 2.49292e-19)
(1.13153 -0.623104 -5.56816e-19)
(0.714515 -0.63707 4.11656e-19)
(1.19595 -0.117166 1.6887e-20)
(0.291548 -0.318831 2.03002e-20)
(1.74195 -0.966691 0)
(0.731712 0.00637037 -7.6054e-21)
(1.95509 -1.17981 -1.14053e-20)
(0.939768 0.670596 0)
(1.83202 -1.30511 0)
(-0.404575 0.107873 0)
(-0.127746 -0.021908 -9.23541e-20)
(0.0778984 0.162161 0)
(0.812477 0.703706 -4.99161e-20)
(1.14751 0.154986 7.98336e-21)
(0.0749797 1.81929 1.18143e-19)
(0.215738 -0.304567 -4.85243e-20)
(1.68407 0.363015 3.16993e-20)
(2.1818 -0.206801 -3.06803e-20)
(-0.157951 0.0544584 -9.62311e-20)
(-0.058357 -0.81362 5.81841e-21)
(0.584682 -0.0611999 0)
(0.659686 -0.0349791 0)
(1.00017 -0.00206808 2.17074e-22)
(-0.140248 -1.13416 0)
(1.4377 0.116896 -3.08251e-20)
(0.665709 -0.0314339 0)
(1.09247 -0.00504289 1.47093e-19)
(0.987691 0.0124292 -5.16641e-20)
(0.353393 0.0985456 -2.42321e-20)
(1.04363 -0.0294976 -1.08222e-21)
(1.00537 -0.255417 -6.00208e-20)
(1.03991 -0.0572333 4.23621e-19)
(0.770433 -0.709403 1.94593e-19)
(-0.0399172 1.7372 -1.27899e-19)
(0.653544 -0.378309 -1.07886e-19)
(-0.0618972 -0.00930763 0)
(1.02332 0.705072 0)
(1.04418 -0.036152 0)
(1.12203 -0.872697 -1.1171e-19)
(1.18236 -1.00453 3.66104e-20)
(0.954876 -0.668261 1.2183e-19)
(0.981067 1.85217 -4.81011e-19)
(1.24701 -0.773994 2.92418e-20)
(0.681377 -0.519132 -6.66632e-19)
(0.641488 -0.196449 1.21007e-19)
(1.01473 -1.2222 2.32016e-20)
(2.34535 -0.18497 9.94755e-20)
(0.816166 -0.168839 1.24063e-19)
(-0.0749217 -0.0531302 -2.17716e-19)
(1.0203 0.472593 2.56976e-19)
(-0.200284 -0.402117 0)
(0.49487 -0.484595 4.60023e-19)
(-0.16524 -0.155787 -5.22856e-23)
(1.01944 -0.0483255 3.84769e-19)
(1.03127 -0.019535 -9.81412e-21)
(1.10072 -0.0174696 -1.06105e-19)
(1.40451 -0.0653305 -1.25849e-19)
(1.48697 0.273178 1.09647e-19)
(0.4736 -0.449575 -3.30082e-19)
(1.60516 -0.575693 -1.93792e-19)
(1.04892 -0.0214618 -2.79379e-19)
(0.515813 -0.45087 1.10966e-19)
(1.52661 -0.391311 0)
(1.01339 0.511604 -4.84649e-19)
(1.00244 -0.00756825 1.08707e-19)
(0.585203 0.50982 3.11258e-19)
(1.10139 -0.363499 -6.26287e-21)
(1.04376 -0.0247467 -3.5353e-20)
(1.10692 0.00235925 9.99677e-22)
(1.92864 0.115891 -7.8246e-21)
(1.03858 -0.174105 0)
(1.03968 -0.0427629 0)
(1.04865 -0.0362275 6.69981e-19)
(1.00263 -0.00418232 0)
(-0.111468 -0.0806906 0)
(1.11295 -0.692647 0)
(1.00086 -0.00223871 -6.32279e-19)
(1.28646 -0.768746 8.90969e-20)
(1.02723 -0.0133812 1.32721e-20)
(1.23302 0.861271 -5.86765e-20)
(1.41204 0.906369 2.17751e-19)
(1.14011 -0.845043 -4.2282e-20)
(1.64959 1.15572 3.3948e-20)
(0.328546 0.00374422 0)
(-0.473281 -0.139286 0)
(2.18896 0.586924 2.37289e-19)
(1.7661 -0.908308 0)
(0.999809 -0.00569297 -1.95892e-19)
(1.01066 -0.000912378 3.80637e-19)
(1.34978 0.11867 -9.02007e-20)
(-0.00895473 -0.108548 3.40382e-19)
(0.962961 -0.00368173 2.08398e-19)
(1.72375 -0.199029 -1.32351e-19)
(0.375904 0.282975 2.40894e-20)
(1.42986 0.152318 -1.73035e-21)
(0.940988 0.0145705 -2.07812e-19)
(1.0039 0.00291516 2.45306e-19)
(1.0005 -0.000965073 1.45125e-20)
(0.789011 -0.0130034 0)
(0.722796 -0.0270494 0)
(0.716384 -0.0276111 5.9114e-22)
(0.68978 -0.0293911 0)
(0.858323 -0.305025 0)
(-0.149176 -0.0912465 0)
(0.469749 -0.140313 -6.13185e-20)
(0.57143 0.254035 3.41286e-20)
(0.464717 0.645544 0)
(0.511638 0.805218 -5.67622e-20)
(1.25876 0.680247 0)
(2.02269 0.214351 0)
(1.80739 -0.104226 0)
(1.42607 -0.29359 -1.74293e-20)
(0.716479 -0.0891681 -2.3311e-19)
(0.788783 0.0225051 0)
(0.789433 0.0201205 0)
(0.97569 0.0171368 -2.56148e-19)
(0.814722 0.0086974 4.77419e-19)
(1.00884 -0.00121525 0)
(1.0001 -0.000580967 4.53767e-19)
(1.0002 -0.00101173 -4.18138e-22)
(0.791492 0.0217863 4.06634e-19)
(0.987889 -0.00920597 -2.38996e-19)
(2.14785 -0.204882 0)
(0.269345 -0.068082 -2.41165e-20)
(1.00078 -0.00201391 -2.29584e-19)
(0.999318 -0.000318069 -3.93589e-19)
(1.75392 0.749443 0)
(0.999049 0.00167099 0)
(0.999585 2.71594e-07 0)
(1.41819 -0.410296 -2.09333e-20)
(0.803119 -1.19386 1.29915e-21)
(1.09485 -0.601526 0)
(0.441233 -0.78083 1.72637e-19)
(0.801274 1.49133 -1.19347e-19)
(1.0164 -0.0292507 -3.06778e-19)
(-0.51134 -0.940239 -1.81378e-19)
(1.02081 -0.0140355 -2.4666e-19)
(1.2656 -0.248263 -1.18932e-19)
(0.892922 -0.573183 3.24754e-19)
(-0.0527798 -0.0149004 -1.21986e-19)
(1.03729 -7.57099e-05 0)
(1.02001 -0.0216714 -6.86328e-20)
(0.883211 0.0137698 0)
(-0.159866 -0.00623869 1.12867e-19)
(1.78766 -1.12868 0)
(-0.393924 -1.32485 -4.90731e-19)
(1.17395 -0.0947129 1.40198e-19)
(1.52897 0.595604 -1.66205e-19)
(-0.0879016 0.0652836 0)
(1.05091 -0.0398065 2.07352e-19)
(0.778566 -0.83056 4.75778e-21)
(0.924463 -0.0732982 3.21647e-19)
(1.00939 -0.0169375 -2.09105e-19)
(1.55669 0.761716 -4.4261e-20)
(0.443588 0.405646 0)
(0.354712 0.271534 2.35165e-19)
(1.45154 -0.644355 -1.79226e-21)
(1.08871 0.0969589 2.38377e-19)
(1.2098 -0.804116 0)
(1.0186 -0.00923105 0)
(0.998936 -0.0217741 -4.81387e-19)
(1.02077 0.00804286 -4.67429e-19)
(-0.24239 -0.217897 0)
(1.11679 0.731919 -2.01496e-19)
(0.937953 -0.383184 6.66928e-21)
(1.01584 -0.00563319 1.80584e-19)
(1.01283 0.00848178 -2.25528e-19)
(-0.329065 -1.39797 -4.85517e-20)
(0.795192 -1.09369 2.77658e-20)
(1.01503 -0.0257024 7.70768e-19)
(0.609014 -0.253896 0)
(1.72705 0.540625 5.08951e-20)
(1.01374 -0.0220764 -2.39809e-19)
(1.37618 0.15302 -1.1306e-20)
(1.04747 -0.00635879 -5.57816e-22)
(1.00888 -0.0140694 4.79684e-20)
(2.29329 0.130743 -2.10057e-19)
(1.0179 0.00186584 2.3194e-19)
(1.03889 -1.41035 -4.07347e-21)
(1.02037 -0.0116472 0)
(0.894405 0.0814895 5.78353e-20)
(0.369932 1.50022 5.88231e-21)
(1.00459 0.0189776 2.29797e-19)
(1.04317 0.0185035 -6.56278e-22)
(0.643412 -0.718058 -1.5716e-20)
(1.16451 0.274249 5.4899e-19)
(1.00215 0.00815913 1.58382e-19)
(1.01507 -0.0225041 4.37061e-22)
(1.56875 0.205635 -5.80125e-20)
(1.67625 0.843569 -5.3314e-20)
(0.877429 -0.786564 6.16058e-20)
(0.54664 -0.479809 -3.20823e-19)
(1.00513 -0.016876 0)
(1.02319 -0.00443873 5.75971e-20)
(1.01011 -0.0163276 1.21898e-19)
(0.901585 -1.24542 1.87005e-22)
(1.01616 -0.0056652 -2.41765e-19)
(1.04083 -0.0442149 2.76143e-19)
(1.00677 -0.0141947 -2.27916e-19)
(1.01367 -0.00453219 -4.23884e-22)
(1.01296 -0.00581098 -3.25061e-22)
(1.02926 0.00389342 2.31253e-19)
(0.881072 0.01021 5.84352e-19)
(0.20138 0.20622 0)
(1.54928 0.946835 2.54425e-19)
(1.01368 -0.0140999 0)
(1.01678 -0.0352907 -6.72913e-20)
(1.41176 0.372037 -1.55475e-19)
(1.08323 0.145642 0)
(2.50396 -0.290712 4.03817e-20)
(0.636007 0.683116 9.68899e-21)
(0.700697 -0.0170141 0)
(2.27995 0.609492 0)
(0.270684 0.863811 -2.6917e-20)
(0.77364 -0.0411911 5.75623e-20)
(1.01697 -0.0164257 -2.44009e-19)
(1.2321 -0.640385 -6.51847e-20)
(0.559669 -0.616067 4.53277e-20)
(0.697885 -0.923627 0)
(1.3278 -0.682105 0)
(1.0089 -0.0792869 0)
(-0.189925 -0.486472 4.50792e-20)
(0.980187 -1.30332 -5.98103e-20)
(-0.0102809 0.815632 0)
(-0.399268 -0.334891 -9.13896e-20)
(1.58475 0.867822 6.50563e-20)
(1.00913 -0.0104484 -4.75865e-19)
(0.85684 -0.955537 -3.87402e-20)
(1.02377 -0.0114622 3.15619e-19)
(0.65236 -0.0414444 0)
(-0.234276 -0.250724 -3.6087e-20)
(0.528988 0.311549 -3.99061e-19)
(0.228607 0.266327 -4.67295e-20)
(-0.255985 -0.164056 0)
(0.866677 0.076503 8.95013e-20)
(0.447776 0.420442 6.19944e-20)
(1.08244 0.794221 -5.65585e-20)
(-0.0835945 -0.0640176 1.73295e-19)
(1.01221 -0.00779136 0)
(1.00159 -1.23548 -1.63836e-20)
(1.0121 -0.012182 1.78968e-19)
(1.86393 0.0711731 0)
(1.01346 -0.00134052 2.99652e-19)
(0.467508 -0.30385 -2.13953e-19)
(1.01846 -0.0027287 -1.86006e-19)
(0.903567 -1.40552 0)
(2.07955 -0.0374952 -2.30586e-22)
(1.00935 -0.00357771 -1.24431e-19)
(0.994827 -0.0707783 3.28052e-19)
(1.04351 0.0603951 -1.8048e-21)
(0.91934 -1.25371 2.04084e-20)
(-0.128035 -0.157678 4.52227e-19)
(1.85615 0.0320432 -3.75982e-21)
(0.786167 -1.29218 -2.57778e-20)
(0.80071 0.0152709 -4.47928e-19)
(0.758609 0.0208501 0)
(0.894944 -1.30597 -4.55551e-21)
(1.01535 -0.0360444 -3.61821e-20)
(0.977607 -0.0210903 0)
(1.04136 -0.0111832 -2.30592e-19)
(1.32266 -1.44464 9.27327e-20)
(-0.143764 0.499245 3.59247e-19)
(2.42361 -0.567771 0)
(-0.259668 1.31712 -3.41639e-19)
(1.63973 -0.369302 0)
(1.03646 -0.0236261 6.74426e-20)
(1.79951 0.149084 4.62106e-21)
(1.01678 -0.016262 1.93348e-19)
(-0.693383 -0.126841 3.49294e-19)
(1.0173 -0.00793378 0)
(0.993665 0.00373509 -4.64769e-19)
(1.00939 0.0015423 2.45695e-19)
(0.620942 0.502973 0)
(1.81453 0.640342 1.30545e-20)
(0.956051 -0.00128061 -2.09415e-19)
(-0.484093 -0.772792 5.74476e-19)
(1.00422 -0.00588211 -2.39538e-19)