/*--------------------------------*- C++ -*----------------------------------*\
| =========                 |                                                 |
| \\      /  F ield         | OpenFOAM: The Open Source CFD Toolbox           |
|  \\    /   O peration     | Version:  2306                                  |
|   \\  /    A nd           | Website:  www.openfoam.com                      |
|    \\/     M anipulation  |                                                 |
\*---------------------------------------------------------------------------*/
FoamFile
{
    version     2.0;
    format      ascii;
    arch        "LSB;label=32;scalar=64";
    class       volScalarField;
    location    "36";
    object      p;
}
// * * * * * * * * * * * * * * * * * * * * * * * * * * * * * * * * * * * * * //

dimensions      [0 2 -2 0 0 0 0];

internalField   nonuniform List<scalar> 
2186
(
1.00396
-0.0738215
0.223274
1.29419
-0.776178
-0.253347
0.918243
-0.730751
-0.60037
1.52251
1.17336
-0.648394
-0.746462
1.20216
-0.292767
1.19593
1.22658
-0.827589
0.155854
-0.922446
1.59059
-0.905989
1.20957
-0.7215
1.20134
1.27072
1.42141
1.13288
0.673169
1.20195
-0.894099
1.20142
-0.856749
-0.979519
-0.655443
0.15355
-0.820842
1.57588
-0.655511
-0.0677587
-0.745042
-0.867909
-0.402269
-1.04505
1.0236
1.50549
0.601006
0.76671
-0.287527
-0.833816
-0.902549
1.00436
-0.398291
1.49798
-0.955875
1.17996
-0.452543
1.20598
-0.670537
1.03659
-0.294333
0.726454
0.632543
0.0112028
0.658328
0.710497
0.755602
1.48029
1.37421
-0.609795
-0.724027
-0.214951
1.45837
1.22801
1.34855
1.37523
-0.273723
1.22047
-0.660458
-0.739579
-0.750609
0.00832922
1.19704
0.709712
1.19275
1.19836
1.47641
-0.187032
-0.303658
-0.67123
1.18187
-0.875049
1.13935
1.37499
1.2097
0.48578
0.102801
0.673734
-0.802765
1.21908
-0.838736
-0.728432
0.736063
1.16198
1.22885
-0.88051
1.36901
-0.398923
1.16496
-2.09267
-0.739808
-0.834054
0.789719
1.49055
-0.592743
-0.793478
0.0665106
-0.135324
-0.671918
1.46431
0.00619582
-0.862168
0.960899
-0.846116
1.20138
0.18402
-0.804169
1.36628
-0.824981
0.90013
1.59131
1.4542
0.495535
0.892531
-0.758422
-0.847309
1.15276
-0.616382
-0.403913
-0.682916
0.899223
0.0624216
-0.721411
0.942523
1.1342
1.17262
-0.349497
-0.778938
0.857605
-1.00333
-0.840383
0.826486
1.2236
1.40288
1.27126
0.776221
1.46753
0.522786
0.422927
0.674368
-0.681625
-0.772734
1.15778
1.21714
0.123016
0.514403
-0.576985
-0.647203
-0.563612
-0.43783
0.422111
1.22436
1.22711
1.33427
0.493123
-0.193909
-0.759148
1.15719
-0.97627
0.971491
-0.646206
1.21446
-0.910631
0.622994
0.604799
-0.759447
-0.843167
1.27891
-0.391293
-0.765851
-0.776153
1.44688
-0.665522
1.20618
-0.677827
-2.32988
0.119894
1.36154
1.20601
-0.906544
-0.695925
-1.81301
0.341315
1.23498
-0.665138
-0.81422
-0.670898
0.00469876
1.11684
-0.417742
0.771604
-0.234734
1.4777
0.930387
1.03633
1.18284
1.33787
1.20377
1.13263
1.24887
0.638476
-0.817021
-0.885869
0.140137
0.446285
-0.84065
-0.79995
1.17128
1.34923
-0.689119
-0.602493
-1.05223
0.624042
0.899465
1.01592
1.13404
1.34544
-0.96389
1.12206
-0.695325
-0.817518
-0.799372
1.12759
0.822814
1.30132
1.38008
1.25618
1.23065
-0.705636
1.06417
1.2833
-0.722356
1.11238
0.874604
-1.06026
-0.653414
-0.627772
1.3026
1.22089
-0.75712
-0.833932
-0.139698
1.1883
-0.8319
0.850875
1.21492
1.08933
-0.633526
-0.886793
1.18671
0.727937
-0.375396
-0.354015
1.52595
-0.818202
-0.712449
1.07112
1.40699
1.19582
-0.78682
-0.445084
-0.519543
1.04934
-0.735501
0.794805
1.18103
1.24915
0.0710589
-0.229867
1.13635
-0.645304
1.16338
1.41722
1.21731
1.21462
0.0471708
-0.858608
-0.732485
-0.334597
-0.27517
-0.564729
0.631436
-0.286955
0.690918
1.39369
1.36489
1.04961
-0.404214
1.31989
-0.685324
-0.382382
-0.738238
-0.677387
-0.775105
0.608083
-0.847203
-0.863411
0.209568
1.07096
-0.454644
0.445658
-0.849889
-0.405059
-0.783247
-0.828228
1.41328
0.01384
0.419099
-0.884301
1.03055
0.651094
-0.279437
0.781206
-1.74542
-0.767605
0.748652
1.22848
1.21469
-1.7684
1.3463
1.12626
0.439982
1.46383
1.18963
1.15419
0.627878
-0.278791
-0.688788
0.987627
-0.996267
-0.655243
-0.716385
-0.822441
-0.675106
1.54715
-0.283092
-0.895537
-0.712925
1.1895
-0.755927
-0.394812
-0.876927
1.00326
-0.382487
-0.855997
1.438
1.504
1.35334
-0.726295
0.463276
1.56289
1.1961
-0.784522
0.522027
-0.700752
0.432244
1.35296
1.12048
1.10373
1.515
-0.233596
-0.228787
-0.271372
-0.752222
-0.761567
-0.891453
-0.045598
1.48333
-0.859171
-0.735207
1.17857
0.832716
-0.657941
-0.884626
-0.69204
-0.827073
-0.774804
-0.673392
-0.916384
-0.805947
1.4016
-0.498939
-0.815311
1.21581
-0.739121
1.48057
-0.942093
-1.69971
-0.847094
1.19996
-0.635961
1.21952
1.0879
0.0581959
1.26751
-0.871434
-0.672722
-0.705981
1.24519
1.15852
-0.652305
-0.698474
-0.753705
1.11787
-0.811929
-1.1776
0.586107
1.09883
1.1049
0.95296
-0.663371
-0.491303
0.96527
-0.678123
1.04244
-2.27327
1.22134
-0.0131695
1.35774
-0.671478
1.09255
0.809912
1.22633
-0.682416
1.18238
-0.647917
-0.670397
1.20303
-1.42984
0.204166
-0.810859
-0.0623845
1.1988
0.369937
0.552641
1.18982
0.294254
0.130222
-0.132707
-0.896543
0.508855
-0.756876
0.808202
-0.665364
1.21264
1.3616
-0.702012
-0.676936
-0.282063
-0.893684
0.502049
-0.784457
0.945525
0.224429
-0.754469
1.26511
-0.382115
0.436479
0.553456
-0.318426
0.904036
0.406729
-0.173872
-2.19072
-0.854521
-0.947107
1.21326
-2.49393
1.32613
1.44915
1.43606
0.744102
1.32181
-0.800632
-0.818736
1.11938
0.477834
1.17965
-0.913464
-0.765938
-1.11417
1.03463
-0.670777
-1.85776
-0.925743
-0.963759
-0.674046
-0.686261
0.839738
0.826085
-0.404035
-0.544544
0.994841
0.336828
1.28665
-1.97709
-0.16601
-0.671927
0.863144
0.271992
1.39823
1.58012
-1.19816
-0.804082
-0.579148
0.367183
-0.884672
1.27035
-0.589957
1.22877
0.885091
-0.71653
1.00795
0.969214
-1.48605
1.10329
-0.380224
-0.878707
-0.372247
-0.635676
-0.409562
-0.856646
-0.456447
1.20454
0.264868
-0.818864
0.840516
1.34889
1.43681
-0.0779799
0.99823
-0.671969
1.02096
-0.250666
-0.438279
-0.865671
0.574465
0.929272
1.21195
-1.30331
-0.669958
-0.757732
-0.674323
0.151221
0.977203
-1.1895
-0.249389
-0.797174
1.07289
-2.02284
1.12969
-0.235921
-0.549101
1.16232
0.911312
-1.01111
-0.159946
1.1448
1.51072
1.22303
-1.81465
-0.84346
1.04452
-0.211104
1.03108
-0.519348
0.517792
1.14129
-0.77647
-0.89028
1.16614
-0.673995
1.40989
-0.125267
1.11734
-0.560228
0.875286
-0.566489
1.44572
-0.888276
-0.649051
1.09059
0.602389
0.579245
-0.764166
-0.907273
-0.652082
0.908929
-0.551633
-0.473743
-1.89753
1.21441
0.465118
-0.843576
0.860055
1.0189
1.16681
-1.56605
-0.801483
-0.869096
1.2147
1.3349
0.744347
1.21142
-1.1687
1.28388
-0.703727
-0.490679
-0.446457
1.1444
1.18123
-0.908294
0.967603
-0.885123
0.930375
-0.768115
1.13639
1.18502
1.21416
-1.97838
1.05621
-0.730418
-0.488284
1.37666
-1.39627
-2.07039
1.28256
-0.73272
1.25636
-1.22343
-0.876056
1.18467
1.02587
1.573
1.20117
-0.869322
1.31487
1.24525
-0.100233
0.729974
-1.06401
-0.581423
1.69581
-0.687887
1.29434
-0.832765
0.565782
1.202
-0.793813
1.17357
-1.30387
1.0511
1.16979
1.21817
-0.37818
-0.77314
-0.331969
0.836771
0.917938
1.29337
-0.195523
0.944146
-1.80079
-0.276672
-0.960613
1.07718
1.37471
-0.831055
-0.627735
-0.804911
1.42516
-0.904444
0.840258
-1.11911
-0.889393
-0.711886
-0.918156
-1.62336
0.934091
-1.75652
0.314249
-0.306025
-0.259493
-0.943468
-0.723959
-0.226887
1.1525
1.21838
-0.777283
-0.138197
1.17066
1.15574
1.21979
-0.731854
1.16662
1.27901
1.20444
1.29265
-1.29138
0.0681904
-0.887997
0.712693
1.20982
0.955955
0.416596
0.242595
-2.36898
-0.626825
1.48078
-0.265951
-0.383914
-0.371661
-0.0288742
-0.733946
0.901664
-0.66771
-0.73683
-0.668669
1.19258
1.20428
1.20386
-0.485388
0.413804
1.46056
0.134644
1.20304
0.178621
-0.446126
0.872886
1.21626
1.24031
-0.719829
1.15711
1.15936
-0.491482
0.0482951
1.20486
1.2188
1.21755
-0.673158
-0.716777
1.21844
0.862383
1.20365
0.266369
-0.0978651
-0.539337
-1.69681
-0.467979
-0.878385
-1.03174
-0.826586
1.22276
1.22709
0.879111
-0.680814
1.19225
0.103699
0.000847535
-0.327885
1.20323
1.22435
1.21923
1.22934
1.2051
1.19704
1.18568
-0.38499
-0.0674888
0.164646
0.103628
-0.177045
0.211175
-0.0940461
0.0312744
0.100373
0.170301
-0.171997
1.19887
1.21604
1.21121
1.23213
1.22918
1.21959
1.2214
1.20688
1.20217
0.0221049
0.043849
1.21905
1.2195
-0.160524
1.22212
1.21923
-0.581962
-0.480693
0.186632
-0.754686
-2.36598
1.20064
-0.733939
1.20199
0.883583
1.30929
-0.686279
1.20275
1.11925
1.16144
-0.892023
-1.04495
-0.768824
0.077546
-0.00685785
-0.899987
1.21169
-0.610426
1.28996
1.20308
-0.149852
1.34074
1.50783
-0.531833
1.02452
0.916833
1.1952
1.21392
1.21091
-0.684935
0.568142
-0.346814
1.20281
1.21596
-0.782568
-0.678392
1.20351
-0.40882
-0.321886
1.20463
-0.783803
1.17542
1.21565
-0.595187
1.21344
-0.00429271
1.20374
1.25688
-1.89092
1.22027
1.22725
-0.620968
0.803683
1.2066
1.20624
0.209192
-0.785449
0.966605
1.56729
1.21184
1.20782
1.20894
-0.454793
1.20669
1.19967
1.20909
1.20546
1.20636
1.20674
1.29639
-0.686394
-1.38767
1.20839
1.1985
0.367182
-0.80193
-0.171576
-1.21745
1.03608
-0.915034
-1.56646
-0.0576674
1.20293
0.979048
-0.740278
0.377469
-0.727883
-0.666468
-0.915485
-0.279734
-1.36598
-0.89611
-0.325958
1.21142
-0.48239
1.19867
1.09368
-0.672978
1.4229
-0.274024
-0.902821
0.998202
1.29593
0.540296
-0.670399
1.19436
0.0184138
1.20866
-0.575729
1.20958
-0.702487
1.19972
0.0826695
-0.133739
1.21062
1.22763
1.11251
0.321924
-0.671281
-0.720464
-0.0775764
1.22541
1.07406
-0.325942
1.1974
1.24333
1.18618
-0.629716
-1.41481
-0.387977
-1.37044
0.59533
1.20345
-0.329829
1.20636
-0.993285
1.19936
1.23802
1.21299
-0.0509621
-0.017763
1.23973
-0.710268
1.21515
1.21812
0.284603
-0.735756
1.08556
1.31129
1.19771
1.18813
-0.103023
-0.517973
1.18393
0.672681
1.21298
1.09086
-0.759557
-0.71963
1.00942
1.46274
1.19762
0.607571
-1.17355
-0.222635
-0.812212
-1.17647
1.19639
-0.33046
1.17828
-0.848552
-0.679527
-0.800457
0.558493
-0.652516
-0.402112
-0.856353
1.19781
-0.668397
1.05395
-0.695099
0.0992414
-0.449671
-0.503257
-0.843128
1.16178
-0.658006
-0.57078
-0.792791
-0.688617
1.19884
-0.759845
-0.0412811
-1.07576
1.25312
-0.277922
-0.693543
1.26867
1.19622
1.19014
0.746599
-0.641786
1.20043
1.22287
-1.61669
-0.842371
1.19766
1.04407
1.43479
1.21597
-0.0422361
-0.957804
-0.851395
-0.816396
-0.771587
-0.670236
-0.889797
-0.639729
1.04844
0.247965
1.21355
1.39751
1.19244
-0.673011
-0.685469
1.19882
-0.443315
-0.83761
1.19029
-0.00176116
-0.745285
-1.17598
0.180608
1.12671
1.09485
-1.46508
1.07235
0.800894
-0.868215
1.19628
-0.82256
0.96698
-0.914667
1.21774
-0.598724
0.688076
1.20045
1.25746
-0.739102
-1.1387
0.990687
1.57449
1.2202
1.17603
-0.846553
1.47015
-0.606988
-1.06759
-0.537492
0.7303
-0.347553
1.30951
1.38852
-0.702917
-1.38916
1.19336
-0.505283
1.09775
1.22911
1.14481
-0.70718
1.1998
-0.101156
1.23097
-0.232145
-0.307249
-0.0943075
1.20367
-0.310134
-0.464747
-0.325505
1.22493
-0.506709
1.36743
0.527275
1.51347
1.14155
-0.600899
1.19544
-0.873313
1.15749
1.16432
-1.04267
-0.574967
1.29579
1.18145
1.40368
1.14032
0.359398
1.13869
1.20259
1.02413
1.2058
-0.631447
-0.78714
-0.971754
1.31829
-1.34723
-0.808711
-0.886431
-1.49858
0.141654
-0.0216526
1.01328
-0.161473
1.17359
1.22989
-0.838224
-0.696601
-0.56794
-0.817843
-0.780312
-0.866614
1.19771
-0.585123
1.2163
1.45869
1.26002
-0.13558
1.22269
1.11514
-1.13651
1.1816
1.17346
-0.75615
1.17512
1.09581
-0.382065
-0.506601
1.66571
-0.268716
-0.823645
-0.7467
0.502347
1.18825
-0.823206
-0.735322
-0.897899
1.32756
-0.741411
1.00094
1.20681
1.20136
-0.942075
1.19506
-0.655451
1.21145
1.22678
-0.377869
1.21774
0.61946
1.2058
0.96371
-0.957642
-0.0904435
-0.247697
-0.78676
1.42687
-0.0473196
1.21958
1.59141
-0.750373
0.00256153
1.27011
0.0590055
1.267
0.0259152
0.0689356
1.26233
1.26702
0.685921
-0.776797
0.903445
-0.854814
-0.857333
-0.701366
1.22069
1.21574
1.63572
-0.670382
-0.590325
0.993615
-0.777683
1.26348
1.15654
1.21186
1.18659
1.17429
-1.47866
-0.670031
-0.800681
0.965627
1.09854
-1.01686
-0.857937
-0.690863
1.21921
1.24864
-1.16892
-1.03013
1.23555
-0.130807
0.333515
0.916922
1.07807
-0.200211
-0.760533
-0.144984
-0.783432
-0.92076
-1.35424
-0.195253
1.59071
1.55963
-0.749279
-0.803977
1.21814
1.19595
-0.773419
0.218489
-0.0825219
0.787078
1.2919
-0.79554
1.20664
0.129772
-0.749431
-0.629163
-0.808017
-1.00248
1.20227
-0.789921
-0.886139
1.55775
-0.774559
1.20795
1.41379
-0.851881
1.2843
1.47861
-0.785813
1.42908
-0.763736
-0.73868
1.19266
-0.0474999
1.25633
1.21124
-0.752788
1.27671
0.420596
-1.75138
1.23968
1.27301
-0.614812
-0.835821
1.12493
1.2001
-0.720234
-1.04022
1.47236
-0.742184
1.08611
0.36916
1.16751
-0.653072
-2.08623
-0.697265
-0.773336
1.26555
1.25131
1.51359
1.3894
1.1408
1.25942
1.23375
-0.691159
1.30983
1.37868
-0.820843
-0.732259
-0.764077
1.51655
-0.0193811
-0.723304
-0.974949
1.09718
-0.809495
-0.741596
1.18733
1.26283
-0.705331
-0.849195
-0.721547
-0.573603
-0.934746
-0.798166
-0.685363
1.04697
1.14276
-0.870545
-0.432592
-0.582077
0.994471
-0.740491
-0.76041
-0.680502
1.19261
-0.873811
-0.84049
1.55098
1.1258
0.66777
1.42808
-0.963791
1.22552
1.20908
1.33836
1.44063
0.130799
0.8244
1.17558
0.534672
-0.676137
1.63
1.19324
1.1507
1.28391
-0.831049
-0.984628
1.09796
0.957058
1.18178
-1.34756
-1.50508
1.19744
-0.677795
1.07284
0.0575759
1.61518
-0.673327
0.882822
0.994693
-0.884418
-0.671159
-0.852047
1.29824
-0.880673
-0.66756
0.959408
0.757148
-0.822062
1.26409
1.08745
-0.875908
-0.742131
1.13377
-1.38076
-0.670449
-0.698008
-0.899517
-0.555766
1.16045
1.22755
-1.97492
0.880325
1.21175
1.54232
0.551124
0.407865
0.116372
1.13449
-0.1686
-0.888061
-0.0320947
-0.535682
-0.89121
1.18517
-0.891521
0.290087
-0.669676
0.684487
0.833784
-0.895111
0.899417
-1.59751
0.763304
-0.898407
0.604543
-0.890727
0.658909
-0.671038
0.514873
-0.901921
1.07445
-0.934344
-0.907853
-0.91982
-0.667673
1.21854
0.365184
-0.949078
-0.677583
0.146986
0.247023
-0.903008
-0.668112
-0.990486
0.158781
-0.69069
-0.0288519
-0.72226
-0.252839
-1.06926
-0.00746178
1.05949
-0.0929447
-1.1794
1.16715
0.0512139
-0.629729
0.72108
1.18727
-0.798067
-1.72511
-0.673763
-0.927709
1.13245
1.61924
-0.821059
0.028188
0.301237
-0.779255
-0.260786
-0.0804012
1.15385
-0.748747
1.17659
-0.625312
1.68786
0.724957
1.63604
-0.857186
1.42353
-0.519205
1.25331
-0.598786
-0.671692
1.31523
1.21065
-0.849296
-0.669246
-0.908065
1.14369
-0.839195
1.18099
-0.646514
-0.685874
-0.700417
1.50784
1.2218
1.35
1.20033
1.22204
-0.180617
-0.246846
1.38884
-1.24435
-0.804448
1.61556
-0.861787
1.0888
1.19113
1.57982
1.64014
-0.864793
-0.785246
1.2484
0.503542
-0.176646
-0.875675
-1.1261
-2.07496
-0.849605
0.818228
-0.862842
1.4343
-1.00658
1.21491
1.31836
1.21645
-0.723169
-0.644114
-0.787336
1.29666
-0.785927
1.35373
-0.727349
-0.786979
1.42409
1.52941
-0.669722
0.191654
1.16717
-0.812319
-0.781833
0.922969
1.46215
1.44555
-0.813736
1.05205
0.999509
-0.667825
1.45834
0.401598
-0.864231
-0.0373506
-0.103318
-0.459062
1.29242
-0.789566
0.376325
-0.095726
-1.11054
-0.795289
-0.65813
1.17964
-0.810446
1.20223
-0.0142182
0.360443
0.949919
0.536726
-0.663383
-0.596626
-0.882566
-0.0483899
-0.416202
-0.673524
1.09448
-1.04828
-1.03876
1.18539
-0.783034
-0.818088
1.21783
-0.577864
1.13405
-0.398508
-0.670734
-0.0501309
1.04217
-0.534228
-0.864435
1.13264
-0.692285
1.2893
-0.29507
-0.785277
-0.799562
-0.670581
1.69839
-1.28329
1.35469
-0.287035
1.17935
1.38229
0.977979
1.25096
1.33803
-0.0363857
-0.405209
1.19197
1.32828
1.57649
-0.782694
1.23871
0.811761
-0.770873
1.04168
1.43982
-0.561149
1.53795
0.243413
-0.743363
1.08526
-0.758311
-0.91061
1.17056
-0.436272
1.27162
1.29541
1.13691
-0.753152
1.06785
1.4503
-0.789868
-0.264657
-1.11339
-1.25866
-0.784796
-0.669735
1.57237
1.00419
-0.779326
1.15762
-0.74742
-0.783927
1.49715
1.41008
-0.790956
-0.859875
-0.670394
-0.684488
1.20489
-0.792207
0.354769
-0.851946
-0.375672
1.27541
-0.726974
1.58766
1.24063
1.12256
1.21146
1.49421
-0.794349
-0.73856
1.24491
1.37571
-0.780475
1.22236
-1.47164
-0.694384
-0.713415
1.25442
1.28753
-0.701218
-0.790213
0.813201
0.207665
-0.828111
1.17245
1.12134
-0.899127
1.16496
1.21127
-0.700213
-0.815286
-0.766478
-0.68833
-0.711365
1.53437
-0.639717
1.07119
-0.803907
1.53223
1.04916
1.01869
1.11135
-1.9064
-1.10816
-0.682672
0.653322
-0.845064
1.16573
0.560145
-0.523941
1.02376
1.24655
1.24138
1.19877
-0.0315213
1.24596
-0.0136021
0.684514
0.956872
-0.556368
-0.826167
-1.00241
-0.713331
1.2162
1.21205
1.21635
-0.887583
-0.520641
-0.677972
-0.847992
1.20943
1.47561
1.2235
-0.835951
-0.771602
-0.806319
-0.53482
-0.669608
-0.671618
-0.152529
1.18586
-0.738642
-0.873354
-0.474562
0.178991
0.858283
-2.3201
-0.674887
-0.605871
1.10518
1.63672
-0.444878
1.31604
1.69058
0.792454
1.3941
-0.813945
0.319462
1.61341
-0.672125
0.582952
-0.85347
-0.713074
-0.906016
-0.882566
1.21142
0.986223
1.37171
1.33018
-0.00601275
1.03073
0.123205
-0.452906
-0.670377
1.32083
0.860317
1.21935
1.23565
0.0687312
0.122191
1.23757
-0.879443
-0.673022
-0.878249
-0.918512
0.851401
-0.885946
1.17758
0.924668
-0.672729
1.45968
-0.831397
-0.292098
1.19406
-0.785934
-0.789712
-1.07139
0.723107
-0.86762
-0.893685
1.06685
1.22747
-0.817267
0.320227
-1.23994
-0.669543
-0.699202
-0.896786
0.0840814
0.859731
-0.791284
-0.889487
1.4497
0.354588
0.464683
-0.893165
-0.719296
1.20641
1.28424
0.646584
0.796914
-0.896516
-0.791264
-0.48872
0.563329
0.707069
-0.900124
1.00554
0.227062
-0.903459
1.6449
-0.911313
-0.947914
-0.707601
-0.841235
1.09145
-0.930156
-0.781826
-0.681249
0.27792
-0.966635
0.0695918
-0.749762
0.052477
1.35714
-1.02241
0.0976421
-0.706248
-0.126046
1.53335
1.61066
1.41257
1.21077
1.38686
-0.776315
1.19346
-0.826089
1.28168
-0.67485
-0.635018
1.48843
-0.646604
0.745158
-0.874832
1.61129
0.0249218
1.5514
0.721302
0.919593
-0.86094
-0.845081
-0.672128
-0.90645
1.51675
1.37672
1.18811
0.888001
1.20225
1.11497
0.954031
-0.895481
-0.677018
0.339373
-0.837636
0.926378
1.21143
0.240243
-0.859703
-0.899218
-0.745916
-0.672285
-0.416519
1.56293
1.23047
1.20611
0.0626735
-0.0059363
1.23382
-1.14453
-0.670265
-1.65005
-0.772547
0.913415
-0.873924
-0.894615
-0.0383126
1.1908
-0.893096
-0.707215
1.20065
0.867496
0.967312
1.19449
-0.670153
1.01034
1.40922
1.08825
-0.66975
1.20098
0.619874
0.562775
-0.778842
-0.88407
1.64669
0.521257
-0.748943
0.305987
1.05196
1.13653
-0.793754
-0.837675
-0.223949
-0.873339
-0.609265
-0.777388
-0.132988
1.18809
-0.798983
1.17124
1.49465
1.3274
1.16218
1.25186
1.31933
1.19964
-0.849854
-0.383557
-0.395569
-0.74716
-0.559532
-0.897115
1.3274
1.21217
-0.745873
1.19375
-0.760082
-0.971633
-0.905892
-0.561462
0.799632
-0.683026
1.1833
1.04796
-0.956457
-0.125775
1.53859
-0.841181
-0.25242
-0.620122
-0.773008
-0.878553
1.2553
0.902494
1.32519
-0.793499
-0.886068
-0.643914
-0.333482
-0.751408
-1.04181
-0.815099
-1.07582
1.05473
-0.468267
1.66483
-1.16361
-0.301196
-0.702764
-0.898389
1.16264
-0.722422
-0.791267
-0.588225
-0.0586926
1.36751
1.44366
-1.54116
-1.25198
0.95715
-0.689775
-0.582551
1.33131
-0.767607
-0.556795
-0.924442
0.877054
-0.158164
-0.757059
1.18847
0.107919
-0.85528
1.1943
-0.763151
-0.866276
-0.802877
-0.987718
0.197199
-0.756254
1.50227
-0.67455
0.43284
-0.675222
0.92191
-0.868086
-0.777481
0.765254
1.0111
1.26318
1.18266
1.35838
-0.92054
1.08422
0.811511
-0.793526
1.09603
-0.354396
-0.92638
-0.976264
1.40484
1.39016
-0.816012
-0.768754
-0.800471
1.16588
-0.754491
0.182844
-0.684055
-0.901087
1.46402
1.16901
-0.853591
-0.756885
-0.853234
-0.867925
1.07044
-0.818964
1.13088
0.313556
0.829695
0.969491
-0.888909
-0.763673
1.08791
-0.900978
-0.443803
1.48354
-0.682976
-0.871766
0.951247
-0.797014
-0.76936
0.080229
-0.788857
1.56133
-0.355319
0.411529
-0.849869
1.52584
-0.83599
-0.753973
0.759985
-0.677399
-0.674656
1.54831
0.792372
1.24724
-0.775702
1.40787
0.0140727
-0.506657
-0.788374
-0.786135
-0.831053
1.44347
0.686776
-0.706934
-0.840955
-0.767239
1.29944
-0.743684
1.50372
-0.674148
0.84969
-0.879034
0.466295
0.646866
0.609769
0.522306
0.451503
-0.748505
1.16543
-0.793268
-0.702475
-0.64923
0.544811
1.54156
-0.0366478
-0.767957
-0.826445
-0.876853
0.351469
-1.14916
-0.881483
1.09262
0.457612
-0.861069
1.60212
-0.761402
-0.934392
1.56852
-0.871171
0.228067
-0.7561
-0.901173
-0.886253
1.57857
-0.902869
1.492
-0.887374
-0.756992
1.35034
0.0502847
-0.750848
0.675967
-0.787632
0.0828432
-0.144171
-0.882246
1.0532
-0.669645
-0.878429
-0.899699
-0.90389
-0.679462
1.08691
-0.104515
-0.183704
-0.85768
1.5168
-0.583357
-0.764259
-0.861259
0.100704
-1.03863
-0.893672
-0.864938
0.177815
1.42416
-0.825556
-0.668968
-0.820612
-0.441523
-0.191302
-0.684434
1.60032
1.53088
0.512984
-0.767108
-0.676928
0.421298
-0.675064
1.60903
0.291122
1.30926
0.820531
1.50826
0.163736
-1.04705
-0.776666
-0.00230873
-0.790236
-0.00147009
0.156264
-0.888914
1.50938
-0.0143763
0.303615
-0.142811
-0.661942
-0.769166
)
;

boundaryField
{
    frontback
    {
        type            empty;
    }
    Top
    {
        type            zeroGradient;
    }
    outlet
    {
        type            fixedValue;
        value           uniform 0;
    }
    bottom
    {
        type            zeroGradient;
    }
    Inlet
    {
        type            zeroGradient;
    }
    rectangle
    {
        type            zeroGradient;
    }
}


// ************************************************************************* //
