/*--------------------------------*- C++ -*----------------------------------*\
| =========                 |                                                 |
| \\      /  F ield         | OpenFOAM: The Open Source CFD Toolbox           |
|  \\    /   O peration     | Version:  2306                                  |
|   \\  /    A nd           | Website:  www.openfoam.com                      |
|    \\/     M anipulation  |                                                 |
\*---------------------------------------------------------------------------*/
FoamFile
{
    version     2.0;
    format      ascii;
    arch        "LSB;label=32;scalar=64";
    class       surfaceScalarField;
    location    "36";
    object      phi;
}
// * * * * * * * * * * * * * * * * * * * * * * * * * * * * * * * * * * * * * //

dimensions      [0 3 -1 0 0 0 0];

oriented        oriented;

internalField   nonuniform List<scalar> 
3181
(
-1.04588
0.408368
0.637508
-0.38934
0.366774
0.0225657
0.523823
-0.359709
-0.164114
0.121835
-0.201398
0.0795631
-0.0165796
0.00977658
0.006803
0.575732
1.60845
-2.18418
0.148335
-0.142034
-0.00630106
0.021359
0.00102421
-0.0223832
0.568411
-0.752584
0.184173
-0.0749784
0.136856
-0.0618778
-0.0105331
-0.0516374
0.0621705
0.118003
0.0515118
-0.169515
-0.00280447
-0.0183192
0.0211237
-1.10129
0.150611
0.950678
-0.329174
0.699848
-0.370674
-1.1225
0.637747
0.48475
0.0843727
-0.930051
0.845679
-0.0999392
0.0098324
0.0901068
-1.69023
0.151086
0.0162719
0.0349291
-0.051201
0.0375495
-0.0864478
0.0488983
-0.0369856
0.0425011
-0.00551548
1.06783
-1.04206
-0.025771
0.026616
0.0351115
-0.0617275
-0.956844
0.325889
0.630955
-0.108415
0.230249
0.307434
-0.245409
-0.0620249
0.0295397
0.0620027
-0.0915424
-0.412386
0.338642
0.0737434
-0.0334543
-0.0316664
0.0312637
0.000402792
-0.0361617
-0.920682
0.0209667
-0.0507949
0.0298281
0.211465
1.494
-1.70547
-0.0549868
0.0489192
0.00606755
0.183731
0.273302
-0.457033
1.73101
-1.51954
0.0721642
-0.0346146
1.53281
-0.853756
-0.67905
-1.06576
1.64149
-0.058319
0.0555145
-0.0234139
-0.0135718
-0.409178
0.0800038
-0.117189
0.0937756
-0.634763
0.129908
0.504854
-0.148472
0.0734936
-0.168371
0.172564
-0.00419217
-0.271559
-0.076928
0.348487
0.278661
0.905803
-1.18446
0.0357527
0.010896
-0.0466486
-0.0153946
-0.101289
0.107484
-0.00619572
0.518375
0.181472
-0.0961217
0.141492
-0.0453698
0.0822603
-0.0612936
-0.171313
0.197556
-0.0262427
0.163939
0.0557006
-0.219639
0.108562
-0.114467
0.00590487
1.13347
0.399337
-0.858271
-0.187605
-0.121252
-1.43484
1.55609
0.553136
0.229386
-0.782521
-0.448511
-0.203827
0.652339
-1.63318
0.567417
-0.268517
0.821652
-0.32428
-0.10279
0.42707
-0.208615
-0.203771
-0.19062
0.166979
0.0236412
0.134477
0.284422
-0.418899
-0.18003
0.748441
-0.0124888
0.0338478
-1.85634
1.73509
0.18706
0.120374
-0.178912
-0.111446
0.290358
-0.269623
0.356671
-0.087048
-0.0806784
0.0888044
-0.00812605
-1.57768
-0.920111
0.0103164
0.909795
-0.0355187
-0.0194681
-1.10512
0.776886
0.32823
0.0543124
-0.182147
0.127835
-1.27376
-0.359414
1.10077
-0.950159
-0.717028
1.15151
-0.200836
1.06461
0.168267
-0.174594
0.0063273
1.74163
-0.133175
2.14999
-2.14999
-0.00750305
-0.00139538
0.00889843
-0.212695
-0.0530554
0.26575
0.0402272
-0.0415669
0.00133969
-0.45216
0.833458
-0.381298
-0.0186326
-0.236102
0.254735
-1.08561
0.0435449
0.344642
0.0588923
-0.403534
0.134483
-0.858285
1.08767
0.0273625
-0.0096008
-0.0177617
-0.0175544
-0.153759
0.103671
-0.145147
0.0414762
-0.0256071
0.129278
0.115297
-0.973582
0.329892
-0.782052
0.925146
-0.840774
0.0419664
0.0402557
-0.0822221
0.083391
0.0523828
-0.135774
-1.38452
-0.0972588
1.48178
-0.245749
0.410373
-0.164625
-0.314398
0.127449
0.186949
-0.466363
-0.638753
0.0416439
-0.00589121
-0.152679
0.147081
0.00559828
-0.0780199
-0.0136468
0.0916667
-0.543052
-0.209532
-0.0641928
0.0158481
0.0483447
-1.23067
0.352596
0.878075
1.20612
-0.300322
-0.0168544
0.00935135
0.0375136
0.149547
-0.200205
0.383935
0.0562803
-0.00619774
-0.0500825
0.139065
0.0689489
-0.208014
0.223061
-0.313215
0.0901539
-0.595519
-0.526978
-0.746906
-0.483765
0.00208377
0.0252788
-0.105732
0.183858
-0.078126
0.123122
0.0247799
0.123555
-0.0568911
0.0700896
-0.0131985
-0.0953098
-0.0215879
0.116898
0.0742417
-0.0742417
-0.185073
0.209853
0.0287053
0.0671762
0.10489
0.0926663
-1.25544
1.07541
-1.43222
0.0426058
1.38962
0.0169642
-0.0168582
-0.000105959
-0.0269705
-0.0521871
0.0791576
0.539703
-0.0232103
-0.516493
-0.00788305
0.00798749
-0.000104431
-0.200119
0.0150455
0.161235
0.672223
-0.366796
0.528031
-0.160394
-1.22412
0.00112912
-0.0177087
0.486564
-0.304956
-0.181608
0.0229751
-0.0223045
-0.000670544
0.0480858
-0.319644
0.0231827
-0.943294
0.0491384
-0.154871
-0.287326
-0.401208
0.0721453
1.36231
-0.919258
-0.443051
1.04826
0.314053
0.0665869
0.2819
0.0141167
0.00284749
-0.133347
0.142576
-0.00922917
-0.255496
-0.586511
0.842007
-0.357195
0.0513949
0.645874
-0.494788
0.144619
0.0392732
-0.0480693
0.00879611
-1.91026
-0.153831
2.06409
0.105292
-2.01555
-0.311122
0.655764
-0.906869
-0.0175396
0.00343388
-0.268158
0.264725
1.37701
-1.51425
0.137243
-0.0211014
0.0222305
0.570189
-0.825685
-0.236085
-0.0426643
0.278749
-0.296496
-0.118063
0.414559
0.183892
-1.01005
-0.0755543
0.00913094
-0.0603319
-0.558172
0.354345
-0.248433
0.0191457
0.229288
-0.0468605
0.0257591
0.0238466
-0.0238466
-0.120369
0.132024
-0.0116549
-0.204682
-1.22754
0.0473384
0.00755399
-0.0548924
-0.121349
0.0894494
0.0318992
-0.222397
0.031777
1.35297
-0.267318
-1.08566
-0.192088
0.448919
-0.256832
0.00699017
-0.00728509
0.000294916
-0.112047
-0.202352
-0.188999
-0.00435316
0.193352
-0.174264
0.308741
-0.102964
0.101247
0.00171745
0.0771741
0.0217289
-0.098903
-0.106022
0.115938
-0.00991624
-1.02007
0.590382
0.42969
-0.219222
-0.0509361
0.270158
-0.69442
0.6617
0.0327203
-0.00595311
0.0410646
0.00480116
-0.00525725
0.000456096
-0.0146337
-0.0470938
0.902719
0.303406
0.174907
-0.885576
0.710668
-0.00636249
1.74076
-1.7344
0.383774
0.674828
1.47516
0.0634716
0.205446
-0.0663812
-0.07234
-0.0289486
0.237302
0.158
-0.0746088
0.735691
-0.409802
0.0606685
0.205082
0.0493572
-0.165545
0.116188
-0.780878
-0.139184
0.920061
-0.0127421
0.0127421
-0.00882851
-0.273976
0.547278
0.0127643
-0.231986
-0.0533784
0.0632109
0.00847808
-0.00639431
0.136603
-0.147136
-0.346161
0.327528
0.0362471
0.0449245
-0.0811717
0.385357
-0.333845
0.754733
-0.248025
-0.506708
-0.206592
0.273179
0.186266
-0.491222
-0.206407
0.614776
0.165558
-0.0329943
0.0329943
-0.505015
0.208405
0.29661
0.384135
0.026238
-0.0138094
0.013948
-0.000138684
-0.0562494
-0.0620109
-0.00218187
-0.0496618
0.186265
-0.181371
0.24314
-0.0617696
0.12979
0.0282096
-0.39117
0.14576
0.191778
-0.0619874
-0.046366
-0.0565982
-0.0257217
0.0324721
-0.00675042
0.14707
-0.104481
-0.0425889
-0.0168617
0.396469
-0.379607
-0.0631224
0.0506335
0.105746
-0.110158
0.00441173
0.0240755
0.83221
-0.0774768
-0.0662005
0.0152254
0.0509752
-0.0556023
0.0496646
0.00593767
-0.0921594
0.0973744
-0.720349
0.622975
-0.0109806
-1.49018
-0.480648
1.97083
-0.41532
1.45643
-1.04111
0.0823198
-0.258947
-0.054268
0.276848
0.254112
-0.530959
-0.207964
0.257321
0.141939
-0.889555
0.747616
-0.0181962
-0.037406
-0.0151811
0.024312
-0.991229
0.444116
0.547113
0.919259
-0.803961
-1.68647
1.58922
-1.37701
1.41961
0.039897
-0.0852669
-5.24488e-05
0.00485361
0.0081261
0.801909
-0.65997
0.121925
-0.0727863
0.415812
0.735701
-0.0354704
-1.44827
1.44191
-0.669832
-0.58561
-0.241316
-0.393447
-0.00760782
-0.165699
0.213785
-0.575417
-0.374447
0.18236
0.773618
-0.233915
-0.888007
-0.798468
0.745096
0.0796279
-0.0978242
0.284295
0.0374294
-0.0374294
0.670294
0.149282
-0.819576
-0.225827
0.896121
0.69416
-0.126669
-0.567491
0.049304
0.0178723
0.00755305
0.00496854
-0.0125216
-1.43484
-0.610358
0.310037
0.869332
0.483641
-0.0345815
-0.13379
-0.238144
0.75652
-0.198689
-0.0497443
-0.00302102
-0.0776573
-0.0537493
0.106132
0.377837
-0.247929
-0.830226
-0.286485
-0.105661
-0.0142337
0.119895
-1.31686
1.99169
-0.121729
0.121486
0.000243059
0.0275727
-0.0134561
-0.0878129
0.0675863
0.0202266
0.00905742
0.418012
0.0122698
0.0107053
0.00104176
0.00554243
-0.00658419
-0.0176512
-0.171348
-0.725996
0.371731
0.354264
0.649662
-1.78887
1.13921
0.139573
-0.161287
0.0217148
0.0139343
0.0277095
-0.22568
-1.92431
-0.0646891
-0.0231238
-0.0188058
0.0129146
0.148012
-0.348216
-1.05897
0.76731
0.291663
0.0313987
0.0925093
0.0545605
-0.780878
-0.693226
-0.326846
0.0852842
-0.0176979
0.0444511
-0.638814
-0.0556069
0.061478
0.1303
0.478336
0.0420068
-0.460906
0.122206
0.351779
-0.292887
-0.116772
0.021462
0.22361
0.837222
-1.06083
0.104152
-0.716029
0.611877
-0.948878
0.809694
-1.63572
-0.183302
1.81902
-0.00493981
0.00477661
0.000163194
0.169213
-0.465709
0.221367
-0.130636
-0.0907311
0.0547925
-0.00512789
-0.0126566
-0.0930047
0.0111045
0.0181829
-0.0328166
0.0209241
0.0784832
-0.0994073
0.27884
0.00904217
-0.00963086
0.000588686
0.0579375
-0.00730392
0.861357
0.00757708
0.0146534
-0.0781544
-0.532204
-0.00559674
0.0549007
0.00760734
0.084902
-1.81902
1.92431
0.171201
-0.0292032
-0.141998
-0.25347
0.0788755
0.119881
-0.113554
-0.00141403
0.0902184
-0.00685884
-0.920707
-0.138267
-0.0436138
0.0645379
0.740528
-0.255779
-0.0797497
-0.0415989
0.341216
-0.00165945
-0.0121499
-0.00770175
0.0819435
0.146403
0.210268
0.156783
-0.332255
0.175471
0.110655
0.561568
-0.0394939
-0.108978
0.932325
-0.257008
-0.675317
-1.63572
-0.545484
1.19515
1.73101
-0.0551035
0.227804
-0.1727
0.396705
-0.0764967
-0.320209
0.147226
-1.42099
-0.0736755
0.0745175
-0.000841998
0.125594
-0.139809
0.0142152
0.478208
-0.924013
0.445804
0.040939
0.658844
-0.699783
-0.0441539
-0.108525
-0.0315151
-0.0346854
-0.0903935
-0.414622
-0.00354734
-0.00139246
-0.0221327
0.0469594
-0.0248267
0.00845233
-0.141799
0.00744701
0.0201257
-0.0493115
0.0895673
-0.00480312
-0.000454137
0.196333
-0.432436
0.271424
1.185
0.00453846
0.00820361
-0.991846
-0.018208
0.129919
-0.0722295
-0.0445422
-0.266074
0.029989
0.252346
-0.585131
0.332786
0.0307663
-0.036363
-0.935791
-0.0143678
-0.0118222
-0.649252
0.746626
-0.0177251
0.183283
-0.0913641
-0.0353054
0.183869
-0.44315
0.25928
-0.0748222
0.0686245
0.0050789
-0.00559068
0.000511779
-0.0284816
-0.0775404
-0.020921
-0.132838
0.747347
-0.643195
-0.0689211
0.0308127
-0.113277
0.312691
-0.155908
0.161972
1.14436
-0.375868
-0.768491
-0.121786
0.140932
-0.50763
-0.218365
-0.559663
0.613386
-0.595502
-0.0178846
-0.0664015
-0.00251957
-1.44827
0.541656
-0.541656
-1.84439
1.84439
0.801909
0.617015
-0.226606
-0.390409
-0.899402
-0.0924441
0.637748
-0.365081
-0.272667
0.162741
-0.240867
-0.0123828
-0.00447156
-0.892415
-0.0811677
-0.9333
0.212951
0.039364
-0.0535977
0.697936
-0.109703
-0.588233
1.25166
0.479349
-0.00275654
0.00783545
-0.961562
0.457682
-0.705707
-0.104046
-0.593859
0.697905
-0.0509064
-0.840705
-0.673544
0.218238
-0.813758
-0.920061
1.36505
-0.444993
-0.138001
0.27911
-0.141108
-0.0257509
0.723687
-0.105254
-1.01062
1.01062
-1.77621
0.854107
0.922105
4.73262e-05
0.00899485
0.0743036
-0.44018
0.866829
-0.0899438
-0.0856578
-0.0344084
0.051187
0.00257623
0.00441394
1.74413
-1.92743
-0.352722
0.429896
-0.64462
1.0175
-0.372884
0.00942706
-0.0741162
0.125477
-0.0565278
0.354438
0.00109658
-0.0194158
0.355243
0.0412259
0.0438503
-0.250247
0.206397
0.138693
0.0338709
0.0985062
0.183423
1.71816
0.0169331
-0.0791212
0.887901
-0.80878
-1.60703
1.4532
0.304312
-0.210536
0.0757112
-0.766406
0.690695
0.537894
0.129255
-0.475416
-0.0742705
0.133409
-0.0591383
0.131282
-0.205553
-0.451521
-0.106651
-0.0728986
0.0760788
-0.00318018
-0.00197474
-0.00282838
0.00066802
-0.0619616
0.65997
-0.611877
-0.0480933
-0.290957
0.303721
0.878161
0.676899
-0.280194
-0.010379
0.017933
-0.393344
0.350679
0.172498
-0.579694
0.407196
-0.00562294
3.22612e-05
0.606656
-0.142953
-0.463703
0.0114233
-0.0172382
0.00581497
-0.0279015
0.0205084
0.00739301
-1.44212
1.30895
-0.127362
-1.36282
-0.19741
-0.803961
1.41961
1.58922
-0.192512
-0.172184
0.121248
-0.064424
0.0703015
-0.0058775
-0.517287
1.14973
-0.632444
0.546627
0.0911211
-0.00119586
-0.00442708
0.122582
0.0204034
0.0344084
-0.0483357
0.00472194
-0.0978262
-0.295517
-0.00288201
0.0113601
-0.228359
0.613716
1.04826
-0.34934
-0.0607004
0.00129122
0.0594092
1.97175
-0.382538
-0.0606475
-0.0538198
-0.967153
0.163192
0.390339
-0.206447
-0.479635
-0.130416
0.61005
0.818394
-0.363593
-0.454802
-0.214005
0.466351
-1.44191
0.00706682
0.000893146
-0.0187924
0.0178992
0.170145
1.57062
-0.168467
0.17602
0.298559
1.92388
-0.504267
-0.679011
0.0545276
0.624484
0.381788
0.00647293
-0.349163
0.535474
0.810006
-0.422023
0.0756776
-0.0211171
-0.632222
0.106703
0.525519
1.03948
0.0174527
-0.0164109
-0.0491893
-0.361746
0.105795
-0.313759
0.621894
0.522465
-0.0625212
-0.00388038
0.257582
-0.312685
-0.0234259
0.0174728
0.110353
-0.146821
0.0364679
-0.298735
0.31266
-0.0139247
0.280247
-0.656115
0.421735
-0.583847
0.162112
0.119226
-0.127191
0.00796523
0.272363
0.0403289
-0.357683
-0.335542
-0.65823
0.65823
1.55609
1.25166
-0.716029
0.328214
0.481792
-0.0201384
0.316748
0.929007
-0.38238
0.00738991
-0.873011
0.865621
0.131368
0.00548844
0.0257442
-0.92322
0.565537
0.0722152
-0.167234
-0.120891
0.288125
-0.0796273
-0.511889
0.344655
-1.05844
-0.289453
-0.65084
-0.0346658
-0.00937469
-0.000256166
-0.22646
0.050976
0.068919
0.0342376
-0.146757
0.11252
-0.973977
-0.802235
-0.00558454
0.0675872
-0.405897
0.400833
0.00506355
-0.565647
0.38404
-0.105548
0.150472
0.233847
0.00361303
-0.0187941
-0.77665
0.509332
0.0347469
0.0709991
-0.121086
0.00780933
0.211243
0.0101241
-0.425497
1.83841
0.475612
-0.035319
0.866468
-0.790756
0.789985
-0.448768
-0.613688
0.173507
0.1543
-0.79421
0.766611
0.0275989
1.16707
-0.545174
-0.217633
-0.135088
-0.0233064
-0.0182604
0.951254
-0.838031
-0.113223
-0.183892
0.109283
0.0273882
0.119693
0.8757
0.422467
-0.186465
-0.236002
-0.324822
-0.0496255
0.153505
-0.559402
0.121128
1.36065
1.17771
0.0739526
0.168916
0.552799
-0.721715
0.249546
0.0509565
-0.00532424
0.00893726
-0.513895
-0.0997932
7.3431e-05
-0.0469339
-0.188139
0.138477
-0.531979
0.275147
-0.992233
-0.743893
-0.290238
-0.747945
1.39043
-0.000815157
-0.286675
-0.40842
0.310594
0.340951
0.30104
0.0542036
1.29004
-0.811828
-0.190919
0.128932
0.138521
-0.519722
0.381201
-0.00550402
0.00639717
0.0496094
-0.060147
-0.238588
-0.118769
0.69748
-0.419299
-0.278181
-0.194077
0.133552
-0.0962591
-0.0372931
0.243012
0.0580281
0.288898
-1.33001
-0.0969722
0.141423
0.529192
-0.106724
-0.00449104
0.0104287
-0.0221291
0.018562
0.0035671
-0.00430263
-0.0125556
-0.243394
0.0778488
-0.00938991
-0.555334
0.417332
0.0184684
0.0372063
0.0820194
-0.696214
1.71235
-1.18988
0.015951
-0.194021
0.17807
-0.139591
-0.537509
0.677101
0.0760882
-0.714902
0.191607
0.230128
-0.0169783
-0.00030973
0.017288
-0.245239
-0.613386
-0.167491
-0.140952
-0.632222
-0.232388
0.166006
-0.137237
-1.0903
-0.0655452
0.265716
-0.200171
0.263244
0.113799
0.4015
0.351995
-0.753495
0.0178082
0.0618197
1.21252
0.10384
-1.31636
-0.221693
-0.0902628
1.54346
-0.243053
0.181283
-0.949739
0.859476
-0.323554
0.178406
-0.00568453
0.0138106
-0.0339955
1.36275
-1.39807
0.729223
0.0891715
-1.08507
0.164365
0.265005
0.664002
0.915941
0.0163837
-0.0164782
-1.17771
-0.65084
-0.712391
0.722707
-0.0838802
-0.888007
0.658844
0.607756
-0.930475
0.550808
-0.00628117
-0.787929
-0.313895
0.636814
-0.772174
0.13536
0.0802773
0.0532749
-0.227372
0.13505
1.24744
-1.38249
-0.00513539
-0.00423931
-0.265119
0.215374
0.712902
0.221927
-0.206881
-0.179886
1.38154
-1.02894
-0.294493
-0.0959164
0.29152
0.534862
-0.826382
-1.11142
1.21812
0.145101
0.255732
0.0857155
0.660569
-0.525519
-0.00125949
0.217149
-0.0263792
0.0873713
0.0425479
0.00840026
-0.0331134
0.0247131
-1.02475
-0.0360832
0.316392
-0.80651
-0.384533
0.84543
-0.460897
0.375778
0.641726
-0.0489803
0.0523488
-0.00336852
0.195626
1.18591
-0.717646
1.26784
0.673666
-1.0582
0.315266
-0.0981166
-0.584249
-0.407984
-1.14339
1.43491
-0.059074
-0.879292
-1.69679
-0.0376083
0.660569
0.0498535
-0.856364
0.831141
-0.646042
-0.185098
-0.981936
0.397688
0.0100232
0.112766
-0.000604405
-0.112162
-0.971443
0.563459
-0.214942
0.911269
-0.925637
0.192936
-0.210588
-0.095739
0.24375
0.539925
0.534624
-0.0273214
-1.36816
0.59967
0.611696
-1.03372
-0.552762
-0.518378
1.07114
0.447238
0.0161307
-0.0111621
-0.735866
0.699783
1.09509
-0.899466
-1.47516
1.11984
0.355322
0.565274
0.280156
0.776253
-0.809707
-0.493732
-0.449562
-0.471758
-0.499685
0.803836
-0.803836
0.686012
-0.686012
-0.735866
-0.760429
0.760429
-1.11984
-1.42271
-0.0453409
0.0504528
-1.38122
1.38122
1.09509
-0.899466
0.776253
0.766162
-0.766162
0.809707
0.758626
-0.758626
0.506268
0.528242
0.481622
-0.286126
-0.500315
-0.550438
1.07868
-1.02892
-1.96117
0.817779
0.114217
0.0308837
0.238897
0.00708844
0.000488638
-0.886182
0.0944966
0.791685
-0.0830945
0.0754867
-0.995442
0.58564
0.925105
-0.596891
-0.124585
0.00467065
-0.00941292
-0.806547
-0.0790281
-0.547113
-0.00361785
0.0279299
-0.338043
-0.106476
0.0887786
0.182197
-0.00989901
-0.00599524
0.0158943
-0.811812
0.0672744
0.744538
0.239554
0.300371
-0.532502
0.414114
0.118388
0.917283
-0.74285
-0.174433
0.08557
0.298365
-0.0139727
-0.0589259
-0.0592304
-0.0144451
0.748646
-2.06551
-0.843227
0.0977176
-0.741459
0.796424
-0.0549657
0.121803
-0.899985
0.778182
-0.803027
0.904383
-0.101356
-0.0377114
0.0334087
0.0209594
-0.289118
0.293154
1.14175
-0.094956
-0.791225
0.91625
-0.0912519
-0.824998
0.0986722
-0.0892452
0.353771
0.822327
-1.89103
0.473226
-0.382105
0.102291
-0.893517
1.51954
0.324849
-0.792002
0.00407354
1.01771
-0.895909
1.19654
-0.112888
0.412537
-0.299649
-0.879082
-0.11636
-0.412861
0.0332539
0.0647554
0.26803
-0.78437
0.78437
-0.609014
-0.0858624
-0.864128
0.121278
-0.955779
0.851733
0.0728483
-0.203484
-0.0571322
0.0588738
0.0112158
0.188227
0.829484
0.818521
0.772239
0.138677
-0.910915
0.536346
-0.505462
-0.78198
-0.106515
0.888495
0.17224
-0.889887
-0.6759
0.88743
-0.785139
-0.107116
0.460749
-0.0229226
-0.437826
0.228686
1.2196
-1.44828
0.402165
-0.459784
0.0576189
-0.889096
-0.830599
0.0891401
0.520226
0.269759
-1.63853
1.59144
-0.574376
0.574376
-0.809389
-0.558773
-0.568879
1.13442
-0.539455
-0.0443924
0.780915
-0.203097
1.27715
0.0318
0.294431
-0.425376
0.130945
-0.0732412
-1.71563
-0.0185453
0.423458
-1.01402
0.68717
-0.0606071
0.309744
-0.224174
0.780537
-0.881892
-0.628478
0.123015
-0.151505
0.737145
0.579202
-0.579202
-0.0467371
0.0332811
0.111202
-0.0769648
1.23792
-0.0183234
0.0322615
0.00114826
0.00628152
-0.00742978
-0.668366
0.694538
-0.0261717
0.610394
-0.197857
0.10856
-0.893699
-1.00576
1.22118
-0.21542
0.138347
0.875412
0.0611564
0.549238
-0.755022
0.602859
-0.658466
-0.659501
0.151871
0.0965738
0.0275343
0.187779
0.158431
-0.0618576
0.00482652
-0.0439162
0.0704902
0.725934
0.693993
-0.0911343
0.0762268
0.785131
-0.269775
-0.047731
0.317506
-0.2699
0.528161
0.618205
-0.952281
0.730996
0.221285
-0.685684
-0.128073
1.52777
-0.0566412
-0.35798
-0.0389139
0.486063
0.513937
-0.770447
-0.111446
-0.21878
-0.978632
-0.498851
-1.12776
0.4006
0.5994
-0.0859863
0.0786824
-0.861699
-0.0682033
-0.590263
-0.154333
-0.247598
0.401931
-0.006436
-0.000422844
0.113351
0.0729132
-0.128864
-0.11453
0.759052
-0.643139
0.719365
0.633527
-0.475096
-0.363753
0.710663
-0.34691
-0.746048
-0.19271
0.938758
-0.241173
0.230034
-0.0249522
-0.00387947
0.0296385
0.00230295
0.705555
-0.131179
0.122712
0.111135
-0.736411
0.0680452
1.02256
-0.105774
-0.802669
0.295961
0.1204
-0.287945
1.02365
-0.00687163
0.143571
0.154988
-0.0044376
-0.00485675
-0.0584602
-0.190414
1.21298
-0.752781
-0.312893
1.06567
0.848192
-0.0307807
0.000976387
0.0298043
0.129302
-0.00374425
0.000196905
0.216397
-0.106044
-0.782361
0.242906
0.361993
-1.11477
0.00800306
0.284792
0.39777
-1.01306
1.19758
-0.184523
-0.776664
0.834124
-0.0574606
1.04916
-0.222345
-0.101209
-0.0707471
1.04751
-0.457
-0.0755021
0.277598
0.454839
0.191264
-0.646102
0.407269
0.040772
0.653766
-0.573913
0.562744
0.0111687
1.51258
-1.17162
-0.00738779
0.0083733
-0.00098551
0.696687
-0.0092282
-0.0832855
0.0193282
0.919652
0.314642
0.734521
0.0262041
-0.153703
0.0265124
-0.0157251
0.0739481
-0.058223
0.0172276
-0.00882738
0.856592
-0.752752
0.0867272
0.220806
-0.0255728
-0.0904179
0.225279
0.0973898
0.00410835
0.0623406
0.767177
-0.0262734
-0.43259
0.458863
0.0452346
-0.784313
0.739079
0.641414
0.12261
-0.0131045
0.02011
-0.00700542
-0.576363
0.50325
-0.928626
-0.00315001
0.748246
0.715495
0.114502
0.490686
-0.718058
0.813654
0.121576
0.0403961
-0.880299
0.0902353
-0.272699
-0.311983
-0.17156
0.692004
0.0751727
0.0137032
0.134913
-0.357258
-0.361063
0.163899
0.0255599
-0.112008
0.421889
-0.0578393
0.744331
-0.0705681
0.145981
0.524508
-0.479273
-0.152373
0.056759
-0.0467915
-0.109585
0.00388294
0.000185007
-0.00406794
-1.57327
0.401645
-0.0104769
0.886164
-0.227594
-0.619002
0.64126
-0.0222578
0.19355
0.76005
0.268574
-0.615484
0.0809385
-0.176677
0.631974
0.128075
1.06567
0.926025
-0.263416
0.736642
0.7258
0.487176
-0.601198
0.350169
0.251029
-0.8462
-0.0713725
0.0411929
0.0648365
-0.0479872
1.13265
0.734577
0.0790773
0.622152
0.219855
-0.871289
-0.0816358
-0.675166
0.67924
-0.0245715
-0.582366
0.428033
0.869937
0.672746
0.0722484
-0.035397
-0.158479
-0.316937
1.03865
0.673704
0.28136
-0.000894891
0.587331
-0.100154
1.09696
-0.218882
-0.0787114
-0.0281537
-0.738711
0.927439
-0.188728
-0.412717
-0.188481
-0.00805833
-0.175572
-0.119595
0.800837
0.00637272
-0.000830286
0.628015
-0.223299
0.519261
0.604543
-0.132059
0.236993
0.729461
0.267088
-0.996549
0.27701
-0.923052
0.255732
-1.44562
-0.177578
0.76612
-0.588542
-0.668615
-0.0459691
0.0420897
-0.055544
-1.7438
0.0200322
-0.0421613
0.0867375
-0.108266
-0.0941077
0.202374
-0.00879088
-0.575417
0.188016
-0.0444448
-1.52152
-0.0140788
0.00417977
1.01588
-0.0543174
-0.592017
0.0181041
0.566372
0.303564
1.12489
0.845946
-0.244749
-0.384822
0.629572
0.57602
-0.618738
0.618738
-0.192388
-0.931091
1.12348
0.0307286
-0.152515
0.682028
-0.115655
-0.220993
-0.520554
0.162573
-0.0897333
0.212565
0.0302101
0.177126
-0.104981
-1.2601
0.484469
0.0782759
0.0595103
0.0126539
-1.64168
-0.362612
0.0133981
0.693222
0.306778
-0.362612
0.693222
-0.925399
-0.250167
-0.925399
-0.696385
0.696385
0.303615
-0.0140971
0.164124
-0.0770466
0.24235
0.0455818
-0.48105
0.64054
-0.0359974
0.657466
-0.50445
-0.153016
-0.056164
0.0550632
0.00110084
-0.0154475
0.0165957
0.583291
0.0185454
-0.00780426
-0.435784
-0.354583
0.128123
0.0441993
0.831924
-0.279125
0.0163797
0.294215
-0.0129877
-0.0597795
-0.00904039
0.682172
0.0660745
0.498543
-0.00685908
0.00027489
-0.00689871
0.0847969
0.562931
-0.476951
-0.0859803
2.16771
0.549406
0.367499
0.896003
0.0115346
-0.0637217
0.10766
0.0837262
0.0965879
1.1152
-0.38574
0.00129
-0.0359558
0.682411
0.0555165
0.0214477
-0.0214477
0.0209779
-0.0209779
0.000968245
-0.000968245
0.00453846
0.366289
0.458964
-0.062659
-0.71728
0.483365
0.187747
0.02865
-0.0838354
-0.484617
0.703386
0.111826
-0.79751
-0.44566
0.410354
0.087797
0.0204353
7.31604e-05
-0.00216704
0.00216704
0.144614
-0.00185731
0.00185731
0.701411
0.0938403
-0.00556533
-0.00129375
0.00653565
-0.067236
-0.0219952
0.0219952
-0.00197411
0.00197411
-0.0228516
0.0228516
-0.00109775
0.00109775
0.0880401
-0.296555
-0.0815685
0.220221
-0.0008774
0.0008774
-0.37445
0.511234
-0.136784
0.500026
-0.220917
-0.383104
0.399483
0.560575
-0.201778
0.0751944
0.566065
0.566548
-0.000157315
0.000157315
0.397334
0.0254434
-0.0254434
-0.000684587
0.000684587
0.757366
-0.422608
0.0370971
0.138705
-0.281658
0.000238067
-0.000238067
0.00160188
-0.00160188
0.0187498
-0.0187498
0.022734
-0.022734
-0.0240425
0.0240425
0.0357927
-0.0357927
0.485073
-0.032453
0.032453
-0.00043497
0.00043497
0.0246273
-0.0246273
-0.00226694
0.00226694
0.000261746
-0.000261746
0.027979
-0.0262854
0.0262854
0.142254
0.0104997
-0.0402044
0.0402044
0.00181084
-0.00181084
-0.00401282
0.00401282
0.0341705
-0.0341705
0.0252193
-0.0252193
5.30582e-05
-5.30582e-05
-0.00202482
0.00202482
-0.385571
-0.12322
-0.00226498
0.00226498
-0.000598165
0.000598165
-0.0388635
0.0388635
-0.027491
0.027491
0.00161896
-0.00161896
-0.405298
0.670303
0.256024
-0.0326678
0.0326678
-0.00769549
-0.00073969
0.00073969
-0.000831214
0.000831214
0.0367135
-0.0367135
-0.173065
0.213461
0.00222836
-0.00222836
-0.022474
0.022474
-0.497443
0.0441113
0.0815034
-0.0308087
0.0308087
-0.445154
0.0335461
0.0188028
0.11954
-1.20461
-0.0374255
0.0374255
-0.200602
0.142763
-0.0403709
-0.00112613
0.00112613
0.00052754
0.0483708
0.262776
-0.323617
-0.279921
0.603539
0.194297
-0.0023112
0.0023112
-0.117298
0.353052
-0.235755
0.770132
-0.39617
-0.373962
-0.461539
-0.659633
0.383235
-0.0890209
0.115073
-0.384973
-0.573494
-0.0133284
0.190438
-1.06689
0.016256
-0.016256
-0.00111298
0.00111298
0.0314372
-0.0314372
0.0257876
-0.0257876
-0.00194818
0.00194818
-0.00114525
0.00114525
-0.187099
0.00495138
0.174835
-0.29942
0.00179571
-0.00179571
-0.0443331
0.0443331
-0.0410883
0.0410883
0.152141
-0.120317
-0.0318233
0.000455261
0.315214
-0.542808
-0.00164973
0.00164973
0.00951674
-0.00951674
-0.0934359
0.094977
0.288258
-0.00165702
0.00165702
0.0687662
0.0176919
0.97811
-0.485614
-0.0798605
0.565475
-0.629967
0.155788
-0.0910328
-0.038032
0.038032
-0.68068
0.276904
0.0506075
-0.0506075
-0.651547
0.37888
0.26354
0.121535
-0.00250456
0.00250456
-0.831141
-0.00224839
0.00224839
0.313418
0.410269
0.0305038
-0.0547517
0.0547517
-0.00206269
0.00206269
-0.0431732
0.0431732
-0.0530619
0.0530619
-0.00283708
0.00283708
-0.0586602
0.0586602
-0.00324878
0.00324878
-0.0465628
0.0465628
-0.00875324
-0.044563
0.044563
0.00387265
-0.00387265
0.0491617
-0.0491617
-0.00365166
0.00365166
0.0469048
-0.0469048
0.0764816
-0.00476197
0.00476197
-0.0057017
0.0057017
-0.0485064
0.0819435
-0.0115167
0.0115167
0.00481807
-0.00481807
-0.0607948
0.0607948
0.302145
-0.0189097
0.0189097
-0.0563707
0.0563707
-0.00725437
0.00725437
-0.0689753
0.0689753
-0.013126
0.013126
-0.0827384
0.0827384
-0.0221681
0.0221681
-0.0928386
0.0928386
-0.691357
0.261659
-0.529702
0.507444
-0.840705
-0.227097
-0.563766
0.392206
-0.120917
-0.0731594
0.00356716
-0.00356716
-0.000357658
-0.719787
0.0439571
-0.0313033
-1.15196
1.63131
1.16705
0.252428
-0.0156883
0.024903
-0.393884
-0.57905
0.016534
0.38993
-1.12326
-0.0206346
0.0206346
-0.757614
0.0196628
-0.0196628
-0.0018308
0.0018308
0.331345
-0.384711
-0.00247727
0.00247727
0.0186837
0.0143107
0.597247
0.34098
-0.0144711
-0.0135416
-0.00293654
-0.0958959
0.493745
-0.397849
0.0765536
-0.0950989
0.0106242
0.982163
0.00624502
0.0534244
-0.407893
0.441147
-0.487754
-1.00535
-0.218773
-0.071947
0.0181977
-0.141516
-0.318268
0.0240517
-0.00437862
0.0028977
0.781569
-0.55262
-0.037843
0.0634028
-0.0361318
0.0672207
0.0969033
0.424553
0.237147
-0.165033
0.210313
0.0334834
-0.0117545
-1.40702
0.00280797
0.177457
-0.271565
-0.0186266
-1.44973
-0.0716704
0.264471
-0.351225
0.392451
0.141101
-0.889046
0.0458473
-0.0764567
-0.0127884
-0.346938
0.465326
-0.0104199
-0.0658781
0.076298
-0.0278075
0.0278075
0.160838
-0.441032
0.03909
0.0503594
-0.0799034
0.055332
-0.0643622
-0.00624175
0.070604
-0.0382977
-0.15528
-0.00156267
-0.0998219
-0.288678
-0.357397
0.646075
0.0148101
0.0597073
0.151742
-0.0290305
-0.00929001
0.0660097
-0.15655
0.310849
0.00120061
0.0286037
-0.0266671
0.178409
0.00419086
0.260534
0.0017278
-0.0017278
0.0741895
1.02277
0.089309
-0.170945
-0.00120904
-0.0496974
-0.350756
0.899993
-0.0307714
0.00692484
-0.533273
0.00357131
-0.00836075
0.0899224
-0.681025
0.298645
-0.0559877
0.381658
-0.670336
0.218747
0.512249
-0.0929688
0.0929688
-0.000604405
-0.0727021
0.387325
-0.314623
-0.212299
0.156755
0.33814
-0.211537
-0.444578
-0.0916844
-0.00643119
0.00637875
0.929748
0.184488
-0.11224
-0.0695361
-0.220532
-0.837667
-0.0480138
-0.265114
0.800588
0.57839
-0.263176
-0.271831
0.556623
-0.0721609
0.299965
-0.267661
0.0574321
-0.465776
0.328991
0.121489
-0.121489
0.0868767
-0.0230764
-0.0638002
0.00237142
0.0042129
0.018562
-0.494985
-0.0813779
0.228447
-0.186576
-0.0418706
0.544466
-1.05928
0.144987
-0.677191
0.693494
-0.120599
-0.178821
-0.0394908
-0.0792781
-0.484924
0.0491398
-0.287606
0.000759557
-0.0186266
0.382592
-0.00530749
-0.00304458
0.000220353
0.018178
-0.00802159
-0.0101564
-0.104952
-0.0195767
-0.169567
0.189144
-0.127203
-0.338573
0.0186837
0.34711
-0.00170794
-0.37394
0.0837019
0.00259178
0.00630289
-0.0689619
-0.0121024
0.0121024
-0.00102636
-0.000372233
-0.00922257
0.000192812
-0.0670872
0.000738855
-0.00119089
0.175265
-0.145276
-0.00193336
0.00193336
0.0505333
0.513805
-0.00029087
-0.289247
0.57058
1.14838
-0.47414
0.335878
-0.438614
-0.0820567
0.121147
0.230571
-0.230184
-0.0212547
0.00252992
-0.000226967
0.00338226
-0.179726
-0.378395
0.861761
0.272732
-0.45983
0.1771
-0.00162224
0.105479
0.0328679
-0.000862185
0.000122708
0.00240721
-0.754879
0.0013409
-0.000259989
0.7164
-0.65039
-0.245816
0.117826
1.01575
-0.000233052
0.000203537
-0.0403709
-0.00558937
0.817553
-0.431944
0.51022
-0.965234
0.906178
-1.37792
0.57846
-0.186254
0.699222
-4.42583e-05
0.00325846
0.0171768
-0.109687
0.138991
-0.189458
0.00932664
-0.000512178
0.0650933
-0.0503914
-0.0147019
8.28409e-05
0.0427725
-0.0388649
-0.00390765
-0.0984577
0.00641085
-0.000129333
0.00193929
0.480563
-0.428373
-0.00550392
-3.07665e-05
0.230769
0.156556
0.386911
-0.00598832
1.31491e-05
0.109745
-0.0230174
-0.0416337
-0.116163
-0.0170675
-0.0036628
0.120298
0.0049289
-0.00178484
0.413427
0.000194023
6.96492e-05
-6.96492e-05
-0.00787266
-0.00566898
-0.000152469
-0.322049
-0.00376494
0.0731693
-0.107451
0.455819
0.397816
-0.0654042
-0.00014599
0.000939722
0.466349
-0.000556379
0.00033233
-0.00839066
-0.00208481
0.000108842
0.0312813
0.000980244
-0.710101
0.479319
-0.857714
-0.223291
-0.000405667
-0.0158003
-0.0546754
-0.00593163
0.596646
-0.0150299
0.0980703
-0.00414418
-0.00144579
-0.552605
-0.00338961
-0.000411699
-0.0133168
0.933946
-0.526677
-0.00259893
-0.000402876
-0.00604316
-0.00111032
0.0761542
-0.0219064
0.0219064
-0.0030853
0.00271307
-0.0024363
-0.00818048
-0.00684398
0.00379941
-0.164469
0.093096
-0.00587162
-0.0137631
0.0418647
-0.016615
0.0626909
-0.0444932