/*--------------------------------*- C++ -*----------------------------------*\
| =========                 |                                                 |
| \\      /  F ield         | OpenFOAM: The Open Source CFD Toolbox           |
|  \\    /   O peration     | Version:  2306                                  |
|   \\  /    A nd           | Website:  www.openfoam.com                      |
|    \\/     M anipulation  |                                                 |
\*---------------------------------------------------------------------------*/
FoamFile
{
    version     2.0;
    format      ascii;
    arch        "LSB;label=32;scalar=64";
    class       volVectorField;
    location    "36";
    object      U;
}
// * * * * * * * * * * * * * * * * * * * * * * * * * * * * * * * * * * * * * //

dimensions      [0 1 -1 0 0 0 0];

internalField   nonuniform List<vector> 
2186
(
(1.32709 -0.0745322 2.39986e-19)
(1.62197 -0.953007 -2.96448e-20)
(1.46897 -0.928283 6.46496e-21)
(0.752305 -0.594552 -1.54233e-19)
(-0.0742338 -0.0135824 -1.61725e-19)
(1.96897 -0.638653 0)
(0.73033 -0.674599 0)
(-0.0968912 -0.127402 8.83604e-20)
(1.41526 -0.233682 1.16241e-19)
(0.561638 -0.326175 -2.14094e-21)
(0.676363 0.60868 0)
(0.785217 -0.283992 -9.64321e-20)
(-0.125494 -0.180565 -3.6293e-20)
(1.21126 0.0221559 -3.82672e-19)
(1.80794 -0.704823 -3.88766e-20)
(1.01468 -0.00545246 1.78698e-19)
(0.977299 0.0129653 0)
(-0.396067 -0.232358 0)
(1.52293 -0.49054 0)
(-0.140571 0.22713 -7.37302e-20)
(0.48492 0.0762358 -1.1572e-19)
(-0.0789498 0.206688 1.0163e-19)
(1.19718 0.0258561 3.15391e-19)
(-0.207444 -0.0436551 6.08725e-21)
(1.03273 0.00458646 -2.48378e-19)
(0.803893 -0.57116 0)
(0.764018 -0.0404506 1.48393e-19)
(0.618341 -0.597456 -1.81674e-19)
(1.21007 0.706747 0)
(0.962669 0.0230678 -3.38673e-19)
(-0.0846805 0.11633 0)
(1.02618 -0.0134783 1.17357e-20)
(-0.218936 0.0945376 0)
(2.63314 0.0111483 2.17854e-19)
(-0.157956 -0.155436 1.67119e-21)
(1.54397 0.763133 6.25428e-20)
(1.9996 0.18735 1.18686e-19)
(0.510236 0.124637 -3.4444e-19)
(1.93257 0.0932261 -2.92801e-19)
(1.44671 -0.539216 3.53285e-21)
(-0.176306 -0.264967 0)
(-0.00659 0.174283 0)
(1.88667 -0.898609 6.44473e-20)
(-0.341977 0.154461 0)
(1.10962 0.274967 1.5244e-19)
(0.605265 -0.30763 2.89069e-19)
(0.9298 -0.793261 0)
(1.20231 -0.801697 1.26795e-19)
(1.82937 0.0468661 0)
(-0.15586 0.0991794 1.60909e-19)
(-0.079407 0.147721 1.08937e-19)
(0.632046 0.582344 7.8746e-20)
(2.08892 -0.785049 6.33616e-20)
(0.591635 0.259035 -2.76446e-19)
(-0.268557 -0.176003 4.07875e-20)
(0.775173 -0.66171 0)
(1.66603 -0.979881 1.79176e-20)
(0.588022 -0.548166 0)
(2.19165 0.107743 8.00844e-20)
(1.15034 -0.172333 -3.88072e-19)
(1.88016 0.0216444 5.29718e-20)
(1.34172 0.297293 -1.73959e-19)
(1.3421 0.53279 0)
(1.54966 -0.571586 -3.86925e-21)
(1.36111 0.385984 -1.04706e-19)
(1.26511 -0.744943 -1.8134e-19)
(1.16769 0.655282 5.12119e-20)
(0.677623 0.058879 -5.63228e-19)
(0.820907 0.0461343 0)
(2.11763 -0.23817 -4.14992e-20)
(-0.133372 -0.171949 -1.00567e-19)
(2.35637 0.0464067 -3.16606e-20)
(0.727454 -0.0515273 -2.48919e-19)
(0.888537 -0.530502 0)
(0.82414 0.170114 -9.12985e-20)
(0.556795 -0.518565 -3.09089e-19)
(1.73023 0.0540841 0)
(1.00731 0.00922876 3.69608e-19)
(-0.163244 -0.176124 0)
(2.0514 0.251306 0)
(0.244938 -0.272506 6.61051e-20)
(1.34466 -0.516188 -3.07348e-21)
(1.02263 0.0046491 4.12432e-20)
(1.31484 0.400087 2.65507e-20)
(0.970345 0.0224464 4.32946e-19)
(1.04037 0.0259385 -1.02527e-20)
(0.666586 0.162445 -3.34512e-19)
(1.66211 -0.91414 -1.21312e-21)
(1.89044 -0.150312 0)
(-0.0686795 -0.0566236 7.09143e-20)
(0.875185 -0.635678 -1.75111e-19)
(-0.128248 0.1098 1.39218e-21)
(1.11788 -0.07978 2.59314e-19)
(0.825085 -0.194036 0)
(0.971461 0.0227737 4.12426e-20)
(1.36305 0.635178 0)
(1.63896 -0.967658 0)
(1.29759 0.221022 0)
(-0.12621 0.0466791 0)
(0.805362 -0.67879 3.07657e-19)
(-0.328441 0.0225345 -1.676e-19)
(-0.0701051 -0.0285417 1.04718e-19)
(1.5473 0.180668 0)
(1.15448 -0.106321 -2.37055e-19)
(1.12452 0.02319 1.83019e-19)
(-0.181061 0.20865 1.3457e-19)
(0.631707 0.495631 0)
(2.22999 -0.174481 -7.85664e-20)
(0.977164 -0.489719 8.64098e-20)
(-0.251844 0.187235 3.06789e-19)
(1.78911 0.234714 1.3628e-19)
(-0.121221 0.109201 -2.52012e-19)
(0.824951 -0.749866 0)
(0.560132 0.333837 1.67056e-19)
(1.66947 -0.236691 -3.40303e-19)
(-0.166197 -0.352539 -3.98411e-19)
(1.02945 -0.584552 -4.30721e-20)
(1.45397 -0.0125364 0)
(-0.0918337 -0.075903 -2.12119e-19)
(0.711497 -0.0850798 7.89775e-20)
(1.56898 0.874187 0)
(-0.19782 0.0706861 -2.18279e-19)
(0.883791 0.758036 -2.6616e-19)
(-0.458878 -0.449029 2.50694e-19)
(1.029 -0.0249356 0)
(0.961649 -0.445443 5.42557e-20)
(-0.103157 0.0508564 0)
(0.710684 -0.509348 -1.11156e-19)
(-0.434076 -0.386877 -1.39113e-19)
(0.798413 -0.727955 0)
(0.445293 -0.295721 4.19084e-19)
(0.552266 -0.469944 2.87138e-19)
(0.414894 -0.375469 0)
(0.996795 -0.794113 -1.42639e-19)
(0.0915913 -0.144541 0)
(-0.145324 0.0994835 -1.26053e-19)
(0.823723 -0.709472 1.48939e-19)
(2.41801 -0.268641 1.81981e-19)
(1.98495 0.0808138 0)
(-0.080574 -0.0751602 0)
(0.686757 0.637868 -3.29334e-19)
(1.80055 -0.641454 -1.29846e-20)
(-0.0341668 -0.0433397 0)
(0.998922 -0.819478 -1.52817e-20)
(1.15594 -0.103283 0)
(1.0903 -0.129617 4.11524e-19)
(2.12066 -0.199926 -6.69286e-20)
(-0.0897195 -0.0209351 0)
(1.23811 -0.565144 -6.13476e-20)
(-0.269434 0.180372 -5.08952e-20)
(-0.0677719 0.079983 0)
(1.10804 -0.826825 1.17661e-20)
(1.00709 0.0052389 -6.17391e-19)
(0.662876 -0.494011 -1.08698e-20)
(0.83005 -0.529117 0)
(1.21613 -0.743126 -1.06108e-19)
(0.654184 0.224087 2.5908e-19)
(1.18597 0.13075 0)
(1.47866 0.0523097 -2.27925e-19)
(1.21172 -0.869005 -2.42487e-19)
(-0.0848787 -0.0766674 -7.86472e-20)
(-0.0680094 -0.444057 -1.20061e-19)
(1.06813 0.00502952 2.29297e-19)
(0.931972 -0.476814 -1.08661e-19)
(1.32799 -0.923337 1.12284e-21)
(0.31274 -0.449568 -1.16888e-19)
(0.707154 -0.117476 8.55226e-20)
(-0.158573 -0.0872076 -1.93485e-19)
(1.92545 -0.0240819 0)
(2.65169 0.0502437 6.53684e-20)
(1.44384 0.640121 1.25408e-19)
(0.822932 -0.627933 -2.24417e-19)
(0.995856 0.0084728 1.26517e-20)
(0.733825 -0.54558 3.05607e-19)
(1.304 0.792073 1.16241e-19)
(1.73177 0.0114942 1.27717e-20)
(-0.0954553 -0.0900149 0)
(1.0829 0.0486277 -2.36826e-19)
(-0.0112671 -0.771161 -1.82132e-19)
(1.06538 0.481012 7.75532e-20)
(0.0566245 -0.132863 1.16948e-19)
(1.16424 0.026808 -4.39213e-20)
(-0.247718 0.0603464 -1.76592e-19)
(1.29338 0.572816 -7.19467e-20)
(1.1364 0.882285 0)
(-0.135786 -0.131815 -8.18614e-20)
(-0.0575665 -0.188013 0)
(0.649807 0.555355 -2.7244e-19)
(2.01805 0.0719865 -1.78981e-20)
(-0.167327 -0.269389 1.25934e-19)
(-0.306273 -0.359123 -4.72423e-19)
(0.7257 0.0624056 2.47367e-19)
(1.84941 -0.0512707 -2.30452e-20)
(0.993439 -0.357658 -3.16184e-20)
(-0.0387278 -0.0340286 0)
(-0.413508 0.194169 4.99362e-19)
(1.33685 0.970112 -8.40586e-21)
(0.840649 0.0641398 -1.35289e-19)
(0.555658 0.520491 1.89272e-19)
(0.534671 0.201341 0)
(-0.130969 -0.363921 -1.50257e-19)
(-0.137271 1.11783 2.76707e-19)
(1.30926 -0.968969 6.12318e-22)
(0.989991 -0.0402241 -1.9277e-19)
(-0.181015 -0.157208 6.65185e-21)
(-0.0311042 0.0331997 1.42214e-19)
(-0.251871 -0.190409 -1.38405e-19)
(1.22469 0.0535621 0)
(1.12656 0.0402552 -3.17228e-19)
(2.26434 0.00780555 7.77868e-20)
(1.2906 -0.632169 1.16145e-19)
(1.83037 -0.137074 1.98196e-20)
(0.589049 0.314716 0)
(0.93915 0.744207 -1.56967e-20)
(0.684152 0.628361 1.78462e-19)
(0.911675 -0.577012 1.58093e-19)
(0.678692 0.490241 0)
(1.0223 -0.000930117 8.26541e-21)
(0.896666 -0.677137 2.25426e-19)
(0.832149 0.412715 -4.4861e-19)
(1.2288 -0.108746 0)
(-0.0353779 -0.0791452 -2.9697e-19)
(-0.10341 0.088071 -1.0867e-19)
(1.59098 0.707174 0)
(1.36511 -0.951979 -5.24061e-22)
(-0.314373 -0.131674 0)
(-0.0711393 0.0339477 1.03899e-19)
(0.731233 0.646582 -9.54989e-20)
(0.85959 -0.230565 0)
(-0.213159 -0.0922924 0)
(1.59567 -0.477543 0)
(-0.868316 -0.424474 4.06449e-19)
(1.22795 -0.896732 1.58457e-19)
(1.19209 -0.616548 6.8124e-20)
(1.07191 -0.175174 -1.7853e-19)
(0.893854 -0.707454 -1.78669e-19)
(0.186615 -0.190926 0)
(-0.736833 -0.679065 0)
(1.01723 -0.524778 1.8892e-19)
(-0.0713522 -0.0760897 0)
(-0.171764 0.0578995 0)
(-0.158903 -0.372722 3.42982e-19)
(0.786588 0.663628 8.28559e-20)
(1.00851 0.788176 0)
(0.689828 0.543318 -8.32357e-20)
(0.833313 -0.0543156 -2.25124e-19)
(0.739228 0.552747 -2.22409e-19)
(0.589978 0.547775 -1.62976e-19)
(-0.144678 -0.184945 3.37695e-22)
(0.728395 -0.653834 0)
(0.897436 0.16492 -3.19427e-19)
(-0.180213 -0.259035 4.45795e-20)
(0.604115 0.559219 3.65587e-19)
(0.95269 0.791998 0)
(-1.18462 -0.270598 3.11275e-19)
(-0.168767 -0.171998 2.32897e-19)
(-0.13233 -0.0447279 -1.16395e-19)
(0.658229 0.561297 -1.44635e-20)
(0.9698 -0.00800467 5.96026e-20)
(-0.192118 -0.315548 0)
(2.34232 -0.121235 -2.12212e-19)
(1.31395 0.291268 -7.63793e-20)
(0.660225 -0.611435 -7.97185e-20)
(-0.519345 -0.449407 8.01869e-21)
(1.18893 0.450038 1.72771e-19)
(0.880058 0.402436 0)
(1.06453 -0.177459 2.02101e-19)
(-0.0740774 -0.222025 -2.86136e-21)
(-0.149726 0.0667975 4.08476e-19)
(0.924019 0.0172155 -5.37619e-20)
(1.09725 0.147565 0)
(1.9324 -0.0864293 -1.66308e-19)
(1.73894 0.0189549 0)
(0.541589 0.240277 -4.5479e-19)
(-0.0340225 0.034675 0)
(-0.116946 -0.14536 1.9681e-19)
(0.716704 0.106159 0)
(0.633074 -0.528294 -1.87195e-19)
(1.14489 0.0161186 2.12974e-19)
(-0.136274 -0.0108875 3.49636e-20)
(1.84002 -0.00501156 -7.26673e-21)
(2.09719 -0.260828 -8.31843e-20)
(1.10941 0.222388 -2.14113e-19)
(-0.190129 -0.294491 -8.72468e-20)
(1.08984 -0.863668 0)
(0.8151 0.0173932 -1.54898e-19)
(0.940492 -0.388548 -2.99857e-19)
(1.74159 -0.591987 -1.62954e-22)
(1.77626 0.032011 1.21377e-19)
(1.07638 -0.00745395 3.80773e-19)
(-0.0362807 -0.257787 -1.05203e-19)
(1.00956 -0.449909 -1.33574e-19)
(0.196883 -0.189504 2.63435e-19)
(1.0081 -0.00762504 0)
(1.00485 -0.0058206 0)
(0.0563792 0.703458 1.39944e-20)
(-0.155833 0.145549 -9.25929e-20)
(0.167065 -0.120197 -1.0549e-19)
(1.56565 0.0580394 7.14287e-21)
(0.496943 -0.0566611 0)
(1.70744 -0.00775894 -5.01819e-20)
(0.952594 -0.829649 -9.5959e-20)
(1.80111 -0.582971 -4.78577e-20)
(1.10181 0.830483 0)
(0.478621 -0.461086 0)
(0.599448 0.509095 -1.73742e-19)
(1.09092 0.270365 -3.92154e-19)
(2.29589 -0.272628 2.37518e-22)
(0.8591 0.149675 1.37464e-19)
(-0.0371555 -0.362036 -2.96557e-19)
(1.8573 -0.371853 -4.83459e-20)
(-0.146435 -0.413421 0)
(-0.118332 -0.10108 0)
(-0.21322 -0.410125 0)
(1.35576 -0.737626 -1.08903e-19)
(-0.0697283 0.0849607 -2.16104e-19)
(-0.039272 0.0440332 0)
(1.29419 0.971852 -2.76664e-20)
(1.11106 0.14205 -4.11396e-19)
(2.1142 0.465916 -5.87355e-20)
(1.08153 0.921238 7.37161e-20)
(-0.121643 0.130894 1.29929e-19)
(2.02937 -0.104459 0)
(-0.203472 -0.424257 -2.70958e-19)
(-0.0931688 0.0922726 2.43374e-19)
(0.776037 0.020897 1.83646e-19)
(1.5426 0.935793 1.29046e-20)
(0.892808 0.0444557 6.33578e-20)
(-0.135608 0.104206 9.57834e-22)
(0.753504 -0.68797 -3.99315e-20)
(1.11022 -0.0428525 0)
(1.6386 -0.00905583 0)
(1.06986 0.0453091 0)
(-0.270373 1.04758 -3.96217e-19)
(-0.216535 -0.425976 8.86851e-20)
(1.04274 0.838202 0)
(1.00063 -0.00728404 5.17767e-19)
(0.761317 0.595216 -2.22402e-19)
(-0.838756 0.840214 -3.31979e-19)
(0.861165 0.00843415 -4.13093e-20)
(0.724365 -0.660704 -2.3195e-19)
(1.38416 0.696207 -2.77548e-20)
(0.574186 -0.465602 -2.97068e-19)
(1.12825 -0.00182871 -4.61715e-19)
(0.818993 0.0448508 4.62745e-20)
(1.55844 -0.186829 8.52709e-20)
(2.05464 0.0117454 -4.68045e-20)
(-0.0291967 -0.0263745 3.53213e-22)
(1.07418 0.460739 -2.58823e-19)
(1.38019 0.618302 8.64532e-20)
(-0.194917 -0.104412 0)
(-0.0432839 -0.390595 1.10566e-19)
(-0.070637 -0.164062 1.26045e-19)
(-0.17342 -0.130948 -9.84187e-20)
(0.470996 0.300157 0)
(0.790738 0.58507 0)
(-0.0583351 0.0542579 -1.48587e-19)
(-0.18564 -0.285316 -4.57645e-20)
(1.04563 -0.0304529 1.82987e-19)
(-0.0512244 -0.0980786 -3.9754e-20)
(0.998225 -0.0436972 -1.17086e-19)
(-0.209675 0.104622 0)
(0.843947 -0.748245 -3.24916e-19)
(2.09662 -0.0363912 1.03478e-19)
(-0.0508983 -0.567883 1.14841e-19)
(0.718378 0.148384 3.25842e-19)
(0.622066 0.123449 1.05519e-19)
(0.507742 -0.481437 2.08397e-19)
(-0.0426572 -0.0639458 -1.07582e-19)
(1.07652 0.202427 0)
(0.387547 0.333107 -1.923e-19)
(1.02754 -0.0161377 -2.9164e-19)
(-0.318029 -0.361865 1.86628e-19)
(1.41664 0.459774 -1.07293e-19)
(-0.0861695 -0.0992375 -3.96175e-20)
(0.691567 -0.631511 -7.37591e-20)
(0.813584 0.174921 -2.03683e-19)
(0.970669 0.416312 2.22053e-20)
(1.15674 -0.142598 3.64349e-20)
(0.613937 -0.245008 -3.03413e-19)
(2.03367 -0.368806 -8.2812e-20)
(1.7527 0.110364 0)
(1.63752 0.602367 -2.45679e-20)
(1.95565 0.0752948 -1.35025e-20)
(0.619562 -0.194038 7.45704e-20)
(1.08336 0.358402 -2.12135e-19)
(1.78333 -0.568697 2.17421e-20)
(0.415577 0.381769 -2.48611e-19)
(-0.286446 -0.149237 1.70644e-19)
(1.90522 -0.227706 0)
(0.934119 0.00396231 0)
(0.882664 -0.780706 6.49876e-20)
(-0.161709 -0.19752 -2.55232e-19)
(-0.6683 -0.494528 -1.55609e-19)
(-0.0384553 -0.0376791 -1.68574e-19)
(-0.228167 0.00939015 -1.23818e-19)
(-0.146065 -0.467045 0)
(-0.109085 -0.094792 2.95564e-20)
(-0.143717 0.139745 -1.02655e-19)
(-0.0340463 0.0297684 -3.2237e-19)
(0.80685 -0.123275 0)
(1.79336 0.265394 4.66845e-20)
(-0.0505861 -0.0874222 0)
(0.993034 0.0242401 3.72417e-19)
(-0.0595139 -0.411389 1.7098e-20)
(0.549598 -0.437171 3.98219e-19)
(-0.239344 -0.806207 3.0086e-19)
(-0.806012 -0.337122 0)
(-0.117331 0.150637 1.08931e-19)
(1.00359 0.0219402 -1.12177e-20)
(-0.111203 -0.120688 0)
(1.00508 -0.00870974 -5.77125e-20)
(0.87371 -0.737684 -3.06112e-19)
(0.255799 0.169867 0)
(0.943808 -0.280457 2.1438e-19)
(-0.183068 0.0980613 1.8193e-19)
(-0.040769 -0.0346459 0)
(-0.138036 -0.38301 -4.21557e-21)
(0.737556 -0.644307 -4.40614e-19)
(0.967399 -0.0315563 -2.7455e-19)
(-0.151804 -0.222268 3.0314e-19)
(-0.125784 -0.151386 1.19626e-19)
(-0.152738 -0.435916 0)
(0.951759 0.465205 0)
(-0.0608726 -0.52034 1.3398e-19)
(1.67241 -0.223377 -1.68482e-19)
(1.07371 0.892986 1.71948e-20)
(1.06644 0.206547 -1.21809e-19)
(1.14994 0.00701503 -2.31985e-19)
(1.05402 -0.07131 -8.52176e-20)
(-0.138655 -0.26555 -2.7896e-19)
(1.54386 -0.000635055 2.32427e-19)
(0.661817 0.0343104 2.02865e-19)
(1.9778 -0.155059 1.12556e-19)
(1.05202 -0.155138 0)
(0.650434 -0.133945 5.87429e-19)
(1.14453 0.0252036 -5.04589e-19)
(1.74833 0.5992 -1.63167e-21)
(0.752087 -0.467819 -1.64941e-19)
(-0.087196 -0.0724191 1.58593e-19)
(0.807826 -0.709206 4.00485e-19)
(1.23258 0.196072 7.13989e-20)
(1.00682 -0.00770284 2.55578e-19)
(-0.0283063 -0.349805 -1.16218e-19)
(1.02225 0.0143462 0)
(1.80159 0.224806 -1.80186e-19)
(-0.0617753 -0.0475213 0)
(1.01277 0.0124375 -1.51618e-19)
(-1.26101 0.018796 -5.1714e-19)
(1.72546 0.272671 2.81289e-20)
(-0.142087 -0.362026 1.55112e-19)
(1.56446 0.0319222 -6.07063e-21)
(1.01437 -0.0192905 5.2837e-20)
(1.32387 -0.0861473 0)
(1.46152 -0.622095 -1.70328e-19)
(1.02029 0.0298757 -1.55414e-19)
(1.44282 0.780045 -4.27203e-20)
(1.3586 -0.0563095 0)
(1.96578 -0.0625009 -4.25874e-21)
(-0.0711242 0.0616427 0)
(1.38485 0.0410797 0)
(-0.219959 -0.394807 0)
(1.23639 0.443072 0)
(1.91287 0.178752 5.07473e-20)
(0.735484 0.608203 3.89718e-19)
(0.292775 -0.294311 -2.46683e-19)
(-0.174791 -0.249854 -2.81285e-19)
(-0.049773 -0.0392231 0)
(2.55886 0.16294 3.72852e-20)
(1.42614 0.51717 0)
(1.45997 0.280282 0)
(-0.20983 -0.460046 1.17633e-19)
(0.806898 0.711252 1.23066e-19)
(1.71466 -0.0328576 0)
(-0.0976281 -0.135023 6.9871e-20)
(0.906007 0.211637 1.87419e-19)
(1.82378 0.0905242 -5.75198e-20)
(1.24216 0.922315 4.06454e-20)
(0.928931 -0.836054 -4.3395e-20)
(1.90786 0.0757365 -6.09184e-20)
(0.79421 0.716572 1.25896e-19)
(1.18092 0.92297 0)
(1.73331 0.138303 3.51413e-20)
(1.27666 0.451882 0)
(1.84805 0.124383 1.49743e-19)
(1.22492 0.0857739 2.42277e-19)
(1.00509 -0.00520246 0)
(0.840614 0.395222 6.42042e-19)
(0.89466 -0.181147 4.90004e-20)
(0.64073 -0.422388 0)
(0.678539 -0.394441 2.1545e-19)
(1.2363 0.549897 -3.17621e-20)
(0.475108 0.447235 2.71577e-19)
(-0.0351946 0.0275099 3.77345e-20)
(0.292253 -0.154387 1.12233e-19)
(0.769446 0.0679439 0)
(1.3366 -0.912705 -1.03565e-19)
(1.03105 -0.0437927 4.05782e-19)
(1.59683 0.332435 1.67919e-19)
(-0.122148 -0.186887 5.99577e-20)
(-0.172736 -0.845018 0)
(1.2362 -0.245625 -1.21266e-19)
(-0.0384871 -0.0324695 -1.35806e-19)
(0.817631 -0.409414 -5.73862e-20)
(-0.152118 0.086588 -1.14211e-21)
(-0.214608 0.124282 3.38733e-19)
(1.24423 -0.767438 5.41239e-20)
(2.43202 -0.0887046 2.84159e-19)
(1.18719 0.447531 -2.78614e-19)
(0.853397 -0.061859 0)
(1.7209 -0.0453837 1.45872e-19)
(1.90722 0.11018 7.46837e-20)
(0.923731 -0.77602 1.51718e-19)
(1.16484 -0.982988 -5.58904e-20)
(0.479909 0.444757 1.81667e-19)
(1.48721 0.0263788 0)
(1.76639 0.547037 3.87356e-20)
(-0.0480461 -0.0417462 -2.7703e-19)
(0.883157 0.769027 0)
(1.16533 -0.186873 0)
(0.293854 -0.293857 -3.54667e-21)
(0.321374 0.29497 0)
(-0.0978754 -0.878035 -3.11161e-19)
(-0.053106 0.0353713 -1.11556e-19)
(1.74095 -0.44763 0)
(1.19334 0.0872774 1.68048e-19)
(-0.597957 -0.542099 1.29297e-19)
(0.53954 -0.512031 -4.80847e-19)
(1.98464 -0.113303 -3.67184e-20)
(0.617849 -0.561321 0)
(1.01541 0.126113 0)
(1.36039 -0.26262 0)
(1.1184 0.22369 -2.28512e-19)
(1.33408 0.0983774 3.23408e-19)
(-0.843115 -0.43715 0)
(0.885402 -0.06722 0)
(1.85141 0.0108486 6.19008e-21)
(-0.0736906 0.0586894 1.11084e-19)
(1.83225 -0.0392062 -1.01302e-19)
(1.05901 -0.517367 1.39244e-19)
(1.53699 0.0253749 -1.34445e-19)
(-0.490942 -0.619624 -1.04496e-19)
(1.71829 0.00450797 -1.2307e-19)
(1.01802 -0.0264021 4.20744e-19)
(1.5204 0.584414 0)
(-0.0949666 0.0763939 3.02729e-20)
(1.01582 -0.839383 1.9186e-19)
(0.860118 -0.0248003 4.82854e-20)
(0.644609 -0.445267 0)
(1.92187 -0.549799 1.74056e-22)
(1.22184 -0.196261 1.61121e-19)
(1.63835 0.148239 0)
(0.613428 -0.569333 4.76312e-19)
(0.841571 0.0477414 -3.62497e-20)
(2.00877 0.00474724 1.8859e-19)
(-0.0612909 0.0617283 -2.23095e-19)
(1.33092 0.609887 1.38037e-19)
(1.14589 0.399979 3.54294e-21)
(0.902131 0.365009 2.20509e-19)
(1.8783 -0.0871889 -2.11769e-19)
(-0.138086 -0.294572 -6.25979e-22)
(0.513161 -0.225362 0)
(-0.145814 -0.109821 2.60523e-19)
(1.09735 -0.955711 0)
(1.07684 -0.664448 2.32939e-20)
(1.00141 -0.184473 -4.81784e-19)
(-0.158997 -0.75012 6.56947e-20)
(-0.196404 -0.497839 -2.75795e-19)
(0.984719 0.47555 1.69996e-19)
(0.377778 0.769097 4.37818e-19)
(0.689188 -0.0391278 0)
(1.64783 0.0851427 0)
(1.57854 0.139836 1.67062e-20)
(0.781935 -0.0166151 0)
(1.3739 -0.212664 -1.65792e-19)
(-0.605456 -0.792843 3.59807e-19)
(1.91886 0.476143 2.73976e-20)
(1.03959 -0.0343659 0)
(0.560547 -0.363567 1.0692e-19)
(1.00809 0.0268623 1.9973e-19)
(0.754528 0.706676 -3.68957e-19)
(-0.272491 -0.105803 0)
(1.12502 -0.489505 5.21159e-19)
(1.94736 0.0250038 -1.07654e-22)
(1.11184 -0.506239 -2.26695e-19)
(2.2252 0.160537 1.55273e-19)
(1.28776 0.785624 0)
(0.86624 0.0186016 0)
(-0.179116 -0.310273 -1.5565e-19)
(-0.0601682 0.0463724 1.67248e-19)
(0.945721 0.359303 -2.03134e-19)
(0.0981141 -0.319396 -9.40648e-20)
(0.643037 0.398441 2.38817e-19)
(1.48432 -0.12834 0)
(0.542339 -0.504111 0)
(0.30733 -0.425331 -1.35345e-20)
(1.24289 -0.517211 -1.07765e-19)
(0.689511 -0.0218081 9.80135e-21)
(0.737639 -0.165278 1.19463e-19)
(-0.0925897 0.046392 -2.9633e-19)
(1.09707 -0.145343 1.25902e-19)
(0.662236 0.616846 0)
(1.26995 0.687913 0)
(1.60101 0.248562 0)
(-0.192238 -0.438365 -1.22096e-19)
(1.3152 0.566799 2.32524e-19)
(2.0761 0.05607 3.58131e-20)
(0.924711 -0.0129994 0)
(2.71216 -0.200333 0)
(1.86587 -0.0594356 -1.82961e-19)
(0.99952 0.788912 4.32423e-19)
(1.00519 0.00464668 -1.99365e-19)
(1.49202 0.477105 0)
(-0.252764 0.002474 0)
(1.2385 0.308381 2.7841e-19)
(1.01928 0.52034 -1.25712e-19)
(1.07078 0.0209963 0)
(1.6035 -0.201401 0)
(2.04872 0.640705 -3.39645e-19)
(-0.130135 0.117551 9.23794e-22)
(0.996471 0.0128994 0)
(0.703868 0.46395 -3.27225e-20)
(0.943886 -0.832005 0)
(0.999587 0.0158695 4.6441e-20)
(0.455528 0.157834 -3.85758e-19)
(0.912523 -0.331762 3.16531e-19)
(0.484184 -0.405766 2.26742e-19)
(2.17744 -0.164722 2.13399e-19)
(1.4233 0.230555 7.63748e-20)
(0.789122 -0.0336122 0)
(1.01725 0.00837372 0)
(-0.0707271 -0.702407 0)
(0.668136 0.639344 -1.81789e-19)
(-0.070987 0.0410963 1.99336e-19)
(1.16544 0.344238 -4.4696e-19)
(-0.188509 -0.106216 0)
(0.823947 0.635488 1.63444e-19)
(1.01694 -0.34223 0)
(1.00572 -0.000968654 1.16586e-19)
(1.0122 -0.0882173 6.8154e-20)
(1.0304 0.397315 2.48951e-19)
(1.3224 -0.0463387 0)
(2.06992 0.0471168 -5.35849e-20)
(0.830465 -0.119761 -3.67765e-19)
(-0.412536 -0.762561 -4.70995e-19)
(1.46176 0.210328 0)
(0.875937 0.232353 1.72903e-19)
(1.96196 -0.199544 0)
(0.771131 0.513001 3.54461e-19)
(-0.818498 -0.689897 1.8154e-19)
(-0.0486019 0.0422432 0)
(0.591888 0.562581 -6.88228e-20)
(1.03991 -0.652163 -1.63033e-19)
(0.485542 -0.26172 -1.22571e-19)
(1.02125 -0.0178642 0)
(-0.35992 -0.330178 -1.29645e-19)
(0.646657 -0.577347 8.37295e-20)
(0.903934 0.28033 0)
(1.57781 0.244873 2.035e-20)
(0.982615 0.835069 2.30813e-20)
(0.634489 -0.189436 3.67925e-19)
(0.0781418 -0.0228834 -1.82252e-19)
(0.23498 -0.0553572 -5.5106e-19)
(-0.0980293 -0.0946618 7.28879e-21)
(0.814037 0.347908 2.42061e-19)
(-0.0770228 0.0788454 -5.15423e-21)
(1.42615 -0.659438 3.32103e-21)
(1.02349 0.0061414 -3.47576e-19)
(-0.188597 -0.488001 0)
(1.03316 0.0300657 -4.05013e-19)
(2.20632 0.0566928 1.76065e-19)
(0.882184 0.682984 2.72579e-19)
(1.13908 -0.0745094 1.6441e-19)
(1.00545 -0.0333641 1.60858e-19)
(-0.22079 -0.253386 -6.26847e-20)
(-0.0795618 -0.107706 -3.82615e-22)
(1.73647 -0.885347 1.49064e-20)
(1.13835 -0.125434 -8.40695e-20)
(0.825263 0.0491133 9.68807e-20)
(0.919522 -0.302766 9.19418e-20)
(0.612202 0.0244842 0)
(0.957419 0.72794 0)
(0.952975 -0.26613 -8.11866e-20)
(1.89209 0.158263 -1.94114e-20)
(-0.29644 -0.862258 1.30587e-19)
(1.0405 -0.548583 -5.44439e-19)
(0.625803 -0.543763 3.99136e-19)
(1.43681 0.0147131 -1.11439e-19)
(0.0321508 -0.26855 1.12651e-20)
(1.68929 -0.384201 0)
(0.753326 0.104922 -6.71793e-21)
(1.78802 -0.15819 -3.18663e-19)
(1.03588 0.754885 0)
(1.12577 0.134053 0)
(-0.354621 0.0145108 0)
(-0.0794044 -0.088838 -4.73913e-20)
(0.0143256 0.169641 0)
(1.97642 0.691424 4.38893e-19)
(1.21561 0.180729 6.22703e-21)
(-0.699993 -0.368304 2.36418e-19)
(1.23806 0.155123 -1.1873e-20)
(1.83743 0.410147 -8.31271e-20)
(2.16196 -0.333256 -2.35341e-20)
(-0.188585 0.0550927 -2.3947e-19)
(-0.13888 -0.40442 3.14093e-21)
(0.978983 0.0647889 0)
(0.674452 -0.0339887 0)
(1.00045 0.000612778 1.83283e-22)
(-0.178727 -0.461372 0)
(1.50058 -0.00847462 -4.6853e-20)
(0.677423 -0.0307058 0)
(1.06242 0.00869886 1.31766e-19)
(0.986975 0.0157545 -4.54106e-20)
(0.907178 -0.0750178 8.63101e-20)
(1.06166 -0.0190176 -9.26516e-22)
(0.956231 -0.198055 -5.53578e-20)
(1.02679 -0.0339677 3.74834e-19)
(0.680458 -0.61856 1.90097e-19)
(-0.634388 0.022308 -2.7208e-19)
(1.61656 -0.108307 -1.78497e-20)
(-0.0659529 0.0452662 0)
(1.12347 0.788626 0)
(1.02906 -0.00881113 0)
(1.01539 -0.785206 -1.14539e-19)
(1.04631 -0.897188 6.01873e-20)
(1.05217 -0.246012 3.3922e-20)
(0.390619 -0.38785 -1.15506e-18)
(0.53896 -0.308355 -6.18846e-20)
(0.593075 -0.395277 -6.39714e-19)
(1.70411 0.235701 -4.8032e-20)
(0.188177 -0.282409 1.21624e-19)
(2.08328 -0.325297 6.30414e-20)
(0.824805 -0.119871 -1.63833e-20)
(-0.0988773 -0.133798 -1.02121e-19)
(1.10928 0.546332 1.89162e-19)
(-0.204464 -0.212918 0)
(0.0980928 -0.385632 2.34543e-19)
(-0.131362 -0.114685 -4.31868e-23)
(1.02667 -0.0442675 3.32979e-19)
(1.02377 -0.000671082 -8.62303e-21)
(1.10868 -0.0117832 -9.21488e-20)
(0.829133 0.0510604 -1.4718e-19)
(1.61581 0.307598 5.29318e-20)
(0.403291 -0.378805 -3.19588e-19)
(1.7738 -0.319118 -4.63661e-20)
(1.03491 -0.000546104 -2.47073e-19)
(1.01804 -0.0548098 1.8374e-20)
(1.14827 -0.18442 0)
(1.10656 0.584604 -3.54096e-19)
(1.00245 -0.00385331 9.51847e-20)
(0.672424 0.59951 2.53025e-19)
(1.53782 -0.385137 1.00264e-20)
(1.06598 -0.0112395 -3.00795e-20)
(1.12637 0.0113646 8.5585e-22)
(1.94287 -0.0661266 9.0356e-21)
(0.589375 -0.106253 0)
(1.04378 -0.0400851 0)
(1.04926 -0.0344799 5.84365e-19)
(1.00268 -0.00221255 0)
(-0.0828732 -0.0671354 0)
(0.947351 -0.581396 0)
(1.00109 4.55762e-06 -5.53563e-19)
(1.16964 -0.69309 9.37444e-20)
(1.02353 -0.00462851 1.16575e-20)
(1.34805 0.949893 -2.12478e-20)
(1.53721 0.997649 -3.95577e-20)
(0.74812 -0.257075 1.11647e-19)
(1.63306 0.0604377 2.33739e-19)
(1.3777 0.398323 0)
(-0.185415 0.127408 0)
(2.11783 -0.172955 3.58109e-19)
(0.91094 0.514804 0)
(0.999881 -0.00455545 -1.71144e-19)
(1.01054 -0.000760201 3.3264e-19)
(1.43241 0.13141 -6.69544e-20)
(-0.00666104 -0.117671 2.03073e-19)
(0.973722 -0.00112204 1.80498e-19)
(1.28556 -0.134685 -2.40924e-20)
(1.42802 -0.21055 3.5833e-21)
(0.672166 0.0486721 -1.83667e-21)
(0.930744 0.0175688 -1.8314e-19)
(1.00397 0.00423667 2.15339e-19)
(1.00002 3.08113e-05 1.2705e-20)
(0.789884 -0.0128458 0)
(0.728417 -0.0265156 0)
(0.724008 -0.0268684 8.06519e-22)
(0.699558 -0.0287362 0)
(1.9521 -0.00106528 0)
(1.6286 -0.177751 0)
(0.948695 -0.166855 -4.43119e-20)
(1.05072 -0.209551 2.23515e-20)
(1.51873 -0.423172 0)
(0.66575 -0.325989 1.19331e-19)
(0.497154 0.449651 0)
(1.41504 0.092079 0)
(1.20187 -0.081413 0)
(0.892144 -0.135918 1.98273e-21)
(0.454055 0.0548261 5.12486e-20)
(0.778498 0.0222681 0)
(0.785565 0.01975 0)
(0.96857 0.020203 -2.25586e-19)
(0.813613 0.00835058 4.20147e-19)
(1.00869 -0.00131407 0)
(1.00031 -0.000472842 3.97597e-19)
(1.00018 -0.000646925 -2.92534e-22)
(0.785177 0.0214294 3.58253e-19)
(0.994282 -0.00710083 -2.07312e-19)
(1.45608 -0.040993 0)
(1.35799 -0.170123 -3.58533e-21)
(1.00069 -0.000875223 -2.00763e-19)
(0.99962 0.00155483 -3.44868e-19)
(1.32144 0.441852 0)
(0.99882 0.00193586 0)
(0.999787 0.000376236 0)
(1.96917 -0.503204 7.74557e-20)
(0.0980244 0.0209384 -1.2595e-19)
(1.65616 -0.295898 0)
(-0.0407441 -0.0687165 1.85216e-19)
(0.468031 0.412171 -6.31552e-19)
(1.01997 -0.01729 -2.67601e-19)
(-0.21215 -0.370218 -8.72375e-20)
(1.01799 0.000757169 -2.15884e-19)
(1.18037 -0.216984 -1.15095e-19)
(0.809 -0.48305 3.12261e-19)
(-0.0436588 -0.0359416 -6.77959e-20)
(1.03042 0.0111453 0)
(1.05134 -0.0137404 -5.77315e-20)
(0.858996 0.023921 0)
(-0.137272 0.0712477 2.96505e-19)
(1.01946 0.238767 0)
(-0.214963 -0.449707 -2.29568e-19)
(1.05471 -0.164069 2.02438e-20)
(1.66327 0.664488 2.10765e-20)
(-0.0946868 0.0552861 0)
(1.05297 -0.0378349 1.80652e-19)
(0.319245 -0.10458 -1.2603e-20)
(0.927515 -0.0161468 2.83311e-19)
(1.01252 -0.008139 -1.82097e-19)
(1.68866 0.845469 5.27845e-20)
(0.521746 0.488642 0)
(0.442449 0.393234 2.00844e-19)
(2.52085 -0.339072 -1.379e-20)
(1.148 0.123345 1.89838e-19)
(1.09958 -0.722693 0)
(1.02166 0.00257274 0)
(1.00007 -0.0181235 -4.194e-19)
(1.01871 0.0154585 -4.10109e-19)
(-0.134254 -0.144498 0)
(1.22144 0.81542 -1.18661e-19)
(1.51795 -0.524395 -1.06762e-20)
(1.01615 0.00472198 1.57537e-19)
(1.01206 0.0137434 -1.97902e-19)
(-0.217987 -0.461231 -2.30863e-20)
(0.415007 -0.0773886 2.42151e-19)
(1.01844 -0.0164193 6.71414e-19)
(1.76946 -0.765423 0)
(1.88026 0.612094 -6.14382e-20)
(1.01583 -0.0125274 -2.0935e-19)
(2.08555 0.127021 -1.00332e-19)
(1.06247 0.00538151 -4.80545e-22)
(1.00961 -0.00955797 4.18323e-20)
(2.05592 -0.25028 -1.89867e-19)
(1.01616 0.00690686 2.03495e-19)
(-0.0167489 -0.427483 -3.07978e-20)
(1.01876 0.0015941 0)
(0.932331 0.142885 4.90985e-20)
(-0.542476 -0.399482 6.01998e-21)
(1.00063 0.0215217 2.02253e-19)
(1.04157 0.020356 -5.62297e-22)
(1.53175 -0.379617 5.34167e-20)
(1.25682 0.313434 3.94547e-19)
(0.996797 0.0153208 1.3918e-19)
(1.01723 -0.0145219 5.13282e-22)
(1.7265 0.218089 -1.86062e-20)
(1.82641 0.945694 -1.17422e-19)
(0.781448 -0.701362 6.29254e-20)
(0.456801 -0.337052 -3.08175e-19)
(1.00822 -0.0107688 0)
(1.02057 0.00233983 5.05417e-20)
(1.01101 -0.00891231 1.06341e-19)
(-0.488425 -0.308117 -3.02401e-20)
(1.01424 0.00526919 -2.11831e-19)
(1.03018 -0.0256383 2.4347e-19)
(1.00858 -0.00715436 -1.98784e-19)
(1.01386 0.00514577 -5.01083e-22)
(1.01326 0.00314933 -3.84679e-22)
(1.02512 0.0138021 2.02925e-19)
(0.901775 0.0803988 5.08092e-19)
(1.9659 0.869851 0)
(0.733005 -0.449591 2.1844e-19)
(1.01101 -0.00417332 0)
(1.02182 -0.0205775 -5.86763e-20)
(1.52936 0.420594 -7.3627e-20)
(1.91352 -0.0480214 0)
(1.73721 0.157801 -3.89491e-20)
(1.4915 1.09718 -7.68926e-20)
(0.750281 -0.018939 0)
(1.80911 -0.207723 0)
(0.673037 1.49497 -3.46382e-19)
(-0.146015 -0.676321 5.34321e-20)
(1.01726 -0.00493516 -2.13255e-19)
(1.12964 -0.573793 -6.45852e-20)
(1.44243 -0.753722 8.29112e-20)
(0.283387 0.261165 0)
(1.8224 -0.322876 0)
(2.00461 0.631907 0)
(-0.142239 -0.106291 1.03244e-19)
(-0.336307 -0.607742 -1.22159e-19)
(-0.325989 1.53621 0)
(-0.199484 -0.0244967 -1.99642e-19)
(1.71647 0.957032 -7.75479e-20)
(1.00766 -0.00306681 -4.1701e-19)
(-0.642666 -0.510508 -7.8534e-20)
(1.02183 0.00569904 2.76239e-19)
(0.68133 -0.042396 0)
(-0.152873 -0.147781 -2.05749e-20)
(0.609335 0.423639 -3.36458e-19)
(1.29375 0.722295 5.85441e-20)
(-0.043917 0.10699 0)
(0.806081 0.0688908 8.35558e-20)
(0.520664 0.49701 5.06645e-20)
(1.1868 0.88042 -3.16704e-20)
(-0.0644446 -0.0553681 1.00437e-19)
(1.01938 0.0107108 0)
(0.0688746 -0.619614 1.35826e-21)
(1.01146 -0.00264638 1.56445e-19)
(2.0827 -0.0193717 0)
(1.01141 0.00763446 2.62544e-19)
(0.133407 -0.353764 -1.10096e-19)
(1.0191 0.0099276 -1.62431e-19)
(0.485479 -0.617555 0)
(2.44988 0.131853 1.16436e-22)
(1.0089 0.00419183 -1.09003e-19)
(0.994499 -0.0328812 2.87634e-19)
(1.09334 0.0914186 -3.32648e-21)
(0.29081 0.162221 -2.35848e-20)
(-0.132985 -0.107575 2.64625e-19)
(2.04505 0.141808 1.75851e-19)
(-0.257963 0.0617091 2.1089e-20)
(0.798568 0.0148891 -3.94206e-19)
(0.801925 0.0258103 0)
(-0.0810001 -0.375972 -9.50543e-20)
(1.02217 -0.0181317 -3.15179e-20)
(0.97443 0.0212062 0)
(1.05192 -0.00145537 -1.99482e-19)
(-0.0235062 0.425293 1.50141e-19)
(-0.356153 -0.667977 2.21717e-19)
(2.17751 -0.601678 0)
(-1.26266 -0.37286 -5.3679e-19)
(1.52847 -0.351788 0)
(1.0399 -0.0180833 5.86275e-20)
(1.4988 0.148247 6.64434e-21)
(1.0134 -0.00309993 1.69409e-19)
(-0.925274 -0.424587 2.99591e-19)
(1.01868 0.00296255 0)
(0.993711 0.00382339 -4.06391e-19)
(1.00811 0.00840164 2.15309e-19)
(1.20754 -0.397463 0)
(1.60614 0.40354 -2.60944e-21)