# Force       
# CofR        : (0.000000e+00 0.000000e+00 0.000000e+00)
#
# Time        	total_x total_y total_z	pressure_x pressure_y pressure_z	viscous_x viscous_y viscous_z
0.05           9.222289e+00 -1.685459e-01 -1.102548e-17 6.112863e+00 -1.743355e-01 -1.141698e-17 3.109427e+00 5.789671e-03 3.915026e-19
0.1            1.059446e+01 1.128945e-03 -4.166224e-18 8.231936e+00 8.174183e-03 -4.355024e-18 2.362522e+00 -7.045238e-03 1.888004e-19
0.15           9.766694e+00 9.088868e-02 -2.305407e-18 7.862555e+00 9.333537e-02 -2.429591e-18 1.904140e+00 -2.446689e-03 1.241840e-19
0.2            9.161056e+00 1.358117e-01 -1.556973e-18 7.571581e+00 1.327185e-01 -1.654575e-18 1.589476e+00 3.093204e-03 9.760243e-20
0.25           8.818904e+00 1.893923e-01 -1.298401e-18 7.455472e+00 1.852407e-01 -1.382850e-18 1.363432e+00 4.151655e-03 8.444936e-20
0.3            8.600986e+00 1.843147e-01 -1.170429e-18 7.406412e+00 1.793287e-01 -1.248247e-18 1.194574e+00 4.985974e-03 7.781718e-20
0.35           8.389892e+00 1.802355e-01 -1.137331e-18 7.331733e+00 1.753041e-01 -1.210621e-18 1.058159e+00 4.931404e-03 7.329022e-20
0.4            8.195736e+00 1.017585e-01 -1.158105e-18 7.251092e+00 9.726703e-02 -1.227893e-18 9.446442e-01 4.491421e-03 6.978764e-20
0.45           8.127367e+00 8.939117e-02 -1.210216e-18 7.277144e+00 8.474213e-02 -1.277707e-18 8.502235e-01 4.649042e-03 6.749124e-20
0.5            8.108188e+00 7.775053e-02 -1.205613e-18 7.335846e+00 7.226328e-02 -1.269870e-18 7.723419e-01 5.487245e-03 6.425660e-20
0.55           8.126507e+00 5.837344e-02 -1.204062e-18 7.417903e+00 5.215437e-02 -1.266363e-18 7.086047e-01 6.219078e-03 6.230152e-20
0.6            8.093741e+00 5.676693e-02 -1.203026e-18 7.437181e+00 5.060562e-02 -1.263817e-18 6.565597e-01 6.161315e-03 6.079014e-20
0.65           8.089413e+00 1.276434e-02 -1.183776e-18 7.476518e+00 7.207610e-03 -1.243014e-18 6.128951e-01 5.556726e-03 5.923856e-20
0.7            8.062795e+00 -1.050289e-02 -1.177398e-18 7.487480e+00 -1.448377e-02 -1.235416e-18 5.753155e-01 3.980884e-03 5.801824e-20
0.75           8.047251e+00 -5.204231e-02 -1.185810e-18 7.504672e+00 -5.417221e-02 -1.243238e-18 5.425796e-01 2.129907e-03 5.742864e-20
0.8            8.002205e+00 -8.378833e-02 -1.207115e-18 7.488253e+00 -8.389474e-02 -1.264867e-18 5.139524e-01 1.064050e-04 5.775238e-20
0.85           7.989011e+00 -1.040412e-01 -1.253702e-18 7.500521e+00 -1.021212e-01 -1.312379e-18 4.884897e-01 -1.920017e-03 5.867729e-20
0.9            7.960394e+00 -9.988090e-02 -1.266690e-18 7.494377e+00 -9.612289e-02 -1.325714e-18 4.660168e-01 -3.758012e-03 5.902390e-20
0.95           7.962136e+00 -9.419561e-02 -1.300938e-18 7.516351e+00 -8.891729e-02 -1.360703e-18 4.457859e-01 -5.278322e-03 5.976475e-20
1              7.947490e+00 -9.178638e-02 -1.316386e-18 7.519685e+00 -8.540217e-02 -1.376157e-18 4.278052e-01 -6.384202e-03 5.977135e-20
1.05           8.002660e+00 -7.556792e-02 -1.337418e-18 7.590915e+00 -6.804368e-02 -1.396997e-18 4.117449e-01 -7.524241e-03 5.957926e-20
1.1            8.038426e+00 -6.923088e-02 -1.325808e-18 7.640874e+00 -6.077251e-02 -1.384498e-18 3.975518e-01 -8.458366e-03 5.869035e-20
1.15           8.060013e+00 -7.734481e-02 -1.335379e-18 7.675578e+00 -6.834181e-02 -1.393763e-18 3.844347e-01 -9.003001e-03 5.838349e-20
1.2            8.094202e+00 -8.146961e-02 -1.339763e-18 7.721930e+00 -7.214349e-02 -1.397912e-18 3.722721e-01 -9.326115e-03 5.814878e-20
1.25           8.130132e+00 -7.533995e-02 -1.334003e-18 7.769006e+00 -6.571442e-02 -1.391944e-18 3.611251e-01 -9.625529e-03 5.794116e-20
1.3            8.134937e+00 -7.759368e-02 -1.335276e-18 7.784437e+00 -6.792482e-02 -1.393367e-18 3.505007e-01 -9.668860e-03 5.809090e-20
1.35           8.153274e+00 -6.841611e-02 -1.324100e-18 7.812921e+00 -5.891633e-02 -1.382163e-18 3.403529e-01 -9.499773e-03 5.806363e-20
1.4            8.192542e+00 -8.146573e-02 -1.302540e-18 7.861735e+00 -7.229037e-02 -1.360501e-18 3.308069e-01 -9.175360e-03 5.796050e-20
1.45           8.207123e+00 -6.074049e-02 -1.295530e-18 7.885208e+00 -5.183898e-02 -1.353586e-18 3.219156e-01 -8.901506e-03 5.805628e-20
1.5            8.212769e+00 -7.638644e-02 -1.287497e-18 7.899427e+00 -6.758510e-02 -1.345333e-18 3.133416e-01 -8.801342e-03 5.783626e-20
1.55           8.260613e+00 -9.206328e-02 -1.257264e-18 7.954979e+00 -8.336863e-02 -1.314275e-18 3.056348e-01 -8.694649e-03 5.701114e-20
1.6            8.288020e+00 -8.421997e-02 -1.244264e-18 7.989430e+00 -7.537897e-02 -1.300561e-18 2.985902e-01 -8.841000e-03 5.629637e-20
1.65           8.304045e+00 -9.336755e-02 -1.222355e-18 8.011840e+00 -8.429625e-02 -1.277916e-18 2.922049e-01 -9.071302e-03 5.556119e-20
1.7            8.358814e+00 -8.524576e-02 -1.214060e-18 8.072349e+00 -7.593674e-02 -1.269056e-18 2.864655e-01 -9.309016e-03 5.499647e-20
1.75           8.379261e+00 -6.771819e-02 -1.198071e-18 8.097911e+00 -5.815883e-02 -1.252519e-18 2.813501e-01 -9.559358e-03 5.444810e-20
1.8            8.405411e+00 -6.129184e-02 -1.167885e-18 8.128615e+00 -5.151146e-02 -1.221651e-18 2.767960e-01 -9.780380e-03 5.376522e-20
1.85           8.435450e+00 -5.472324e-02 -1.153171e-18 8.162782e+00 -4.481950e-02 -1.206596e-18 2.726676e-01 -9.903735e-03 5.342590e-20
1.9            8.503604e+00 -3.582529e-02 -1.124548e-18 8.234499e+00 -2.585016e-02 -1.177530e-18 2.691054e-01 -9.975127e-03 5.298217e-20
1.95           8.545353e+00 -4.696211e-02 -1.105173e-18 8.279310e+00 -3.713896e-02 -1.157811e-18 2.660433e-01 -9.823144e-03 5.263857e-20
2              8.609681e+00 -3.653362e-02 -1.078202e-18 8.346345e+00 -2.688256e-02 -1.130490e-18 2.633357e-01 -9.651056e-03 5.228869e-20
2.05           8.683722e+00 -2.575489e-02 -1.066801e-18 8.422742e+00 -1.643535e-02 -1.118963e-18 2.609802e-01 -9.319533e-03 5.216176e-20
2.1            8.743942e+00 -2.745379e-02 -1.046149e-18 8.484971e+00 -1.849752e-02 -1.097916e-18 2.589709e-01 -8.956269e-03 5.176759e-20
2.15           8.804267e+00 -3.069042e-04 -1.036448e-18 8.547126e+00 8.043320e-03 -1.087916e-18 2.571408e-01 -8.350224e-03 5.146826e-20
2.2            8.873227e+00 1.320515e-03 -1.016026e-18 8.617625e+00 8.953567e-03 -1.067132e-18 2.556020e-01 -7.633052e-03 5.110677e-20
2.25           8.932410e+00 2.019266e-03 -1.003571e-18 8.678065e+00 9.000282e-03 -1.054433e-18 2.543448e-01 -6.981016e-03 5.086189e-20
2.3            8.986686e+00 9.958082e-03 -9.861685e-19 8.733384e+00 1.612897e-02 -1.036490e-18 2.533026e-01 -6.170889e-03 5.032157e-20
2.35           9.035568e+00 1.629343e-02 -9.658465e-19 8.783003e+00 2.164997e-02 -1.015513e-18 2.525646e-01 -5.356539e-03 4.966687e-20
2.4            9.090200e+00 4.269293e-03 -9.682388e-19 8.838052e+00 8.866711e-03 -1.017728e-18 2.521477e-01 -4.597418e-03 4.948917e-20
2.45           9.129463e+00 2.692704e-02 -9.534746e-19 8.877551e+00 3.075942e-02 -1.002469e-18 2.519117e-01 -3.832377e-03 4.899410e-20
2.5            9.171988e+00 1.332534e-02 -9.589458e-19 8.920047e+00 1.645644e-02 -1.007857e-18 2.519405e-01 -3.131099e-03 4.891154e-20
2.55           9.222041e+00 1.767117e-02 -9.595173e-19 8.969934e+00 2.020694e-02 -1.008170e-18 2.521064e-01 -2.535761e-03 4.865237e-20
2.6            9.265250e+00 1.010683e-02 -9.642634e-19 9.012638e+00 1.200342e-02 -1.012718e-18 2.526125e-01 -1.896599e-03 4.845477e-20
2.65           9.327271e+00 1.465777e-02 -9.690964e-19 9.073882e+00 1.606158e-02 -1.017402e-18 2.533890e-01 -1.403805e-03 4.830533e-20
2.7            9.365812e+00 8.841819e-03 -9.711322e-19 9.111562e+00 9.697907e-03 -1.019276e-18 2.542509e-01 -8.560883e-04 4.814370e-20
2.75           9.408289e+00 7.958322e-03 -9.773578e-19 9.153050e+00 8.371727e-03 -1.025430e-18 2.552396e-01 -4.134049e-04 4.807189e-20
2.8            9.450311e+00 4.204932e-03 -9.776830e-19 9.193936e+00 4.219167e-03 -1.025542e-18 2.563743e-01 -1.423471e-05 4.785916e-20
2.85           9.488506e+00 9.914510e-03 -9.887693e-19 9.230854e+00 9.472425e-03 -1.036594e-18 2.576521e-01 4.420844e-04 4.782517e-20
2.9            9.532769e+00 -8.688129e-03 -9.801054e-19 9.273657e+00 -9.553355e-03 -1.027597e-18 2.591120e-01 8.652260e-04 4.749136e-20
2.95           9.574330e+00 -1.252061e-02 -9.809951e-19 9.313542e+00 -1.382459e-02 -1.028279e-18 2.607878e-01 1.303979e-03 4.728347e-20
3              9.629074e+00 -2.223083e-02 -9.903303e-19 9.366440e+00 -2.399922e-02 -1.037622e-18 2.626346e-01 1.768393e-03 4.729207e-20
3.05           9.666430e+00 -1.462434e-02 -9.763100e-19 9.401913e+00 -1.674065e-02 -1.023129e-18 2.645170e-01 2.116312e-03 4.681914e-20
3.1            9.736245e+00 -1.208141e-02 -9.672472e-19 9.469596e+00 -1.461455e-02 -1.013699e-18 2.666486e-01 2.533138e-03 4.645182e-20
3.15           9.764343e+00 -2.235299e-02 -9.665208e-19 9.495349e+00 -2.529671e-02 -1.012837e-18 2.689938e-01 2.943724e-03 4.631593e-20
3.2            9.793386e+00 -1.981606e-02 -9.726153e-19 9.522010e+00 -2.317906e-02 -1.018950e-18 2.713762e-01 3.363000e-03 4.633454e-20
3.25           9.851416e+00 -1.848366e-02 -9.625197e-19 9.577369e+00 -2.218734e-02 -1.008547e-18 2.740470e-01 3.703674e-03 4.602681e-20
3.3            9.859647e+00 -9.543745e-03 -9.490353e-19 9.582942e+00 -1.353306e-02 -9.946479e-19 2.767050e-01 3.989317e-03 4.561261e-20
3.35           9.884416e+00 -2.513472e-02 -9.396234e-19 9.604971e+00 -2.936827e-02 -9.849764e-19 2.794447e-01 4.233552e-03 4.535297e-20
3.4            9.913579e+00 -3.212875e-02 -9.355221e-19 9.631270e+00 -3.657793e-02 -9.807154e-19 2.823088e-01 4.449181e-03 4.519327e-20
3.45           9.937635e+00 -1.366869e-02 -9.408480e-19 9.652476e+00 -1.851690e-02 -9.859520e-19 2.851589e-01 4.848205e-03 4.510400e-20
3.5            9.952361e+00 -3.540117e-02 -9.393280e-19 9.664328e+00 -4.060305e-02 -9.843355e-19 2.880331e-01 5.201883e-03 4.500751e-20
3.55           9.976974e+00 -3.625740e-02 -9.370474e-19 9.685962e+00 -4.167010e-02 -9.817860e-19 2.910123e-01 5.412693e-03 4.473853e-20
3.6            9.989718e+00 -2.779750e-02 -9.273290e-19 9.695567e+00 -3.345202e-02 -9.716611e-19 2.941511e-01 5.654517e-03 4.433215e-20
3.65           1.000764e+01 -2.226135e-02 -9.499434e-19 9.710218e+00 -2.822198e-02 -9.945588e-19 2.974242e-01 5.960623e-03 4.461534e-20
3.7            1.001249e+01 -2.411289e-02 -9.433008e-19 9.711696e+00 -3.033385e-02 -9.876197e-19 3.007946e-01 6.220968e-03 4.431885e-20
3.75           1.002541e+01 -1.087831e-02 -9.468289e-19 9.721191e+00 -1.733220e-02 -9.910567e-19 3.042214e-01 6.453887e-03 4.422778e-20
3.8            1.003435e+01 -5.715687e-03 -9.493139e-19 9.726614e+00 -1.239715e-02 -9.934463e-19 3.077396e-01 6.681461e-03 4.413239e-20
3.85           1.004714e+01 -1.364638e-04 -9.556441e-19 9.735715e+00 -7.085112e-03 -9.997881e-19 3.114225e-01 6.948648e-03 4.414402e-20
3.9            1.004616e+01 1.387347e-02 -9.577434e-19 9.730858e+00 6.608269e-03 -1.001824e-18 3.153040e-01 7.265199e-03 4.408048e-20
3.95           1.006067e+01 3.394034e-03 -9.690539e-19 9.741420e+00 -4.216987e-03 -1.013337e-18 3.192454e-01 7.611020e-03 4.428327e-20
4              1.006944e+01 2.389158e-02 -9.950695e-19 9.746152e+00 1.583159e-02 -1.039813e-18 3.232828e-01 8.059996e-03 4.474324e-20
4.05           1.006799e+01 3.739521e-02 -9.924455e-19 9.740577e+00 2.881413e-02 -1.037102e-18 3.274126e-01 8.581080e-03 4.465675e-20
4.1            1.007194e+01 3.650189e-02 -9.997783e-19 9.740204e+00 2.744985e-02 -1.044630e-18 3.317407e-01 9.052034e-03 4.485143e-20
4.15           1.008036e+01 3.495802e-02 -1.006413e-18 9.744320e+00 2.556517e-02 -1.051369e-18 3.360393e-01 9.392855e-03 4.495536e-20
4.2            1.008143e+01 5.324884e-02 -1.020986e-18 9.741034e+00 4.351408e-02 -1.066153e-18 3.404011e-01 9.734763e-03 4.516700e-20
4.25           1.008334e+01 6.378606e-02 -1.023055e-18 9.738502e+00 5.363736e-02 -1.068214e-18 3.448369e-01 1.014870e-02 4.515837e-20
4.3            1.007935e+01 7.365726e-02 -1.023059e-18 9.730135e+00 6.295299e-02 -1.068200e-18 3.492122e-01 1.070426e-02 4.514044e-20
4.35           1.008120e+01 9.474939e-02 -1.015695e-18 9.727584e+00 8.345885e-02 -1.060630e-18 3.536123e-01 1.129054e-02 4.493525e-20
4.4            1.008923e+01 1.010815e-01 -1.035205e-18 9.731176e+00 8.917927e-02 -1.080488e-18 3.580537e-01 1.190219e-02 4.528296e-20
4.45           1.007854e+01 1.125445e-01 -1.025913e-18 9.716100e+00 1.000732e-01 -1.070944e-18 3.624371e-01 1.247127e-02 4.503112e-20
4.5            1.008989e+01 1.214910e-01 -1.027918e-18 9.723184e+00 1.084962e-01 -1.072968e-18 3.667016e-01 1.299482e-02 4.504939e-20
4.55           1.008315e+01 1.379115e-01 -1.027530e-18 9.712187e+00 1.243795e-01 -1.072497e-18 3.709670e-01 1.353196e-02 4.496643e-20
4.6            1.008699e+01 1.418283e-01 -1.042639e-18 9.711811e+00 1.277642e-01 -1.087874e-18 3.751773e-01 1.406410e-02 4.523473e-20
4.65           1.009398e+01 1.577791e-01 -1.043853e-18 9.714638e+00 1.431977e-01 -1.089080e-18 3.793406e-01 1.458147e-02 4.522746e-20
4.7            1.008572e+01 1.672667e-01 -1.034726e-18 9.702443e+00 1.520633e-01 -1.079746e-18 3.832753e-01 1.520338e-02 4.501997e-20
4.75           1.008908e+01 1.926693e-01 -1.040835e-18 9.701969e+00 1.767672e-01 -1.085908e-18 3.871109e-01 1.590205e-02 4.507319e-20
4.8            1.008448e+01 1.936789e-01 -1.036153e-18 9.693580e+00 1.771205e-01 -1.081147e-18 3.909019e-01 1.655840e-02 4.499326e-20
4.85           1.007382e+01 2.130907e-01 -1.033319e-18 9.679374e+00 1.959836e-01 -1.078196e-18 3.944435e-01 1.710711e-02 4.487641e-20
4.9            1.008079e+01 2.179366e-01 -1.042306e-18 9.682936e+00 2.002628e-01 -1.087362e-18 3.978542e-01 1.767387e-02 4.505611e-20
4.95           1.006978e+01 2.234483e-01 -1.031572e-18 9.668595e+00 2.053012e-01 -1.076398e-18 4.011838e-01 1.814715e-02 4.482669e-20
5              1.006217e+01 2.279201e-01 -1.027161e-18 9.657786e+00 2.093497e-01 -1.071880e-18 4.043839e-01 1.857045e-02 4.471863e-20
5.05           1.004941e+01 2.339562e-01 -1.019553e-18 9.641950e+00 2.150390e-01 -1.064107e-18 4.074639e-01 1.891721e-02 4.455418e-20
5.1            1.004398e+01 2.423789e-01 -1.014165e-18 9.633574e+00 2.231121e-01 -1.058598e-18 4.104082e-01 1.926678e-02 4.443246e-20
5.15           1.003093e+01 2.446037e-01 -1.010464e-18 9.617747e+00 2.249447e-01 -1.054773e-18 4.131849e-01 1.965903e-02 4.430862e-20
5.2            1.002196e+01 2.702210e-01 -9.950705e-19 9.606064e+00 2.501596e-01 -1.038996e-18 4.158931e-01 2.006140e-02 4.392502e-20
5.25           1.001085e+01 2.734816e-01 -9.816855e-19 9.592336e+00 2.530363e-01 -1.025290e-18 4.185130e-01 2.044525e-02 4.360404e-20
5.3            9.995280e+00 2.571508e-01 -9.851204e-19 9.574251e+00 2.364719e-01 -1.028721e-18 4.210294e-01 2.067897e-02 4.360032e-20
5.35           9.991951e+00 2.671254e-01 -1.001852e-18 9.568398e+00 2.462920e-01 -1.045668e-18 4.235531e-01 2.083337e-02 4.381609e-20
5.4            9.977736e+00 2.633327e-01 -1.004094e-18 9.551698e+00 2.423751e-01 -1.047856e-18 4.260373e-01 2.095761e-02 4.376220e-20
5.45           9.954914e+00 2.575505e-01 -9.857538e-19 9.526449e+00 2.365300e-01 -1.029047e-18 4.284651e-01 2.102053e-02 4.329289e-20
5.5            9.941766e+00 2.743772e-01 -9.706735e-19 9.510951e+00 2.532527e-01 -1.013627e-18 4.308147e-01 2.112445e-02 4.295358e-20
5.55           9.927533e+00 2.738712e-01 -9.746811e-19 9.494416e+00 2.525967e-01 -1.017722e-18 4.331170e-01 2.127450e-02 4.304121e-20
5.6            9.909457e+00 2.756313e-01 -9.709438e-19 9.474078e+00 2.542488e-01 -1.013877e-18 4.353795e-01 2.138252e-02 4.293302e-20
5.65           9.889312e+00 2.758045e-01 -9.597719e-19 9.451726e+00 2.543433e-01 -1.002451e-18 4.375860e-01 2.146124e-02 4.267912e-20
5.7            9.873811e+00 2.820725e-01 -9.680814e-19 9.434107e+00 2.605984e-01 -1.010903e-18 4.397033e-01 2.147413e-02 4.282189e-20
5.75           9.862317e+00 2.837140e-01 -9.698333e-19 9.420494e+00 2.622076e-01 -1.012672e-18 4.418234e-01 2.150637e-02 4.283834e-20
5.8            9.835052e+00 2.876176e-01 -9.538143e-19 9.391191e+00 2.661138e-01 -9.962815e-19 4.438613e-01 2.150381e-02 4.246720e-20
5.85           9.818429e+00 2.899800e-01 -9.481982e-19 9.372594e+00 2.684534e-01 -9.905234e-19 4.458352e-01 2.152662e-02 4.232522e-20
5.9            9.797074e+00 2.897041e-01 -9.348433e-19 9.349393e+00 2.681695e-01 -9.768714e-19 4.476806e-01 2.153463e-02 4.202807e-20
5.95           9.780085e+00 2.993831e-01 -9.498528e-19 9.330631e+00 2.777887e-01 -9.921198e-19 4.494546e-01 2.159441e-02 4.226704e-20
6              9.763408e+00 3.071141e-01 -9.549217e-19 9.312275e+00 2.854205e-01 -9.972337e-19 4.511326e-01 2.169359e-02 4.231198e-20
6.05           9.743588e+00 3.137533e-01 -9.526872e-19 9.290871e+00 2.919321e-01 -9.948904e-19 4.527178e-01 2.182119e-02 4.220327e-20
6.1            9.717787e+00 3.168569e-01 -9.291887e-19 9.263644e+00 2.949217e-01 -9.708401e-19 4.541429e-01 2.193518e-02 4.165130e-20
6.15           9.702548e+00 3.209917e-01 -9.541529e-19 9.247106e+00 2.989632e-01 -9.962191e-19 4.554424e-01 2.202843e-02 4.206621e-20
6.2            9.681520e+00 3.247762e-01 -9.484799e-19 9.224928e+00 3.026522e-01 -9.903251e-19 4.565920e-01 2.212400e-02 4.184522e-20
6.25           9.662397e+00 3.450413e-01 -9.404630e-19 9.204812e+00 3.227700e-01 -9.820081e-19 4.575857e-01 2.227125e-02 4.154508e-20
6.3            9.642294e+00 3.321325e-01 -9.303188e-19 9.183848e+00 3.097981e-01 -9.716025e-19 4.584462e-01 2.233448e-02 4.128366e-20
6.35           9.625327e+00 3.412802e-01 -9.398914e-19 9.166135e+00 3.188564e-01 -9.812655e-19 4.591919e-01 2.242381e-02 4.137413e-20
6.4            9.602966e+00 3.504378e-01 -9.422509e-19 9.143195e+00 3.278837e-01 -9.835755e-19 4.597708e-01 2.255405e-02 4.132465e-20
6.45           9.583974e+00 3.362774e-01 -9.397940e-19 9.123717e+00 3.135926e-01 -9.810482e-19 4.602568e-01 2.268481e-02 4.125426e-20
6.5            9.561248e+00 3.439892e-01 -9.355986e-19 9.100618e+00 3.212629e-01 -9.766965e-19 4.606299e-01 2.272636e-02 4.109793e-20
6.55           9.544100e+00 3.451323e-01 -9.249003e-19 9.083146e+00 3.223707e-01 -9.657294e-19 4.609542e-01 2.276157e-02 4.082910e-20
6.6            9.522735e+00 3.519019e-01 -9.242508e-19 9.061511e+00 3.290814e-01 -9.650080e-19 4.612240e-01 2.282052e-02 4.075725e-20
6.65           9.508095e+00 3.533793e-01 -9.255383e-19 9.046660e+00 3.304951e-01 -9.663099e-19 4.614343e-01 2.288420e-02 4.077159e-20
6.7            9.486093e+00 3.558635e-01 -9.221028e-19 9.024506e+00 3.328914e-01 -9.627980e-19 4.615870e-01 2.297209e-02 4.069524e-20
6.75           9.470440e+00 3.588889e-01 -9.267963e-19 9.008706e+00 3.358135e-01 -9.675980e-19 4.617339e-01 2.307537e-02 4.080168e-20
6.8            9.453646e+00 3.546529e-01 -9.187480e-19 8.991765e+00 3.314917e-01 -9.594270e-19 4.618807e-01 2.316112e-02 4.067900e-20
6.85           9.436814e+00 3.632008e-01 -9.153732e-19 8.974770e+00 3.399454e-01 -9.560006e-19 4.620443e-01 2.325544e-02 4.062743e-20
6.9            9.426612e+00 3.606956e-01 -9.302383e-19 8.964374e+00 3.372920e-01 -9.712111e-19 4.622378e-01 2.340358e-02 4.097276e-20
6.95           9.411255e+00 3.578628e-01 -9.141464e-19 8.948798e+00 3.343176e-01 -9.548432e-19 4.624571e-01 2.354522e-02 4.069681e-20
7              9.402198e+00 3.534902e-01 -9.534724e-19 8.939464e+00 3.298280e-01 -9.950177e-19 4.627336e-01 2.366224e-02 4.154525e-20
7.05           9.388685e+00 3.487855e-01 -9.480699e-19 8.925663e+00 3.250180e-01 -9.895567e-19 4.630222e-01 2.376747e-02 4.148679e-20
7.1            9.373911e+00 3.459180e-01 -9.417357e-19 8.910611e+00 3.220506e-01 -9.831291e-19 4.633004e-01 2.386737e-02 4.139343e-20
7.15           9.363058e+00 3.378855e-01 -9.412948e-19 8.899453e+00 3.139632e-01 -9.827409e-19 4.636049e-01 2.392232e-02 4.144609e-20
7.2            9.346784e+00 3.293874e-01 -9.318814e-19 8.882935e+00 3.054542e-01 -9.731812e-19 4.638490e-01 2.393320e-02 4.129981e-20
7.25           9.335028e+00 3.232093e-01 -9.274451e-19 8.870957e+00 2.992822e-01 -9.686861e-19 4.640713e-01 2.392709e-02 4.124105e-20
7.3            9.322297e+00 3.168033e-01 -9.218670e-19 8.858027e+00 2.928881e-01 -9.630184e-19 4.642703e-01 2.391520e-02 4.115140e-20
7.35           9.309663e+00 3.115934e-01 -9.128386e-19 8.845228e+00 2.876975e-01 -9.538188e-19 4.644351e-01 2.389581e-02 4.098021e-20
7.4            9.298775e+00 3.046683e-01 -9.127838e-19 8.834220e+00 2.808044e-01 -9.537785e-19 4.645555e-01 2.386393e-02 4.099461e-20
7.45           9.287246e+00 2.996111e-01 -9.094249e-19 8.822603e+00 2.757905e-01 -9.503597e-19 4.646427e-01 2.382066e-02 4.093482e-20
7.5            9.273845e+00 2.993851e-01 -8.846164e-19 8.809173e+00 2.755812e-01 -9.250385e-19 4.646723e-01 2.380395e-02 4.042213e-20
7.55           9.266650e+00 3.033267e-01 -9.124220e-19 8.801967e+00 2.795221e-01 -9.533915e-19 4.646829e-01 2.380458e-02 4.096945e-20
7.6            9.252792e+00 2.987079e-01 -8.908577e-19 8.788145e+00 2.749101e-01 -9.313947e-19 4.646467e-01 2.379780e-02 4.053694e-20
7.65           9.243525e+00 2.992601e-01 -8.925497e-19 8.778967e+00 2.754467e-01 -9.331176e-19 4.645583e-01 2.381339e-02 4.056787e-20
7.7            9.233338e+00 3.022393e-01 -8.921995e-19 8.768892e+00 2.783901e-01 -9.327549e-19 4.644459e-01 2.384922e-02 4.055544e-20
7.75           9.219324e+00 3.075719e-01 -8.812070e-19 8.755042e+00 2.836462e-01 -9.215299e-19 4.642821e-01 2.392565e-02 4.032290e-20
7.8            9.211583e+00 3.109338e-01 -8.977141e-19 8.747517e+00 2.869013e-01 -9.383719e-19 4.640660e-01 2.403243e-02 4.065779e-20
7.85           9.201881e+00 3.156979e-01 -9.105321e-19 8.738024e+00 2.915318e-01 -9.514473e-19 4.638570e-01 2.416609e-02 4.091522e-20
7.9            9.192281e+00 3.198458e-01 -9.089041e-19 8.728673e+00 2.955205e-01 -9.497913e-19 4.636090e-01 2.432530e-02 4.088722e-20
7.95           9.184003e+00 3.334683e-01 -9.306745e-19 8.720679e+00 3.089663e-01 -9.719840e-19 4.633245e-01 2.450199e-02 4.130948e-20
8              9.175581e+00 3.389261e-01 -9.267423e-19 8.712559e+00 3.141811e-01 -9.679694e-19 4.630219e-01 2.474504e-02 4.122709e-20
8.05           9.164688e+00 3.437366e-01 -9.268992e-19 8.701996e+00 3.187324e-01 -9.681204e-19 4.626920e-01 2.500416e-02 4.122113e-20
8.1            9.155797e+00 3.492330e-01 -9.298297e-19 8.693471e+00 3.239770e-01 -9.710973e-19 4.623263e-01 2.525606e-02 4.126765e-20
8.15           9.144200e+00 3.531530e-01 -9.339556e-19 8.682255e+00 3.276543e-01 -9.752925e-19 4.619456e-01 2.549870e-02 4.133690e-20
8.2            9.133214e+00 3.564390e-01 -9.383007e-19 8.671702e+00 3.306902e-01 -9.797056e-19 4.615119e-01 2.574888e-02 4.140489e-20
8.25           9.123948e+00 3.601551e-01 -9.390666e-19 8.662882e+00 3.341936e-01 -9.804589e-19 4.610659e-01 2.596157e-02 4.139235e-20
8.3            9.115335e+00 3.629825e-01 -9.414219e-19 8.654722e+00 3.368327e-01 -9.828301e-19 4.606133e-01 2.614978e-02 4.140823e-20
8.35           9.107151e+00 3.644892e-01 -9.422026e-19 8.646997e+00 3.381829e-01 -9.835896e-19 4.601535e-01 2.630633e-02 4.138701e-20
8.4            9.096929e+00 3.637740e-01 -9.428773e-19 8.637258e+00 3.373553e-01 -9.842391e-19 4.596715e-01 2.641875e-02 4.136175e-20
8.45           9.086661e+00 3.633235e-01 -9.448580e-19 8.627492e+00 3.368422e-01 -9.862045e-19 4.591690e-01 2.648129e-02 4.134655e-20
8.5            9.076791e+00 3.612139e-01 -9.458019e-19 8.618148e+00 3.347286e-01 -9.871065e-19 4.586430e-01 2.648534e-02 4.130461e-20
8.55           9.065675e+00 3.568669e-01 -9.327982e-19 8.607586e+00 3.304369e-01 -9.737810e-19 4.580892e-01 2.643002e-02 4.098278e-20
8.6            9.056507e+00 3.502690e-01 -9.317614e-19 8.599004e+00 3.239737e-01 -9.726675e-19 4.575029e-01 2.629523e-02 4.090604e-20
8.65           9.046741e+00 3.451679e-01 -9.306566e-19 8.589834e+00 3.190424e-01 -9.714801e-19 4.569071e-01 2.612545e-02 4.082353e-20
8.7            9.037391e+00 3.386972e-01 -9.277196e-19 8.581095e+00 3.127873e-01 -9.684262e-19 4.562955e-01 2.590993e-02 4.070659e-20
8.75           9.026822e+00 3.310376e-01 -9.229911e-19 8.571160e+00 3.053887e-01 -9.635459e-19 4.556618e-01 2.564895e-02 4.055483e-20
8.8            9.017364e+00 3.232133e-01 -9.199723e-19 8.562350e+00 2.978633e-01 -9.604132e-19 4.550137e-01 2.534995e-02 4.044090e-20
8.85           9.008162e+00 3.148964e-01 -9.165708e-19 8.553804e+00 2.898768e-01 -9.569001e-19 4.543576e-01 2.501956e-02 4.032932e-20
8.9            8.997577e+00 3.096934e-01 -8.859587e-19 8.543885e+00 2.850291e-01 -9.256274e-19 4.536918e-01 2.466426e-02 3.966865e-20
8.95           8.990663e+00 3.042870e-01 -9.170965e-19 8.537636e+00 2.799500e-01 -9.573614e-19 4.530277e-01 2.433700e-02 4.026495e-20
9              8.982300e+00 3.010451e-01 -9.195222e-19 8.529945e+00 2.770440e-01 -9.598057e-19 4.523547e-01 2.400119e-02 4.028350e-20
9.05           8.973155e+00 2.812319e-01 -8.949106e-19 8.521469e+00 2.576150e-01 -9.347119e-19 4.516863e-01 2.361697e-02 3.980132e-20
9.1            8.964742e+00 2.781876e-01 -8.975297e-19 8.513723e+00 2.549601e-01 -9.373653e-19 4.510185e-01 2.322752e-02 3.983559e-20
9.15           8.958793e+00 2.750538e-01 -8.991156e-19 8.508435e+00 2.521845e-01 -9.389735e-19 4.503580e-01 2.286931e-02 3.985796e-20
9.2            8.951471e+00 2.674143e-01 -8.912534e-19 8.501749e+00 2.448795e-01 -9.309638e-19 4.497223e-01 2.253477e-02 3.971050e-20
9.25           8.944943e+00 2.644704e-01 -8.919622e-19 8.495838e+00 2.422523e-01 -9.316958e-19 4.491048e-01 2.221803e-02 3.973358e-20
9.3            8.937812e+00 2.605002e-01 -8.884520e-19 8.489335e+00 2.385855e-01 -9.281162e-19 4.484764e-01 2.191464e-02 3.966412e-20
9.35           8.931210e+00 2.600397e-01 -8.741438e-19 8.483362e+00 2.384087e-01 -9.135048e-19 4.478482e-01 2.163098e-02 3.936102e-20
9.4            8.923025e+00 2.562778e-01 -8.663014e-19 8.475793e+00 2.348878e-01 -9.055023e-19 4.472321e-01 2.138994e-02 3.920091e-20
9.45           8.917538e+00 2.531147e-01 -8.523396e-19 8.470922e+00 2.319658e-01 -8.912590e-19 4.466167e-01 2.114898e-02 3.891940e-20
9.5            8.912175e+00 2.534677e-01 -8.485993e-19 8.466163e+00 2.325221e-01 -8.874429e-19 4.460118e-01 2.094561e-02 3.884363e-20
9.55           8.906642e+00 2.574313e-01 -8.355929e-19 8.461223e+00 2.366402e-01 -8.741611e-19 4.454198e-01 2.079109e-02 3.856821e-20
9.6            8.905224e+00 2.425794e-01 -8.729150e-19 8.460353e+00 2.219789e-01 -9.122742e-19 4.448702e-01 2.060048e-02 3.935920e-20
9.65           8.899952e+00 2.440058e-01 -8.614956e-19 8.455606e+00 2.235914e-01 -9.006220e-19 4.443455e-01 2.041443e-02 3.912637e-20
9.7            8.897238e+00 2.472500e-01 -8.619055e-19 8.453398e+00 2.269827e-01 -9.010388e-19 4.438408e-01 2.026734e-02 3.913330e-20
9.75           8.893901e+00 2.487079e-01 -8.621177e-19 8.450534e+00 2.285497e-01 -9.012589e-19 4.433676e-01 2.015818e-02 3.914116e-20
9.8            8.891072e+00 2.522534e-01 -8.595602e-19 8.448152e+00 2.321823e-01 -8.986510e-19 4.429200e-01 2.007107e-02 3.909077e-20
9.85           8.888733e+00 2.567214e-01 -8.578943e-19 8.446233e+00 2.367056e-01 -8.969544e-19 4.425003e-01 2.001575e-02 3.906011e-20
9.9            8.887274e+00 2.597495e-01 -8.606924e-19 8.445162e+00 2.397634e-01 -8.998196e-19 4.421117e-01 1.998610e-02 3.912724e-20
9.95           8.885333e+00 2.629698e-01 -8.641665e-19 8.443576e+00 2.429994e-01 -9.033770e-19 4.417574e-01 1.997035e-02 3.921051e-20
10             8.883302e+00 2.670539e-01 -8.686383e-19 8.441894e+00 2.470825e-01 -9.079538e-19 4.414078e-01 1.997145e-02 3.931545e-20
10.05          8.881938e+00 2.756031e-01 -8.555310e-19 8.440848e+00 2.555829e-01 -8.945904e-19 4.410892e-01 2.002025e-02 3.905942e-20
10.1           8.881290e+00 2.820527e-01 -8.575091e-19 8.440478e+00 2.619689e-01 -8.966223e-19 4.408122e-01 2.008377e-02 3.911312e-20
10.15          8.880869e+00 2.893869e-01 -8.535303e-19 8.440300e+00 2.692155e-01 -8.925748e-19 4.405694e-01 2.017139e-02 3.904446e-20
10.2           8.881075e+00 2.941091e-01 -8.724066e-19 8.440718e+00 2.738394e-01 -9.118513e-19 4.403568e-01 2.026963e-02 3.944468e-20
10.25          8.879788e+00 3.029000e-01 -8.665706e-19 8.439626e+00 2.825067e-01 -9.059092e-19 4.401623e-01 2.039327e-02 3.933857e-20
10.3           8.881004e+00 3.108100e-01 -8.866321e-19 8.441020e+00 2.902538e-01 -9.264087e-19 4.399837e-01 2.055625e-02 3.977662e-20
10.35          8.880358e+00 3.184461e-01 -8.814361e-19 8.440539e+00 2.977088e-01 -9.211343e-19 4.398195e-01 2.073732e-02 3.969827e-20
10.4           8.880624e+00 3.237826e-01 -8.745841e-19 8.440947e+00 3.028509e-01 -9.141733e-19 4.396772e-01 2.093171e-02 3.958916e-20
10.45          8.881389e+00 3.326425e-01 -9.170652e-19 8.441835e+00 3.115139e-01 -9.575248e-19 4.395536e-01 2.112853e-02 4.045956e-20
10.5           8.881454e+00 3.394278e-01 -9.170375e-19 8.442000e+00 3.180885e-01 -9.575187e-19 4.394541e-01 2.133926e-02 4.048121e-20
10.55          8.881868e+00 3.444417e-01 -9.127672e-19 8.442496e+00 3.228930e-01 -9.531863e-19 4.393722e-01 2.154864e-02 4.041915e-20
10.6           8.881551e+00 3.446991e-01 -9.063888e-19 8.442262e+00 3.229583e-01 -9.467054e-19 4.392896e-01 2.174083e-02 4.031661e-20
10.65          8.882404e+00 3.486261e-01 -9.085009e-19 8.443184e+00 3.267228e-01 -9.488731e-19 4.392207e-01 2.190332e-02 4.037219e-20
10.7           8.883196e+00 3.491959e-01 -9.104356e-19 8.444036e+00 3.271467e-01 -9.508601e-19 4.391601e-01 2.204918e-02 4.042447e-20
10.75          8.883671e+00 3.489220e-01 -9.127541e-19 8.444559e+00 3.267585e-01 -9.532315e-19 4.391117e-01 2.216355e-02 4.047737e-20
10.8           8.883687e+00 3.471151e-01 -9.096195e-19 8.444625e+00 3.248715e-01 -9.500337e-19 4.390622e-01 2.224362e-02 4.041417e-20
10.85          8.884752e+00 3.415493e-01 -9.059949e-19 8.445737e+00 3.192644e-01 -9.463375e-19 4.390147e-01 2.228490e-02 4.034265e-20
10.9           8.884445e+00 3.346027e-01 -9.025536e-19 8.445485e+00 3.123300e-01 -9.428203e-19 4.389604e-01 2.227270e-02 4.026665e-20
10.95          8.884788e+00 3.234310e-01 -9.007107e-19 8.445898e+00 3.012399e-01 -9.409353e-19 4.388897e-01 2.219101e-02 4.022461e-20
11             8.882068e+00 3.115704e-01 -8.979243e-19 8.443269e+00 2.895154e-01 -9.380770e-19 4.387987e-01 2.205501e-02 4.015276e-20
11.05          8.882553e+00 3.031453e-01 -8.961364e-19 8.443873e+00 2.812870e-01 -9.362239e-19 4.386804e-01 2.185827e-02 4.008755e-20