# Moment      
# CofR        : (0.000000e+00 0.000000e+00 0.000000e+00)
#
# Time        	total_x total_y total_z	pressure_x pressure_y pressure_z	viscous_x viscous_y viscous_z
0.05           8.427293e-02 4.611145e+00 -3.818855e-01 8.716776e-02 3.056431e+00 -3.883363e-01 -2.894835e-03 1.554713e+00 6.450827e-03
0.1            -5.644723e-04 5.297229e+00 5.733796e-02 -4.087092e-03 4.115968e+00 -2.362758e-02 3.522619e-03 1.181261e+00 8.096554e-02
0.15           -4.544434e-02 4.883347e+00 4.606621e-02 -4.666769e-02 3.931277e+00 -6.272551e-02 1.223344e-03 9.520699e-01 1.087917e-01
0.2            -6.790585e-02 4.580528e+00 -4.410966e-02 -6.635925e-02 3.785790e+00 -1.725803e-01 -1.546602e-03 7.947378e-01 1.284706e-01
0.25           -9.469617e-02 4.409452e+00 -5.396612e-02 -9.262034e-02 3.727736e+00 -1.879232e-01 -2.075828e-03 6.817158e-01 1.339570e-01
0.3            -9.215734e-02 4.300493e+00 -3.926032e-02 -8.966436e-02 3.703206e+00 -1.688430e-01 -2.492987e-03 5.972870e-01 1.295827e-01
0.35           -9.011777e-02 4.194946e+00 -6.594967e-02 -8.765207e-02 3.665867e+00 -1.864059e-01 -2.465702e-03 5.290794e-01 1.204562e-01
0.4            -5.087923e-02 4.097868e+00 -2.881421e-02 -4.863352e-02 3.625546e+00 -1.382911e-01 -2.245711e-03 4.723221e-01 1.094768e-01
0.45           -4.469559e-02 4.063684e+00 -2.182197e-02 -4.237106e-02 3.638572e+00 -1.211363e-01 -2.324521e-03 4.251118e-01 9.931430e-02
0.5            -3.887526e-02 4.054094e+00 -5.433261e-03 -3.613164e-02 3.667923e+00 -9.521991e-02 -2.743623e-03 3.861710e-01 8.978665e-02
0.55           -2.918672e-02 4.063254e+00 3.711305e-03 -2.607718e-02 3.708951e+00 -7.705532e-02 -3.109539e-03 3.543023e-01 8.076663e-02
0.6            -2.838347e-02 4.046870e+00 -4.121936e-03 -2.530281e-02 3.718590e+00 -7.674507e-02 -3.080658e-03 3.282798e-01 7.262313e-02
0.65           -6.382168e-03 4.044706e+00 3.113232e-03 -3.603805e-03 3.738259e+00 -6.240921e-02 -2.778363e-03 3.064475e-01 6.552244e-02
0.7            5.251444e-03 4.031398e+00 -3.682602e-03 7.241885e-03 3.743740e+00 -6.338826e-02 -1.990442e-03 2.876577e-01 5.970566e-02
0.75           2.602115e-02 4.023626e+00 9.014786e-03 2.708611e-02 3.752336e+00 -4.578367e-02 -1.064953e-03 2.712898e-01 5.479846e-02
0.8            4.189417e-02 4.001103e+00 1.865684e-02 4.194737e-02 3.744126e+00 -3.166161e-02 -5.320248e-05 2.569762e-01 5.031845e-02
0.85           5.202060e-02 3.994506e+00 2.619043e-02 5.106060e-02 3.750261e+00 -1.947880e-02 9.600084e-04 2.442448e-01 4.566922e-02
0.9            4.994045e-02 3.980197e+00 2.446423e-02 4.806145e-02 3.747189e+00 -1.632291e-02 1.879006e-03 2.330084e-01 4.078714e-02
0.95           4.709781e-02 3.981068e+00 3.045878e-02 4.445864e-02 3.758175e+00 -5.298641e-03 2.639161e-03 2.228929e-01 3.575742e-02
1              4.589319e-02 3.973745e+00 3.787769e-02 4.270109e-02 3.759842e+00 7.014876e-03 3.192101e-03 2.139026e-01 3.086281e-02
1.05           3.778396e-02 4.001330e+00 3.306246e-02 3.402184e-02 3.795458e+00 6.564903e-03 3.762120e-03 2.058725e-01 2.649756e-02
1.1            3.461544e-02 4.019213e+00 2.199186e-02 3.038626e-02 3.820437e+00 -7.818087e-04 4.229183e-03 1.987759e-01 2.277367e-02
1.15           3.867240e-02 4.030006e+00 1.994684e-02 3.417090e-02 3.837789e+00 -5.579142e-05 4.501500e-03 1.922173e-01 2.000263e-02
1.2            4.073480e-02 4.047101e+00 1.949407e-02 3.607175e-02 3.860965e+00 1.476235e-03 4.663058e-03 1.861361e-01 1.801784e-02
1.25           3.766997e-02 4.065066e+00 1.658693e-02 3.285721e-02 3.884503e+00 5.302166e-05 4.812765e-03 1.805626e-01 1.653391e-02
1.3            3.879684e-02 4.067469e+00 1.553174e-02 3.396241e-02 3.892218e+00 6.270064e-05 4.834430e-03 1.752503e-01 1.546904e-02
1.35           3.420805e-02 4.076637e+00 1.226471e-02 2.945817e-02 3.906461e+00 -2.449972e-03 4.749887e-03 1.701764e-01 1.471468e-02
1.4            4.073286e-02 4.096271e+00 2.222182e-02 3.614518e-02 3.930868e+00 7.933171e-03 4.587680e-03 1.654035e-01 1.428865e-02
1.45           3.037024e-02 4.103562e+00 1.034879e-02 2.591949e-02 3.942604e+00 -3.686737e-03 4.450753e-03 1.609578e-01 1.403553e-02
1.5            3.819322e-02 4.106384e+00 2.631642e-02 3.379255e-02 3.949713e+00 1.251061e-02 4.400671e-03 1.566708e-01 1.380581e-02
1.55           4.603164e-02 4.130307e+00 3.353990e-02 4.168432e-02 3.977489e+00 1.968083e-02 4.347325e-03 1.528174e-01 1.385907e-02
1.6            4.210999e-02 4.144010e+00 2.711948e-02 3.768949e-02 3.994715e+00 1.325570e-02 4.420500e-03 1.492951e-01 1.386378e-02
1.65           4.668378e-02 4.152022e+00 5.021538e-02 4.214812e-02 4.005920e+00 3.622544e-02 4.535651e-03 1.461025e-01 1.398994e-02
1.7            4.262288e-02 4.179407e+00 4.948740e-02 3.796837e-02 4.036174e+00 3.524738e-02 4.654508e-03 1.432327e-01 1.424003e-02
1.75           3.385910e-02 4.189631e+00 5.501549e-02 2.907942e-02 4.048956e+00 4.059290e-02 4.779679e-03 1.406751e-01 1.442259e-02
1.8            3.064592e-02 4.202705e+00 5.700428e-02 2.575573e-02 4.064307e+00 4.240014e-02 4.890190e-03 1.383980e-01 1.460414e-02
1.85           2.736162e-02 4.217725e+00 6.450602e-02 2.240975e-02 4.081391e+00 4.971263e-02 4.951868e-03 1.363338e-01 1.479339e-02
1.9            1.791264e-02 4.251802e+00 7.240822e-02 1.292508e-02 4.117249e+00 5.738896e-02 4.987563e-03 1.345527e-01 1.501926e-02
1.95           2.348105e-02 4.272676e+00 8.088576e-02 1.856948e-02 4.139655e+00 6.555906e-02 4.911572e-03 1.330217e-01 1.532670e-02
2              1.826681e-02 4.304840e+00 9.212881e-02 1.344128e-02 4.173173e+00 7.633904e-02 4.825528e-03 1.316678e-01 1.578976e-02
2.05           1.287744e-02 4.341861e+00 8.492866e-02 8.217677e-03 4.211371e+00 6.862077e-02 4.659767e-03 1.304901e-01 1.630789e-02
2.1            1.372690e-02 4.371971e+00 9.117724e-02 9.248761e-03 4.242485e+00 7.429722e-02 4.478134e-03 1.294855e-01 1.688001e-02
2.15           1.534521e-04 4.402133e+00 9.093805e-02 -4.021660e-03 4.273563e+00 7.362848e-02 4.175112e-03 1.285704e-01 1.730957e-02
2.2            -6.602575e-04 4.436613e+00 8.554043e-02 -4.476783e-03 4.308812e+00 6.764532e-02 3.816526e-03 1.278010e-01 1.789511e-02
2.25           -1.009633e-03 4.466205e+00 8.506435e-02 -4.500141e-03 4.339032e+00 6.648792e-02 3.490508e-03 1.271724e-01 1.857643e-02
2.3            -4.979041e-03 4.493343e+00 8.095730e-02 -8.064486e-03 4.366692e+00 6.175301e-02 3.085444e-03 1.266513e-01 1.920429e-02
2.35           -8.146717e-03 4.517784e+00 7.989188e-02 -1.082499e-02 4.391502e+00 5.996265e-02 2.678269e-03 1.262823e-01 1.992923e-02
2.4            -2.134646e-03 4.545100e+00 8.510916e-02 -4.433355e-03 4.419026e+00 6.437447e-02 2.298709e-03 1.260739e-01 2.073469e-02
2.45           -1.346352e-02 4.564731e+00 8.216821e-02 -1.537971e-02 4.438776e+00 6.061126e-02 1.916189e-03 1.259558e-01 2.155695e-02
2.5            -6.662668e-03 4.585994e+00 8.000552e-02 -8.228218e-03 4.460024e+00 5.763720e-02 1.565550e-03 1.259703e-01 2.236832e-02
2.55           -8.835587e-03 4.611020e+00 8.116535e-02 -1.010347e-02 4.484967e+00 5.793555e-02 1.267881e-03 1.260532e-01 2.322980e-02
2.6            -5.053413e-03 4.632625e+00 8.042841e-02 -6.001712e-03 4.506319e+00 5.630764e-02 9.482995e-04 1.263062e-01 2.412077e-02
2.65           -7.328886e-03 4.663635e+00 8.867502e-02 -8.030789e-03 4.536941e+00 6.383238e-02 7.019024e-04 1.266945e-01 2.484264e-02
2.7            -4.420909e-03 4.682906e+00 9.112926e-02 -4.848953e-03 4.555781e+00 6.575684e-02 4.280441e-04 1.271255e-01 2.537242e-02
2.75           -3.979161e-03 4.704145e+00 9.662210e-02 -4.185864e-03 4.576525e+00 7.069515e-02 2.067025e-04 1.276198e-01 2.592695e-02
2.8            -2.102466e-03 4.725155e+00 9.627235e-02 -2.109583e-03 4.596968e+00 6.980586e-02 7.117354e-06 1.281871e-01 2.646649e-02
2.85           -4.957255e-03 4.744253e+00 9.831522e-02 -4.736213e-03 4.615427e+00 7.146893e-02 -2.210422e-04 1.288260e-01 2.684629e-02
2.9            4.344064e-03 4.766385e+00 1.090301e-01 4.776677e-03 4.636829e+00 8.198699e-02 -4.326130e-04 1.295560e-01 2.704307e-02
2.95           6.260304e-03 4.787165e+00 1.174505e-01 6.912294e-03 4.656771e+00 9.034476e-02 -6.519896e-04 1.303939e-01 2.710574e-02
3              1.111541e-02 4.814537e+00 1.208040e-01 1.199961e-02 4.683220e+00 9.372424e-02 -8.841966e-04 1.313173e-01 2.707977e-02
3.05           7.312168e-03 4.833215e+00 1.240442e-01 8.370324e-03 4.700957e+00 9.691277e-02 -1.058156e-03 1.322585e-01 2.713144e-02
3.1            6.040704e-03 4.868122e+00 1.243091e-01 7.307274e-03 4.734798e+00 9.718652e-02 -1.266569e-03 1.333243e-01 2.712260e-02
3.15           1.117649e-02 4.882171e+00 1.338269e-01 1.264836e-02 4.747674e+00 1.067756e-01 -1.471862e-03 1.344969e-01 2.705132e-02
3.2            9.908031e-03 4.896693e+00 1.377080e-01 1.158953e-02 4.761005e+00 1.107713e-01 -1.681500e-03 1.356881e-01 2.693671e-02
3.25           9.241832e-03 4.925708e+00 1.401018e-01 1.109367e-02 4.788684e+00 1.132918e-01 -1.851837e-03 1.370235e-01 2.681008e-02
3.3            4.771872e-03 4.929823e+00 1.375273e-01 6.766531e-03 4.791471e+00 1.107464e-01 -1.994658e-03 1.383525e-01 2.678088e-02
3.35           1.256736e-02 4.942208e+00 1.382724e-01 1.468413e-02 4.802486e+00 1.115180e-01 -2.116776e-03 1.397224e-01 2.675437e-02
3.4            1.606438e-02 4.956789e+00 1.425723e-01 1.828897e-02 4.815635e+00 1.158934e-01 -2.224590e-03 1.411544e-01 2.667888e-02
3.45           6.834346e-03 4.968818e+00 1.392190e-01 9.258448e-03 4.826238e+00 1.127299e-01 -2.424102e-03 1.425795e-01 2.648908e-02
3.5            1.770058e-02 4.976180e+00 1.381655e-01 2.030152e-02 4.832164e+00 1.118883e-01 -2.600942e-03 1.440165e-01 2.627720e-02
3.55           1.812870e-02 4.988487e+00 1.378829e-01 2.083505e-02 4.842981e+00 1.117522e-01 -2.706347e-03 1.455061e-01 2.613069e-02
3.6            1.389875e-02 4.994859e+00 1.386856e-01 1.672601e-02 4.847784e+00 1.127327e-01 -2.827259e-03 1.470756e-01 2.595287e-02
3.65           1.113068e-02 5.003821e+00 1.416470e-01 1.411099e-02 4.855109e+00 1.159044e-01 -2.980311e-03 1.487121e-01 2.574260e-02
3.7            1.205644e-02 5.006245e+00 1.432141e-01 1.516693e-02 4.855848e+00 1.177254e-01 -3.110484e-03 1.503973e-01 2.548875e-02
3.75           5.439154e-03 5.012706e+00 1.453530e-01 8.666098e-03 4.860596e+00 1.200765e-01 -3.226943e-03 1.521107e-01 2.527648e-02
3.8            2.857843e-03 5.017177e+00 1.446192e-01 6.198574e-03 4.863307e+00 1.195615e-01 -3.340731e-03 1.538698e-01 2.505775e-02
3.85           6.823189e-05 5.023569e+00 1.435076e-01 3.542556e-03 4.867858e+00 1.186975e-01 -3.474324e-03 1.557112e-01 2.481015e-02
3.9            -6.936734e-03 5.023081e+00 1.411934e-01 -3.304135e-03 4.865429e+00 1.166388e-01 -3.632599e-03 1.576520e-01 2.455457e-02
3.95           -1.697017e-03 5.030333e+00 1.375876e-01 2.108493e-03 4.870710e+00 1.133503e-01 -3.805510e-03 1.596227e-01 2.423731e-02
4              -1.194579e-02 5.034718e+00 1.412640e-01 -7.915794e-03 4.873076e+00 1.174112e-01 -4.029998e-03 1.616414e-01 2.385278e-02
4.05           -1.869760e-02 5.033995e+00 1.344547e-01 -1.440706e-02 4.870289e+00 1.109766e-01 -4.290540e-03 1.637063e-01 2.347817e-02
4.1            -1.825094e-02 5.035972e+00 1.334954e-01 -1.372493e-02 4.870102e+00 1.104090e-01 -4.526017e-03 1.658704e-01 2.308635e-02
4.15           -1.747901e-02 5.040180e+00 1.291380e-01 -1.278258e-02 4.872160e+00 1.063765e-01 -4.696428e-03 1.680196e-01 2.276154e-02
4.2            -2.662442e-02 5.040717e+00 1.265056e-01 -2.175704e-02 4.870517e+00 1.040616e-01 -4.867382e-03 1.702005e-01 2.244407e-02
4.25           -3.189303e-02 5.041669e+00 1.218270e-01 -2.681868e-02 4.869251e+00 9.970823e-02 -5.074350e-03 1.724185e-01 2.211879e-02
4.3            -3.682863e-02 5.039674e+00 1.193051e-01 -3.147650e-02 4.865068e+00 9.756036e-02 -5.352132e-03 1.746061e-01 2.174471e-02
4.35           -4.737469e-02 5.040598e+00 1.131805e-01 -4.172942e-02 4.863792e+00 9.181619e-02 -5.645271e-03 1.768062e-01 2.136427e-02
4.4            -5.054073e-02 5.044615e+00 1.164503e-01 -4.458964e-02 4.865588e+00 9.547574e-02 -5.951097e-03 1.790269e-01 2.097461e-02
4.45           -5.627225e-02 5.039269e+00 1.123377e-01 -5.003662e-02 4.858050e+00 9.172442e-02 -6.235637e-03 1.812185e-01 2.061327e-02
4.5            -6.074551e-02 5.044943e+00 1.042565e-01 -5.424810e-02 4.861592e+00 8.393832e-02 -6.497412e-03 1.833508e-01 2.031820e-02
4.55           -6.895575e-02 5.041577e+00 1.019225e-01 -6.218977e-02 4.856093e+00 8.189077e-02 -6.765981e-03 1.854835e-01 2.003178e-02
4.6            -7.091413e-02 5.043494e+00 9.511590e-02 -6.388208e-02 4.855905e+00 7.534755e-02 -7.032048e-03 1.875886e-01 1.976834e-02
4.65           -7.888957e-02 5.046989e+00 9.464795e-02 -7.159884e-02 4.857319e+00 7.512041e-02 -7.290734e-03 1.896703e-01 1.952754e-02
4.7            -8.363334e-02 5.042859e+00 8.860078e-02 -7.603166e-02 4.851221e+00 6.930974e-02 -7.601688e-03 1.916376e-01 1.929104e-02
4.75           -9.633464e-02 5.044540e+00 8.328877e-02 -8.838362e-02 4.850984e+00 6.420711e-02 -7.951025e-03 1.935554e-01 1.908166e-02
4.8            -9.683945e-02 5.042241e+00 7.967106e-02 -8.856025e-02 4.846790e+00 6.073433e-02 -8.279198e-03 1.954509e-01 1.893672e-02
4.85           -1.065453e-01 5.036909e+00 6.796115e-02 -9.799179e-02 4.839687e+00 4.908939e-02 -8.553556e-03 1.972217e-01 1.887177e-02
4.9            -1.089683e-01 5.040395e+00 6.304312e-02 -1.001314e-01 4.841468e+00 4.419732e-02 -8.836934e-03 1.989271e-01 1.884581e-02
4.95           -1.117242e-01 5.034889e+00 5.751680e-02 -1.026506e-01 4.834298e+00 3.866911e-02 -9.073575e-03 2.005919e-01 1.884769e-02
5              -1.139601e-01 5.031085e+00 5.130309e-02 -1.046748e-01 4.828893e+00 3.241772e-02 -9.285226e-03 2.021919e-01 1.888537e-02
5.05           -1.169781e-01 5.024707e+00 4.596950e-02 -1.075195e-01 4.820975e+00 2.701654e-02 -9.458606e-03 2.037320e-01 1.895295e-02
5.1            -1.211894e-01 5.021991e+00 4.016836e-02 -1.115560e-01 4.816787e+00 2.113259e-02 -9.633389e-03 2.052041e-01 1.903577e-02
5.15           -1.223019e-01 5.015466e+00 3.363097e-02 -1.124723e-01 4.808873e+00 1.452490e-02 -9.829517e-03 2.065924e-01 1.910607e-02
5.2            -1.351105e-01 5.010979e+00 2.802345e-02 -1.250798e-01 4.803032e+00 8.844863e-03 -1.003070e-02 2.079466e-01 1.917859e-02
5.25           -1.367408e-01 5.005424e+00 1.957416e-02 -1.265182e-01 4.796168e+00 3.195949e-04 -1.022262e-02 2.092565e-01 1.925457e-02
5.3            -1.285754e-01 4.997640e+00 1.479670e-02 -1.182359e-01 4.787125e+00 -4.529419e-03 -1.033948e-02 2.105147e-01 1.932611e-02
5.35           -1.335627e-01 4.995975e+00 8.085371e-03 -1.231460e-01 4.784199e+00 -1.130990e-02 -1.041668e-02 2.117765e-01 1.939527e-02
5.4            -1.316664e-01 4.988868e+00 9.954953e-04 -1.211876e-01 4.775849e+00 -1.844726e-02 -1.047881e-02 2.130187e-01 1.944276e-02
5.45           -1.287753e-01 4.977457e+00 -5.024285e-03 -1.182650e-01 4.763225e+00 -2.448765e-02 -1.051026e-02 2.142325e-01 1.946337e-02
5.5            -1.371886e-01 4.970883e+00 -9.843006e-03 -1.266264e-01 4.755476e+00 -2.928454e-02 -1.056222e-02 2.154074e-01 1.944154e-02
5.55           -1.369356e-01 4.963766e+00 -1.401875e-02 -1.262983e-01 4.747208e+00 -3.341700e-02 -1.063725e-02 2.165585e-01 1.939825e-02
5.6            -1.378157e-01 4.954729e+00 -1.854059e-02 -1.271244e-01 4.737039e+00 -3.787827e-02 -1.069126e-02 2.176897e-01 1.933768e-02
5.65           -1.379022e-01 4.944656e+00 -2.180713e-02 -1.271716e-01 4.725863e+00 -4.107139e-02 -1.073062e-02 2.187930e-01 1.926426e-02
5.7            -1.410363e-01 4.936905e+00 -2.463118e-02 -1.302992e-01 4.717054e+00 -4.381605e-02 -1.073707e-02 2.198517e-01 1.918487e-02
5.75           -1.418570e-01 4.931159e+00 -2.803818e-02 -1.311038e-01 4.710247e+00 -4.714146e-02 -1.075319e-02 2.209117e-01 1.910327e-02
5.8            -1.438088e-01 4.917526e+00 -2.543139e-02 -1.330569e-01 4.695595e+00 -4.445563e-02 -1.075191e-02 2.219306e-01 1.902424e-02
5.85           -1.449900e-01 4.909215e+00 -2.627710e-02 -1.342267e-01 4.686297e+00 -4.524087e-02 -1.076331e-02 2.229176e-01 1.896378e-02
5.9            -1.448521e-01 4.898537e+00 -2.536679e-02 -1.340848e-01 4.674697e+00 -4.429175e-02 -1.076732e-02 2.238403e-01 1.892496e-02
5.95           -1.496916e-01 4.890043e+00 -2.416752e-02 -1.388944e-01 4.665315e+00 -4.305659e-02 -1.079720e-02 2.247273e-01 1.888907e-02
6              -1.535570e-01 4.881704e+00 -2.210846e-02 -1.427102e-01 4.656138e+00 -4.096276e-02 -1.084679e-02 2.255663e-01 1.885430e-02
6.05           -1.568766e-01 4.871794e+00 -1.974313e-02 -1.459660e-01 4.645435e+00 -3.857509e-02 -1.091059e-02 2.263589e-01 1.883197e-02
6.1            -1.584284e-01 4.858894e+00 -1.683237e-02 -1.474608e-01 4.631822e+00 -3.566750e-02 -1.096759e-02 2.270715e-01 1.883513e-02
6.15           -1.604958e-01 4.851274e+00 -1.464538e-02 -1.494816e-01 4.623553e+00 -3.350257e-02 -1.101421e-02 2.277212e-01 1.885718e-02
6.2            -1.623881e-01 4.840760e+00 -1.226458e-02 -1.513261e-01 4.612464e+00 -3.115998e-02 -1.106200e-02 2.282960e-01 1.889540e-02
6.25           -1.725206e-01 4.831199e+00 -8.669194e-03 -1.613850e-01 4.602406e+00 -2.761847e-02 -1.113563e-02 2.287928e-01 1.894928e-02
6.3            -1.660663e-01 4.821147e+00 -8.188122e-03 -1.548990e-01 4.591924e+00 -2.720761e-02 -1.116724e-02 2.292231e-01 1.901949e-02
6.35           -1.706401e-01 4.812664e+00 -5.260931e-03 -1.594282e-01 4.583068e+00 -2.435031e-02 -1.121191e-02 2.295959e-01 1.908938e-02
6.4            -1.752189e-01 4.801483e+00 -4.156839e-03 -1.639419e-01 4.571598e+00 -2.332259e-02 -1.127702e-02 2.298854e-01 1.916575e-02
6.45           -1.681387e-01 4.791987e+00 -5.245102e-04 -1.567963e-01 4.561858e+00 -1.976230e-02 -1.134240e-02 2.301284e-01 1.923779e-02
6.5            -1.719946e-01 4.780624e+00 5.538654e-04 -1.606314e-01 4.550309e+00 -1.874039e-02 -1.136318e-02 2.303150e-01 1.929425e-02
6.55           -1.725661e-01 4.772050e+00 1.706650e-03 -1.611853e-01 4.541573e+00 -1.766771e-02 -1.138078e-02 2.304771e-01 1.937436e-02
6.6            -1.759510e-01 4.761368e+00 4.153929e-03 -1.645407e-01 4.530756e+00 -1.530750e-02 -1.141026e-02 2.306120e-01 1.946143e-02
6.65           -1.766897e-01 4.754047e+00 6.983161e-03 -1.652476e-01 4.523330e+00 -1.254061e-02 -1.144210e-02 2.307172e-01 1.952377e-02
6.7            -1.779318e-01 4.743047e+00 9.178046e-03 -1.664457e-01 4.512253e+00 -1.039139e-02 -1.148605e-02 2.307935e-01 1.956943e-02
6.75           -1.794445e-01 4.735220e+00 1.169191e-02 -1.679068e-01 4.504353e+00 -7.902080e-03 -1.153768e-02 2.308669e-01 1.959399e-02
6.8            -1.773264e-01 4.726823e+00 1.381692e-02 -1.657459e-01 4.495882e+00 -5.777187e-03 -1.158056e-02 2.309404e-01 1.959411e-02
6.85           -1.816004e-01 4.718407e+00 1.561940e-02 -1.699727e-01 4.487385e+00 -3.944576e-03 -1.162772e-02 2.310222e-01 1.956397e-02
6.9            -1.803478e-01 4.713306e+00 1.709016e-02 -1.686460e-01 4.482187e+00 -2.407259e-03 -1.170179e-02 2.311189e-01 1.949742e-02
6.95           -1.789314e-01 4.705628e+00 1.827493e-02 -1.671588e-01 4.474399e+00 -1.114264e-03 -1.177261e-02 2.312285e-01 1.938920e-02
7              -1.767451e-01 4.701099e+00 1.849332e-02 -1.649140e-01 4.469732e+00 -7.356726e-04 -1.183112e-02 2.313668e-01 1.922899e-02
7.05           -1.743927e-01 4.694342e+00 1.801301e-02 -1.625090e-01 4.462831e+00 -9.955847e-04 -1.188374e-02 2.315111e-01 1.900860e-02
7.1            -1.729590e-01 4.686956e+00 1.682092e-02 -1.610253e-01 4.455305e+00 -1.903205e-03 -1.193369e-02 2.316502e-01 1.872412e-02
7.15           -1.689427e-01 4.681529e+00 1.561505e-02 -1.569816e-01 4.449727e+00 -2.772787e-03 -1.196116e-02 2.318024e-01 1.838784e-02
7.2            -1.646937e-01 4.673392e+00 1.411729e-02 -1.527271e-01 4.441467e+00 -3.864913e-03 -1.196660e-02 2.319245e-01 1.798220e-02
7.25           -1.616046e-01 4.667514e+00 1.118653e-02 -1.496411e-01 4.435479e+00 -6.326322e-03 -1.196354e-02 2.320356e-01 1.751285e-02
7.3            -1.584017e-01 4.661149e+00 8.117075e-03 -1.464441e-01 4.429013e+00 -8.864961e-03 -1.195760e-02 2.321352e-01 1.698204e-02
7.35           -1.557967e-01 4.654832e+00 5.229374e-03 -1.438488e-01 4.422614e+00 -1.116822e-02 -1.194791e-02 2.322175e-01 1.639759e-02
7.4            -1.523342e-01 4.649388e+00 2.135106e-03 -1.404022e-01 4.417110e+00 -1.363598e-02 -1.193197e-02 2.322778e-01 1.577109e-02
7.45           -1.498056e-01 4.643623e+00 -6.535556e-04 -1.378952e-01 4.411302e+00 -1.577174e-02 -1.191033e-02 2.323213e-01 1.511818e-02
7.5            -1.496926e-01 4.636923e+00 -3.411672e-03 -1.377906e-01 4.404586e+00 -1.786453e-02 -1.190197e-02 2.323362e-01 1.445285e-02
7.55           -1.516633e-01 4.633325e+00 -5.017556e-03 -1.397611e-01 4.400983e+00 -1.880909e-02 -1.190229e-02 2.323415e-01 1.379153e-02
7.6            -1.493540e-01 4.626396e+00 -6.526928e-03 -1.374551e-01 4.394072e+00 -1.968302e-02 -1.189890e-02 2.323233e-01 1.315609e-02
7.65           -1.496300e-01 4.621763e+00 -7.010764e-03 -1.377233e-01 4.389483e+00 -1.957690e-02 -1.190670e-02 2.322792e-01 1.256614e-02
7.7            -1.511196e-01 4.616669e+00 -7.041331e-03 -1.391950e-01 4.384446e+00 -1.908004e-02 -1.192461e-02 2.322230e-01 1.203871e-02
7.75           -1.537859e-01 4.609662e+00 -6.660583e-03 -1.418231e-01 4.377521e+00 -1.825205e-02 -1.196283e-02 2.321410e-01 1.159146e-02
7.8            -1.554669e-01 4.605792e+00 -5.494637e-03 -1.434507e-01 4.373759e+00 -1.673092e-02 -1.201622e-02 2.320330e-01 1.123629e-02
7.85           -1.578489e-01 4.600941e+00 -3.778628e-03 -1.457659e-01 4.369012e+00 -1.476095e-02 -1.208304e-02 2.319285e-01 1.098232e-02
7.9            -1.599229e-01 4.596141e+00 -1.516274e-03 -1.477602e-01 4.364336e+00 -1.235149e-02 -1.216265e-02 2.318045e-01 1.083522e-02
7.95           -1.667341e-01 4.592002e+00 1.368550e-03 -1.544831e-01 4.360339e+00 -9.426354e-03 -1.225099e-02 2.316622e-01 1.079490e-02
8              -1.694631e-01 4.587790e+00 3.863554e-03 -1.570905e-01 4.356279e+00 -6.995507e-03 -1.237252e-02 2.315110e-01 1.085906e-02
8.05           -1.718683e-01 4.582344e+00 6.421608e-03 -1.593662e-01 4.350998e+00 -4.596967e-03 -1.250208e-02 2.313460e-01 1.101857e-02
8.1            -1.746165e-01 4.577899e+00 8.949512e-03 -1.619885e-01 4.346736e+00 -2.312778e-03 -1.262803e-02 2.311631e-01 1.126229e-02
8.15           -1.765765e-01 4.572100e+00 1.114807e-02 -1.638272e-01 4.341127e+00 -4.290304e-04 -1.274935e-02 2.309728e-01 1.157710e-02
8.2            -1.782195e-01 4.566607e+00 1.205630e-02 -1.653451e-01 4.335851e+00 1.066996e-04 -1.287444e-02 2.307559e-01 1.194960e-02
8.25           -1.800776e-01 4.561974e+00 1.342326e-02 -1.670968e-01 4.331441e+00 1.064221e-03 -1.298079e-02 2.305329e-01 1.235904e-02
8.3            -1.814912e-01 4.557668e+00 1.406856e-02 -1.684163e-01 4.327361e+00 1.281990e-03 -1.307489e-02 2.303066e-01 1.278657e-02
8.35           -1.822446e-01 4.553575e+00 1.402713e-02 -1.690915e-01 4.323499e+00 8.107903e-04 -1.315316e-02 2.300768e-01 1.321634e-02
8.4            -1.818870e-01 4.548465e+00 1.376944e-02 -1.686776e-01 4.318629e+00 1.360069e-04 -1.320937e-02 2.298358e-01 1.363344e-02
8.45           -1.816617e-01 4.543330e+00 1.258629e-02 -1.684211e-01 4.313746e+00 -1.446553e-03 -1.324064e-02 2.295845e-01 1.403284e-02
8.5            -1.806070e-01 4.538396e+00 1.110255e-02 -1.673643e-01 4.309074e+00 -3.297496e-03 -1.324267e-02 2.293215e-01 1.440005e-02
8.55           -1.784335e-01 4.532838e+00 9.309116e-03 -1.652185e-01 4.303793e+00 -5.412813e-03 -1.321501e-02 2.290446e-01 1.472193e-02
8.6            -1.751345e-01 4.528253e+00 6.968911e-03 -1.619869e-01 4.299502e+00 -8.023776e-03 -1.314761e-02 2.287514e-01 1.499269e-02
8.65           -1.725839e-01 4.523370e+00 4.554639e-03 -1.595212e-01 4.294917e+00 -1.065335e-02 -1.306273e-02 2.284535e-01 1.520799e-02
8.7            -1.693486e-01 4.518695e+00 2.099837e-03 -1.563936e-01 4.290548e+00 -1.326804e-02 -1.295496e-02 2.281478e-01 1.536787e-02
8.75           -1.655188e-01 4.513411e+00 -3.032164e-04 -1.526943e-01 4.285580e+00 -1.577762e-02 -1.282448e-02 2.278309e-01 1.547440e-02
8.8            -1.616066e-01 4.508682e+00 -2.792451e-03 -1.489317e-01 4.281175e+00 -1.832423e-02 -1.267498e-02 2.275069e-01 1.553178e-02
8.85           -1.574482e-01 4.504081e+00 -5.259645e-03 -1.449384e-01 4.276902e+00 -2.080405e-02 -1.250978e-02 2.271788e-01 1.554441e-02
8.9            -1.548467e-01 4.498789e+00 -7.383024e-03 -1.425145e-01 4.271943e+00 -2.290008e-02 -1.233213e-02 2.268459e-01 1.551706e-02
8.95           -1.521435e-01 4.495332e+00 -9.311871e-03 -1.399750e-01 4.268818e+00 -2.476771e-02 -1.216850e-02 2.265139e-01 1.545584e-02
9              -1.505226e-01 4.491150e+00 -1.067468e-02 -1.385220e-01 4.264972e+00 -2.604172e-02 -1.200059e-02 2.261773e-01 1.536704e-02
9.05           -1.406160e-01 4.486578e+00 -1.229922e-02 -1.288075e-01 4.260735e+00 -2.755645e-02 -1.180849e-02 2.258432e-01 1.525723e-02
9.1            -1.390938e-01 4.482371e+00 -1.337079e-02 -1.274801e-01 4.256862e+00 -2.849935e-02 -1.161376e-02 2.255093e-01 1.512855e-02
9.15           -1.375269e-01 4.479396e+00 -1.441688e-02 -1.260923e-01 4.254217e+00 -2.940298e-02 -1.143465e-02 2.251790e-01 1.498610e-02
9.2            -1.337071e-01 4.475735e+00 -1.515906e-02 -1.224398e-01 4.250874e+00 -2.999330e-02 -1.126738e-02 2.248611e-01 1.483424e-02
9.25           -1.322352e-01 4.472472e+00 -1.561023e-02 -1.211262e-01 4.247919e+00 -3.028607e-02 -1.110901e-02 2.245524e-01 1.467584e-02
9.3            -1.302501e-01 4.468906e+00 -1.581862e-02 -1.192928e-01 4.244668e+00 -3.033406e-02 -1.095732e-02 2.242382e-01 1.451544e-02
9.35           -1.300198e-01 4.465605e+00 -1.584434e-02 -1.192043e-01 4.241681e+00 -3.020027e-02 -1.081549e-02 2.239241e-01 1.435593e-02
9.4            -1.281389e-01 4.461512e+00 -1.549623e-02 -1.174439e-01 4.237896e+00 -2.969507e-02 -1.069497e-02 2.236160e-01 1.419884e-02
9.45           -1.265574e-01 4.458769e+00 -1.544637e-02 -1.159829e-01 4.235461e+00 -2.949211e-02 -1.057449e-02 2.233083e-01 1.404574e-02
9.5            -1.267338e-01 4.456087e+00 -1.489843e-02 -1.162610e-01 4.233081e+00 -2.879623e-02 -1.047280e-02 2.230059e-01 1.389780e-02
9.55           -1.287157e-01 4.453321e+00 -1.422780e-02 -1.183201e-01 4.230611e+00 -2.798525e-02 -1.039554e-02 2.227099e-01 1.375746e-02
9.6            -1.212897e-01 4.452612e+00 -1.382733e-02 -1.109895e-01 4.230177e+00 -2.745512e-02 -1.030024e-02 2.224351e-01 1.362779e-02
9.65           -1.220029e-01 4.449976e+00 -1.278248e-02 -1.117957e-01 4.227803e+00 -2.629091e-02 -1.020722e-02 2.221728e-01 1.350843e-02
9.7            -1.236250e-01 4.448619e+00 -1.155308e-02 -1.134913e-01 4.226699e+00 -2.495634e-02 -1.013367e-02 2.219204e-01 1.340327e-02
9.75           -1.243539e-01 4.446951e+00 -9.941107e-03 -1.142748e-01 4.225267e+00 -2.325879e-02 -1.007909e-02 2.216838e-01 1.331769e-02
9.8            -1.261267e-01 4.445536e+00 -8.003508e-03 -1.160912e-01 4.224076e+00 -2.125920e-02 -1.003554e-02 2.214600e-01 1.325569e-02
9.85           -1.283607e-01 4.444366e+00 -5.662590e-03 -1.183528e-01 4.223116e+00 -1.888486e-02 -1.000788e-02 2.212501e-01 1.322227e-02
9.9            -1.298748e-01 4.443637e+00 -2.975031e-03 -1.198817e-01 4.222581e+00 -1.619721e-02 -9.993048e-03 2.210559e-01 1.322218e-02
9.95           -1.314849e-01 4.442667e+00 3.061713e-04 -1.214997e-01 4.221788e+00 -1.295294e-02 -9.985174e-03 2.208787e-01 1.325911e-02
10             -1.335270e-01 4.441651e+00 4.314846e-03 -1.235412e-01 4.220947e+00 -9.019636e-03 -9.985724e-03 2.207039e-01 1.333448e-02
10.05          -1.378016e-01 4.440969e+00 8.618239e-03 -1.277914e-01 4.220424e+00 -4.834345e-03 -1.001013e-02 2.205446e-01 1.345258e-02
10.1           -1.410264e-01 4.440645e+00 1.326916e-02 -1.309845e-01 4.220239e+00 -3.567324e-04 -1.004189e-02 2.204061e-01 1.362589e-02
10.15          -1.446934e-01 4.440435e+00 1.842053e-02 -1.346077e-01 4.220150e+00 4.571295e-03 -1.008570e-02 2.202847e-01 1.384923e-02
10.2           -1.470545e-01 4.440537e+00 2.399798e-02 -1.369197e-01 4.220359e+00 9.879223e-03 -1.013482e-02 2.201784e-01 1.411876e-02
10.25          -1.514500e-01 4.439894e+00 3.029008e-02 -1.412534e-01 4.219813e+00 1.585927e-02 -1.019664e-02 2.200812e-01 1.443081e-02
10.3           -1.554050e-01 4.440502e+00 3.616722e-02 -1.451269e-01 4.220510e+00 2.138396e-02 -1.027813e-02 2.199919e-01 1.478326e-02
10.35          -1.592231e-01 4.440179e+00 4.296880e-02 -1.488544e-01 4.220269e+00 2.779794e-02 -1.036866e-02 2.199097e-01 1.517086e-02
10.4           -1.618913e-01 4.440312e+00 4.923066e-02 -1.514254e-01 4.220473e+00 3.364144e-02 -1.046586e-02 2.198386e-01 1.558922e-02
10.45          -1.663212e-01 4.440694e+00 5.543110e-02 -1.557570e-01 4.220918e+00 3.940436e-02 -1.056426e-02 2.197768e-01 1.602674e-02
10.5           -1.697139e-01 4.440727e+00 6.201367e-02 -1.590443e-01 4.221000e+00 4.552919e-02 -1.066963e-02 2.197270e-01 1.648449e-02
10.55          -1.722208e-01 4.440934e+00 6.781237e-02 -1.614465e-01 4.221248e+00 5.086645e-02 -1.077432e-02 2.196861e-01 1.694592e-02
10.6           -1.723495e-01 4.440776e+00 7.347291e-02 -1.614791e-01 4.221131e+00 5.606982e-02 -1.087042e-02 2.196448e-01 1.740309e-02
10.65          -1.743130e-01 4.441202e+00 7.851721e-02 -1.633614e-01 4.221592e+00 6.067825e-02 -1.095166e-02 2.196103e-01 1.783895e-02
10.7           -1.745979e-01 4.441598e+00 8.284651e-02 -1.635734e-01 4.222018e+00 6.459887e-02 -1.102459e-02 2.195801e-01 1.824764e-02
10.75          -1.744610e-01 4.441835e+00 8.650266e-02 -1.633792e-01 4.222280e+00 6.788195e-02 -1.108177e-02 2.195558e-01 1.862071e-02
10.8           -1.735576e-01 4.441844e+00 8.943198e-02 -1.624358e-01 4.222313e+00 7.048211e-02 -1.112181e-02 2.195311e-01 1.894987e-02
10.85          -1.707746e-01 4.442376e+00 9.161991e-02 -1.596322e-01 4.222869e+00 7.239244e-02 -1.114245e-02 2.195073e-01 1.922748e-02
10.9           -1.673014e-01 4.442223e+00 9.268348e-02 -1.561650e-01 4.222742e+00 7.323683e-02 -1.113635e-02 2.194802e-01 1.944666e-02
10.95          -1.617155e-01 4.442394e+00 9.257161e-02 -1.506200e-01 4.222949e+00 7.297262e-02 -1.109551e-02 2.194449e-01 1.959899e-02
11             -1.557852e-01 4.441034e+00 9.216684e-02 -1.447577e-01 4.221635e+00 7.248789e-02 -1.102750e-02 2.193994e-01 1.967895e-02