/*--------------------------------*- C++ -*----------------------------------*\
| =========                 |                                                 |
| \\      /  F ield         | OpenFOAM: The Open Source CFD Toolbox           |
|  \\    /   O peration     | Version:  2306                                  |
|   \\  /    A nd           | Website:  www.openfoam.com                      |
|    \\/     M anipulation  |                                                 |
\*---------------------------------------------------------------------------*/
FoamFile
{
    version     2.0;
    format      ascii;
    arch        "LSB;label=32;scalar=64";
    class       volScalarField;
    location    "40";
    object      p;
}
// * * * * * * * * * * * * * * * * * * * * * * * * * * * * * * * * * * * * * //

dimensions      [0 2 -2 0 0 0 0];

internalField   nonuniform List<scalar> 
2186
(
1.28301
0.305508
0.5822
1.59842
-1.09639
-0.220853
1.2371
-0.284186
-0.0603682
1.81476
1.34814
-0.241313
-0.301402
1.45429
0.103202
1.44218
1.47701
-1.24543
-0.174357
-0.911153
1.81426
-0.86907
1.4609
-0.313573
1.45234
1.57423
1.67248
1.44488
0.832598
1.45393
-0.88061
1.4527
-0.847436
0.0816092
-0.254827
0.269951
-0.0226803
1.78861
-0.723494
-0.269001
-0.305167
-0.835723
-0.00375357
-1.01303
1.23345
1.79384
0.939394
1.08822
-0.391074
-0.991548
-0.892068
1.1726
0.00805784
1.69763
-0.876407
1.48932
-0.0528389
1.51551
-0.817606
1.31084
0.0614674
0.914898
0.798093
-0.186339
0.837184
1.03445
0.922585
1.71761
1.61359
-0.00383072
-0.277115
-0.0866385
1.71146
1.52671
1.57448
1.68177
-0.30163
1.47037
-0.257252
-0.781506
-1.38279
-0.0946694
1.44849
0.889007
1.44557
1.45028
1.69437
-0.291082
0.76081
-0.262231
1.48654
-0.897004
1.40583
1.64549
1.46116
0.636585
0.46963
0.866616
-1.0306
1.52678
-1.71406
-1.63744
0.938016
1.41718
1.47921
-0.884065
1.54591
0.182215
1.46004
-0.76201
-0.741102
-0.977262
1.1146
1.67314
-0.10872
-0.498187
0.239442
-0.318502
-0.26255
1.72264
0.108834
-1.079
1.12873
-1.40322
1.44845
0.154662
-1.01789
1.6674
-1.28301
1.22024
1.88669
1.76055
0.835285
1.21239
-1.48447
-1.00114
1.46232
0.0389107
-0.360596
-0.247234
1.06322
0.431151
-0.277864
1.25904
1.4016
1.43381
0.178705
-1.09089
1.16882
-0.976623
-0.95026
1.14597
1.47367
1.70461
1.57117
1.09802
1.67465
0.699512
0.581029
1.00275
-0.246522
-0.285332
1.39928
1.51276
-0.329906
-0.0628022
-0.196599
-0.269878
0.872487
0.821507
0.570276
1.52926
1.47737
1.63776
0.638001
-0.142009
-1.12648
1.4005
-0.57935
1.15872
-0.25777
1.46527
-0.900235
0.785749
0.752806
-1.1025
-0.766164
1.45406
-0.368544
-0.344909
-0.917909
1.68228
-1.18668
1.49301
-0.245447
-0.93066
0.226687
1.59794
1.38115
-0.88348
-0.254147
-0.826411
0.692266
1.48833
-0.250227
-1.02215
-0.272294
-0.0110521
1.3552
-0.496785
1.08786
0.606864
1.66744
1.09786
1.20626
1.48445
1.51742
1.45387
1.44019
1.44458
0.965385
-0.548253
-0.877838
0.258817
0.791001
-1.24329
-1.03236
1.34677
1.62014
-0.33473
-0.193194
-1.38463
0.957517
1.2098
1.29183
1.44304
1.65258
-1.52356
1.42013
-0.254095
-1.02124
-0.545411
1.3025
0.985626
1.48014
1.63386
1.4364
1.4054
-0.262834
1.37713
1.50854
-0.28054
1.28529
1.03953
-1.74823
-0.245107
-0.245987
1.47873
1.46895
-0.323962
0.179841
0.716517
1.49848
-1.48623
1.03764
1.411
1.35704
-0.218064
-0.892015
1.44187
0.92783
0.242712
-0.336651
1.72936
-1.01006
-0.269493
1.33748
1.7108
1.44851
-1.0633
-0.323275
0.0424908
1.26528
-0.293407
1.11888
1.4356
1.53567
0.44343
0.316701
1.37835
-0.224604
1.45289
1.72252
1.46577
1.46333
0.5028
-0.963919
-0.322978
-0.0490837
-0.684125
-1.02657
0.96771
0.11803
0.84553
1.70023
1.53916
1.25845
0.115345
1.55004
-0.219591
0.555511
-0.284045
-0.244988
-0.38261
0.938207
-0.942978
-0.926215
0.326137
1.29114
-0.350023
0.581768
-0.949224
0.700665
-0.418133
-0.973853
1.65568
0.115426
-0.148784
-0.887473
1.34496
0.84139
-0.262333
1.08902
-0.823416
-0.35514
0.906155
1.48134
1.39273
-0.856792
1.59025
1.43758
0.585276
1.7684
1.43512
1.41281
0.955453
0.416583
-0.247796
1.17891
-0.997892
-0.274693
-0.241163
-0.645151
-0.270373
1.72302
0.602489
-0.894397
-0.272362
1.43554
-1.17396
-0.984888
-0.953697
1.31833
0.662017
-0.39032
1.66091
1.72425
1.6603
-0.279366
-0.289011
1.73195
1.4428
-0.9776
0.681741
-0.255769
0.776376
1.57171
1.31953
1.37421
1.79551
0.199321
0.306564
-0.0938643
0.031491
0.0103536
-0.845609
-0.0440263
1.65176
-1.30689
0.0462697
1.42309
1.15498
-0.244817
-1.68912
-0.248587
-1.11961
-0.313538
-0.246672
-0.877047
-1.02908
1.66599
0.717062
-0.492675
1.46685
-0.244753
1.78463
-0.674679
-1.35299
-0.964131
1.45076
-0.259174
1.46774
1.39845
0.313513
1.54174
-1.07983
-0.249629
-0.263996
1.55228
1.41562
-0.239884
-0.257356
-0.304725
1.31238
-0.308581
0.178386
0.731656
1.32348
1.37262
1.2327
-0.244671
-0.353989
1.19023
0.10197
1.31499
-0.224296
1.47185
0.0977183
1.6554
-0.26045
1.40399
1.01816
1.4744
-0.229896
1.42606
-0.0445705
-0.248554
1.45371
-1.15474
0.330488
-0.634774
0.0270006
1.44545
0.745634
0.883545
1.43383
0.42427
0.56549
0.206425
-0.893595
0.858169
-0.327774
0.995969
-0.691307
1.38874
1.66911
-0.263246
-0.24538
0.515003
-0.872488
0.661079
-0.447877
1.11121
0.634962
-0.315937
1.48456
0.714156
0.572921
0.893263
0.627006
1.06816
0.540224
0.111682
-0.4814
0.768555
-0.837244
1.46219
-0.490471
1.59282
1.74832
1.73109
0.917551
1.49483
-1.0469
-0.799891
1.38057
0.819429
1.42487
-0.844527
-0.334047
-0.635362
1.31335
-0.245421
-0.00614127
-0.908264
-0.957156
-0.0907984
0.197113
1.02305
1.03314
-0.389788
0.181653
1.30955
0.688778
1.46075
-0.0802753
-0.067605
-0.244359
1.02635
0.0613151
1.70511
1.74661
-0.94169
-1.03718
-0.16055
0.506299
-1.69485
1.57931
0.171484
1.53775
1.09633
-0.318859
1.22424
1.18723
-1.52424
1.36668
-0.145007
-0.905075
-0.53223
-0.22677
-0.206464
-1.40024
-0.448222
1.45546
0.400134
-0.98896
1.16265
1.59924
1.7377
0.310033
1.27822
0.869069
1.33561
0.171211
-0.748355
-0.916992
0.730559
1.12252
1.41337
0.219314
-0.247126
0.0146193
-0.267203
0.514219
1.28889
0.156062
0.263017
-0.468127
1.26167
-0.759177
1.37065
0.0685936
-0.0482985
1.42063
1.20197
-1.42303
-0.0540872
1.38625
1.80863
1.47377
-0.875167
-1.28422
1.34292
0.161962
1.32864
-0.501866
0.666598
1.38246
-0.365238
-0.892923
1.3691
-0.173179
1.59756
0.159547
1.42938
0.0250733
1.18312
-0.227071
1.70966
-0.897213
-1.44949
1.26243
0.757746
0.76112
-0.33724
-0.896628
0.142952
1.12949
0.844648
-0.423273
-0.729485
1.46366
0.623929
-1.1208
1.05716
1.20565
1.41084
0.178686
-0.771502
-0.899769
1.46509
1.51882
1.07259
1.46195
-0.114788
1.56558
-0.192195
0.148476
-0.0862932
1.40247
1.43561
-0.437956
1.13371
-0.902044
1.1323
-1.08355
1.3133
1.46877
1.46314
0.00952732
1.25323
-1.41966
-0.527734
1.63466
-0.972756
-0.270832
1.49743
0.0814459
1.4402
-1.50652
-0.911748
1.3594
1.33409
1.86476
1.45092
-1.44653
1.62195
1.45697
0.650743
0.885096
-0.036647
-0.20334
1.93417
-0.247197
1.49216
-0.961615
0.896605
1.45193
-0.400042
1.41782
0.117355
1.226
1.4249
1.47068
0.483005
-0.376792
0.060766
1.13443
1.1981
1.56934
0.0810346
1.1142
0.0214799
-0.211289
-0.98132
1.3761
1.68001
-0.994775
-0.197531
0.516283
1.65601
0.854583
1.0061
0.435125
-1.86786
-0.264536
-0.882907
-0.809839
1.15162
-1.23672
-0.3283
-0.211676
0.201536
-0.929902
-0.269794
0.0218677
1.39494
1.46815
-0.365243
0.374167
1.41452
1.41285
1.47029
-1.64264
1.41004
1.5481
1.45667
1.60012
-1.07552
-0.059296
-0.895046
0.871198
1.46137
1.2698
0.763066
0.041981
-0.419192
0.136058
1.78139
-0.0104282
-0.00668411
0.110279
0.273386
-0.293884
1.08459
-0.287995
-0.20154
-0.250095
1.43857
1.45447
1.45055
0.330343
0.558695
1.76793
0.0172339
1.4551
-0.178668
0.427362
1.05041
1.4653
1.41581
0.115015
1.40079
1.40226
-0.566469
0.165209
1.45164
1.46635
1.4664
-0.24299
-0.312554
1.46764
1.17906
1.45411
0.389619
-0.00962258
0.117891
0.0884871
-0.0637112
-0.892175
0.153674
0.601341
1.47097
1.47498
1.09303
-0.27684
1.43785
-0.164878
0.259893
0.155852
1.45577
1.47429
1.46837
1.47681
1.45163
1.44299
1.43056
0.77405
0.481306
0.00268314
0.0273418
-0.0858554
-0.18485
0.0666517
0.253533
0.0893883
-0.0814926
0.279499
1.45174
1.46768
1.46314
1.48297
1.47899
1.46901
1.46995
1.459
1.44856
0.0945275
0.183325
1.46785
1.46912
0.062271
1.47195
1.46814
0.159824
0.133043
-0.214468
-1.1944
-0.528026
1.44909
-0.294315
1.45079
1.17586
1.60672
-0.24616
1.45298
1.35757
1.41754
-0.892672
0.330426
-0.363903
-0.000466276
0.0989709
-0.884501
1.45885
0.00112892
1.53775
1.45101
-0.0605499
1.51347
1.67746
0.600333
1.24656
1.23131
1.44234
1.46114
1.46095
-0.249261
0.716978
-0.0867102
1.45135
1.46591
-0.448249
0.0485842
1.45162
-0.143706
-0.253978
1.45333
0.0970325
1.41978
1.4638
0.111793
1.46356
-0.0277357
1.45238
1.48613
-0.932964
1.4717
1.47824
-0.0476787
1.00037
1.45711
1.45438
0.333095
-0.762418
1.28312
1.86655
1.46003
1.45812
1.45777
0.216253
1.45595
1.45169
1.45724
1.45395
1.45494
1.45691
1.53311
-0.807378
0.0626867
1.45817
1.44662
0.514798
0.0877822
0.493929
-0.897634
1.26801
0.130628
-1.0756
-0.0575246
1.45125
1.28309
-0.106675
-0.494097
0.305713
-0.44873
-0.903568
0.198354
-1.00632
-1.23009
-0.252662
1.46117
0.211481
1.44763
1.33156
-0.246622
1.60547
-0.794564
-1.01499
1.27469
1.46929
0.684565
-0.254378
1.44102
-0.0357859
1.4576
-0.695092
1.45908
-0.17198
1.44782
0.110585
0.187739
1.45964
1.47562
1.342
-0.331233
-0.263687
-0.757342
-0.45965
1.47664
1.30983
-0.136382
1.44461
1.48994
1.43239
-0.586223
-1.33839
0.0269036
-1.83427
0.927751
1.45048
0.185131
1.45563
-1.85597
1.44727
1.48612
1.46249
-0.0401092
0.0651466
1.49064
-0.271429
1.46491
1.46632
0.639808
-0.287777
1.25834
1.51478
1.44626
1.43449
-0.831093
-0.987057
1.43797
1.00424
1.46222
1.39902
-1.07039
-0.271317
1.23833
1.73173
1.44469
0.939114
-1.09979
-0.250461
-1.24421
-1.17341
1.45003
-0.376625
1.42323
-1.23066
-0.243517
-1.05322
0.725435
-0.228403
-1.16688
-0.768313
1.44632
-0.256779
1.22717
-0.250617
0.464055
-0.946199
0.0428738
-1.00888
1.40486
-0.366076
-0.210035
-0.768279
-0.938168
1.45046
-0.873482
-0.0851247
-1.96726
1.46001
-1.00714
-0.251649
1.51546
1.44895
1.44475
1.05927
-0.227866
1.4472
1.4651
-0.359999
-0.950746
1.44677
1.3562
1.62752
1.46358
0.127135
-0.65971
-0.939764
-0.518093
-1.05282
-0.247565
0.27787
-0.200659
1.35903
0.605312
1.46474
1.61525
1.43925
-0.263994
-0.245576
1.44718
-0.173219
-0.126691
1.44272
0.466514
-1.13872
-1.78906
-0.656648
1.36498
1.33257
-0.595901
1.34411
0.974013
-0.831716
1.44847
-0.241657
1.18881
-0.86667
1.49567
-0.865316
1.00923
1.44912
1.43223
-1.69471
-1.09211
1.21528
1.81055
1.46841
1.35478
-0.607249
1.77775
-0.202853
-0.211169
-0.131054
1.05863
-1.4132
1.55299
1.68217
-0.256299
-0.212501
1.43995
-0.5662
1.38903
1.47715
1.38136
-1.50618
1.4475
-0.21529
1.48131
0.142034
-1.12107
-0.00655596
1.45148
0.325298
-0.410009
-1.2914
1.48885
-1.22929
1.55579
0.86697
1.69164
1.31542
-0.784345
1.44793
-0.908088
1.39763
1.40795
-0.0303845
-1.31509
1.4822
1.42725
1.58129
1.3815
0.706042
1.37664
1.45522
1.24101
1.45254
-0.245888
-1.07162
-0.659832
1.58021
0.0224093
-0.38128
-0.900787
-0.0576635
-1.19609
0.216911
1.18392
-1.18819
1.42951
1.49081
-0.958476
-0.000940174
-0.697722
0.135208
-0.953417
-0.917694
1.44312
-1.30376
1.4633
1.74812
1.50733
-0.035093
1.47036
1.35402
0.146541
1.44165
1.41868
-1.01038
1.41982
1.27305
-0.0716825
-0.56347
1.92244
-0.702832
-0.934718
-0.310592
0.843893
1.44237
-1.14632
-0.637949
-0.882239
1.56349
-0.41662
1.17474
1.44878
1.45538
0.172321
1.45378
-1.51139
1.45833
1.47417
-0.284479
1.46612
0.767049
1.46039
1.26436
-1.97806
0.0357694
0.180564
0.273512
1.63183
0.20681
1.45962
1.79039
-0.258653
0.016646
1.52032
0.0178657
1.51771
0.0879155
0.175838
1.50986
1.51478
1.01823
-0.192723
1.07327
-0.827506
-0.94479
-0.657472
1.46637
1.4724
1.92943
-0.255979
0.077773
1.30918
-0.403646
1.49805
1.36325
1.47058
1.43287
1.4285
-0.663798
-0.248299
-0.369304
1.17262
1.33384
-1.90671
-0.930257
-0.253577
1.46925
1.50344
-0.0298384
-1.36733
1.4818
-0.119454
0.477558
1.08138
1.24961
-0.100661
-0.336353
-0.0499981
-0.390705
-0.824773
0.159649
-0.39927
1.89858
1.71986
-1.25317
-0.450463
1.46784
1.44522
-1.10063
0.579555
0.293543
0.951455
1.5324
0.0311454
1.45354
0.415727
-0.313084
-0.842605
-1.03069
-1.00061
1.45868
-0.395692
0.133431
1.74856
-0.356461
1.45588
1.61216
-0.934322
1.5931
1.78818
-1.09359
1.59647
-0.330288
-0.292937
1.40454
-0.952817
1.56384
1.45988
-0.310155
1.53458
0.76216
-0.679417
1.48407
1.58161
-0.207703
-0.423218
1.35824
1.44771
-0.271938
-1.97666
1.63771
-0.29456
1.31835
-0.0221462
1.43034
-0.265662
-0.251449
-0.250618
-1.13575
1.43787
1.50944
1.82348
1.55951
1.31401
1.50354
1.40942
-0.246906
1.48233
1.68585
-1.00233
-0.282442
-1.00395
1.68026
-0.219003
-0.278703
-0.193225
1.26977
-1.02958
-1.32804
1.3617
1.57179
-0.256026
-0.946894
-0.282118
0.0436449
-2.03816
-1.05873
-0.244114
1.21757
1.45462
-0.918284
-0.353852
-0.170285
1.16233
-0.294371
-1.19055
-0.242922
1.5018
-0.224193
-0.960901
1.86051
1.38714
0.990775
1.7335
-0.528868
1.53524
1.45315
1.59613
1.74708
-0.523642
0.985236
1.35715
0.874966
-0.24243
1.85322
1.45336
1.4267
1.54498
-0.979406
-0.0464671
1.37302
1.15755
1.43711
-0.405223
-1.38558
1.44846
-0.247993
1.34984
-0.635331
1.77391
-0.243501
1.04665
1.31236
-0.901713
-0.245249
-1.18365
1.59164
-0.906312
-0.254242
1.2753
0.913719
-0.703016
1.50523
1.37579
-0.911335
-1.53013
1.36591
-0.226335
-0.249193
-0.263746
-0.882519
0.159562
1.39043
1.48289
-0.779894
1.20231
1.46174
1.75569
0.883423
0.538942
0.241884
1.43666
0.216154
-0.898089
0.0774668
-0.508114
-0.89528
1.42769
-0.896505
0.411756
-0.25214
0.836274
1.1563
-0.89153
1.2144
0.170752
1.08959
-0.888794
0.750822
-0.898327
0.993477
-0.259875
0.654529
-0.887007
1.38434
-0.3204
-0.889673
-0.900423
-0.251997
1.46697
0.713677
-0.934929
-0.270764
0.256862
0.378981
-0.894489
-0.249088
-0.98301
0.523486
-0.285314
0.0659041
-0.3173
-0.17672
-1.06843
0.362099
1.28865
0.177163
-0.442909
1.40495
0.157585
0.723808
1.03806
1.44207
-1.50013
-1.05413
-0.265958
-0.838538
1.40609
1.80867
-0.118406
-0.86385
0.654517
-0.388382
-0.185959
0.300158
1.38643
-1.08617
1.43261
-1.04107
1.84485
1.03986
1.93766
-0.935687
1.72988
-0.464189
1.54548
0.16414
-0.262941
1.62462
1.46336
-1.90729
-0.253367
-0.895893
1.35961
-0.888278
1.42665
-0.918259
-0.255605
-0.253742
1.73776
1.44878
1.65496
1.42936
1.47241
-0.916553
0.253186
1.56151
0.0211943
-0.471235
1.78476
-0.91601
1.32543
1.46608
1.82547
1.91571
-0.90521
-0.10331
1.49972
0.839557
0.207831
-0.843947
-0.556527
-0.370306
-0.939634
1.11849
-0.974659
1.74077
0.127474
1.39963
1.53195
1.43695
-1.2557
-0.249158
-0.512586
1.5473
-0.568673
1.52643
-0.680395
-0.829183
1.59828
1.83396
-0.278095
0.310224
1.42251
-0.614091
-1.06502
1.21967
1.63227
1.71776
-1.06887
1.28097
1.18103
-0.263136
1.73614
0.537722
-0.925626
0.325936
0.142031
0.138948
1.48336
-0.701002
0.508985
0.268011
0.203394
-1.04747
-0.2613
1.41993
-1.7615
1.42571
0.100157
0.709883
1.24137
0.873992
-0.267327
-0.548771
-0.474915
-0.0171721
0.535416
-1.07803
1.27393
-0.289642
0.172433
1.40174
-0.407775
-0.999797
1.46744
-0.158451
1.31581
0.495606
-0.245772
0.342102
1.33055
-0.128362
-0.019219
1.41669
-0.257759
1.54434
0.0881443
-0.651813
-0.418219
-0.259982
1.98301
-1.90247
1.6344
0.427023
1.4359
1.61411
1.27304
1.51508
1.51218
0.0570395
-0.953017
1.44691
1.61803
1.85971
-0.372045
1.47456
0.980441
-0.340804
1.34506
1.74948
-0.50807
1.70012
0.379323
-1.31142
1.39161
-0.318706
-0.893127
1.42546
-0.374911
1.52404
1.60585
1.36313
-1.23128
1.27024
1.61633
-1.13742
-0.166542
-1.9852
-1.26202
-0.572414
-0.250538
1.88127
1.31565
-1.11693
1.4688
-0.301055
-0.646036
1.80734
1.57886
-1.66398
-0.60108
-0.256418
-0.252536
1.46902
-1.0745
0.70367
-0.845703
-0.272515
1.52614
-0.275684
1.74766
1.48011
1.40189
1.44408
1.65824
-0.766668
-0.287301
1.51288
1.66473
-1.28616
1.47528
-1.6352
-0.248273
-0.266461
1.4292
1.45983
-0.253062
-1.06728
1.12327
0.575915
-1.13545
1.41288
1.29427
-0.856761
1.33873
1.38617
-0.100103
-1.01393
-1.16491
-0.244775
-0.262027
1.83504
0.487058
1.24257
-1.04827
1.84213
1.28294
1.18774
1.31757
-0.436266
-0.118137
-0.242212
0.809181
-0.95414
1.47642
0.901574
-0.472955
1.22891
1.55596
1.48898
1.43717
-0.0468457
1.49659
0.151126
1.00295
1.17041
-0.506145
-0.989393
-1.00421
-0.671799
1.46584
1.52142
1.46605
-0.020181
-0.128303
-0.241165
-0.813024
1.45638
1.65309
1.47063
-0.969589
-0.892346
-0.804683
-0.47508
-0.254699
-0.259204
-0.0626921
1.42702
-1.37031
-0.914763
0.660752
0.542466
1.02091
-0.737418
-0.241999
-0.120671
1.31563
1.87946
0.416286
1.57046
1.88873
0.951227
1.60391
-1.01126
-0.4161
1.91917
-0.243796
0.910003
-0.941307
-0.263007
-0.888955
-0.904179
1.48106
1.30238
1.54326
1.50251
-0.029377
1.34458
0.249497
0.41556
-0.246683
1.57271
1.02313
1.46693
1.48334
0.211421
-0.0126662
1.48821
0.143999
-0.264803
-0.908901
-0.901842
1.15509
-0.899976
1.43251
1.24306
-0.246119
1.76936
-0.968554
-0.21895
1.44758
-0.834359
-0.512487
0.0354385
0.877527
-0.92217
-1.04979
1.2379
1.47514
0.664705
0.683799
-0.123758
-0.250114
0.18587
-1.26555
0.468739
1.18203
-0.67628
-0.897429
1.62316
0.481497
0.600363
-0.893599
-0.266095
1.45582
1.59333
0.795761
1.12157
-0.889885
-0.412406
-0.0671099
0.706689
1.03772
-0.887808
1.23468
0.343601
-0.885882
1.80791
-0.891334
0.079174
-0.259934
-0.820225
1.40558
-0.912222
-1.10736
-0.275023
0.632932
-0.955825
0.172894
-1.25153
0.168457
1.55068
-1.01791
0.463997
-0.301862
-0.0398054
1.70066
1.90486
1.58462
1.4596
1.55862
-0.725119
1.44061
-0.988837
1.58797
-0.267578
-0.237258
1.7961
0.11689
1.05912
-1.36497
1.88537
0.13985
1.82865
0.87569
1.12726
-0.930523
-0.950671
-0.26241
-1.02427
1.76501
1.57493
1.433
1.18398
1.45198
1.42796
1.11892
-0.880952
-0.249403
0.472392
0.0263763
1.08911
1.45843
0.597322
-0.921138
-0.881015
-0.10365
-0.264232
-0.692134
1.86926
1.47803
1.45416
0.208095
-0.0434566
1.48424
-0.37558
-0.252242
0.0317019
-0.358242
1.07755
-0.912499
-0.889466
0.339681
1.42581
-0.159435
-0.259153
1.44964
1.18889
1.24627
1.44178
-0.254388
1.18683
1.68268
1.3998
-0.257609
1.4517
0.956948
0.706541
-0.719926
-0.902554
1.8488
0.861603
-0.980393
0.677308
1.234
1.35466
-0.436208
-0.501346
0.355932
-0.897561
-0.198377
-1.11962
0.222473
1.43456
-1.08476
1.40651
1.77162
1.63498
1.38509
1.44431
1.51388
1.44722
-0.730061
0.0112437
-0.332025
-0.345329
-0.0928797
-0.888639
1.53709
1.40101
-0.303562
1.46077
-1.14534
-0.528904
-0.889708
-0.546989
1.10675
-0.143143
1.42838
1.21925
-1.14432
0.2505
1.77621
-0.109175
0.251018
-0.115873
-1.12128
-0.861429
1.50805
1.07845
1.60901
-0.469505
-0.277675
-0.235414
-0.262865
-0.310329
0.151848
-1.18238
-0.183561
1.23408
-0.0471096
1.95732
-1.16868
0.114782
-0.293447
-0.886508
1.43099
-0.301012
-0.529816
-0.167126
0.380543
1.53982
1.72813
-0.201606
-0.245188
1.13453
-0.282708
-0.155766
1.60689
-1.12921
-1.15903
-1.05805
1.04997
0.24763
-0.320459
1.43465
0.214617
-0.95168
1.43609
-1.01263
-1.1331
-1.14089
-0.99127
0.587289
-0.327793
1.67647
-0.244405
0.780977
-0.267218
1.09516
-0.819509
-0.728751
0.922519
1.295
1.5123
1.44014
1.56589
-0.912195
1.35814
1.11757
-1.13117
1.31533
-0.285487
-0.876831
-0.106135
1.68886
1.66968
-0.829766
-0.826111
-0.616924
1.33992
-1.01412
0.306623
-0.0457587
-0.892469
1.64495
1.35786
-0.939583
-1.21234
-0.933522
-0.920701
1.30691
-1.00077
1.31605
0.443238
0.990881
1.14555
-0.866579
-0.880987
1.27308
-0.890465
0.491724
1.72931
-0.24492
-0.914853
1.1166
-1.17207
-1.1498
0.478482
-0.440241
1.81585
0.0678806
0.771619
-0.945813
1.83428
-0.966115
-1.22711
0.916925
-0.0530585
-0.266806
1.81769
0.951292
1.55652
-1.13145
1.57799
-0.451326
-0.0258069
-1.09199
-1.09149
-0.976933
1.61255
0.838776
-0.262647
-0.959821
-0.341741
1.50723
-1.32678
1.81113
-0.265393
1.05421
-0.907762
0.602644
0.796294
0.756883
0.663145
0.792273
-1.26297
1.35868
-1.07237
-0.668188
-0.116565
0.876141
1.84762
0.384104
-1.14902
-0.98415
-0.911021
0.478642
-1.15037
-0.904463
1.40437
0.799018
-0.92739
1.90497
-0.330432
-1.16957
1.83147
-0.915446
0.344446
-1.20219
-0.888939
-0.901047
1.88171
-0.886196
1.76275
-0.898799
-0.969569
1.55334
0.47565
-1.20388
0.827288
-0.411876
0.187923
0.273307
-0.904385
1.33573
-0.240464
-0.905866
-0.889663
-0.890301
-0.272365
1.36568
-0.0154434
0.284923
-0.932125
1.78351
-0.172318
-1.17666
-0.833644
0.468779
-1.04273
-0.871506
-0.924869
0.577728
1.59454
-0.980008
-0.261073
-1.16967
0.0203589
-0.108508
-0.277269
1.86492
1.78509
0.65346
-0.861013
-0.269038
0.554554
-0.267389
1.86088
0.413271
1.61778
0.981138
1.81321
0.274245
-1.04387
-0.791579
0.096165
-1.07203
0.0948872
0.519642
-0.898619
1.76893
0.435153
0.427845
0.343075
-0.248572
-0.924822
)
;

boundaryField
{
    frontback
    {
        type            empty;
    }
    Top
    {
        type            zeroGradient;
    }
    outlet
    {
        type            fixedValue;
        value           uniform 0;
    }
    bottom
    {
        type            zeroGradient;
    }
    Inlet
    {
        type            zeroGradient;
    }
    rectangle
    {
        type            zeroGradient;
    }
}


// ************************************************************************* //
