/*--------------------------------*- C++ -*----------------------------------*\
| =========                 |                                                 |
| \\      /  F ield         | OpenFOAM: The Open Source CFD Toolbox           |
|  \\    /   O peration     | Version:  2306                                  |
|   \\  /    A nd           | Website:  www.openfoam.com                      |
|    \\/     M anipulation  |                                                 |
\*---------------------------------------------------------------------------*/
FoamFile
{
    version     2.0;
    format      ascii;
    arch        "LSB;label=32;scalar=64";
    class       surfaceScalarField;
    location    "40";
    object      phi;
}
// * * * * * * * * * * * * * * * * * * * * * * * * * * * * * * * * * * * * * //

dimensions      [0 3 -1 0 0 0 0];

oriented        oriented;

internalField   nonuniform List<scalar> 
3181
(
-0.981308
0.373667
0.607642
-0.366643
0.342527
0.0241157
0.487886
-0.336857
-0.151029
0.104553
-0.177231
0.0726775
-0.0685017
0.103515
-0.0350137
1.06643
0.178564
-1.245
0.135841
-0.130127
-0.00571392
-0.0228183
0.000203213
0.0226151
0.47544
-0.709825
0.234384
-0.0776074
0.119865
-0.0422576
-0.0109735
-0.0571396
0.0681131
0.130942
0.0371908
-0.168133
-0.00672595
0.0251034
-0.0183775
-1.09578
0.157397
0.938383
-0.300778
0.654272
-0.353494
-1.12597
0.646587
0.479388
0.0831901
-0.929198
0.846008
-0.15154
0.227019
-0.0754789
-0.720781
-0.263949
-0.000773099
0.0753054
-0.0745323
0.0672554
-0.104478
0.0372222
-0.0639716
0.0616535
0.00231807
1.05947
-1.03989
-0.0195833
0.0330672
0.0231974
-0.0562646
-0.957064
0.335652
0.621412
-0.102774
0.207327
0.296312
-0.267438
-0.0288733
0.0266243
0.056362
-0.0829862
-0.444362
0.36718
0.0771815
-0.036311
-0.0224502
0.0259199
-0.00346964
-0.047012
-0.910052
0.0791968
-0.0639348
-0.015262
0.371075
1.18115
-1.55222
-0.0583065
0.0394818
0.0188247
0.194606
0.296948
-0.491555
1.77519
-1.40411
0.0823581
-0.0151027
1.69348
-0.936593
-0.756884
-0.652404
1.71884
0.023433
-0.030159
-0.0521629
-0.0118087
-0.383844
0.0830657
-0.16214
0.109977
-0.666293
0.123894
0.542399
-0.128939
0.0513314
-0.155591
0.159268
-0.00367684
-0.249329
-0.0737234
0.323052
-0.257032
1.39066
-1.13363
0.0693656
0.187197
-0.256562
-0.0232233
-0.110583
0.11739
-0.00680616
0.471631
0.182641
-0.0925276
0.164578
-0.0720508
0.0868346
-0.00763781
-0.155081
0.17829
-0.023209
0.14999
0.0558217
-0.205811
0.0978742
-0.103314
0.00543998
1.29176
0.401719
-0.814363
-0.166945
0.205565
-0.949459
0.743895
0.586571
0.24993
-0.836501
-0.474827
-0.225347
0.700174
-2.0221
1.3697
-0.293946
0.880517
-0.297285
-0.100955
0.39824
-0.22158
-0.222782
-0.174623
0.176794
-0.00217136
0.173366
0.268521
-0.441887
-0.224566
0.700006
-0.00587213
-0.0169462
-1.5394
1.74497
0.156002
0.14031
-0.155594
-0.109196
0.26479
-0.264718
0.378543
-0.113825
-0.0701929
0.0788349
-0.008642
-1.79644
-0.920609
0.01219
0.908419
-0.0131871
-0.0451194
-1.19832
0.857954
0.340363
0.555038
-0.377315
-0.177723
-2.03622
0.0141186
1.0995
-0.942103
-0.768773
1.14021
-0.201826
1.05249
0.19131
-0.166438
-0.0248716
1.15707
-0.978502
1.74184
-1.74184
-0.0073408
-0.00197948
0.00932028
-0.189075
-0.0527225
0.241798
0.104725
-0.0841687
-0.0205567
-0.457276
0.805609
-0.348333
-0.0479524
-0.199222
0.247174
-1.0807
0.0408128
0.374123
0.059816
-0.433939
0.121243
-0.907554
1.15748
0.0839922
0.13479
-0.218782
-0.0182523
-0.136829
-0.538626
0.365146
0.173481
-0.366543
-0.172084
0.126027
-1.03358
0.303996
-0.761272
0.924683
-0.841493
0.00581822
0.124689
-0.130508
0.0994622
0.0570574
-0.15652
-1.23644
-0.107755
1.34419
-0.216996
0.379402
-0.162406
-0.481601
-0.455888
0.937489
-0.516951
-0.681366
0.147692
-0.0783264
-0.140513
0.135292
0.0052212
-0.0810579
-0.0247788
0.105837
-0.541509
-0.168316
0.0813005
-0.0212099
-0.0600907
-0.811349
-0.451011
1.26236
1.35077
0.0398948
-0.0181606
0.0108198
0.00540671
0.150595
-0.216523
0.411129
-0.0314736
0.240369
-0.208896
0.152635
0.074925
-0.22756
0.00167148
0.229329
-0.231
-0.592415
-0.533559
-1.30262
0.491273
-0.065391
0.149383
-0.08743
0.164757
-0.0773266
-0.149869
0.0223737
0.113467
-0.0548214
0.0561973
-0.00137586
-0.0832348
-0.0165804
0.0998151
0.0685828
-0.0685828
-0.170409
0.192783
0.188495
0.155723
0.0937451
0.0845448
-1.13261
0.908047
-1.53661
0.0352916
1.50132
-0.00147619
-0.00198174
0.00345793
-0.0293464
-0.0568957
0.0862421
0.492931
-0.0126212
-0.48031
0.0163971
-0.0171002
0.000703061
-0.182825
0.0124157
0.172103
0.633506
-0.341037
0.51314
-0.112757
-1.12368
-0.183039
0.114537
0.451934
-0.276314
-0.17562
0.116942
-0.10963
-0.00731186
0.0457481
-0.295077
0.0221972
-0.942807
0.0465298
-0.13396
-0.258368
-0.371008
0.098782
1.46602
-0.996885
-0.469139
1.13268
0.333339
0.063241
0.259811
-0.00537629
0.0039001
0.0647089
0.0488755
-0.113584
-0.242649
-0.609386
0.852035
-0.326192
0.436285
0.461007
-0.724956
0.164009
0.0207841
-0.0231208
0.00233671
-0.841817
-0.338439
1.18026
0.323731
-1.16555
-0.328312
0.702435
-0.907001
-0.012474
0.00595161
-0.290054
0.284103
1.51081
-1.6536
0.142786
-0.102544
-0.0804953
0.591521
-0.83417
0.309631
-0.37127
0.0616391
-0.312011
-0.13548
0.44749
0.184793
-1.00959
-0.0711048
-0.0175709
-0.0569614
-0.602541
0.377194
-0.268508
0.0201318
0.248377
0.112633
-0.215177
-0.0819463
0.0819463
-0.133802
0.147438
-0.0136355
-0.210812
-1.3258
-0.038942
-0.0013872
0.0403292
0.0380714
-0.126889
0.0888173
-0.239647
0.0650243
1.69499
-0.251543
-1.44345
-0.161947
0.414637
-0.252691
0.000581051
-0.00152293
0.000941883
-1.09955
0.617945
-0.202747
-0.00504782
0.207795
-0.150378
0.323744
-0.113451
0.111608
0.00184289
0.0837494
0.0175558
-0.101305
-0.0282198
-0.00058696
0.0288068
0.740393
0.351832
-1.09223
-0.204453
-0.0466457
0.251099
-0.671055
0.662632
0.00842311
-0.00764976
0.0308472
0.0192494
-0.0200238
0.000774398
-0.0180988
-0.0381658
0.520084
0.830683
0.166707
-0.905324
0.738617
-0.209966
1.96067
-1.75071
0.350979
-0.0374618
1.7793
0.0835206
0.223578
-0.0709427
-0.0791487
-0.0314347
0.212067
0.177148
-0.0776857
0.732219
-0.396566
0.0569337
0.184864
0.0661085
-0.186802
0.120694
-0.711099
-0.123452
0.83455
0.0513969
-0.0513969
-0.0581165
-0.289402
0.586351
0.010201
-0.214654
0.219567
0.0074524
0.0452735
-0.110665
0.151693
-0.162666
-0.347794
0.299842
0.0205176
0.028383
-0.0489007
0.358634
-0.321443
-0.161776
0.734993
-0.573217
-0.19029
0.253531
0.176464
-0.452777
-0.196431
0.570097
0.150679
-0.029774
0.029774
0.0714923
0.141137
-0.212629
0.349298
0.0301034
0.00485778
-0.00796435
0.00310657
-0.121773
0.108139
-0.0268385
-0.0529742
0.204667
-0.197889
0.263658
-0.0657682
0.14834
0.0288074
-0.372362
0.104924
0.212944
-0.0646037
-0.0508182
-0.0626331
0.0157894
-0.00339753
-0.0123918
0.134355
-0.0956392
-0.0387163
-0.0467497
0.428568
-0.381818
0.0128573
-0.0187295
0.116067
-0.120854
0.00478676
0.0256882
0.448104
-0.609881
-0.0438445
0.0336589
0.0101856
-0.0297323
0.0838345
-0.0541022
-0.104995
0.0954792
-0.719863
0.624384
-0.0155089
-1.26614
-0.387237
1.65338
0.273641
0.606355
-0.879995
0.0746652
0.0634791
0.165849
0.305407
0.265579
-0.570986
-0.215618
0.281727
0.123827
-0.842374
0.718547
-0.0664541
0.0367218
-0.0366877
0.0191168
-0.972123
0.439403
0.532719
0.996885
-0.870858
-1.49799
1.39023
-1.51081
1.5461
0.0337446
-0.105795
0.000786269
0.0184631
-0.00115681
0.744596
-0.620769
0.107018
-0.0604884
0.406896
0.733313
-0.104244
-1.50569
1.29573
-0.631149
-0.501464
-0.245542
-0.420751
-0.0173016
-0.151916
0.197664
-0.565227
-0.339078
0.177131
0.72096
-0.228029
-0.791913
-0.706073
0.758228
-0.0434285
-0.0230255
0.252231
0.0331079
-0.0331079
0.667948
0.151898
-0.819846
-0.228112
0.89606
-0.0308698
-0.444707
0.475577
0.180554
-0.0248307
0.00357418
0.0102137
-0.0137879
-0.949459
-1.30174
1.34163
0.804668
0.890324
-0.0322927
-0.123299
-0.234338
0.705969
-0.215916
-0.0525918
-0.00232974
-0.0678632
-0.0627609
0.119818
0.397134
-0.27324
-0.743906
-0.311468
-0.0350151
0.063982
-0.0289669
-1.40733
1.36987
-0.0488097
0.00586266
0.042947
0.0125916
-0.0179679
0.0538414
-0.0557333
0.00189191
0.0113368
0.386903
0.0712781
0.0456641
0.0110296
0.0196566
-0.0306861
-0.0180195
-0.184728
-0.760288
0.398002
0.362286
1.09858
-2.20372
1.10514
0.150992
-0.174351
0.0233591
0.0131781
0.134514
-0.599601
-1.14224
0.0138236
0.0400178
-0.129512
0.0511858
0.157114
-0.373637
-2.02167
0.44126
1.58041
0.0466088
0.084446
0.0499094
-0.711099
0.837106
-0.0967127
-0.0172814
-0.0384519
0.0477411
-0.642853
-0.0282027
0.0660467
0.146897
-0.747714
0.00526001
-0.447147
0.111169
0.376203
-0.316387
-0.0976576
0.0144229
0.216733
0.847861
-1.06459
0.108195
-0.691269
0.583074
-0.876578
0.753126
-0.642014
-0.17649
0.818504
0.00398726
-0.00485357
0.000866314
0.19118
-0.503191
0.234058
-0.136549
-0.0975098
0.0529425
0.030892
-0.0657315
0.0307164
-0.0305494
0.0147216
-0.0328205
0.0187841
0.101144
-0.119928
0.242771
0.00738344
-0.00740262
1.9179e-05
0.00135424
-0.0200837
0.86332
0.0531268
-0.133622
-0.0395915
-1.26215
0.162418
0.0181361
0.00647614
0.0779699
-0.818504
1.14224
0.0456197
-0.226681
0.181062
-0.274943
0.108505
0.120898
-0.14577
-0.00100419
0.0798391
0.0166003
-2.02952
0.00785054
-0.0601508
0.0789349
0.743365
-0.263977
-0.140565
0.178637
0.371861
-0.00701512
0.0118729
-0.00728475
0.0758675
0.137071
0.241472
0.159246
-0.359438
0.200192
0.095816
0.53769
-0.0181525
-0.110786
0.845973
-0.216359
-0.629614
-0.642014
-0.464107
1.56269
1.77519
-0.111481
0.106515
0.00496609
0.414682
-0.0798931
-0.334789
-0.70534
-1.33088
-0.0864762
0.0882194
-0.0017432
-0.225095
0.0795256
0.145569
0.356675
-0.815491
0.458816
0.0372508
0.671737
-0.708988
-0.0408672
-0.099646
-0.0486055
0.00476108
0.13202
-0.0605282
0.00598096
-0.00199371
0.214424
-0.0734988
-0.140925
0.0834727
-0.0187637
0.00863055
0.00396103
0.0285569
0.0961325
-0.019281
-0.000742789
0.211488
-0.410709
0.0678701
0.538485
-0.0258999
-0.0254971
-0.989719
-0.0198752
-0.0168559
-0.0635894
-0.0340682
0.0604264
0.249204
-0.107369
-0.51834
0.625709
0.0974125
0.0650052
-0.936298
-0.00580462
-0.00260318
-0.6501
0.745579
-0.0155298
0.166209
0.363072
-0.807779
0.191815
-0.414893
0.223078
0.103587
0.136783
0.00411377
-0.00491912
0.000805356
-0.036579
0.00835922
-0.0179608
-0.118868
0.726621
-0.618427
-0.0118838
-0.0104126
0.034663
0.336698
-0.177452
-0.0679648
0.828264
-0.217054
-0.61121
-0.132069
0.1522
-0.516374
-0.243913
-0.538379
0.559656
-0.548165
-0.0114908
-0.0364162
0.0245324
-1.50569
0.581834
-0.581834
-1.63605
1.63605
0.744596
-0.140012
0.500778
-0.360766
-0.900026
-0.0896931
0.680686
-0.39482
-0.285866
0.137464
-0.21479
-0.0127894
-0.00537119
-0.940072
-0.0935096
-0.933302
0.213439
0.0390683
0.0249137
0.69612
-0.0902946
-0.605825
1.56005
0.215139
-0.00443365
0.00854742
-0.955881
0.974229
-0.239235
-0.0990832
-0.645807
0.74489
0.0775896
-0.916031
-0.737565
0.224738
-0.817153
-0.83455
1.23812
-0.403568
-0.133499
0.261817
-0.128318
-0.0447287
0.740848
-0.115352
-0.907073
0.907073
-0.981433
0.0823909
0.899042
0.00215223
0.0052312
-0.0327903
-0.463365
0.941267
-0.0833132
-0.0966198
-0.0307782
-0.0110376
-0.00193551
0.00251656
1.09768
-1.27417
-0.373461
0.457211
-0.688345
1.09288
-0.404539
-0.0622044
0.076028
0.136672
-0.0617469
0.331046
-0.00087553
0.025979
0.363689
0.0648791
0.0466878
-0.269593
0.222905
0.127978
0.0312902
0.107325
0.19768
1.26177
0.483198
-0.64484
0.509498
0.135343
-0.55693
0.218491
0.296723
-0.186746
0.0717168
-0.764713
0.692996
-0.784852
0.0982264
-0.44602
-0.074598
0.119537
-0.044939
0.106855
-0.181453
-0.483096
-0.119445
-0.0812566
0.0848757
-0.00361915
-0.00529269
-0.0139883
0.0335451
-0.0411829
0.620769
-0.583074
-0.0376949
-0.271148
0.281349
0.885112
0.703697
-0.289014
0.0203526
-0.0217398
-0.134206
-0.237064
0.148982
-0.539633
0.390651
-0.00529398
0.000374859
0.184265
-0.308163
0.123899
0.00908614
-0.0160517
0.0069656
-0.0300012
0.0216154
0.00838576
-0.309966
-0.668537
-0.083233
-1.18291
-0.217517
-0.870858
1.5461
1.39023
-0.176349
-0.15957
0.112925
-0.0712402
0.077719
-0.00647878
-0.548198
0.583399
-0.0352012
0.590382
0.0903042
-0.00346425
-0.00182973
0.133014
-0.861363
0.0307782
-0.0643283
0.00417747
-0.481462
0.347257
-0.0398391
0.0851126
-0.230093
0.588727
1.13268
0.1955
-0.054299
0.000683143
0.0536158
1.71928
-0.329051
-0.0548708
-0.0484434
-1.03655
0.16569
0.404343
-0.21955
-0.49486
-0.152459
0.647319
0.860241
-0.390731
-0.46951
-0.47562
0.368252
-1.29573
0.346266
-0.00713328
-0.0500677
0.0572009
0.510504
1.45017
-0.161661
0.165235
-0.0898632
2.07098
-0.524874
-0.664197
0.0344636
0.629734
0.413033
0.019871
-0.367102
0.486621
0.756623
-0.0184449
0.0690955
-0.0191861
-1.37456
0.337693
1.03687
1.31517
0.0706243
-0.0595948
-0.0567447
-0.379806
0.126868
-0.342486
0.310049
0.518215
0.00395329
-0.0403695
0.126395
-0.237876
-0.022411
0.0147612
0.10227
-0.136426
0.0341567
-0.276376
0.28665
-0.0102743
0.0775601
-0.294614
-0.120374
0.0838961
0.0364775
-0.0349215
-0.0725564
0.107478
0.298199
0.0384988
0.670199
0.166907
-0.682157
0.682157
0.743895
1.56005
-0.691269
0.298714
0.45791
-0.284664
0.0720345
0.991798
-0.401416
0.013478
-0.892712
0.879234
0.108528
0.0113367
0.0246578
0.16183
0.508369
-0.00552803
-0.16379
-0.105395
0.269186
0.101881
-0.475219
0.311429
-1.1474
-0.310436
-0.668679
0.0422211
-0.00682283
-0.000579788
-0.23257
-0.0392729
0.010306
0.0300343
-0.165452
0.135417
-0.396829
-0.584605
-0.00508109
0.0614431
-0.0816619
-0.760986
0.842648
-0.526324
0.350704
-0.143429
0.171812
0.216894
-0.0051014
-0.0315863
-1.14762
0.896076
0.0384298
0.0776372
-0.0206366
0.0552996
0.225494
0.00856453
-0.454713
0.580655
0.565284
0.671327
0.864258
-0.792541
0.84784
-0.475979
-0.65767
0.194305
0.162719
-0.800205
0.785279
0.0149262
0.69869
-0.388641
-0.225397
-0.148065
-0.0868569
0.00268823
0.947464
-0.838548
-0.108916
-0.206199
0.128513
0.0249194
0.110373
0.876359
0.29661
0.158415
-0.455025
-0.306812
-0.032266
-1.16564
1.08398
0.145767
1.19842
1.83867
-0.278622
0.158549
0.546973
-0.705522
-0.165042
0.0556427
-0.0169549
0.0118535
-0.539872
-0.117799
0.221041
-0.108408
-0.207351
0.154377
-0.495246
0.242556
-0.992825
-0.0474194
-0.302999
-0.959123
1.51164
-0.0103268
-0.305785
-0.239041
-0.242422
0.718742
0.328236
0.0354526
1.09696
-0.74028
-0.212195
0.147591
-0.214525
-0.0813819
0.295907
-0.0215626
0.0144293
0.0544689
-0.0603112
-0.216064
-0.097079
0.697936
-0.432882
-0.265054
0.245375
0.118339
-0.0859022
-0.0324366
0.249821
0.0784152
-0.0894831
-0.790512
-0.105398
0.153139
-0.307762
0.604372
-0.045317
-0.00878514
-0.0312442
0.00637326
0.024871
-0.0119398
0.00995805
-0.263805
0.0770027
-0.0584445
-0.516939
0.383439
0.0337384
0.0802108
-0.115132
-0.699681
1.36171
-0.843491
0.0158977
-0.21238
0.196483
-0.150548
-0.518445
0.668993
0.0543955
-0.697248
-0.22022
0.0998467
0.034258
0.00245476
-0.0367128
-0.233854
-0.559656
-0.151443
-0.114997
-1.37456
-0.253296
0.182354
0.136845
-1.18301
-0.3585
0.166604
0.191896
0.243903
0.0983762
0.500083
0.351934
-0.852017
-0.0624158
0.0189873
0.834258
-0.833456
-0.000802462
-0.209919
-0.348542
0.567033
-0.263813
0.198045
-0.0187425
-0.3298
0.52124
-0.156095
0.0108761
-0.0120329
-0.0182396
1.21543
-0.544099
0.774382
0.0858591
-1.78936
-0.240163
0.276348
0.71545
0.850116
-0.00414327
-0.020915
-1.83867
-0.668679
-0.711601
0.723791
0.0595742
-0.791913
0.671737
0.576074
-0.928241
1.06956
0.00355733
-0.803763
-0.316667
0.640161
-0.755172
0.115011
0.0721485
0.0461903
-0.986949
-0.5247
2.05284
-1.52814
-0.00135159
-0.00547124
-0.286681
0.234089
0.694557
0.202972
-0.190556
-0.166855
1.04479
-1.4958
0.236992
-0.597759
0.902029
-0.684693
-0.217336
-1.43061
1.7683
0.42178
-1.18277
0.10621
0.51217
-1.03687
0.0042376
0.229973
0.00404184
0.0281059
-0.0449618
0.0125362
-0.0264053
0.0138692
-1.03182
-0.0327778
0.299337
-0.807078
0.0416381
0.465787
-0.507425
0.400288
0.692595
-0.0423664
0.0451139
-0.00274756
0.0702058
0.97458
-0.720708
1.19147
0.829094
-0.787456
0.341025
-0.111052
-0.583038
-0.409787
0.557758
0.344271
-0.048891
-0.889155
-1.84413
0.0934226
0.51217
0.0523959
-0.859474
0.831181
-0.647102
-0.184078
-0.98193
0.398892
0.00669504
0.10584
0.0013268
-0.107166
-0.971453
0.561665
-0.194545
0.91381
-0.919615
0.208163
-0.226182
-0.103848
0.260962
0.157954
0.663489
-0.112371
-1.12161
0.5104
-0.129444
0.110999
-0.552422
-0.518632
1.07105
0.447578
0.0202023
-0.00998857
-0.741766
0.708988
0.278052
-0.207846
-1.7793
1.8886
-0.109307
-0.126127
0.591914
0.767053
-0.803364
-0.493738
-0.449069
-0.472014
-0.499438
0.80448
-0.80448
0.68937
-0.68937
-0.741766
-1.90272
1.90272
-1.8886
-1.05865
0.0315003
-0.0142819
-0.617922
0.617922
0.278052
-0.207846
0.767053
0.762551
-0.762551
0.803364
0.757768
-0.757768
0.506262
0.527986
0.481368
-0.339871
-0.500562
-0.550931
1.07892
0.0732077
-0.573812
1.13157
1.00038
-0.578602
-0.304324
-0.0262317
0.0793585
-0.883289
0.0841478
0.799141
0.00112908
-0.0184307
-0.991744
0.595178
0.857321
-0.558607
-0.120904
-0.00139564
0.00375842
-0.830343
-0.0749808
-0.532719
-0.0129644
0.0320812
-0.148187
0.00670139
-0.0451533
0.19153
-0.00383756
-0.00845149
0.012289
-0.813917
0.068968
0.744949
-0.696824
0.854778
-0.521084
0.435212
0.0858728
0.914856
-0.748172
-0.166685
0.0883582
0.322771
-0.0148233
-0.0664333
-0.0737745
-0.0127018
-0.260446
-1.14689
-0.885591
0.0921052
-0.75136
0.793883
-0.0425225
0.11862
-0.900516
0.781896
-0.805001
0.900337
-0.0953361
-0.00615207
-0.00578772
0.0212167
-0.311271
0.889084
-0.544812
-0.0867882
-0.7965
0.913918
-0.0877309
-0.826187
-0.0791805
0.016976
0.303557
0.828068
-0.355912
0.503597
-0.413293
0.0943715
-0.890872
1.40411
0.231938
-0.796747
-0.00701573
1.0161
-0.897477
1.05381
0.847531
-1.45662
0.609091
-0.886906
-0.104838
-0.440621
0.0588032
0.0417264
0.583983
-0.782426
0.782426
-0.642196
-0.0795223
-0.863049
0.114877
-1.02593
0.926851
0.0820205
-0.218569
-0.052157
0.0436348
0.0125625
0.183335
0.832762
0.820815
0.775995
0.133347
-0.909342
-1.17643
0.59783
-0.785936
-0.0972115
0.883147
0.15574
-0.876448
-0.679714
0.884405
-0.790033
-0.0988
0.461846
0.0060558
-0.467902
-0.563747
1.67752
-1.11378
0.174236
-0.0424357
-0.1318
-0.884736
-0.827627
0.076267
0.564137
0.283703
-1.36365
0.651679
-0.609959
0.609959
-0.709718
-0.411891
0.559607
-0.0512375
-0.11211
0.196006
0.787194
-0.183592
0.183037
-0.851574
1.60002
-1.29143
-0.308593
-0.551153
-1.65257
0.125969
-0.328901
0.597554
-0.694266
0.249156
0.329759
-0.241401
0.783619
-0.878955
1.20205
-0.604216
-0.137264
0.732441
0.607176
-0.607176
-0.0199404
0.00197253
0.124516
-0.0944813
1.22595
0.451569
0.201788
0.000533126
0.00739651
-0.00792964
-0.682082
0.690693
-0.00861035
-0.330359
-1.12626
0.101117
-0.891151
-1.09509
1.27885
-0.183752
-0.011167
0.871341
-1.76309
1.43274
-0.757803
0.61814
-0.646342
-0.690873
0.174499
0.473757
0.0255414
0.184383
-0.769468
1.24323
-0.00278281
-0.573674
0.0559
0.737983
0.683164
-0.0650242
0.0655884
0.797731
-0.911644
0.496092
0.415553
-0.453565
0.475877
-0.0275159
-0.887029
0.67589
0.211139
-0.684635
-0.132518
0.911485
-0.118286
0.0577581
-0.0284862
0.485725
0.514275
-0.7725
-0.106455
-0.660187
-1.28918
-0.984692
-0.225696
0.400738
0.599262
-0.0113606
-0.0087231
-0.860231
-0.0458179
-0.600524
-0.151614
-0.22598
0.377594
0.0143496
0.00225074
0.125129
0.0795379
-0.128304
-0.135501
0.766503
-0.654567
0.720155
0.489317
-1.25879
0.422328
0.119181
-0.541509
-0.742855
-0.17848
0.921336
-0.222583
0.21097
-0.0261064
-0.116181
-0.0989963
-0.00622407
0.752822
-0.142863
0.0993349
0.11756
-0.733812
0.0517297
1.21129
0.669551
0.467809
-1.04103
0.546316
-0.275661
1.00897
0.000984555
0.152754
-0.242618
0.00237717
-0.0451318
0.0160428
0.400666
0.810621
0.183026
-0.0542014
-0.128825
0.84277
-0.0326939
0.00537908
0.0273148
0.141027
0.00539624
0.000584718
0.202339
-0.10007
0.541919
-0.654029
-0.0178538
0.20088
0.00305848
0.260914
0.0649799
-1.17311
1.39132
-0.218208
-0.776827
0.821127
-0.0443006
-0.71212
0.0479695
0.473271
-0.0926645
1.62662
-0.47482
-0.0462641
0.266119
0.427926
0.1707
-0.598626
0.369177
0.0206717
0.670021
-0.571139
0.585176
-0.0140372
1.23016
-0.511417
-0.0386114
0.0431267
-0.00451531
0.705506
-0.0101401
-0.0819311
0.0172637
1.00328
0.174467
-0.886587
0.0844561
0.0933594
-0.165916
0.215937
-0.128155
-0.0877824
0.015767
-0.00323079
-0.558883
-0.274573
-0.0521098
0.20083
-0.0235018
-0.0675145
0.245576
0.0887985
0.00313043
0.0243267
0.761406
0.925835
0.150329
-1.07616
-0.0357362
0.220382
-0.184646
0.642647
0.11516
-0.0381006
-0.0795698
0.11767
-0.199668
0.282724
-1.57415
-0.0191135
0.777341
0.735834
0.68606
-0.978872
-0.008077
0.798387
0.0451451
-0.11311
-0.924223
0.129678
-0.272168
-0.511063
-0.16596
0.703345
0.0580609
0.0150858
0.927244
-0.879275
-0.011243
0.170988
0.00231958
-0.106797
0.420954
-0.0604536
-0.917758
-0.0589468
0.126495
-0.0102284
-0.0255078
-0.138803
0.887653
-0.0119351
-0.107935
-0.00850281
0.000382703
0.00812011
-1.23767
0.726251
0.00417033
0.986771
-0.222987
-0.627932
0.66954
-0.0416082
0.190282
0.755075
-0.450128
-0.091381
0.0862629
-0.190111
0.646223
0.108852
1.44019
-0.0703179
-0.287391
0.790988
-0.297068
1.10769
-0.57386
0.353318
0.220541
-0.249248
-0.0707815
0.038877
0.0763649
-0.0527407
1.28143
0.734497
0.0638897
0.647045
0.20499
-0.886096
-0.0836815
-0.687558
0.680542
-0.0320041
-0.543826
0.392212
0.849508
0.666895
0.0102021
0.116796
-0.120015
-0.326005
0.574179
0.787527
0.0915575
0.0256146
1.06744
0.0402463
0.533697
0.728663
-0.086533
0.976061
-0.719164
0.913772
-0.194608
-0.415137
-0.158723
-0.0459233
-0.115485
-0.108323
0.901803
0.0232098
-0.00355328
0.625292
-0.353151
-0.687874
0.621077
-0.130122
0.208343
0.79775
0.275213
-1.07296
0.276132
-0.923235
0.315882
-1.15937
-0.155907
0.740535
-0.584628
-0.684755
-0.0267075
-0.089473
-0.0580034
-1.06125
-0.00299991
-0.0282443
0.988482
0.226722
-0.198308
-0.0284142
-0.0316612
-0.565227
-0.0861569
0.238911
-1.66493
-0.00816338
0.00432582
-0.79503
-0.0568138
-0.612554
0.0414153
0.567927
0.28158
1.0044
0.648974
-0.217574
-0.392202
0.609776
0.199779
-0.620402
0.620402
-0.219377
-0.990663
1.21004
0.0332213
-0.16529
0.661693
-0.0937658
-0.214895
0.184219
-0.126461
0.227507
0.0221956
-0.776219
0.19837
-0.0995879
-0.7367
0.48162
0.103556
0.0861832
-0.00382511
-1.93119
-1.5467
-0.436546
0.692778
0.307222
-1.5467
0.692778
-0.66829
-0.62298
-0.66829
-0.696484
0.696484
0.303516
-0.0129261
0.000183277
-0.0814595
0.25554
0.109683
-0.512788
0.633815
-0.0127385
0.632711
-0.505786
-0.126925
-0.0397616
0.0332512
0.0065104
-0.0167124
0.0172455
-0.644701
0.0169384
-0.0724791
-0.434566
-0.383344
0.150774
0.0325972
0.813034
-0.266061
-0.542436
0.300014
-0.0224443
-0.133896
0.00252728
0.698897
0.0784446
-0.410102
-0.0316898
0.00100361
-0.0165647
0.0822325
0.54071
-0.482289
-0.058421
1.96867
0.568791
-0.713092
0.964425
0.0126623
-0.069558
0.117968
0.132081
0.0101463
1.20369
-0.40594
0.00120997
0.0410111
0.251796
-1.22416
0.016451
-0.016451
0.0249996
-0.0249996
-0.00165049
0.00165049
-0.0258999
0.367316
0.467387
0.10753
-0.668616
0.440587
0.174494
0.0278455
-0.0886362
-0.479837
0.585211
0.114525
-0.79916
-0.59501
-0.212769
-0.0215149
0.0237536
-0.00213819
0.0162005
-0.0162005
0.17332
0.0137458
-0.0137458
0.700244
0.116439
-0.0267954
-0.00489441
0.00587292
-0.0601719
-0.019278
0.019278
-0.00179259
0.00179259
-0.0251695
0.0251695
0.0100592
-0.0100592
0.0214321
-0.304928
-0.0728316
0.216346
0.00896193
-0.00896193
-0.381987
0.487512
-0.105525
0.464894
-0.203077
-0.518872
-0.0235639
0.554754
0.0471658
0.0940154
0.575524
0.564091
0.00520129
-0.00520129
0.0631683
0.0284169
-0.0284169
0.00815509
-0.00815509
0.792912
-1.27182
0.0368786
-0.618449
0.310286
-0.00308259
0.00308259
0.00143459
-0.00143459
0.0203586
-0.0203586
0.0194372
-0.0194372
-0.0263681
0.0263681
0.0390155
-0.0390155
0.50849
-0.0354444
0.0354444
0.00249788
-0.00249788
0.0268374
-0.0268374
-0.00255899
0.00255899
-0.00590436
0.00590436
-0.154862
-0.0301601
0.0301601
-0.235673
0.0297913
-0.0438023
0.0438023
0.00178459
-0.00178459
0.00639789
-0.00639789
0.0372873
-0.0372873
0.0228775
-0.0228775
-0.00346529
0.00346529
-0.00280143
0.00280143
0.548016
0.247387
-0.00252738
0.00252738
0.00163156
-0.00163156
-0.0422908
0.0422908
-0.0251689
0.0251689
0.00221759
-0.00221759
-0.44094
0.717288
0.248301
-0.0354847
0.0354847
0.0185872
-0.000649047
0.000649046
0.000650035
-0.000650035
0.0334899
-0.0334899
-0.078439
-0.0346709
0.00307336
-0.00307336
-0.0185506
0.0185506
-0.459103
0.0393267
-0.0394721
-0.0280499
0.0280499
-0.4258
0.0285365
0.0165775
-0.100566
-1.6888
-0.040782
0.040782
-0.221164
0.160711
-0.0372926
-0.000291849
0.000291849
-0.0268823
0.0641046
0.268739
-0.320514
-0.248003
0.568517
0.161507
-0.00296326
0.00296326
-0.0299448
0.0372214
-0.00727656
0.730639
-0.359894
-0.370745
-0.497604
-0.655274
-0.102928
0.402942
-0.0651105
-0.388455
-0.577111
-0.0257281
0.191006
-1.5663
0.0208221
-0.0208221
-0.000978678
0.000978678
0.0342317
-0.0342317
0.0236286
-0.0236286
-0.00177094
0.00177094
-0.00135354
0.00135354
-0.151976
-0.225339
0.149061
-0.269965
0.00200463
-0.00200463
-0.0405671
0.0405671
-0.0447388
0.0447388
0.0264479
0.154041
-0.180489
0.0286531
0.283339
-0.506326
-0.00214396
0.00214396
-0.0233865
0.0233865
-0.115349
0.175893
-0.278821
-0.00215889
0.00215889
0.0200837
0.0141112
0.869372
-0.492047
-0.103991
0.596038
-0.609214
0.381457
-0.33973
-0.0348531
0.0348531
-0.668039
0.258585
0.0550227
-0.0550227
-0.696736
0.41087
0.242171
0.108673
-0.00165274
0.00165274
-0.900742
-0.00107294
0.00107294
0.333861
0.406988
0.0722235
-0.0595008
0.0595008
-0.00277667
0.00277667
-0.0470004
0.0470004
-0.0486743
0.0486743
-0.00109212
0.00109212
-0.0538955
0.0538955
-0.00131519
0.00131519
-0.0506642
0.0506642
-0.014316
-0.0409694
0.0409694
0.00480199
-0.00480199
0.0534839
-0.0534839
-0.00195681
0.00195681
0.0428147
-0.0428147
-0.243481
-0.00385119
0.00385119
-0.00572223
0.00572223
-0.0356314
0.0758675
-0.0126878
0.0126878
0.00486773
-0.00486773
-0.0660187
0.0660187
0.318618
-0.0210736
0.0210736
-0.0523657
0.0523657
-0.00720264
0.00720264
-0.0747284
0.0747284
-0.0124611
0.0124611
-0.0893461
0.0893461
-0.0244505
0.0244505
-0.0865224
0.0865224
-0.711092
0.165878
-0.554564
0.512956
-0.916031
-0.566231
-0.525443
0.359483
0.259139
-0.0137642
0.00375809
-0.00375809
0.22703
-0.680408
0.0541057
-0.0579308
-1.36044
1.57557
1.52605
0.238914
0.035468
0.0206779
-0.366115
-0.607396
-0.137097
0.395327
-1.35003
-0.0310447
0.0310447
-0.705878
0.0128837
-0.0128837
-0.00256461
0.00256461
0.350048
-0.313534
-0.0028225
0.0028225
0.0170046
0.0127694
0.600791
-0.282555
-0.0113333
-0.0130829
-0.00783215
-0.117951
0.525936
-0.407985
0.183916
-0.0579464
-0.00421251
1.20756
0.024037
0.0310246
-0.413522
0.472325
-0.517513
-0.905583
-0.218095
-0.0827117
0.0199508
-0.0124237
-0.030012
-0.0467069
-0.0102226
-0.00240076
0.814279
-0.520171
-0.0533716
0.0556912
-0.0427615
0.00658597
-0.00640269
0.407273
0.25536
-0.160387
0.19861
0.0228033
-0.00524747
-0.978869
0.0163314
-0.176995
-0.0213129
-0.0165304
-1.23634
-0.0735731
0.276925
-0.358001
0.42288
0.142463
-1.10159
0.0410775
0.102353
-0.0853766
-0.363618
0.449491
-0.0566599
0.105849
-0.0491895
-0.0304566
0.0304566
0.183455
-0.472469
-0.169499
0.0426102
-0.0945764
0.0625723
-0.0549715
-0.00246748
0.0574389
-0.035829
-0.165474
0.119807
0.0908543
-0.279136
-0.326004
0.60514
0.0195578
0.0686616
0.146888
-0.0475532
-0.195271
0.0818204
-0.173257
0.335977
-0.00104957
0.0283644
-0.00893391
0.155822
0.00327692
0.280826
0.00246128
-0.00246128
-0.23788
0.771578
0.105422
-0.189104
-0.0293609
0.106951
1.18967
0.243065
0.100247
-0.0183007
-0.538851
-0.0157136
-0.0870558
0.114325
-0.729488
0.328072
-0.0555079
0.349707
-0.628843
0.194907
0.480983
-0.0997829
0.0997829
0.0013268
-0.860769
0.0363335
0.824436
-0.232462
0.174458
-0.0776035
-0.0247977
-0.269817
-0.0129049
-0.0398068
0.040593
0.928981
0.170701
-0.160499
-0.0717513
-0.186973
-0.600483
-0.020967
-0.258511
0.745133
0.540899
-0.257561
-0.285283
0.546197
0.0100177
0.096497
-0.26377
0.0129994
-0.448937
0.343412
0.114368
-0.114368
-0.0456927
-0.085132
0.130825
-0.00969933
0.00445612
0.00637325
-0.219871
0.0202032
0.204432
-0.184845
-0.0195872
0.514825
-1.14351
-0.181542
-1.08061
0.676907
-0.0977989
-0.172166
-0.016452
-0.080627
-0.510273
0.0757074
-0.311418
-0.00368659
-0.0165304
0.411779
-0.00516046
0.0047474
-0.00109727
0.0179228
-0.0117477
-0.00617504
-0.0922787
-0.0195611
-0.182437
0.201998
-0.100085
-0.348852
0.0170046
0.352125
0.00100144
-0.40347
0.10047
0.00324739
0.211948
-0.104418
-0.014298
0.014298
-0.00209962
-0.000357994
-0.00832101
-0.000806834
0.0764885
0.00015928
-0.00119864
0.11875
0.130454
-0.0026115
0.0026115
-0.00356536
0.489281
-0.000734791
-0.276404
0.595903
1.23072
-0.463703
0.304747
-0.441806
-0.125627
-0.0438717
0.198158
-0.205734
0.0768605
-0.00860856
0.0023845
-0.00714914
-0.174739
-0.359728
0.800316
0.417991
-0.569967
0.0500351
-0.00172819
-0.0115521
0.000385094
-0.000785551
-0.000648495
-0.00796007
0.35377
0.00151146
-0.00088665
0.753236
-0.671415
-0.252696
0.286722
0.608239
-0.000981526
0.000271921
-0.0372926
-0.00517246
0.817792
-0.43269
0.536246
-1.72572
0.906483
-0.848675
0.539771
-0.180288
0.733178
-0.000404271
0.00337689
0.0203767
-0.122422
0.13644
-0.0199272
0.00720156
0.00456376
0.0750185
-0.0636631
-0.0113554
-0.000110091
-0.0886498
0.137688
-0.0490379
-0.101009
0.00756168
-0.000165174
0.00219049
0.514301
-0.448403
0.0169886
7.36313e-05
0.407578
-0.371245
0.360158
-0.00655033
-0.00068683
0.0191684
-0.0712782
-0.0551266
-0.0823885
-0.00617376
-0.00395678
0.145988
0.0453059
-0.00356732
0.379385
0.000236824
0.0028168
-0.0028168
-0.000541311
-0.0125416
0.00023369
-0.322012
-0.00408844
0.0796918
-0.107996
-0.0503671
0.356026
-0.0649899
0.000139325
0.00187104
0.430401
0.000118202
0.00140206
-0.0473253
-0.00226164
0.00024369
0.0341175
0.16767
-0.709795
0.435374
-0.795102
0.145881
-0.000617779
0.169124
0.191487
0.0576689
0.541804
-0.0138212
-0.129004
-0.00447807
-0.00153886
-0.559187
-0.00366375
-0.00022307
0.0257686
0.878168
-0.508991
-0.00281971
-0.000641617
-0.00651786
-0.00189439
0.0774293
-0.0200878
0.0200878
-0.0208572
0.0204992
-0.00233491
-0.00870974
0.0490331
-0.0442857
-0.182882
0.112101
-0.00525844
-0.0146177
0.0318753
-0.0201394
0.0705217
-0.0505709
-0.624403
0.58188
0.0180589
-0.00110964
0.328815
-0.20232
-0.0587875
-0.639391
-0.0592135