/*--------------------------------*- C++ -*----------------------------------*\
| =========                 |                                                 |
| \\      /  F ield         | OpenFOAM: The Open Source CFD Toolbox           |
|  \\    /   O peration     | Version:  2306                                  |
|   \\  /    A nd           | Website:  www.openfoam.com                      |
|    \\/     M anipulation  |                                                 |
\*---------------------------------------------------------------------------*/
FoamFile
{
    version     2.0;
    format      ascii;
    arch        "LSB;label=32;scalar=64";
    class       volVectorField;
    location    "40";
    object      U;
}
// * * * * * * * * * * * * * * * * * * * * * * * * * * * * * * * * * * * * * //

dimensions      [0 1 -1 0 0 0 0];

internalField   nonuniform List<vector> 
2186
(
(1.25627 -0.060388 3.0477e-19)
(1.52967 -0.876132 6.22188e-20)
(1.37974 -0.855613 1.41543e-20)
(0.68039 -0.515813 -1.90897e-19)
(-0.431743 0.736311 -2.23633e-19)
(1.21315 0.233 0)
(0.670287 -0.61774 0)
(0.0631744 0.139644 3.50573e-20)
(1.39465 -0.0972794 1.69107e-20)
(0.502888 -0.222438 -1.92932e-21)
(0.744231 0.674597 0)
(0.831444 -0.248901 -3.61028e-20)
(0.0773852 0.177808 -1.5042e-20)
(1.20073 0.0295228 -4.63357e-19)
(1.70815 -0.632053 4.9322e-20)
(1.02009 0.00360653 2.15528e-19)
(0.977874 0.0135166 0)
(-0.0977154 0.683564 0)
(1.00754 -0.170713 0)
(-0.0816537 0.327771 -7.27559e-20)
(0.501777 0.21558 -1.31643e-19)
(-0.159124 0.234325 9.85456e-20)
(1.1916 0.0324109 3.81232e-19)
(-0.152905 -0.0682574 4.89557e-21)
(1.02552 0.0177529 -3.00248e-19)
(0.731049 -0.493727 0)
(0.756562 0.0401111 1.75965e-19)
(0.562719 -0.542114 -2.30999e-19)
(1.29969 0.775129 0)
(0.957478 0.0270257 -4.09359e-19)
(-0.0327287 0.119466 0)
(1.02176 -0.000925224 1.41961e-20)
(-0.0949705 0.255938 0)
(2.42403 -0.12279 -4.67192e-21)
(-0.213205 -0.0782037 -1.1887e-21)
(1.65089 0.8318 9.63433e-20)
(1.98277 0.0268803 -7.10248e-22)
(0.535821 0.261984 -3.9131e-19)
(2.10877 0.159983 -3.09851e-19)
(1.70839 -0.104495 3.01293e-20)
(0.0422979 0.164374 0)
(-0.0972489 0.220458 0)
(1.78162 -0.80789 2.32161e-20)
(-0.469954 0.282139 0)
(1.1689 0.321337 1.8308e-19)
(0.554283 -0.205457 3.43578e-19)
(0.859255 -0.730023 0)
(1.114 -0.73244 1.77707e-19)
(1.74829 -0.535825 0)
(-0.23293 0.653721 1.90531e-19)
(-0.0209197 0.187439 1.07563e-19)
(0.690006 0.637001 9.24525e-20)
(1.95828 -0.686764 -9.99155e-21)
(0.635662 0.373048 -3.14153e-19)
(-0.317188 0.0397643 3.86703e-20)
(0.704517 -0.592835 0)
(1.58057 -0.894362 1.6998e-20)
(0.533175 -0.494082 0)
(2.47517 0.0907288 9.77898e-20)
(1.08979 -0.145589 -4.92369e-19)
(1.12009 -0.0664241 -1.12109e-21)
(1.42857 0.329184 -2.1768e-19)
(1.43755 0.59018 0)
(2.29836 0.0243506 -3.30244e-20)
(1.45804 0.421216 -1.34013e-19)
(1.1802 -0.675985 -2.62381e-19)
(1.25516 0.718917 6.20877e-20)
(0.687813 0.151487 -6.53487e-19)
(0.826813 0.119951 0)
(1.90755 -0.090262 2.14131e-21)
(0.0329733 0.125352 -3.82668e-20)
(2.06419 -0.478464 2.89835e-21)
(0.718986 0.0418315 -2.90837e-19)
(0.818501 -0.458578 0)
(0.85296 0.245799 -1.06599e-19)
(0.494574 -0.450598 -3.77919e-19)
(1.86281 -0.453323 0)
(1.00654 0.0114918 4.45213e-19)
(-0.211467 -0.0596149 0)
(2.20617 0.37271 0)
(0.91053 0.215637 1.10405e-19)
(1.93088 0.128941 -1.00276e-20)
(1.01821 0.0122081 4.98999e-20)
(1.40056 0.446952 3.3484e-20)
(0.961864 0.0281013 5.24282e-19)
(1.03252 0.0360246 -1.24022e-20)
(0.69251 0.266478 -3.84955e-19)
(0.992379 0.429797 -9.88446e-21)
(1.38332 0.325366 0)
(-0.0698402 -0.0648176 2.77057e-20)
(0.80116 -0.562884 -2.21568e-19)
(-0.165351 0.351343 -1.12238e-21)
(1.08011 -0.052323 3.1818e-19)
(0.787169 -0.119845 0)
(0.968065 0.0248453 4.98185e-20)
(1.46238 0.692188 0)
(1.53222 -0.886571 0)
(1.37829 0.244135 0)
(-0.384194 0.780338 0)
(0.728731 -0.602058 3.85041e-19)
(0.924057 -0.245501 -3.56754e-19)
(0.887177 0.156097 2.2662e-19)
(1.64003 0.197129 0)
(1.12136 -0.0825192 -2.90879e-19)
(1.12585 0.0250986 2.20224e-19)
(-0.043949 0.355479 1.31966e-19)
(0.707359 0.587514 0)
(1.97242 -0.143859 2.19418e-20)
(0.911514 -0.42193 1.07785e-19)
(-0.920897 -1.10807 1.0226e-19)
(1.94837 0.262181 1.27718e-19)
(-0.266404 0.57945 -2.91792e-19)
(0.760471 -0.689297 0)
(0.627662 0.44661 1.87635e-19)
(1.57517 -0.109354 -5.97701e-20)
(0.191942 0.500016 -2.57379e-19)
(1.14154 0.603546 -6.27035e-20)
(1.68048 -0.764093 0)
(-0.0917199 -0.086154 -8.2614e-20)
(0.695531 0.00683843 9.26881e-20)
(1.67931 0.945942 0)
(-0.0106021 0.618264 -2.71299e-19)
(0.963519 0.831148 -3.11403e-19)
(-0.188894 0.530975 4.06306e-19)
(1.03216 -0.0191781 0)
(1.37936 0.681335 7.90377e-20)
(-0.373111 0.643835 0)
(0.641217 -0.426084 -1.36156e-19)
(-0.128805 0.641982 -2.20532e-19)
(0.733392 -0.667248 0)
(0.378841 -0.16502 4.96497e-19)
(0.481242 -0.382935 3.48215e-19)
(0.384666 -0.347504 0)
(0.918229 -0.724933 -1.95965e-19)
(0.953369 0.0229645 0)
(-0.0798961 0.604949 -1.49387e-19)
(0.749632 -0.63743 1.89294e-19)
(2.12704 -0.159919 -1.66588e-20)
(2.15939 0.0710995 0)
(-0.0236233 0.0385066 0)
(0.74892 0.695769 -3.89291e-19)
(1.68124 -0.568244 -5.27233e-20)
(0.0813849 0.104478 0)
(0.918472 -0.747049 -2.0607e-20)
(1.10933 -0.0819395 0)
(1.05417 -0.0977927 5.03083e-19)
(1.93318 -0.121535 3.24454e-20)
(-0.451367 0.886065 0)
(1.15392 -0.507999 -8.30148e-20)
(-0.178874 0.353861 -4.82495e-20)
(-0.282341 0.414757 0)
(1.02938 -0.755527 1.11784e-20)
(1.00689 0.00581166 -7.43615e-19)
(0.593133 -0.408195 -1.32436e-20)
(0.76093 -0.45212 0)
(1.13068 -0.675452 -1.47626e-19)
(0.696706 0.324925 2.94765e-19)
(1.26657 0.126202 0)
(1.60435 0.0707358 -3.14298e-19)
(1.12969 -0.79672 -3.67067e-19)
(-0.0424266 0.0257779 -2.83392e-20)
(-0.295224 0.00612154 -4.2167e-20)
(1.0905 0.0200022 2.77068e-19)
(0.864068 -0.40684 -1.35562e-19)
(1.1317 0.0308382 9.15168e-21)
(0.666189 0.0291018 4.52236e-20)
(0.736516 -0.114856 3.42297e-20)
(-0.074625 -0.0574184 -7.93867e-20)
(0.909333 0.304059 0)
(1.47239 0.293777 -1.22418e-19)
(1.54221 0.70152 1.66491e-19)
(0.749526 -0.552852 -2.80773e-19)
(0.995135 0.0100805 1.52346e-20)
(0.661014 -0.465716 3.74404e-19)
(1.40133 0.860948 1.4844e-19)
(1.90706 -0.020471 9.62522e-21)
(-0.426372 0.942921 0)
(1.10127 0.070598 -2.86952e-19)
(-0.737363 0.199635 -1.22299e-19)
(1.14275 0.538624 9.20484e-20)
(0.179898 -0.120204 4.79724e-20)
(1.16227 0.0318059 -5.29984e-20)
(-0.206538 0.237697 -1.76274e-19)
(1.38499 0.627678 -9.12169e-20)
(1.22726 0.956563 0)
(-0.37193 1.04564 -1.15262e-19)
(0.323655 0.54104 0)
(0.721417 0.629127 -3.10396e-19)
(2.184 0.128221 -1.71428e-20)
(0.090628 0.241663 5.82685e-20)
(-0.386003 0.723621 -5.5991e-19)
(0.734597 0.156569 2.87221e-19)
(2.15765 -0.38377 -4.14792e-20)
(0.931653 -0.297802 -3.89853e-20)
(-0.0164651 0.00813263 0)
(-0.643059 -1.45402 2.18378e-19)
(1.43596 1.04788 -2.57243e-20)
(0.853072 0.141433 -1.58322e-19)
(0.611116 0.574951 2.16705e-19)
(0.50777 0.207093 0)
(-0.148582 0.0178889 -5.54131e-20)
(-0.700256 -1.19991 1.51099e-19)
(1.22185 -0.897152 1.15972e-21)
(0.979802 0.000960349 -2.32887e-19)
(-0.119061 -0.146403 4.60862e-21)
(-0.113541 0.112712 1.79954e-19)
(-0.199996 -0.189026 -5.81353e-20)
(1.35013 -0.660749 0)
(1.15606 0.0552366 -3.85334e-19)
(2.23443 -0.332865 1.01469e-19)
(1.20407 -0.568501 1.66638e-19)
(1.91794 0.158389 -3.65025e-20)
(0.645374 0.426812 0)
(1.02091 0.815973 -1.84801e-20)
(0.746459 0.688713 2.0759e-19)
(0.839828 -0.504983 1.99263e-19)
(0.753288 0.577948 0)
(1.01829 0.0121119 9.98251e-21)
(0.821585 -0.604589 2.85118e-19)
(0.896945 0.489212 -5.17882e-19)
(1.13587 -0.0986997 0)
(0.213047 0.309313 -2.06731e-19)
(-0.0578002 0.287996 -1.0837e-19)
(1.70141 0.77408 0)
(1.27073 -0.876507 -9.92231e-22)
(-0.0745004 0.65288 0)
(-0.412566 0.57226 1.3551e-19)
(0.805647 0.719543 -1.10021e-19)
(0.822748 -0.158044 0)
(-0.144936 0.0168274 0)
(1.54993 -0.413425 0)
(-0.0335698 -1.28443 4.48278e-19)
(1.13816 -0.82456 2.39768e-19)
(1.1111 -0.552206 9.22267e-20)
(1.00351 -0.151146 -2.28582e-19)
(0.814107 -0.633732 -2.27702e-19)
(0.168821 -0.171205 0)
(-0.334955 0.457784 0)
(0.943668 -0.459366 2.41627e-19)
(0.024021 0.0729296 0)
(-0.212121 0.714561 0)
(0.117576 0.580829 2.26689e-19)
(0.863495 0.736928 9.55042e-20)
(1.09224 0.859819 0)
(0.765804 0.627927 -9.49075e-20)
(0.823675 0.0213132 -2.65611e-19)
(0.813937 0.632674 -2.54958e-19)
(0.649968 0.607718 -1.86396e-19)
(-0.0177661 0.0835053 4.93892e-22)
(0.66654 -0.595391 0)
(0.928947 0.230624 -3.75181e-19)
(-0.004435 0.109513 1.71675e-20)
(0.660611 0.613949 4.21453e-19)
(1.03582 0.865357 0)
(0.103579 -0.880167 4.46954e-19)
(-0.207347 0.00292535 8.69715e-20)
(-0.197437 0.115322 -4.27366e-20)
(0.733274 0.642503 -1.64309e-20)
(0.969754 -0.00575928 7.18173e-20)
(0.0167832 0.200381 0)
(2.0529 -0.12686 5.37549e-20)
(0.567108 -0.371134 2.42803e-19)
(0.598885 -0.551162 -1.00886e-19)
(0.173398 0.494023 1.48502e-20)
(1.26859 0.502255 2.10545e-19)
(0.94419 0.476563 0)
(1.00861 -0.143253 2.51386e-19)
(-0.219779 -0.0133144 1.3149e-23)
(-0.13395 0.193949 4.08803e-19)
(0.904157 0.0226615 -6.53348e-20)
(1.16667 0.160857 0)
(1.69522 -0.0253227 1.11211e-19)
(1.93588 -0.000435473 0)
(0.58522 0.356514 -5.14225e-19)
(-0.164083 0.153858 0)
(0.0324661 0.108037 7.43378e-20)
(0.662294 0.0923926 0)
(0.559835 -0.442833 -2.28489e-19)
(1.13004 0.0237006 2.5842e-19)
(-0.37184 0.833688 4.72431e-20)
(1.75416 -0.137656 -1.31289e-20)
(1.912 -0.168211 4.48133e-22)
(1.16541 0.262686 -2.5749e-19)
(-0.016153 0.125605 -3.48981e-20)
(1.00731 -0.791747 0)
(0.800567 0.0167699 -1.87854e-19)
(0.880137 -0.32126 -3.66681e-19)
(1.62795 -0.529476 1.07184e-20)
(1.58507 0.00576482 -1.58105e-19)
(1.10204 0.0027293 4.6156e-19)
(-0.186864 0.0189924 -3.68258e-20)
(0.943761 -0.385677 -1.67822e-19)
(0.175888 -0.168401 3.20804e-19)
(1.00838 -0.00451028 0)
(1.00485 -0.00285537 0)
(0.223348 -0.737943 -4.37256e-20)
(-0.0462407 0.51757 -1.0282e-19)
(0.207766 -0.105253 -4.77625e-20)
(0.977577 -0.278205 1.71811e-20)
(1.53246 -0.976199 0)
(2.32758 -0.434817 -7.03086e-20)
(0.881774 -0.763404 -1.45501e-19)
(1.69485 -0.512626 7.54312e-21)
(1.18925 0.902864 0)
(0.423019 -0.4005 0)
(0.673665 0.593491 -1.96069e-19)
(1.15509 0.315744 -4.70822e-19)
(2.07875 -0.201794 -8.54843e-23)
(0.888311 0.213138 1.61488e-19)
(-0.178832 0.0306583 -9.34758e-20)
(1.43052 0.506141 7.37246e-20)
(-0.19982 0.0405803 0)
(-0.0836205 0.0139232 0)
(-0.0136969 0.300845 0)
(1.26487 -0.670043 -1.75062e-19)
(-0.280988 0.424593 -2.3959e-19)
(-0.154804 0.205937 0)
(1.39011 1.04931 -4.0098e-20)
(1.16047 0.17874 -4.96635e-19)
(2.49779 0.228039 -5.22928e-20)
(1.16762 0.99633 9.65843e-20)
(-0.244053 0.529615 1.48613e-19)
(1.58411 0.189681 0)
(-0.0129862 0.377039 -1.49778e-19)
(-0.346028 0.575344 2.85447e-19)
(0.785148 0.0980617 2.1558e-19)
(1.6496 1.0124 -8.72115e-21)
(1.87296 0.921203 -5.22044e-20)
(-0.176591 0.342599 -1.57308e-21)
(0.68997 -0.627687 -5.22433e-20)
(1.22818 -0.0346478 0)
(1.77551 0.0527446 0)
(0.947847 0.0488304 0)
(-0.356863 -1.17667 -1.65581e-19)
(-0.0891009 0.234469 4.15476e-20)
(1.12937 0.91219 0)
(0.990339 0.0234073 6.2425e-19)
(0.837774 0.67572 -2.54626e-19)
(-0.638809 -1.34797 -1.04878e-19)
(0.869836 0.0724335 -4.88918e-20)
(0.660773 -0.598659 -2.96343e-19)
(1.48184 0.761099 -3.81763e-20)
(0.501684 -0.369637 -3.58636e-19)
(1.13628 0.00637474 -5.57115e-19)
(0.788125 0.0482742 5.65887e-20)
(1.44007 -0.161447 1.35488e-19)
(1.05878 0.182961 8.16079e-20)
(0.0175195 0.0374962 3.69332e-22)
(1.14606 0.524213 -3.08016e-19)
(1.46143 0.680274 8.37447e-20)
(-0.254016 0.0904143 0)
(-0.180003 -0.0268356 3.63448e-20)
(0.261989 0.666796 9.14747e-20)
(-0.152471 -0.140137 -3.89747e-20)
(0.54449 0.430526 0)
(0.610061 -0.201935 0)
(-0.036109 0.0421641 -1.48744e-19)
(-0.0598794 0.0738753 -1.82693e-20)
(1.05235 -0.0250439 2.20905e-19)
(-0.437195 0.944958 -6.16372e-20)
(1.82136 -0.828712 -3.30135e-19)
(-0.0118612 0.492822 0)
(0.773601 -0.68288 -4.27872e-19)
(1.2252 0.214583 -1.9047e-19)
(-0.526036 0.0886759 6.33711e-20)
(0.747269 0.239454 3.75341e-19)
(0.645995 0.241027 1.20372e-19)
(0.452099 -0.422962 2.55413e-19)
(0.0882924 0.120591 -4.18721e-20)
(2.03899 0.938388 0)
(0.460694 0.449724 -2.13135e-19)
(1.03215 -0.00840944 -3.51763e-19)
(-0.395987 0.660271 2.22114e-19)
(1.51358 0.510238 -1.42483e-19)
(0.0196544 0.0821041 -1.46321e-20)
(0.640728 -0.583336 -1.38088e-19)
(0.853611 0.249764 -2.36651e-19)
(1.03655 0.481082 2.62308e-20)
(1.11095 -0.110103 4.54762e-20)
(0.571643 -0.142149 -3.60746e-19)
(1.88026 -0.281147 6.08046e-20)
(0.46648 -0.0481583 0)
(2.17789 0.281365 -1.02512e-20)
(1.97586 -0.146234 1.8851e-21)
(0.241684 0.14651 5.24296e-21)
(1.10881 0.393964 -1.9888e-19)
(2.09683 0.259078 1.6627e-20)
(0.479684 0.462861 -2.77389e-19)
(0.215672 0.548911 2.44754e-19)
(1.66707 -0.0601956 0)
(0.950237 0.00938786 0)
(0.812545 -0.716344 8.9542e-20)
(-0.199043 0.0164995 -9.54796e-20)
(-0.0586835 0.205334 -2.96369e-19)
(0.0234083 0.0513474 -6.06459e-20)
(-0.10602 0.738597 -1.71719e-19)
(-0.330048 0.0876885 0)
(-0.0846153 -0.00623985 1.08842e-20)
(0.146293 0.306763 -1.00898e-19)
(-0.119137 0.120305 -4.1243e-19)
(0.779075 -0.0447366 0)
(1.1024 -0.0393812 -1.10376e-19)
(0.22055 0.398808 0)
(0.991025 0.0250799 4.49059e-19)
(-0.204169 -0.0141035 1.13018e-20)
(0.478973 -0.340715 4.80939e-19)
(-0.784432 0.24221 2.02967e-19)
(-0.758121 -0.851439 0)
(0.214096 0.42133 1.14874e-19)
(0.997986 0.0302519 -1.35571e-20)
(-0.0414056 -0.0526857 0)
(1.0045 -0.00728885 -6.94486e-20)
(0.797969 -0.667734 -3.95344e-19)
(0.770494 -0.526541 0)
(0.897239 -0.217652 2.61971e-19)
(0.228549 0.489431 2.26558e-19)
(-0.042311 -0.0294875 0)
(-0.143199 0.0198024 -1.57697e-21)
(0.666393 -0.572933 -5.48845e-19)
(0.931831 -0.0208371 -3.35601e-19)
(-0.21548 0.0301573 1.09983e-19)
(-0.0141285 0.0737842 4.43422e-20)
(-0.24393 0.0812065 0)
(1.02033 0.532336 0)
(-0.383202 0.0624977 5.56869e-20)
(1.29136 -0.144161 2.7256e-20)
(1.15978 0.968827 2.13631e-20)
(1.11079 0.245412 -1.46843e-19)
(1.10268 0.0123292 -2.88577e-19)
(0.981816 -0.0576221 -1.09537e-19)
(-0.172373 0.0186338 -1.02964e-19)
(1.66878 -0.0467624 1.82051e-19)
(0.713914 0.0436981 2.49351e-19)
(1.73989 -0.11223 -1.5162e-20)
(0.988956 -0.125871 0)
(-0.241294 -0.817517 8.83475e-20)
(1.14485 0.0285405 -6.08323e-19)
(1.86556 0.660863 1.65922e-20)
(0.684408 -0.385813 -2.0043e-19)
(-0.0913643 -0.082023 6.18257e-20)
(0.738085 -0.642861 5.14191e-19)
(1.30057 0.219089 8.92548e-20)
(1.0071 -0.00755128 3.07388e-19)
(-0.205261 0.00476026 -4.20423e-20)
(1.03759 0.0343485 0)
(1.98231 0.0675568 -5.22103e-21)
(-0.064906 -0.0390229 0)
(1.01095 0.0179134 -1.8315e-19)
(-0.34344 -1.01382 -4.77239e-19)
(1.87166 0.329353 4.52298e-20)
(0.183519 0.693753 1.3596e-19)
(1.69153 0.0640906 5.67263e-21)
(1.01778 -0.0140109 6.36805e-20)
(1.21068 -0.0861022 0)
(1.36439 -0.56365 -2.66742e-19)
(1.03398 0.0572729 -1.87248e-19)
(1.54545 0.848373 -7.05082e-20)
(1.22347 -0.0526474 0)
(1.02968 -0.475771 3.50941e-20)
(-0.04385 0.0494005 0)
(1.23632 0.0506273 0)
(-0.0383233 0.182986 0)
(1.31833 0.49442 0)
(2.08059 0.220434 5.00844e-20)
(0.81182 0.683903 4.4651e-19)
(0.263515 -0.263679 -3.02503e-19)
(-0.0552096 0.0675 -1.06022e-19)
(-0.0310822 0.00483591 0)
(1.71931 0.0549537 -8.33403e-20)
(1.49665 0.563501 0)
(1.56887 0.308908 0)
(-0.0950903 0.408627 6.51068e-20)
(0.878832 0.777144 1.45088e-19)
(1.54648 -0.0117553 0)
(0.106569 0.19768 2.91494e-20)
(0.947796 0.278668 2.19955e-19)
(1.02311 0.067232 1.10048e-19)
(1.33684 0.997409 5.24805e-20)
(0.858766 -0.770816 -7.06529e-20)
(0.675309 0.0244389 1.1654e-19)
(0.865098 0.781584 1.49289e-19)
(1.27162 0.997214 0)
(1.55341 -0.432823 -3.21873e-21)
(0.531599 -0.793453 0)
(0.823675 0.319212 -1.38294e-19)
(1.20862 0.116077 2.15366e-19)
(1.00593 -0.000940845 0)
(-0.213947 -0.906353 1.32434e-19)
(0.860636 -0.113247 5.90871e-20)
(0.573452 -0.330013 0)
(0.617093 -0.302488 2.58958e-19)
(1.32266 0.606782 -3.88078e-20)
(0.528297 0.501699 3.06875e-19)
(-0.15505 0.175414 5.02838e-20)
(0.344232 -0.0583548 1.09093e-19)
(0.728151 0.0612978 0)
(1.24978 -0.839929 -1.89058e-19)
(1.04253 -0.0414371 4.90046e-19)
(1.67302 0.350146 1.57363e-19)
(0.118962 0.2432 2.49202e-20)
(-0.781888 0.274338 0)
(1.17045 -0.210661 -1.54751e-19)
(-0.0368229 -0.0210626 -4.94449e-20)
(-0.463552 -0.458525 -3.68333e-21)
(-0.162088 0.0741609 -1.0188e-21)
(-0.240784 0.127295 3.36475e-19)
(0.412064 0.665797 9.1857e-21)
(2.03507 -0.124042 -7.20097e-20)
(1.2703 0.498686 -3.39565e-19)
(0.954892 -0.0693762 0)
(1.82626 0.022996 1.42156e-19)
(1.67015 0.0627107 -3.61373e-20)
(0.847217 -0.706891 1.99504e-19)
(1.08542 -0.908692 -1.07483e-19)
(0.531373 0.495686 2.06858e-19)
(0.683965 -0.627372 0)
(1.891 0.601104 2.69242e-20)
(-0.0424999 -0.0164681 -1.00962e-19)
(0.958699 0.837732 0)
(1.52818 0.806027 0)
(0.262283 -0.260388 -3.37633e-21)
(0.39046 0.405031 0)
(-0.991276 0.141362 -2.82403e-19)
(-0.327675 0.385969 -1.38784e-19)
(1.66079 -0.38436 0)
(1.30644 0.0499786 2.34601e-19)
(0.0911823 0.358326 2.47701e-19)
(0.48538 -0.457822 -5.97549e-19)
(1.70515 -0.0420395 9.3079e-21)
(0.559641 -0.503496 0)
(1.08204 0.145652 0)
(1.33394 -0.207363 0)
(1.17227 0.26397 -2.77755e-19)
(1.40709 0.115233 3.96852e-19)
(-0.4078 -0.744323 0)
(0.837152 -0.0476026 0)
(1.49019 -0.135368 1.29967e-20)
(-0.169979 0.236496 1.13613e-19)
(2.1103 -0.36767 -1.38593e-19)
(1.02926 -0.465414 4.6634e-20)
(1.43006 -0.144648 -7.27457e-20)
(-0.239915 0.4922 -1.83209e-19)
(1.91978 -0.0070359 -1.1514e-19)
(1.01235 -0.00460888 5.08246e-19)
(1.6268 0.639005 0)
(-0.362378 0.58124 3.77183e-20)
(0.935818 -0.769542 2.63236e-19)
(0.851565 0.0426095 5.71456e-20)
(0.57546 -0.354773 0)
(1.7893 -0.471027 -1.14434e-20)
(1.15279 -0.169728 2.0931e-19)
(0.299184 -0.0722712 0)
(0.560006 -0.518051 6.23338e-19)
(1.41334 0.198292 3.98966e-20)
(2.08544 -0.437788 3.29268e-19)
(-0.195766 0.292376 -2.35611e-19)
(1.42568 0.670322 1.7509e-19)
(1.22059 0.452112 4.25265e-21)
(0.960287 0.43623 2.57047e-19)
(1.27382 -0.167707 2.81105e-20)
(-0.169299 0.0210952 4.19134e-22)
(0.306335 0.0329955 0)
(-0.122164 -0.0992917 1.01223e-19)
(1.02383 -0.885949 0)
(0.996116 -0.597031 3.05264e-20)
(0.363012 -0.0921284 6.35178e-20)
(0.0614367 -0.0121414 -7.61282e-20)
(-0.401641 0.314624 -1.67628e-19)
(1.05682 0.542374 1.99352e-19)
(-0.125518 -0.775912 1.82754e-19)
(0.714932 -0.041763 0)
(0.645652 -0.182857 0)
(1.98424 -0.0275836 -3.41296e-21)
(0.752262 -0.0128001 0)
(1.29389 -0.185687 -2.15377e-19)
(-0.610177 0.338487 4.85522e-19)
(2.0478 0.518727 9.41167e-22)
(1.06374 -0.030546 0)
(0.495674 -0.259756 1.29918e-19)
(1.00713 0.0268264 2.40687e-19)
(0.498492 -0.812174 -1.5231e-19)
(0.0330538 0.722024 0)
(1.04666 -0.430536 6.71324e-19)
(0.991196 0.11129 1.10467e-22)
(1.03892 -0.444507 -2.91654e-19)
(2.43805 0.096614 1.59904e-19)
(1.38133 0.855835 0)
(0.894351 0.0268758 0)
(0.0812191 0.296862 -7.23413e-20)
(-0.0391661 0.044933 1.67411e-19)
(1.0076 0.421429 -2.38918e-19)
(-0.148899 -0.00489666 -2.59296e-20)
(0.707139 0.494315 2.69449e-19)
(0.923692 -0.322447 0)
(0.492577 -0.457112 0)
(0.00990381 1.09174 -1.695e-21)
(1.16158 -0.458254 -1.43523e-19)
(0.756859 0.0338237 3.58207e-21)
(0.715772 -0.0722702 1.41394e-19)
(-0.134363 0.18119 -2.99764e-19)
(1.76915 -0.205199 2.81966e-19)
(0.7249 0.676908 0)
(1.36272 0.751707 0)
(1.70461 0.266454 0)
(-0.232796 0.164243 -5.41214e-20)
(1.39751 0.632411 2.28379e-19)
(1.83103 0.0105083 -9.0823e-21)
(0.99438 -0.0183804 0)
(1.41738 0.411813 0)
(1.93064 -0.0922117 -1.48599e-19)
(0.647851 -0.413044 1.86567e-19)
(1.00498 0.00826273 -2.40285e-19)
(1.60067 0.525003 0)
(0.0597429 0.663048 0)
(1.31412 0.350263 3.40395e-19)
(1.09471 0.585185 -1.49131e-19)
(1.08488 0.0377142 0)
(0.930467 -0.306148 0)
(2.19008 0.714259 -3.23546e-19)
(-0.176949 0.403644 -7.26444e-22)
(0.992971 0.0175778 0)
(0.773114 0.553527 -3.73365e-20)
(0.870369 -0.7646 0)
(0.999017 0.0198099 5.60388e-20)
(0.150924 0.432887 -5.60515e-20)
(0.858818 -0.266803 3.88302e-19)
(0.304125 1.04488 9.02017e-20)
(1.95507 -0.0918265 -7.12759e-20)
(1.9409 0.132477 1.00421e-20)
(0.753451 -0.022572 0)
(0.993876 0.0162765 0)
(-0.563753 0.19924 0)
(0.728064 0.697564 -2.12702e-19)
(-0.104921 0.130607 2.0227e-19)
(1.23513 0.391288 -5.45406e-19)
(-0.336719 0.924374 0)
(0.90183 0.712992 1.88609e-19)
(0.958108 -0.280508 0)
(1.00559 0.00183066 1.40478e-19)
(-0.100403 -0.630092 -5.81095e-22)
(1.09966 0.454062 2.96328e-19)
(1.7454 -0.00367275 0)
(2.23886 0.0734553 -5.93498e-20)
(0.812224 -0.0461923 -4.37609e-19)
(-0.849477 0.125808 -3.83061e-19)
(0.78055 -0.513299 0)
(0.920604 0.30212 2.01372e-19)
(1.74314 -0.119863 0)
(0.842901 0.595063 4.06142e-19)
(-0.707475 0.215961 1.94457e-19)
(-0.127002 0.16629 0)
(0.65029 0.619881 -7.91445e-20)
(0.962304 -0.58343 -2.12316e-19)
(0.421791 -0.136885 -1.45002e-19)
(1.01788 0.000445704 0)
(0.222427 0.411853 -2.29882e-19)
(0.579584 -0.507059 1.02966e-19)
(0.953778 0.348762 0)
(1.19277 -0.21508 -1.15892e-19)
(1.06429 0.907418 2.76704e-20)
(-0.213115 0.722445 3.00037e-20)
(0.0527419 0.137642 -6.23713e-20)
(0.174965 0.15435 -6.33297e-19)
(-0.0283213 0.0522202 2.63727e-21)
(0.875981 0.427632 2.79554e-19)
(-0.303298 0.452332 -5.97141e-21)
(1.33198 -0.595776 2.92849e-21)
(1.01888 0.0277337 -4.19922e-19)
(-0.400052 0.196634 0)
(1.04478 0.0546313 -4.89414e-19)
(1.731 -0.239913 -2.33744e-20)
(0.962081 0.757811 3.17979e-19)
(1.10963 -0.0516058 2.00585e-19)
(0.997285 -0.00415961 1.94271e-19)
(0.212705 -0.043955 7.45392e-20)
(0.175579 0.257989 1.55991e-21)
(1.64365 -0.805319 1.4063e-20)
(1.05799 -0.116785 -1.11099e-19)
(0.735509 0.0472971 1.28947e-19)
(0.869352 -0.238245 1.11243e-19)
(1.78244 0.203184 0)
(1.03943 0.802163 0)
(0.154472 -0.498838 6.92836e-22)
(2.04723 0.199379 -1.46299e-20)
(-0.751068 0.295599 1.49913e-19)
(0.97027 -0.483549 -6.92157e-19)
(0.556784 -0.466736 4.86752e-19)
(1.71343 0.0650993 -1.42533e-19)
(-0.223251 -0.0146197 3.5401e-21)
(0.132848 0.812546 0)
(0.768176 0.195322 -7.80884e-21)
(0.209288 0.313334 2.86098e-19)
(1.12022 0.827669 0)
(-0.0637829 0.493467 0)
(0.713339 -0.0165021 0)
(0.0529196 0.106106 -1.77028e-20)
(-0.107035 0.168609 0)
(1.48642 -0.342796 2.10978e-19)
(1.27743 0.202966 7.65439e-21)
(-0.544133 -1.35222 1.77011e-19)
(2.11086 0.792661 1.53632e-20)
(1.96449 0.464801 -6.25814e-20)
(1.9736 -0.267211 2.51503e-21)
(-0.206666 0.0339514 -2.36208e-19)
(-0.196707 0.0125658 1.17544e-21)
(1.77655 0.169556 0)
(0.691978 -0.0355734 0)
(1.00077 0.0022045 1.83832e-22)
(-0.287299 0.196029 0)
(1.33519 0.00788435 8.81376e-20)
(0.689299 -0.0315398 0)
(1.03125 0.018758 1.61335e-19)
(0.987195 0.0178923 -5.47305e-20)
(1.72792 -0.218557 1.73878e-19)
(1.0773 -0.00910193 -1.12021e-21)
(0.914635 -0.144951 -6.67556e-20)
(1.01496 -0.0101789 4.53367e-19)
(0.611595 -0.545591 2.35367e-19)
(-0.549631 -1.47634 -1.83574e-19)
(1.77133 0.814333 1.72189e-20)
(-0.047923 0.0640532 0)
(1.21085 0.860481 0)
(1.01659 0.016484 0)
(0.93738 -0.713921 -1.53308e-19)
(0.97121 -0.830966 1.15683e-19)
(1.33595 0.432413 5.3415e-21)
(-0.753017 -1.00663 -1.73492e-19)
(0.0563869 0.846777 1.12644e-20)
(0.525098 -0.29434 -7.6764e-19)
(1.9995 0.600724 -1.07568e-20)
(0.676416 1.06473 2.46255e-20)
(1.91587 -0.228228 -3.05189e-20)
(0.873639 0.263318 4.50675e-20)
(0.0892988 0.158123 -4.03042e-20)
(1.1876 0.609549 2.27651e-19)
(-0.286122 -0.0637677 0)
(-0.121076 -0.0528402 6.5728e-20)
(-0.129335 -0.0419291 9.99209e-23)
(1.03262 -0.0417353 4.01676e-19)
(1.01756 0.018111 -1.04146e-20)
(1.11364 -0.00605632 -1.11072e-19)
(0.49261 -0.484396 1.2038e-19)
(1.73537 0.331449 7.35943e-20)
(0.348482 -0.320423 -3.86904e-19)
(1.35238 0.108805 -2.35919e-20)
(1.02355 0.0200046 -2.98826e-19)
(1.83378 0.613462 -1.77379e-20)
(0.781404 -0.371448 0)
(1.1884 0.647371 -4.26702e-19)
(1.00278 -0.00123364 1.14637e-19)
(0.744272 0.672803 2.88089e-19)
(0.390715 0.868119 -2.08725e-22)
(1.08517 0.00104976 -3.64276e-20)
(1.14182 0.0231002 1.03477e-21)
(2.17779 -0.267546 1.33802e-20)
(0.561398 0.211701 0)
(1.04636 -0.0383469 0)
(1.04899 -0.0334773 7.02843e-19)
(1.00261 -0.00111142 0)
(-0.0617605 -0.00426535 0)
(0.919657 -0.538277 0)
(1.00088 0.00127191 -6.66886e-19)
(1.08652 -0.625845 1.30416e-19)
(1.02122 0.00383644 1.40885e-20)
(1.44753 1.02651 -3.23177e-20)
(1.64452 1.07717 1.29214e-20)
(0.196953 0.859358 -2.28851e-20)
(0.970967 -0.313562 -2.6861e-21)
(2.05077 0.118472 0)
(-0.00730654 0.402754 0)
(1.69195 -0.105241 -5.38292e-20)
(0.0468435 0.0843536 0)
(0.999543 -0.00407765 -2.05672e-19)
(1.01052 -0.00090893 4.00002e-19)
(1.51353 0.147262 -8.37006e-20)
(0.031131 -0.108177 8.35488e-20)
(0.984645 0.00276313 2.1763e-19)
(0.563964 -0.268648 2.19583e-20)
(2.20621 0.0881463 3.55007e-20)
(0.356771 -0.493376 1.1082e-21)
(0.920578 0.0196185 -2.21488e-19)
(1.00339 0.00501028 2.59322e-19)
(1.00002 0.000376445 1.53023e-20)
(0.790329 -0.0129974 0)
(0.73197 -0.0263592 0)
(0.729242 -0.0268126 8.70713e-22)
(0.70769 -0.0292857 0)
(1.04023 0.205247 0)
(1.79791 0.216982 0)
(2.147 0.00130654 -1.44592e-21)
(2.31695 -0.0492538 2.54407e-21)
(1.47635 -0.390508 0)
(0.459175 -0.187037 -4.61592e-20)
(-0.106534 0.0183234 0)
(0.429078 -0.0268241 0)
(0.000231588 0.0611912 0)
(-0.0389869 0.112973 -1.34931e-20)
(1.30044 0.303831 -8.1338e-20)
(0.769827 0.0244644 0)
(0.782993 0.0198333 0)
(0.961356 0.0227232 -2.72586e-19)
(0.813349 0.00770541 5.05649e-19)
(1.00856 -0.00130692 0)
(1.0003 -0.000430345 4.78944e-19)
(1.00028 -0.000449708 -2.46676e-22)
(0.780322 0.0224531 4.33099e-19)
(1.00098 -0.00430951 -2.49852e-19)
(0.76317 -0.261914 0)
(2.06325 0.112054 -3.5534e-20)
(1.00081 -0.000369841 -2.41679e-19)
(0.999836 0.00243114 -4.15427e-19)
(0.527004 -0.364499 0)
(0.998956 0.00188454 0)
(0.999698 0.000553785 0)
(0.74645 0.712419 -2.24151e-20)
(0.318284 0.98571 1.21622e-21)
(1.724 0.659221 0)
(-0.384562 0.693755 2.87701e-19)
(-0.316552 -0.990316 -1.3273e-19)
(1.02234 -0.00562061 -3.22941e-19)
(-0.0650721 0.103588 -3.63834e-20)
(1.01642 0.0157515 -2.60655e-19)
(1.10224 -0.194048 -1.60903e-19)
(0.74264 -0.405324 3.83008e-19)
(0.0039604 0.0362523 -2.43156e-20)
(1.02507 0.0213863 0)
(1.08298 -0.00628111 -7.00598e-20)
(0.836592 0.0300579 0)
(-0.106027 0.13613 2.95021e-19)
(-0.265178 0.0954483 0)
(-0.132135 0.236859 -1.11765e-19)
(0.538409 -0.0591112 -6.64318e-21)
(1.77999 0.725712 -2.18263e-20)
(-0.0761396 0.0131505 0)
(1.05383 -0.0365278 2.17462e-19)
(0.198168 0.9466 1.28771e-21)
(0.931287 0.0350548 3.38046e-19)
(1.01492 -0.00136407 -2.19676e-19)
(1.80167 0.920843 3.62695e-20)
(0.582395 0.552327 0)
(0.514408 0.493385 2.23045e-19)
(1.34534 0.483977 1.57306e-20)
(1.1983 0.145908 2.30775e-19)
(1.01896 -0.653777 0)
(1.02528 0.0136684 0)
(1.00115 -0.0153005 -5.04879e-19)
(1.01667 0.0217201 -4.94829e-19)
(-0.0612553 0.0429076 0)
(1.31274 0.887685 -1.51497e-19)
(0.381973 0.741955 2.22164e-22)
(1.01637 0.0124999 1.90132e-19)
(1.01081 0.0179273 -2.38536e-19)
(-0.180509 0.405745 -1.27084e-20)
(0.458521 1.0749 -3.4353e-20)
(1.02117 -0.0068941 8.09851e-19)
(1.05843 0.504685 0)
(2.01354 0.686788 -4.27068e-20)
(1.01731 -0.00358056 -2.52529e-19)
(1.8889 -0.0159558 1.29148e-20)
(1.07376 0.018637 -5.80482e-22)
(1.0097 -0.00645126 5.03609e-20)
(1.83638 -0.138267 3.04352e-20)
(1.01569 0.0107075 2.45477e-19)
(1.21789 1.22256 -8.93588e-21)
(1.01763 0.0144871 0)
(0.965641 0.199094 5.81365e-20)
(-0.870735 -0.918624 3.33445e-21)
(0.996197 0.0239694 2.43823e-19)
(1.03904 0.0224267 -5.29686e-22)
(0.437511 0.826394 5.57992e-21)
(1.33622 0.347656 4.91941e-19)
(0.991989 0.0217454 1.68153e-19)
(1.01872 -0.0072257 5.32933e-22)
(1.86749 0.237496 -2.99189e-20)
(1.94865 1.03279 -1.18363e-19)
(0.716996 -0.641085 8.32071e-20)
(0.386895 -0.217118 -3.67624e-19)
(1.00975 -0.00553761 0)
(1.01929 0.00834346 6.09413e-20)
(1.01184 -0.00302504 1.2826e-19)
(0.7844 1.05357 -9.53146e-22)
(1.0132 0.0145725 -2.55594e-19)
(1.02071 -0.00675941 2.9456e-19)
(1.00974 -0.0024866 -2.39631e-19)
(1.0141 0.0133768 -5.5485e-22)
(1.01317 0.00972783 -3.9586e-22)
(1.02173 0.0217174 2.44986e-19)
(0.920054 0.142544 6.00971e-19)
(2.09835 0.18042 0)
(-0.0113707 -0.250668 2.11399e-21)
(1.00919 0.00476014 0)
(1.02514 -0.00520358 -7.0837e-20)
(1.63456 0.466654 -1.04172e-19)
(1.71849 -0.13281 0)
(1.22034 -0.139473 8.70555e-20)
(1.43954 -0.104159 -4.5912e-20)
(0.808478 -0.0219552 0)
(1.52942 -0.113092 0)
(0.633147 -0.274119 -2.64129e-19)
(0.273696 0.1828 4.69748e-21)
(1.01795 0.00526866 -2.57246e-19)
(1.0526 -0.512297 -8.39146e-20)
(0.548621 0.911725 5.00916e-21)
(1.38088 1.1487 0)
(0.705801 0.810608 0)
(2.34415 0.22762 0)
(0.0334185 0.249131 1.01725e-19)
(0.805198 1.11 9.79634e-20)
(-0.0454518 -0.664171 0)
(0.280789 0.44876 -2.87604e-19)
(1.82883 1.03601 -5.32644e-20)
(1.00671 0.00296117 -5.02942e-19)
(0.585516 0.926654 1.58311e-20)
(1.01978 0.0230464 3.33527e-19)
(0.721275 -0.0471259 0)
(-0.122119 0.0110426 -7.60432e-21)
(0.679785 0.522419 -3.8063e-19)
(1.97496 0.178928 1.91341e-19)
(0.203025 0.386095 0)
(0.733507 0.071252 1.07354e-19)
(0.57598 0.554355 5.74677e-20)
(1.27761 0.953915 -4.0877e-20)
(-0.0734958 -0.059145 3.79416e-20)
(1.02726 0.029123 0)
(1.07021 1.07446 -6.00031e-21)
(1.01143 0.00579529 1.88677e-19)
(2.32455 -0.166933 0)
(1.0106 0.0146183 3.1668e-19)
(-0.0834767 0.0109633 -2.85752e-20)
(1.01941 0.0209118 -1.96096e-19)
(1.57587 0.994285 0)
(1.92442 -0.286318 -1.19487e-22)
(1.00885 0.0098056 -1.31395e-19)
(0.996128 0.00357192 3.45965e-19)
(1.13448 0.120895 -4.04712e-21)
(1.57499 1.08538 7.52491e-20)
(-0.11513 -0.114965 1.04324e-19)
(2.22608 0.219316 1.90917e-19)
(0.726587 1.1654 -8.92168e-20)
(0.797502 0.0144241 -4.75076e-19)
(0.836955 0.0330022 0)
(0.471355 1.09407 -1.09458e-20)
(1.02691 0.000552796 -3.80364e-20)
(0.971642 0.0612355 0)
(1.05903 0.0101065 -2.40818e-19)
(0.462164 0.890057 1.0117e-19)
(-0.89111 -0.208833 1.32707e-19)
(2.02657 -0.501667 0)
(-0.110444 -0.908766 -7.77299e-19)
(1.42396 -0.312745 0)
(1.04291 -0.0135569 7.06754e-20)
(1.08154 -0.561554 -3.8607e-21)
(1.01124 0.00959458 2.04408e-19)
(-0.147145 0.16874 5.09789e-19)
(1.02029 0.011499 0)
(0.993949 0.00377527 -4.87858e-19)
(1.00762 0.0130411 2.59645e-19)
(1.93619 -0.327299 0)
(1.21776 -0.548457 1.9423e-20)
(0.956378 -0.00103135 -2.21555e-19)
(-0.0981369 0.0526303 1.13619e-19)
(1.00349 0.00214262 -2.53092e-19)
(0.997895 0.0504312 -5.94678e-19)
(1.54724 -0.547684 -4.05966e-20)
(0.0961946 0.121671 -3.21967e-20)