/*--------------------------------*- C++ -*----------------------------------*\
| =========                 |                                                 |
| \\      /  F ield         | OpenFOAM: The Open Source CFD Toolbox           |
|  \\    /   O peration     | Version:  2306                                  |
|   \\  /    A nd           | Website:  www.openfoam.com                      |
|    \\/     M anipulation  |                                                 |
\*---------------------------------------------------------------------------*/
FoamFile
{
    version     2.0;
    format      ascii;
    arch        "LSB;label=32;scalar=64";
    class       volScalarField;
    location    "16.1";
    object      p;
}
// * * * * * * * * * * * * * * * * * * * * * * * * * * * * * * * * * * * * * //

dimensions      [0 2 -2 0 0 0 0];

internalField   nonuniform List<scalar> 
2186
(
0.781632
-0.369142
-0.0616838
1.06958
-0.844871
-0.0595382
0.665689
-1.04588
-1.08407
1.32562
1.06928
-0.964697
-1.04877
1.0266
-0.598745
1.03451
1.05772
-1.29401
0.00116729
-0.790565
1.43103
-0.767624
1.03757
-1.05171
1.02843
1.04421
1.25003
0.893845
0.612473
1.02868
-0.778807
1.0283
-0.720596
-1.1613
-0.968264
0.137166
-1.06342
1.42101
-0.763488
-0.100057
-1.06028
-0.757887
-0.711266
-0.862475
0.918767
1.30923
0.332256
0.504065
-1.64983
-0.94505
-0.783114
0.915998
-0.70728
1.35519
-0.729367
0.944705
-0.760974
0.972602
-0.874826
0.819851
-0.969923
0.648261
0.57227
-0.0972257
0.584442
0.445005
0.687745
1.31836
1.21356
-1.12381
-1.05216
-1.04906
1.28473
1.00011
1.20379
1.15734
-1.31647
1.05171
-0.972573
-0.707874
-1.66086
-0.157779
1.02324
0.635406
1.01588
1.02417
1.32692
-0.0308839
-0.163147
-0.986054
0.947623
-0.785602
0.935883
1.18168
1.03742
0.440122
-0.187243
0.599898
-0.916926
0.987089
-2.03488
-1.95009
0.6568
0.961604
1.05927
-0.772742
1.24559
-0.838553
0.933855
-1.68109
-0.675237
-0.879808
0.529493
1.35402
-1.02824
-0.936796
-0.17725
-1.71807
-0.987484
1.28596
0.00618206
-1.14014
0.875934
-1.54354
1.03905
-0.159081
-0.867316
1.14962
-1.35698
0.64618
1.3997
1.24481
0.221373
0.638072
-1.7481
-0.968226
0.91522
-1.1139
-0.708307
-1.00361
0.820222
-0.236528
-1.02871
0.690848
0.924476
0.965783
-0.761366
-0.865499
0.601245
-0.824686
-0.818731
0.567371
1.05497
1.18939
1.04661
0.514778
1.32443
0.443942
0.345576
0.407375
-1.0043
-1.36233
1.01
0.990482
-0.0100764
-0.000594208
-0.891253
-0.932251
-0.237112
-0.257689
0.380967
0.99342
1.05835
1.11346
0.448883
-0.359433
-0.851674
1.01054
-1.64876
0.880751
-0.926825
1.04272
-0.782309
0.567246
0.552767
-0.889187
-0.798258
1.16488
-0.61088
-1.03398
-1.04309
1.28708
-1.71261
0.984444
-0.999379
-1.55992
0.114045
1.2067
1.09897
-0.774953
-1.1533
-1.05752
0.0620303
1.05789
-0.985746
-0.826715
-0.980502
-1.46349
0.977482
-1.33569
0.508348
-0.22083
1.34027
0.848111
0.94467
0.950006
1.21711
1.03148
0.894034
1.13136
0.35921
-0.876319
-0.751116
0.123724
0.17058
-1.30466
-0.858039
1.06705
1.15195
-0.944838
-0.912874
-2.08529
0.35566
0.6462
0.791742
0.894895
1.12377
-1.73588
0.885573
-1.01628
-0.959127
-0.922666
1.02705
0.750406
1.18436
1.20446
1.14303
1.12103
-1.04206
0.820261
1.14427
-1.06653
1.01385
0.797634
-2.15701
-0.99374
-0.968176
1.18605
1.05593
-1.05848
-1.3166
-0.596129
0.953446
-1.66541
0.771848
1.10009
0.875395
-1.03613
-0.781571
1.00462
0.640751
-0.762386
-0.611568
1.37996
-0.828061
-1.04114
0.853369
1.19272
1.01726
-0.906749
-1.11968
-0.951158
0.939252
-1.07612
0.53475
1.00261
1.03048
-0.232775
-0.601625
0.994266
-1.10018
0.93484
1.20285
1.05159
1.0492
-0.799039
-0.919093
-1.05375
-1.098
-1.97381
-1.77144
0.364576
-0.598357
0.630671
1.1779
1.24242
0.943282
-0.795116
1.17476
-1.21839
-0.288473
-1.21865
-1.00233
-1.04054
0.336998
-0.818301
-0.804452
0.194027
0.954194
-0.371681
0.408023
-0.866453
-0.14781
-1.01393
-0.859723
1.24857
0.0155321
-0.0917123
-0.772149
0.784142
0.56741
-0.4802
0.520872
-0.906389
-1.07784
0.683348
1.05422
1.1058
-1.42287
1.18113
0.886899
0.399516
1.25633
1.03053
0.959495
0.348223
-0.353183
-1.01088
0.894785
-0.87218
-0.966307
-1.25768
-0.83678
-0.99047
1.40565
-0.634788
-0.782074
-1.07598
1.03026
-0.834224
-2.09757
-0.904881
0.754922
-0.179867
-1.4934
1.28919
1.35116
1.13301
-1.03439
-0.117902
1.42144
1.03423
-1.09128
0.472331
-1.02376
0.15582
1.2123
1.01427
0.890406
1.32384
-0.567731
-0.456045
-0.332067
-0.909512
-1.56368
-0.761043
-0.196368
1.3501
-1.39952
-1.37061
1.02165
0.574629
-1.00231
-1.81758
-1.0152
-1.15823
-1.32897
-0.994252
-0.752122
-0.820587
1.21528
-0.456941
-0.900775
1.0448
-1.33722
1.27541
-1.56809
-1.92987
-0.915863
1.02819
-0.933288
1.05459
0.845666
-1.06986
1.05926
-1.18946
-0.994236
-1.1665
1.0157
0.964762
-1.04742
-1.03035
-1.2407
1.01327
-1.50858
-1.81485
0.536106
0.976723
0.894678
0.709998
-1.06356
-1.09018
0.850654
-1.06352
0.820971
-1.73582
1.05033
-0.0131505
1.14212
-0.988728
0.850572
0.721988
1.06174
-1.18779
1.02863
-0.798961
-0.992959
1.03111
-1.83078
0.13876
-0.876132
-0.183155
1.03704
0.0645246
0.275214
1.03628
0.267122
-0.20379
-0.115005
-0.78257
0.217345
-1.08167
0.725858
-0.655243
1.10451
1.14151
-1.05984
-1.00035
-0.451761
-0.767834
0.442033
-1.02099
0.862179
-0.096788
-1.04029
1.13265
-0.384598
0.399994
0.282413
-0.219723
0.824523
0.372622
-0.966626
-1.58445
-0.198498
-0.687114
1.04723
-1.7662
1.12985
1.24205
1.22971
0.676056
1.20381
-0.826682
-0.680601
0.916981
0.202082
1.02219
-0.755959
-1.02451
-1.78405
0.801474
-0.994346
-1.95408
-0.788235
-0.827825
0.00444709
-1.16776
0.76116
0.726857
-0.755636
-0.949737
0.746327
0.0575402
1.17258
-1.75794
-0.152457
-0.996176
0.78751
-0.168168
1.18215
1.43658
-1.81721
-0.839025
-0.882585
0.297517
-1.83106
1.04266
-0.981863
0.997435
0.780781
-0.99291
0.898315
0.858883
-1.9404
0.893581
-1.13793
-0.78834
-1.43759
-0.95277
-1.1336
-1.57424
-0.906915
1.03016
0.238983
-0.852571
0.583063
1.17713
1.22726
-0.389017
0.75927
-0.307398
0.773845
-0.188737
-1.64079
-0.795811
0.521492
0.841121
1.09542
-1.74286
-1.07976
-1.50395
-0.996186
-0.134678
0.728191
-1.98615
0.0246765
-1.25308
0.973362
-1.2125
0.984969
-0.794958
-0.671578
0.972463
0.660161
-1.69768
-0.148393
0.995658
1.31057
1.05307
-1.01811
-1.36937
0.802147
-0.657606
0.78961
-0.619634
0.470845
0.992531
-1.02278
-0.782202
1.05388
-1.24505
1.28023
-0.174777
0.876679
0.18298
0.620949
-0.811281
1.26208
-0.785845
-1.76683
0.993965
0.547512
0.515825
-1.20859
-0.779625
-1.0398
0.799096
-0.209629
-1.03938
-1.17252
1.04736
0.412403
-1.20098
0.769492
0.924402
1.01555
-1.84322
-0.70465
-0.784764
1.04389
1.21332
0.482165
1.0402
0.0865238
1.07055
0.185753
-0.944272
-0.508828
0.945278
0.993787
-1.65252
0.882499
-0.789885
0.834135
-0.929089
1.0347
0.965417
1.04788
-1.74174
0.955953
-1.64343
-0.860163
1.19463
-1.91595
-1.60276
1.15185
-1.34283
1.14227
-1.84265
-0.796435
1.07947
0.780346
1.38168
1.02916
-1.62936
1.09139
1.12111
-0.798451
0.666768
0.0730092
-0.923442
1.52427
-1.01401
1.17203
-0.825566
0.289291
1.0294
-1.29302
1.02121
-1.58172
0.957382
0.973816
1.04308
0.0223378
-0.994249
-0.637354
0.579308
0.663001
1.08467
-0.231404
0.86024
-1.86731
-0.427395
-1.60417
0.837158
1.15704
-0.948218
-1.11721
-0.108881
1.27144
-0.114487
0.765887
-0.0810936
-2.07054
-1.03566
-0.788139
-0.991086
0.829381
-1.81152
-0.182095
-0.282153
-0.615271
-0.805886
-1.23157
-0.296725
1.0013
1.05071
-1.22479
-0.502746
1.01524
0.959492
1.04915
-1.95083
1.014
1.07698
1.0244
1.06709
-1.51975
-0.238267
-0.78334
0.649814
1.03039
0.704584
0.140197
-0.215098
-1.79214
0.0573558
1.27694
-0.207225
0.241952
-0.739901
-0.190139
-1.04168
0.817515
-0.951442
-1.3933
-0.988262
1.03227
1.03163
1.04295
-0.0431911
0.36458
1.25082
-0.229491
1.02629
-0.234373
-0.0826663
0.793541
1.04956
1.12976
-0.0335959
1.00935
1.00752
-1.35868
-0.217319
1.043
1.05499
1.05203
-0.999215
-1.03375
1.05136
0.606316
1.03282
0.245249
-0.0845421
0.108175
-1.68568
-0.441174
-0.793104
-1.64016
-0.293523
1.05709
1.06218
0.781085
-1.00241
1.0326
-0.250262
-0.274586
-0.0213288
1.02931
1.05589
1.05239
1.06531
1.04314
1.03671
1.0271
-0.132893
-0.268976
-0.100977
-0.189751
-0.0170232
0.0111378
-0.00570632
-0.123589
-0.205896
-0.244479
-0.168642
1.02359
1.04447
1.03847
1.06198
1.06026
1.05202
1.05532
1.03398
1.04082
-0.182842
-0.234033
1.05306
1.05139
-0.026246
1.05372
1.05248
-0.0942227
0.120473
-0.254906
-0.819696
-1.56258
1.03554
-1.10304
1.03141
0.630598
1.08964
-1.01074
1.03199
0.977968
0.974731
-0.779395
-0.126846
-1.11434
-0.250244
-0.00891913
-0.776212
1.0489
0.0681167
1.12338
1.03979
-0.135638
1.22092
1.3721
-0.209278
0.90834
0.663809
1.03147
1.04992
1.04139
-1.0146
0.517941
-0.0285604
1.03851
1.04703
-1.07268
0.0859903
1.03958
-0.0823327
-0.301693
1.03914
-1.1204
1.02061
1.0514
-1.0785
1.04362
0.149321
1.03487
1.11711
-2.01116
1.0492
1.0569
0.0138186
0.719547
1.03553
1.04191
0.188524
-0.692099
0.716549
1.3723
1.04736
1.03765
1.04304
0.151576
1.03854
1.02199
1.04453
1.0385
1.04104
1.03665
1.1451
-0.663558
-2.14887
1.03969
1.03401
0.314382
-1.09432
-0.671571
-0.74454
0.90998
-1.58362
-0.618928
0.00632531
1.03549
0.731225
0.0323071
0.0551255
-0.13214
-0.547932
-0.814487
0.115602
-0.588333
-1.41811
-0.289507
1.04254
0.0716425
1.02938
0.957384
-0.997796
1.29324
-0.462381
-1.07659
0.766941
1.18054
0.493954
-0.990045
1.035
0.110457
1.04157
-1.15302
1.04114
-1.33595
1.03326
0.0301766
-0.752408
1.04387
1.05775
0.986069
0.147249
-0.985442
-0.700331
0.252715
1.05436
0.941131
0.177998
1.03344
1.07676
1.02754
0.365103
-1.90515
-0.700878
-1.95399
0.310199
1.04087
-0.1093
1.03719
-1.94278
1.03517
1.07347
1.04496
-0.0309553
-0.0410081
1.07041
-1.10576
1.04701
1.05025
-0.00611878
-1.0409
0.989126
1.18539
1.03093
1.02859
0.325261
0.281453
1.0032
0.406935
1.04544
0.849253
-0.875811
-1.0328
0.886294
1.27529
1.03603
0.336674
-0.59373
0.389547
-2.08014
-0.428686
1.01694
-1.28625
1.02199
-1.42309
-1.00295
-0.836283
0.488807
-1.12531
-0.398946
-0.114997
1.03139
-0.988356
0.960401
-1.01834
-0.188535
0.156398
0.0186817
-0.259177
1.00831
0.218305
-0.816741
-0.0589131
-1.09486
1.0222
-0.380631
0.0247407
-2.10542
1.13051
-0.335703
-1.01555
1.10401
1.01963
1.00917
0.480753
-0.938713
1.04037
1.06847
-1.28328
-0.808665
1.03019
0.798829
1.30107
1.05243
-1.17973
-0.616091
-0.825822
-1.29887
-0.990152
-0.994031
-0.00712194
-1.18833
0.803542
-0.0344385
1.04105
1.25488
1.03194
-0.990632
-1.15962
1.03361
-1.07686
-0.279787
1.01175
-0.351462
-0.798976
-1.93397
0.0435719
0.987788
0.962283
-1.07038
0.859263
0.72864
-1.57928
1.01627
-1.58056
0.853858
-0.699164
1.00473
-1.7055
0.419113
1.03461
1.14564
-2.17635
-1.70502
0.872486
1.41045
1.05504
1.07037
-0.891586
1.26188
-0.924319
-0.105526
-0.851101
0.467333
-2.21834
1.14709
1.17801
-1.02438
-1.29108
1.03185
-0.946121
0.864204
1.06458
1.00679
-2.04091
1.03542
-0.0264514
1.06205
-0.0481959
-0.0700966
-0.0811364
1.03848
-0.245872
-0.424937
-0.251312
1.02746
-0.0677004
1.24161
0.255093
1.37504
1.04025
-0.937058
1.01232
-0.794049
1.01217
1.01005
-0.0193796
-0.315579
1.17739
1.02521
1.27681
0.994144
0.0717647
0.997987
1.01975
0.913794
1.04293
-1.05821
-0.949121
-1.14599
1.1269
-1.4497
-0.332363
-0.788542
-1.49709
-0.108372
-0.144816
0.923193
0.0927122
0.985407
1.03697
-0.814088
-1.29717
-1.0349
-1.43049
-1.00991
-0.795621
1.0407
-2.15411
1.05228
1.25744
1.09164
-0.158568
1.05897
0.973894
-1.46225
0.988435
1.01986
-0.889999
1.01899
0.997624
-0.152443
-1.20431
1.49184
-1.98601
-1.26473
-1.11021
0.229327
1.01035
-1.28736
-0.688818
-0.775309
1.17669
-0.505586
0.911526
1.05345
1.01468
-1.35554
0.996647
-2.31904
1.04898
1.06283
-0.384611
1.05271
0.566482
1.0204
0.717372
-2.05302
0.00582747
0.0079467
0.0647039
1.28858
-0.204713
1.06919
1.44078
-0.624062
-0.0291409
1.09955
-0.0438525
1.09689
-0.0305675
-0.0491454
1.09815
1.10283
0.421588
-1.50136
0.823065
-0.674816
-0.875276
-0.618145
1.05972
1.02659
1.44926
-0.990617
-0.692253
0.744846
-1.11911
1.11796
1.04347
1.01855
1.02763
0.98794
-2.03482
-0.994079
-1.33827
0.865007
0.965086
-2.22541
-0.801847
-1.0263
1.04997
1.06421
-1.22012
-1.74294
1.07354
-1.19143
0.263137
0.836212
0.982586
-0.235314
-1.15579
-0.187822
-0.99703
-0.711467
-2.04592
-1.67125
1.39578
1.41959
-0.799253
-0.930112
1.05028
1.02664
-0.985987
-0.0833412
-0.37654
0.717267
1.13559
-1.51629
1.04395
-1.22038
-1.14497
-1.0067
-1.21273
-0.865184
1.01356
-0.975254
-1.63014
1.41201
-1.00252
1.04458
1.27977
-0.801989
1.05797
1.27104
-0.831619
1.30134
-1.02369
-1.17117
1.07357
0.104238
1.02703
1.04601
-1.03446
1.08915
0.137598
-1.96495
1.08163
1.04549
-0.929224
-1.44236
0.991391
1.03704
-1.03572
-2.08451
1.34075
-1.03913
0.956458
-0.0391321
0.968083
-0.958078
-1.91062
-1.02312
-0.827222
1.15307
1.06276
1.30998
1.26526
1.0398
1.09999
1.12425
-1.01748
1.19314
1.1606
-0.82564
-1.04235
-0.943266
1.38093
-1.75557
-1.15177
0.12554
1.00038
-0.832392
-0.773046
1.08219
1.03436
-1.02887
-0.809645
-1.12065
0.0639719
-2.07685
-0.831651
-1.01145
0.954666
0.904286
-0.797795
-0.387595
-0.898381
0.90721
-1.03969
-0.818768
-1.0068
0.957511
-1.73934
-0.814335
1.35157
0.923709
0.390765
1.21586
0.210312
0.993651
1.05195
1.15355
1.22874
-0.234251
0.752834
1.06915
0.262514
-1.00165
1.46767
0.990602
0.933497
1.09157
-0.820654
-2.03614
0.876253
0.862036
0.997121
-2.09738
-1.91828
1.0223
-1.00651
0.845338
-0.0403622
1.46967
-0.99801
0.805538
0.746583
-0.787845
-0.995113
-1.3963
1.08053
-0.790958
-0.990515
0.7082
0.691894
-1.28245
1.10923
0.856178
-0.793923
-0.716823
1.00212
-2.18946
-0.992322
-1.11315
-0.779552
-1.01001
1.02805
1.04263
-1.89591
0.625505
1.04169
1.39044
0.276075
0.374887
0.106409
0.897995
-0.468778
-0.785409
-1.53327
-0.515326
-0.782744
1.03463
-0.78258
0.268217
-0.989981
0.626068
0.575324
-0.779325
0.644545
-1.95254
0.50127
-0.776123
0.553534
-0.787819
0.393139
-0.98695
0.472262
-0.772757
0.829855
-1.77582
-0.773372
-0.779952
-0.983979
1.05318
0.0861319
-0.809456
-0.99467
0.138987
0.175685
-0.776746
-0.99428
-0.852843
-0.126027
-1.01044
-0.0194833
-1.04285
-0.220026
-0.930101
-0.299361
0.938127
-0.2908
-1.96502
1.02619
-0.0330929
-0.211702
0.454555
1.00373
-1.73821
-1.92176
-0.98902
-1.53628
0.915833
1.46775
-0.89696
-0.188466
0.01278
-0.98664
-0.340956
-0.383297
1.01953
-0.818981
0.985713
-1.54599
1.53554
0.457012
1.44662
-0.805382
1.21022
-0.467634
1.03203
-1.07772
-0.985587
1.09173
1.02925
-2.05619
-0.990368
-0.780103
1.0259
-0.816545
1.02503
-1.2095
-1.08541
-1.02399
1.34936
1.08622
1.12973
1.06331
1.0524
-0.0980102
-0.63301
1.2643
-2.1974
-0.923642
1.46872
-0.800216
0.957969
0.978896
1.41038
1.45913
-0.80538
-1.54927
1.07161
0.223324
-0.473881
-0.732803
-0.900849
-1.92492
-0.806235
0.555393
-1.37912
1.22143
-1.28886
1.10427
1.18415
1.08847
-1.49373
-0.977015
-1.07633
1.12467
-0.961198
1.23307
-0.635749
-1.05351
1.29586
1.32889
-0.978946
0.176343
0.97776
-1.25989
-1.07589
0.673832
1.33089
1.253
-1.03062
0.92746
0.908092
-0.98488
1.26387
0.365969
-0.800884
-1.01371
-0.20976
-0.171454
1.17304
-0.862726
0.345033
-0.0130373
0.00135947
-0.76965
-0.976134
1.03375
-1.92489
1.07248
-0.0155341
0.0793506
0.703808
0.245738
-0.973203
-0.526418
-1.20807
-0.207141
0.00330655
-1.39442
0.995684
-1.98147
-1.93286
1.06367
-1.17199
-0.82661
1.05034
-1.05205
1.03107
-0.102204
-1.01648
-0.364155
0.80598
-0.838865
-1.74367
0.908416
-1.06198
1.10637
-0.597824
-1.02188
-0.956114
-0.987735
1.51641
-1.99679
1.15034
0.0366609
0.994636
1.23066
0.734404
1.05383
1.2182
-0.107527
-2.01052
1.00267
1.11518
1.3892
-0.989794
1.09286
0.739148
-1.01591
0.797694
1.22831
-0.497925
1.40043
0.217173
-0.786968
0.844062
-1.02985
-0.777318
0.974338
-0.389104
1.09232
1.07009
1.00995
-0.811161
0.964139
1.32062
-1.07485
-0.270301
-2.0358
-1.10873
-1.01645
-0.991355
1.37518
0.756106
-0.831966
0.920554
-1.0381
-0.911431
1.29152
1.28413
-1.90506
-1.4624
-0.987848
-1.04451
1.00299
-0.833102
0.0606326
-0.737303
-0.409048
1.10036
-1.04078
1.44504
1.09018
0.900179
1.06964
1.3607
-1.11144
-1.044
1.04248
1.16673
-0.740435
1.04153
-1.95253
-1.02157
-1.02936
1.14332
1.17286
-1.02763
-0.846371
0.553866
-0.0995209
-1.25458
1.02506
1.02237
-1.43382
1.06183
1.10388
-1.37275
-0.829379
-0.824016
-1.01603
-1.03086
1.3357
-0.37595
0.976634
-0.836244
1.33065
0.924014
0.92901
1.00201
-2.02559
-1.05487
-1.01038
0.595278
-0.813669
0.92897
0.290056
-0.552146
0.921589
1.01646
1.07715
1.05248
-0.0399703
1.07633
-0.0557727
0.413877
0.854395
-0.508148
-0.824543
-0.870739
-0.618313
1.04865
0.978537
1.04864
-1.81627
-0.830303
-1.00554
-0.715187
1.0467
1.34199
1.06022
-0.818997
-0.825563
-1.21258
-0.47515
-0.989274
-0.98841
-0.142336
1.03853
-0.752491
-0.796126
-0.0264454
-0.110948
0.783511
-1.59471
-1.00156
-1.19737
0.993596
1.46772
0.033177
1.13538
1.52986
0.723973
1.25622
-0.83054
-0.0427065
1.42095
-0.997411
0.30526
-0.809022
-1.03536
-0.775493
-0.789429
1.00452
0.736603
1.24942
1.21156
0.00563444
0.784496
0.103869
-0.0252996
-0.993411
1.14591
0.785133
1.05512
1.07134
-0.111367
-0.0965127
1.06794
-1.2168
-0.991557
-0.792758
-0.784467
0.594764
-0.786721
0.993718
0.672003
-0.995809
1.25018
-0.813472
-0.259196
1.01791
-0.813221
-0.964841
-2.0791
0.661094
-0.800463
-1.123
0.972303
1.06334
-0.127706
0.0139262
-2.22768
-0.990738
-0.461152
-1.48824
-0.23001
0.602863
-1.11007
-0.784004
1.31903
0.326642
0.426525
-0.781328
-1.04041
1.0381
1.05746
0.591727
0.53658
-0.777709
-0.968651
-0.796246
0.516216
0.443186
-0.773949
0.886064
0.211263
-0.769591
1.49595
-0.772835
-1.82448
-1.03055
-0.729083
0.849628
-0.789968
-0.827056
-0.99992
-0.00342975
-0.827798
0.0691993
-0.796748
-0.208471
1.23068
-0.884785
-0.190167
-1.02698
-0.106708
1.39525
1.42121
1.28591
1.0449
1.26282
-0.636049
1.0313
-0.819225
1.05518
-0.990387
-0.985046
1.28257
-1.18173
0.476347
-1.66156
1.42997
-0.00754036
1.36496
0.659201
0.823476
-0.804433
-0.80769
-0.986072
-0.994401
1.34747
1.24627
1.0309
0.635695
1.03258
0.874707
0.869744
-0.776881
-1.0402
0.312449
0.0627045
0.844922
1.04823
-0.043016
-0.799035
-0.771958
-1.50318
-0.986457
-1.78591
1.36563
1.06621
1.04333
-0.0902397
-0.0672478
1.06438
-0.937854
-0.991346
-2.16794
-1.00943
0.833635
-0.793603
-0.778784
-0.33703
1.04879
-1.82353
-1.02936
1.03257
0.611224
0.72611
1.03283
-0.988884
0.919551
1.21382
0.844874
-0.986159
1.02631
0.352192
0.515304
-0.973593
-0.788654
1.4893
0.230664
-1.13556
-0.00580141
0.955955
1.01634
-0.954049
-1.40607
-0.159498
-0.740982
-0.931625
-0.833224
-0.0867813
1.02838
-1.02044
1.03259
1.30425
1.10468
1.03634
1.13565
1.19617
1.03664
-1.38375
-0.688283
-0.347936
-1.06862
-0.948101
-0.778855
1.19571
1.1006
-1.03554
0.987503
-0.774848
0.0691047
-0.775618
-0.411135
0.537058
-1.32637
1.02548
0.955099
-1.33282
-0.422114
1.3751
-1.70714
-0.729266
-1.16704
-0.839359
-0.748909
1.07422
0.821007
1.11513
-1.18402
-0.828414
-0.96941
-0.305806
-1.03352
-1.48672
-1.27237
-2.11775
0.959306
-0.785395
1.47946
-1.01685
-0.616731
-1.02726
-0.778324
0.951823
-1.05103
-1.1352
-0.998863
-0.406127
1.24528
1.24395
-2.20434
-1.11116
0.870344
-1.00973
-0.924979
1.12759
-1.29669
-2.0134
-1.01138
0.798306
-0.475669
-1.02886
1.0288
0.056116
-0.847818
1.04348
-0.807356
-1.44726
-1.09133
-0.848681
-0.126395
-1.02837
1.3663
-0.997768
0.135866
-0.991748
0.839387
-0.624923
-0.913301
0.698852
0.772672
1.09021
0.991248
1.22508
-0.790377
0.865263
0.551577
-1.15998
0.977832
-0.314543
-0.642686
-2.00693
1.20176
1.18896
-0.717031
-0.872981
-1.16518
1.06239
-0.833331
0.0932442
-1.35575
-0.785716
1.33059
1.06102
-0.805834
-0.813551
-0.806389
-0.798218
0.943297
-0.835482
1.02718
0.285761
0.757349
0.882231
-0.759727
-0.894114
0.987984
-0.78162
-0.0670147
1.31567
-1.00657
-0.796064
0.86787
-1.16146
-0.821387
-0.242367
-0.976216
1.38776
-0.671298
0.109912
-0.80859
1.3243
-0.812282
-0.809881
0.694196
-1.28736
-0.989871
1.36605
0.723555
1.01761
-0.826513
1.28184
-0.291195
-0.895712
-0.829288
-0.833759
-0.81689
1.31415
0.62781
-1.02793
-0.81353
-1.01637
1.17267
-0.76924
1.29974
-0.990118
0.761892
-0.792052
0.427491
0.591577
0.557824
0.478369
0.172216
-0.788346
1.05641
-0.829149
-0.623929
-1.20001
0.261215
1.3419
-0.369274
-0.828332
-0.830483
-0.794639
0.323328
-1.01413
-0.790262
0.850014
0.166511
-0.799963
1.40968
-1.02302
-1.56941
1.39085
-0.79613
0.21162
-0.78352
-0.776552
-0.787942
1.3835
-0.77042
1.30563
-0.786352
-0.870463
1.22026
-0.297879
-0.810064
0.617998
-0.977737
0.0805457
-0.470747
-0.790693
0.819275
-1.11427
-0.789297
-0.778411
-0.777454
-0.998523
0.859729
-0.0885081
-0.547661
-0.803029
1.33484
-0.906256
-0.81767
-0.764349
-0.193455
-0.904156
-0.762094
-0.801094
-0.154169
1.2966
-0.818364
-0.988472
-1.17268
-0.805006
-0.168135
-1.00454
1.42298
1.35768
0.469684
-0.944355
-0.995112
0.386524
-0.996934
1.43719
0.268616
1.0849
0.749248
1.30514
0.153271
-0.914924
-0.988389
0.00348351
-0.82935
0.00370968
-0.137895
-0.785487
1.33186
-0.373813
0.279423
-0.514804
-0.988423
-0.973463
)
;

boundaryField
{
    frontback
    {
        type            empty;
    }
    Top
    {
        type            zeroGradient;
    }
    outlet
    {
        type            fixedValue;
        value           uniform 0;
    }
    bottom
    {
        type            zeroGradient;
    }
    Inlet
    {
        type            zeroGradient;
    }
    rectangle
    {
        type            zeroGradient;
    }
}


// ************************************************************************* //
