/*--------------------------------*- C++ -*----------------------------------*\
| =========                 |                                                 |
| \\      /  F ield         | OpenFOAM: The Open Source CFD Toolbox           |
|  \\    /   O peration     | Version:  2306                                  |
|   \\  /    A nd           | Website:  www.openfoam.com                      |
|    \\/     M anipulation  |                                                 |
\*---------------------------------------------------------------------------*/
FoamFile
{
    version     2.0;
    format      ascii;
    arch        "LSB;label=32;scalar=64";
    class       volScalarField;
    location    "33";
    object      p;
}
// * * * * * * * * * * * * * * * * * * * * * * * * * * * * * * * * * * * * * //

dimensions      [0 2 -2 0 0 0 0];

internalField   nonuniform List<scalar> 
2186
(
0.771344
-0.426588
-0.105268
1.06958
-0.795967
0.0268558
0.651366
-1.08784
-1.08337
1.33234
1.10924
-1.04847
-1.08279
1.04243
-0.663168
1.05514
1.0739
-0.850351
0.142357
-0.75502
1.45189
-0.755949
1.0526
-1.13079
1.04442
1.04351
1.26706
0.88795
0.658062
1.04337
-0.73824
1.04447
-0.70178
-1.05751
-1.0644
0.188003
-1.00205
1.44403
-0.50544
-0.0613215
-1.0859
-0.721441
-0.782378
-0.878792
0.955813
1.31645
0.302796
0.483922
-1.06266
-0.768171
-0.741344
0.958151
-0.777748
1.38329
-0.775862
0.940796
-0.836299
0.969305
-0.537302
0.812639
-0.999798
0.69852
0.619401
-0.095155
0.638371
0.423214
0.732149
1.33866
1.23445
-1.12293
-1.09104
-1.04068
1.30067
0.998411
1.23007
1.15946
-1.02558
1.06906
-1.07328
-0.626647
-0.750606
-0.256088
1.03912
0.684709
1.0307
1.03966
1.35168
0.218774
-0.472818
-1.08139
0.943978
-0.751376
0.942703
1.19058
1.05344
0.488329
-0.236101
0.649961
-0.786151
0.984627
-0.932873
-0.875857
0.701476
0.968372
1.07581
-0.725192
1.28124
-0.806314
0.930491
-1.87165
-0.627656
-0.766772
0.509317
1.3853
-1.06832
-1.01544
-0.668497
-1.13574
-1.0818
1.30011
0.0539189
-0.760729
0.918612
-0.917009
1.05952
-0.635703
-0.779785
1.15188
-0.884779
0.630807
1.4067
1.24852
0.188122
0.622453
-0.792598
-0.74997
0.910235
-1.14119
-0.455746
-1.08236
0.863338
-0.287088
-1.08193
0.677575
0.929299
0.972433
-0.765767
-0.803732
0.586083
-0.810835
-0.768974
0.549609
1.07201
1.19246
1.04616
0.49505
1.35191
0.510558
0.421369
0.382979
-1.0836
-1.24727
1.03401
0.988691
0.234106
0.0644823
-0.983371
-1.04559
-0.904972
-0.877357
0.430456
0.99124
1.07483
1.1147
0.495463
-0.17363
-0.815161
1.03487
-1.35595
0.921718
-1.0398
1.05919
-0.752327
0.61176
0.597665
-0.828399
-0.976551
1.20282
-0.390114
-1.06895
-0.936592
1.30835
-0.837676
0.98318
-1.08139
-1.96742
0.158655
1.22895
1.13826
-0.752108
-1.13608
-1.44732
0.0227744
1.0724
-1.07024
-0.782528
-1.0823
-1.14937
1.00318
-0.826961
0.489745
-0.333043
1.37068
0.891172
0.986415
0.946567
1.25321
1.04878
0.888444
1.1664
0.336171
-1.00173
-0.738879
0.176461
0.135865
-0.830892
-0.790648
1.10691
1.16027
-1.10519
-0.998979
-1.32363
0.3287
0.631882
0.785058
0.889278
1.12518
-1.0628
0.880549
-1.08419
-0.779375
-1.00523
1.06753
0.79428
1.22142
1.22031
1.18082
1.15993
-1.09082
0.811959
1.17124
-1.09433
1.05459
0.841052
-1.17945
-1.07307
-1.06422
1.2234
1.07557
-1.08092
-1.29355
-1.34078
0.949625
-0.902389
0.812618
1.13581
0.878118
-1.0804
-0.735877
1.01827
0.690564
-0.779655
-0.355434
1.40673
-0.781023
-1.08934
0.86034
1.19569
1.03249
-0.797224
-0.795739
-0.995016
0.973904
-1.09469
0.515062
1.01506
1.03074
-0.282271
-0.619615
1.0201
-1.11848
0.931728
1.20613
1.07066
1.06764
-1.41767
-0.735069
-1.14571
-0.937244
-1.15374
-0.893882
0.337018
-0.663504
0.675401
1.18053
1.27849
0.979885
-0.839515
1.20032
-1.1716
-0.409922
-1.15675
-1.08338
-1.06313
0.310575
-0.769096
-0.759358
0.238964
0.987188
-0.198427
0.452995
-0.762193
-0.505347
-1.04608
-0.772951
1.2683
0.0613281
-0.284393
-0.754176
0.774164
0.624988
-0.262339
0.500461
-0.972434
-1.0808
0.727656
1.07002
1.1447
-1.4033
1.2009
0.881004
0.447463
1.26034
1.05148
0.970579
0.331094
-0.923566
-1.08531
0.934125
-0.837668
-1.07996
-1.18726
-0.981789
-1.08395
1.43568
-1.40156
-0.741902
-1.09977
1.05053
-0.824039
-1.12948
-0.717998
0.743951
-0.74581
-1.30806
1.31405
1.37486
1.13448
-1.08368
-0.159908
1.45211
1.05436
-0.931339
0.520681
-1.08692
0.119826
1.24034
1.05056
0.892219
1.33274
-0.624662
-0.95565
-0.23547
-0.888415
-1.3995
-0.741821
-0.247505
1.38353
-0.794377
-1.25434
1.04354
0.556455
-1.07711
-1.05281
-1.08596
-0.793666
-1.21864
-1.0797
-0.72733
-0.785138
1.22682
-1.31256
-1.0134
1.06111
-1.23324
1.27977
-1.28373
-1.51557
-0.668853
1.04389
-1.03101
1.07383
0.838475
-1.40651
1.06307
-0.731022
-1.08273
-1.14104
1.01427
0.975884
-1.09045
-1.08848
-1.16899
1.05071
-1.32981
-1.73943
0.580939
1.00855
0.902269
0.709788
-1.09617
-0.744271
0.889645
-0.978083
0.818088
-2.18053
1.06746
0.039107
1.14447
-1.08162
0.84351
0.764851
1.08113
-1.15852
1.05048
-0.805154
-1.08155
1.04721
-1.27843
0.225901
-0.987137
-0.0356284
1.05657
0.034997
0.247232
1.05825
0.315765
-0.246496
-0.117478
-0.741335
0.186574
-1.08766
0.771632
-0.525682
1.14372
1.14333
-1.09618
-1.08251
-0.98939
-0.740261
0.502937
-1.04088
0.905037
-0.124639
-1.07857
1.16168
-1.03993
0.445146
0.251153
-0.820067
0.867629
0.417725
-1.13063
-1.45446
-0.919367
-0.734086
1.065
-2.17101
1.13829
1.24638
1.23426
0.719659
1.24105
-0.788761
-0.675196
0.92433
0.169308
1.04416
-0.763283
-1.06743
-1.42845
0.796493
-1.07969
-2.0948
-0.763993
-0.798625
0.0133986
-1.14956
0.803803
0.772724
-0.456184
-0.944554
0.735156
0.0174406
1.2106
-2.03389
-0.100184
-1.08107
0.830912
-0.389262
1.18494
1.46664
-1.39247
-0.782836
-0.969658
0.378924
-0.998984
1.04184
-0.973782
0.995099
0.823366
-1.12341
0.933584
0.895112
-1.40361
0.900324
-0.88738
-0.751399
-0.907355
-1.03908
-0.822332
-0.986046
-0.550899
1.04699
0.28916
-0.77409
0.565207
1.19455
1.23113
-0.443837
0.756451
-1.28091
0.763547
-0.204494
-0.931004
-0.760007
0.568496
0.88056
1.13003
-1.73285
-1.10331
-1.40317
-1.08211
-0.18286
0.716533
-1.94378
-0.227195
-1.14123
1.01269
-0.99877
1.01045
-0.997133
-0.716368
0.983289
0.655776
-1.13786
-0.0961107
1.02002
1.31625
1.06947
-0.949213
-0.821482
0.794079
-0.990122
0.781276
-0.418891
0.51787
1.01764
-1.06116
-0.738479
1.08853
-1.18999
1.31308
-0.225861
0.870006
-0.424
0.607337
-0.992984
1.27434
-0.745646
-0.826044
1.0351
0.594124
0.568717
-1.14446
-0.747097
-0.995178
0.839668
-0.74959
-0.662634
-0.768082
1.06529
0.467672
-0.782289
0.814626
0.965012
1.03871
-2.0078
-0.668005
-0.756694
1.06128
1.24878
0.459918
1.05707
-0.969687
1.07314
-0.591848
-0.925795
-0.614197
0.954778
1.00709
-1.40109
0.925115
-0.74227
0.875706
-0.823337
1.07497
0.963917
1.06637
-2.12869
0.993039
-0.765903
-0.528847
1.20806
-1.47493
-1.46023
1.1817
-1.2684
1.17949
-1.26982
-0.749514
1.11914
0.770965
1.38914
1.0467
-0.862852
1.092
1.15285
-1.27026
0.711052
-0.71588
-1.03007
1.5385
-1.08622
1.20574
-0.768719
0.26234
1.04719
-1.17632
1.04426
-1.56799
0.998925
0.984335
1.0587
-0.407325
-1.05204
-0.705753
0.566808
0.668271
1.08899
-0.281134
0.903119
-2.12213
-0.253297
-1.21884
0.830509
1.15927
-0.619218
-1.12091
-0.607697
1.29479
-0.831927
0.809679
-0.920265
-1.02416
-1.08829
-0.77061
-0.769524
0.867548
-1.41155
0.0582957
-0.22924
-0.66168
-0.780127
-1.16645
-0.345274
1.02567
1.06765
-1.14484
-0.527212
1.03797
0.968847
1.06649
-0.912246
1.03671
1.08345
1.0396
1.06693
-1.25875
-0.164334
-0.736567
0.69472
1.0458
0.692152
0.103569
-0.366286
-2.17179
-0.303552
1.28177
-0.211582
-0.646699
-0.795553
-0.129748
-1.08298
0.860039
-1.09411
-1.26951
-1.07723
1.05344
1.04828
1.0633
-0.373131
0.427658
1.2544
-0.246532
1.0418
-0.233624
-0.37626
0.836207
1.06828
1.1685
-0.432328
1.03295
1.03073
-0.761813
-0.170528
1.0636
1.07486
1.07014
-1.08175
-1.12241
1.06957
0.589998
1.04903
0.290618
-0.0393334
-0.33675
-1.80248
-0.444074
-0.737726
-1.52362
-1.38688
1.07645
1.08117
0.821211
-1.08884
1.05352
-0.113586
-0.274555
-0.210567
1.04421
1.07309
1.07041
1.08517
1.06324
1.05714
1.04883
-0.572577
-0.295808
-0.213489
-0.262524
0.0191362
0.00366345
-0.115323
-0.0556633
-0.039165
-0.151625
-0.153686
1.03818
1.06024
1.05455
1.07872
1.07743
1.07011
1.07448
1.04895
1.06115
0.0264138
-0.273418
1.07157
1.06944
-0.0614845
1.07154
1.07112
-0.321997
-0.547497
-0.241077
-0.813715
-1.33247
1.0542
-1.10401
1.04961
0.627331
1.09051
-1.08553
1.04829
1.00296
0.987744
-0.737973
-1.28602
-1.09345
-0.173875
0.0436994
-0.74406
1.06874
-0.461512
1.14177
1.05828
-0.0882696
1.25777
1.40465
-0.445987
0.943412
0.649692
1.05165
1.06938
1.05855
-1.08455
0.563822
-0.355071
1.05671
1.06415
-1.05893
-0.423173
1.05882
-0.0871565
-0.242705
1.05745
-1.05419
1.04228
1.07064
-1.0866
1.06094
-0.964953
1.05249
1.14358
-1.70534
1.06535
1.07347
-0.402393
0.765004
1.05205
1.06044
0.252393
-0.654325
0.704237
1.37848
1.06692
1.05444
1.0611
-0.796996
1.05558
1.03776
1.06341
1.05672
1.05949
1.05351
1.16903
-0.0870354
-2.05017
1.05661
1.05307
0.376904
-1.0719
-1.09964
-0.267404
0.940168
-1.47949
-0.787046
-0.176387
1.05365
0.720432
-0.00509807
-0.536185
-0.499473
-0.329614
-0.66141
-0.955656
-0.916048
-0.768049
-0.245891
1.06011
-0.535629
1.0479
0.984161
-1.07931
1.32656
-0.00538856
-0.714407
0.764957
1.21839
0.539211
-1.08111
1.0555
-0.950208
1.05901
-0.614476
1.05866
-1.24207
1.05159
-1.02083
-1.02519
1.06143
1.07563
1.01759
-0.774503
-1.08081
-0.532462
-0.654257
1.07109
0.969475
-0.780913
1.05355
1.09519
1.04842
-0.855893
-1.3888
-0.77382
-1.27992
0.293356
1.06018
-0.183638
1.0541
-1.11806
1.0543
1.09285
1.06237
-0.0295392
0.00590564
1.08722
-1.11115
1.06413
1.06868
-0.0440417
-1.08527
1.03026
1.21753
1.04898
1.04942
-0.554075
-0.808227
1.01695
0.38183
1.06332
0.842138
-0.847342
-1.08625
0.918822
1.28594
1.05583
0.309704
-0.280082
-0.70143
-1.20063
-0.795994
1.03211
-0.89121
1.04353
-0.998776
-1.08265
-0.790866
0.549095
-1.12456
0.421681
-1.40921
1.05038
-1.07756
1.002
-1.08681
-0.238348
-0.977753
-0.171544
-1.29241
1.03157
-0.790404
-0.985986
-1.31833
-0.633848
1.03692
-1.30319
0.0906949
-1.05531
1.16322
0.0515155
-1.08633
1.12323
1.03463
1.02304
0.464294
-1.03652
1.06096
1.09065
-0.986953
-0.768618
1.04932
0.789762
1.33227
1.07251
-1.20073
-1.39892
-0.766439
-1.1554
-0.8678
-1.08044
-0.555931
-1.15315
0.79473
-0.078485
1.05741
1.28174
1.0518
-1.08146
-1.14196
1.05232
-1.37477
-1.59935
1.02522
-0.383071
-0.841396
-1.21323
-0.0880628
1.01545
0.988327
-0.847517
0.856453
0.77213
-1.11085
1.031
-1.37716
0.891722
-0.73618
1.00589
-1.20259
0.397366
1.05288
1.18409
-1.03506
-1.27313
0.907235
1.4293
1.07394
1.10983
-1.1723
1.26563
-1.06511
-1.51957
-0.930271
0.444702
-1.09455
1.16723
1.18159
-1.08803
-1.00089
1.0521
-0.556864
0.858317
1.08372
1.03383
-0.986846
1.05446
0.0217601
1.07873
-0.0551386
-0.865265
-0.0363925
1.05707
-0.357739
-0.367538
-0.0807473
1.03581
-0.665025
1.27548
0.223791
1.406
1.08055
-0.553403
1.0265
-0.757876
1.03689
1.03335
-1.37414
-0.567315
1.21334
1.04648
1.31137
1.0184
0.035621
1.02461
1.03338
0.947728
1.06238
-1.11213
-0.806461
-1.31533
1.13781
-1.34757
-1.67638
-0.74786
-1.28115
-0.306016
-0.710485
0.965149
-0.300699
0.996536
1.04694
-0.771671
-1.23052
-0.580243
-1.35867
-0.611806
-0.756351
1.06186
-1.21572
1.07155
1.26337
1.10949
-0.0677493
1.07829
0.999834
-1.472
0.998021
1.04282
-0.862723
1.04155
1.03844
-0.186765
-0.645835
1.50529
-1.21054
-1.0256
-1.10332
0.19648
1.0234
-0.953036
-0.22596
-0.7422
1.2002
-1.53057
0.953693
1.07508
1.02785
-1.33038
1.0059
-1.19
1.0688
1.08299
-0.303913
1.07198
0.611106
1.03327
0.70729
-1.11322
-0.0700143
-0.226746
-0.430577
1.31763
-0.140547
1.09246
1.46629
-0.544766
-0.111211
1.11718
-0.159973
1.11392
-0.00628194
0.00246243
1.11773
1.12231
0.396777
-1.34624
0.8663
-0.656043
-0.757766
-0.580843
1.07948
1.03804
1.45662
-1.08082
-1.51816
0.733452
-1.08779
1.14233
1.07706
1.02842
1.04895
1.00105
-1.60148
-1.07861
-1.21213
0.904772
0.993731
-1.10732
-0.762354
-1.08799
1.06727
1.07734
-1.10874
-1.21491
1.09297
-1.29896
0.342178
0.879165
1.0239
-0.154034
-1.11703
-0.0836617
-1.0499
-0.749985
-2.05909
-1.225
1.40077
1.45142
-0.823814
-1.02605
1.06802
1.04418
-0.839913
-0.124596
-0.434903
0.761561
1.15767
-1.4108
1.06348
-1.29636
-1.11628
-0.591789
-0.970382
-0.833949
1.02472
-1.04521
-1.52536
1.43964
-1.05791
1.06408
1.31047
-0.764614
1.05749
1.27477
-0.797243
1.33655
-1.06942
-1.13369
1.10581
-0.466584
1.02577
1.0646
-1.07689
1.10112
0.104433
-1.76483
1.10174
1.04465
-1.0136
-1.26744
1.02022
1.05681
-1.08552
-1.05303
1.37502
-1.08187
0.985726
-0.930337
0.977124
-1.0593
-1.95004
-1.08868
-0.804487
1.19158
1.07446
1.31415
1.30126
1.08021
1.12042
1.1631
-1.08777
1.23075
1.16288
-0.779619
-1.08606
-0.87539
1.41404
-1.20674
-1.12904
-0.712007
1.04138
-0.785477
-0.837818
1.1219
1.03321
-1.08924
-0.765532
-1.11504
-0.205023
-1.18547
-0.790816
-1.0863
0.996284
0.89871
-0.750947
-0.332914
-0.97702
0.949478
-1.08241
-0.813851
-1.08514
0.953976
-1.47609
-0.770083
1.35611
0.931341
0.374374
1.21916
-1.05614
0.991277
1.07281
1.16645
1.23218
0.191402
0.796391
1.10824
0.230358
-1.08353
1.48741
0.998953
0.932874
1.10223
-0.774876
-1.71596
0.876393
0.901198
1.0093
-1.6368
-1.48066
1.03833
-1.08226
0.842509
0.0776667
1.49932
-1.08266
0.848697
0.734945
-0.740016
-1.08213
-0.652081
1.08138
-0.742927
-1.07766
0.695517
0.73584
-1.10321
1.13086
0.850491
-0.74642
-0.848832
1.03186
-1.81997
-1.08163
-1.11629
-0.742006
-0.98898
1.05703
1.05527
-1.87291
0.609122
1.05925
1.41457
0.247578
0.419671
0.156602
0.89288
-0.529677
-0.739023
-1.27342
-0.433198
-0.738147
1.05775
-0.749065
0.312899
-1.081
0.670338
0.556813
-0.74009
0.629994
-2.01909
0.479568
-0.741729
0.598037
-0.740091
0.366752
-1.08159
0.516944
-0.743761
0.822251
-1.47975
-0.748285
-0.757998
-1.07744
1.0718
0.0469727
-0.784906
-1.08688
0.183283
0.261779
-0.746948
-1.07937
-0.824749
-0.174192
-1.10004
0.0240486
-1.13327
-0.178206
-0.899597
-0.354618
0.970745
-0.327081
-1.5729
1.05247
0.0855679
-0.692179
0.434362
1.01711
-0.85145
-1.68764
-1.0835
-1.22581
0.916879
1.49347
-0.873357
0.090666
-0.025345
-1.04797
-0.204924
-0.437194
1.04797
-0.846302
0.99688
-0.776215
1.56151
0.443039
1.45236
-0.760738
1.2134
-0.412545
1.03162
-1.06082
-1.08217
1.09219
1.04277
-1.0577
-1.07932
-0.750223
1.05876
-0.598627
1.04685
-0.638429
-1.10585
-1.08816
1.37092
1.11432
1.1313
1.09121
1.0694
0.17506
-0.643942
1.29998
-1.94674
-1.0203
1.49738
-0.761487
0.9866
0.979969
1.42688
1.46945
-0.748966
-1.40071
1.08693
0.193831
-0.536476
-0.71697
-0.645784
-2.09961
-0.766854
0.549751
-1.06964
1.22472
-1.19586
1.14216
1.21388
1.1185
-0.716132
-1.06585
-1.04671
1.14155
-0.998371
1.26976
-0.603899
-0.96512
1.33045
1.33387
-1.07665
0.222304
0.990029
-1.11466
-0.892458
0.663103
1.36485
1.26213
-0.787511
0.959176
0.949293
-1.07528
1.27206
0.41248
-0.755795
-1.26953
-0.527194
-0.308532
1.20823
-0.95985
0.390541
-1.00722
-0.822322
-0.922067
-1.0798
1.05877
-0.955961
1.10188
0.0402543
0.0419028
0.695308
0.224259
-1.07081
-0.488119
-1.3036
-0.198784
-0.816452
-0.699733
1.03628
-1.60092
-1.82646
1.09544
-1.11035
-0.779342
1.06833
-1.09832
1.07081
-0.545151
-1.08319
-0.418281
0.79946
-0.964742
-1.54117
0.904919
-1.09825
1.12009
-0.666898
-0.997803
-1.03716
-1.0804
1.52396
-1.26666
1.15541
-0.99247
1.00819
1.25449
0.725061
1.06217
1.2549
0.00533931
-1.05209
1.01405
1.11751
1.39824
-1.05142
1.11715
0.783041
-1.06504
0.789383
1.23136
-0.457758
1.43302
0.269816
-0.830199
0.836875
-1.07322
-0.751603
0.983866
-0.347512
1.10731
1.06968
1.04033
-0.819061
0.999973
1.35541
-0.835728
-0.196056
-1.22971
-1.08002
-1.01367
-1.0798
1.37996
0.745567
-0.801181
0.915647
-1.07967
-0.968775
1.2955
1.31974
-0.893498
-1.23777
-1.08166
-1.09293
1.01032
-0.794204
0.0264039
-0.714397
-0.298266
1.1166
-1.0861
1.47592
1.11325
0.897276
1.09578
1.39452
-1.0023
-1.08554
1.04898
1.17062
-0.890654
1.05487
-1.40349
-1.0884
-1.08551
1.18193
1.21093
-1.08937
-0.792311
0.538148
-0.140766
-0.599485
1.04959
1.06308
-1.14446
1.10191
1.14319
-1.26853
-0.782702
-0.809282
-1.08759
-1.08872
1.34137
-1.41363
1.01799
-0.788216
1.33501
0.957856
0.971002
1.03635
-1.93156
-1.01546
-1.08618
0.640854
-0.767867
0.924478
0.258881
-0.40905
0.958893
1.01476
1.09651
1.07657
-0.0967504
1.09312
0.0377932
0.392864
0.891548
-0.448244
-0.777334
-0.837683
-0.586021
1.06659
0.975587
1.06586
-1.59224
-0.908752
-1.08459
-0.696994
1.06713
1.37462
1.08015
-0.772601
-0.910689
-1.03968
-0.434274
-1.08023
-1.08222
-0.0910535
1.0626
-0.84438
-0.74829
-0.725052
-0.156425
0.826872
-2.12093
-1.08415
-1.1408
1.0283
1.48388
-0.65255
1.14998
1.55027
0.767748
1.28502
-0.781629
-0.672905
1.42629
-1.08274
0.279323
-0.763144
-1.08924
-0.748449
-0.740688
1.00876
0.724602
1.28579
1.24876
-0.0547913
0.775041
0.162147
-0.505315
-1.08174
1.16222
0.828472
1.07455
1.09126
-0.0232024
-0.200117
1.08437
-1.15122
-1.08225
-0.743886
-0.758323
0.581834
-0.737991
1.00737
0.657896
-1.08167
1.25364
-0.773641
-0.215717
1.03187
-0.929611
-1.01361
-1.79258
0.705212
-0.753029
-0.682791
1.01368
1.08276
-0.690921
-0.020757
-1.8497
-1.08113
-1.7214
-0.758011
-0.277767
0.585278
-1.0266
-0.737739
1.35291
0.37142
0.471294
-0.73892
-1.09042
1.05604
1.05686
0.636137
0.51638
-0.740521
-1.04097
-0.898906
0.560823
0.419116
-0.742571
0.922438
0.255837
-0.74448
1.52374
-0.750722
-1.68183
-1.08784
-0.69389
0.841918
-0.767395
-0.79869
-1.09031
-0.0460873
-0.801525
0.113227
-0.828227
-0.349885
1.26381
-0.855222
-0.241135
-1.11646
-0.0637335
1.42719
1.4283
1.32105
1.06317
1.29868
-0.619677
1.05174
-0.776644
1.05475
-1.08444
-1.09159
1.28652
-1.15246
0.461694
-0.778757
1.44088
0.0745741
1.37492
0.703347
0.863003
-0.758174
-0.76756
-1.08291
-0.664174
1.36427
1.2779
1.05211
0.625198
1.05035
0.868076
0.912463
-0.741994
-1.09157
0.368153
-0.308872
0.887983
1.06772
-0.0864611
-0.762455
-0.7425
-1.35003
-1.08247
-1.029
1.37068
1.08575
1.06218
-0.0349245
-0.203157
1.0808
-0.794854
-1.08085
-2.03766
-1.06055
0.876669
-0.75016
-0.739588
-0.390719
1.0743
-1.53885
-1.0884
1.05085
0.594254
0.725122
1.05268
-1.0816
0.961459
1.22178
0.837231
-1.08058
1.04136
0.323883
0.559936
-0.967471
-0.743382
1.51188
0.209058
-0.642087
-0.0394106
0.996589
1.04844
-1.03248
-1.22969
-0.460125
-0.598909
-1.01254
-0.801044
-0.831062
1.04887
-0.803763
1.05927
1.31346
1.10546
1.06682
1.17141
1.22998
1.05581
-1.15735
-0.760718
-0.307197
-1.15928
-1.01836
-0.741697
1.22627
1.13787
-1.07931
0.992615
-0.874078
-1.35411
-0.747542
-0.116
0.523154
-1.24214
1.04727
0.996712
-0.682203
-0.483124
1.39441
-1.50013
-1.63016
-1.16097
-0.80691
-0.720261
1.08886
0.863538
1.11845
-1.10554
-0.71229
-1.04722
-0.254157
-1.0767
-1.4394
-0.91364
-1.70331
1.0004
-0.889508
1.48639
-0.98713
-0.689554
-1.11177
-0.741552
0.955221
-1.12942
-1.06975
-1.07829
-0.446175
1.28156
1.25044
-1.92944
-1.00352
0.912378
-1.09914
-1.0265
1.13346
-0.690747
-0.995937
-0.592919
0.841405
-0.535868
-1.07308
1.04943
0.150195
-0.66129
1.06605
-0.885436
-1.05931
-0.81988
-0.817926
-0.168025
-1.07117
1.39844
-1.08225
0.107469
-1.08432
0.882271
-0.647672
-0.951608
0.742841
0.766981
1.10698
1.00054
1.25523
-0.760045
0.864577
0.536823
-0.887572
1.01133
-0.272842
-0.643078
-1.66696
1.20726
1.19488
-0.599646
-0.92163
-1.0633
1.10239
-0.869195
0.204111
-1.27746
-0.745869
1.36291
1.09906
-0.76322
-0.816754
-0.765396
-0.753846
0.973646
-0.777989
1.06639
0.332827
0.800917
0.924538
-0.733747
-0.905909
1.02764
-0.742959
-0.718203
1.33351
-1.08453
-0.753533
0.910614
-0.857398
-0.806109
-0.288581
-1.03319
1.40255
-0.754391
0.0849803
-0.765458
1.32875
-0.771872
-0.824547
0.73816
-1.24468
-1.08436
1.37755
0.767329
1.01609
-0.803773
1.31732
0.153074
-0.959601
-0.795948
-0.795142
-0.77436
1.34875
0.672139
-1.0872
-0.770164
-1.06516
1.20431
-0.841342
1.30394
-1.08381
0.803188
-0.745413
0.472283
0.636005
0.602365
0.523112
0.139455
-0.833867
1.09355
-0.792769
-0.585043
-1.19126
0.235594
1.34681
-0.417743
-0.810873
-0.775564
-0.747928
0.368135
-0.982517
-0.74354
0.842655
0.137997
-0.758826
1.41547
-1.06906
-1.12509
1.40389
-0.751616
0.256379
-0.861556
-0.744056
-0.741707
1.3891
-0.742992
1.31624
-0.74061
-0.878839
1.25157
-0.337142
-0.834059
0.662406
-1.03944
0.124694
-0.526464
-0.74564
0.814835
-1.11785
-0.748053
-0.743364
-0.746424
-1.08815
0.856274
-0.0452012
-0.579834
-0.76095
1.34685
-0.981904
-0.810215
-0.728747
-0.24167
-0.870806
-0.737883
-0.756352
-0.198012
1.33165
-0.774962
-1.07685
-0.812597
-0.875623
-0.125094
-1.09325
1.43571
1.37272
0.514524
-0.917208
-1.08562
0.431347
-1.08274
1.45222
0.31345
1.08504
0.792878
1.30973
0.198021
-0.882161
-0.953
0.0472613
-0.789937
0.0481602
-0.183202
-0.743076
1.34558
-0.404689
0.324388
-0.533471
-1.06521
-0.908105
)
;

boundaryField
{
    frontback
    {
        type            empty;
    }
    Top
    {
        type            zeroGradient;
    }
    outlet
    {
        type            fixedValue;
        value           uniform 0;
    }
    bottom
    {
        type            zeroGradient;
    }
    Inlet
    {
        type            zeroGradient;
    }
    rectangle
    {
        type            zeroGradient;
    }
}


// ************************************************************************* //
