/*--------------------------------*- C++ -*----------------------------------*\
| =========                 |                                                 |
| \\      /  F ield         | OpenFOAM: The Open Source CFD Toolbox           |
|  \\    /   O peration     | Version:  2306                                  |
|   \\  /    A nd           | Website:  www.openfoam.com                      |
|    \\/     M anipulation  |                                                 |
\*---------------------------------------------------------------------------*/
FoamFile
{
    version     2.0;
    format      ascii;
    arch        "LSB;label=32;scalar=64";
    class       surfaceScalarField;
    location    "33";
    object      phi;
}
// * * * * * * * * * * * * * * * * * * * * * * * * * * * * * * * * * * * * * //

dimensions      [0 3 -1 0 0 0 0];

oriented        oriented;

internalField   nonuniform List<scalar> 
3181
(
-1.05543
0.411771
0.643657
-0.399073
0.375293
0.0237799
0.535751
-0.368023
-0.167728
0.126107
-0.207779
0.0816723
-0.00769803
0.0130466
-0.00534859
0.89401
0.801906
-1.69592
0.153224
-0.146689
-0.00653515
0.0410454
0.00603226
-0.0470777
0.587709
-0.787265
0.199556
-0.0746839
0.141765
-0.0670806
-0.0102819
-0.0495969
0.0598789
0.129586
0.0490037
-0.17859
-0.0142181
-0.0313372
0.0455553
-1.10377
0.149642
0.95413
-0.33544
0.716068
-0.380628
-1.12077
0.63531
0.485464
0.0852661
-0.931121
0.845855
-0.163313
0.12913
0.0341831
-0.540589
-0.376346
0.0184119
0.0167669
-0.0351788
0.0298582
-0.0815958
0.0517375
-0.0517719
0.0521586
-0.000386721
1.07072
-1.04364
-0.0270776
0.0307869
0.0345723
-0.0653592
-0.957982
0.324704
0.633279
-0.110337
0.236444
0.31026
-0.24008
-0.07018
0.0306531
0.0644336
-0.0950868
-0.402761
0.331082
0.071679
-0.0330523
-0.0267303
0.0246233
0.00210696
-0.0342515
-0.923731
-0.00402154
-0.0397735
0.0437951
0.0981036
1.3839
-1.482
-0.049985
0.0527859
-0.00280084
0.177132
0.269176
-0.446308
1.51569
-1.41759
0.0691732
-0.039315
1.48023
-0.791699
-0.688533
-0.565007
1.45902
-0.0711313
0.0569132
-0.0447587
-0.00701325
-0.420329
0.0848891
-0.112524
0.0677649
-0.625457
0.129736
0.49572
-0.153811
0.0791272
-0.173658
0.178105
-0.00444731
-0.277849
-0.0784584
0.356307
0.370746
1.03445
-1.40519
0.0231845
0.0862277
-0.109412
-0.00831836
-0.0974361
0.103332
-0.00589571
0.526532
0.189536
-0.0964661
0.135088
-0.038622
0.0957567
-0.0997783
-0.176167
0.203367
-0.0272004
0.168024
0.0583537
-0.226378
0.112624
-0.118732
0.0061082
1.17579
0.30444
-0.863205
-0.192222
-0.0920122
-1.73947
1.83148
0.543167
0.225804
-0.76897
-0.438855
-0.200099
0.638954
-1.5781
1.01309
-0.264934
0.808101
-0.331626
-0.104642
0.436268
-0.203907
-0.198854
-0.194366
0.164362
0.030004
0.125124
0.288059
-0.413183
-0.218675
0.806385
-0.0236782
0.0647236
-2.20173
2.10972
0.194883
0.115376
-0.184866
-0.112477
0.297342
-0.270413
0.350809
-0.0803962
-0.0841815
0.0923765
-0.00819508
-1.83098
-0.919468
0.00905414
0.910414
-0.051526
0.00154092
-1.06026
0.764531
0.295727
0.30171
-0.156675
-0.145035
-1.47763
-0.100467
1.10209
-0.952452
-0.703789
1.15508
-0.200945
1.06784
0.161962
-0.175979
0.0140169
1.12979
-0.327886
1.55046
-1.55046
-0.00753219
-0.00178779
0.00931998
-0.218863
-0.0535801
0.272443
0.0156371
-0.0231437
0.0075066
-0.453368
0.842939
-0.389571
-0.0119244
-0.245338
0.257262
-1.08788
0.0442393
0.338529
0.0560131
-0.394542
0.136678
-0.848146
1.07395
0.013056
0.0448499
-0.0579059
-0.0175805
-0.158586
-0.264559
-0.03417
0.298729
-0.0810654
-0.183494
0.115831
-0.963977
0.334111
-0.787479
0.925828
-0.840562
0.0466207
0.0405588
-0.0871795
0.0793092
0.0508369
-0.130146
-1.38684
-0.117492
1.50433
-0.253042
0.418907
-0.165864
-1.03448
0.686519
0.347959
-0.45849
-0.601769
0.0534099
-0.0302254
-0.157453
0.151673
0.00578062
-0.0767557
-0.0110096
0.0877653
-0.56959
-0.217675
-0.0614132
0.0243745
0.0370387
-1.48322
-0.0996662
1.58289
1.58862
-0.554174
-0.018906
0.0113738
0.0454544
0.149429
-0.196279
0.373411
0.0159724
0.108626
-0.124599
0.135076
0.0668117
-0.201888
0.159943
0.0252965
-0.185239
-0.595862
-0.524912
-1.15403
-0.329193
-0.0171968
0.0302528
-0.110317
0.189159
-0.0788421
-0.00337047
0.025568
0.127656
-0.0576646
0.0739466
-0.016282
-0.0988635
-0.0229188
0.121782
0.0771728
-0.0771728
-0.189772
0.21534
0.220644
0.1022
0.107982
0.0953849
-1.29503
1.07635
-1.5073
0.0973663
1.40993
0.0369211
-0.0329014
-0.00401963
-0.0260194
-0.0500129
0.0760323
0.548351
-0.0214642
-0.526887
-0.0331164
0.0333003
-0.000183895
-0.205425
0.0156526
0.160571
0.682369
-0.371931
0.532501
-0.14029
-1.24655
-0.0283901
0.0206921
0.496246
-0.311652
-0.184594
0.0120323
-0.00882835
-0.00320394
0.0491369
-0.326986
0.0239577
-0.943426
0.0501783
-0.160495
-0.295202
-0.410084
0.0654963
1.35405
-0.910974
-0.443078
1.05352
0.30053
0.06819
0.288117
0.0342268
0.00269429
-0.0884639
0.140155
-0.0516915
-0.257
-0.580796
0.837796
-0.365519
0.589203
-0.0436788
-0.332667
0.160373
0.0354865
-0.0414508
0.00596437
-2.19568
0.205469
1.99021
-0.175477
-2.0202
-0.302341
0.64087
-0.907163
-0.0186207
0.0039864
-0.261857
0.257871
1.40688
-1.52704
0.120161
-0.0259198
-0.00247032
0.56491
-0.82191
0.102879
-0.275571
0.172692
-0.291446
-0.114337
0.405783
0.19586
-1.01115
-0.0767354
0.0168272
-0.052006
-0.545854
0.345755
-0.24177
0.0184189
0.223351
-0.00727964
-0.0186402
0.0217121
-0.0217121
-0.116157
0.127189
-0.0110321
-0.271387
-1.23591
0.0436122
0.0206172
-0.0642294
-0.0835937
0.0336102
0.0499835
-0.217879
0.0235129
1.37129
-0.413066
-0.958229
-0.198943
0.457763
-0.258819
0.0169804
-0.0166499
-0.000330493
-0.140223
-0.894254
-0.182587
-0.00449752
0.187084
-0.179077
0.304202
-0.0988055
0.0971423
0.00166322
0.0750379
0.0136582
-0.0886961
-0.109024
0.103582
0.00544227
-1.25377
1.0278
0.225972
-0.224743
-0.0522343
0.276978
-0.699855
0.662167
0.0376875
-0.00740115
0.0419735
-0.00396126
0.0045793
-0.000618039
-0.0194048
-0.0459545
1.12644
0.462186
0.175841
-0.88126
0.705419
0.0504711
1.93606
-1.98653
0.391605
0.62809
0.92237
0.0583323
0.199801
-0.0647244
-0.0694567
-0.0279794
0.243762
0.152692
-0.0733823
0.737312
-0.412608
0.0619375
0.210506
0.0455484
-0.160184
0.114636
-0.791594
-0.138612
0.930206
-0.021415
0.021415
0.00684714
-0.2643
0.533476
0.0128352
-0.237578
0.0702668
0.0588631
-0.000554424
-0.0166423
0.132128
-0.14241
-0.346465
0.33454
0.022731
0.0742152
-0.0969462
0.394407
-0.345403
0.775722
-0.777043
0.00132078
-0.211744
0.279934
0.189825
-0.501477
-0.208276
0.620047
0.16992
-0.0347504
0.0347504
-0.119655
0.252504
-0.132849
0.39305
0.0258568
-0.0332179
0.0367117
-0.00349384
-0.0645623
-0.0420515
-0.0193617
-0.048557
0.180685
-0.176413
0.236607
-0.0601932
0.124857
0.0278346
-0.395511
0.155432
0.185851
-0.060994
-0.0447396
-0.054066
-0.0471579
0.0569271
-0.00976923
0.15187
-0.107649
-0.0442209
-0.0101202
0.388231
-0.378111
-0.080176
0.0564978
0.101628
-0.105856
0.00422818
0.0233872
0.372471
0.403251
-0.0723072
-0.00130247
0.0736097
-0.0579754
0.0217955
0.0361799
-0.0883227
0.0982837
-0.720533
0.622249
-0.0275191
-1.52501
-0.421549
1.94656
0.0993947
1.55069
-1.65009
0.0854232
-0.238196
0.263493
0.270973
0.24869
-0.519662
-0.205292
0.25084
0.146537
-0.897089
0.750552
0.0102201
-0.0681955
-0.00306855
0.0198958
-0.994932
0.446023
0.548909
0.910974
-0.795143
-1.69127
1.57378
-1.40688
1.50424
0.0411841
-0.0798061
0.00130886
-0.00527012
0.0175657
0.813165
-0.666628
0.126206
-0.0760274
0.417397
0.737679
-0.0372138
-1.67007
1.72054
-0.697174
-0.597853
-0.239547
-0.385909
-0.0232628
-0.169976
0.219113
-0.577536
-0.383243
0.184299
0.788902
-0.24055
-0.890764
-0.800506
0.74075
0.108877
-0.0986568
0.291898
0.039482
-0.039482
0.67147
0.147816
-0.819286
-0.224388
0.895858
0.838931
-1.0778
0.238874
0.108024
-0.00582376
0.00701924
0.0060445
-0.0130637
-1.73947
-0.951009
0.396835
1.00878
0.36251
-0.0355608
-0.138097
-0.247325
0.773857
-0.193503
-0.0482666
-0.00319346
-0.080988
-0.0510831
0.10192
0.372286
-0.24255
-0.837464
-0.280533
-0.0979974
-0.00225715
0.100255
-1.15523
1.78332
-0.130788
0.102971
0.0278176
0.042494
-0.0082672
-0.0709337
0.0380205
0.0329133
0.00953705
0.426731
0.0133299
-0.0012976
-0.0028259
-0.00467798
0.00750388
-0.0163891
-0.166198
-0.716465
0.36563
0.350835
0.953629
-1.58785
0.63422
0.135491
-0.156314
0.020823
-0.000494171
0.0539041
0.0167305
-1.56719
-0.0663236
-0.00461006
-0.0326665
0.00244114
0.14231
-0.338589
-1.16711
1.16558
0.00153658
0.0224842
0.0954381
0.0564322
-0.791594
-0.509678
-0.744092
0.0790402
-0.0410197
0.0431032
-0.638317
-0.0615379
0.0599604
0.125891
0.887575
0.050612
-0.463795
0.126038
0.342295
-0.286282
-0.122002
0.0231385
0.22408
0.834293
-1.05837
0.103225
-0.720504
0.617279
-0.960561
0.821949
-1.775
0.0323329
1.74267
-0.0169205
0.0174738
-0.000553358
0.164157
-0.455603
0.207192
-0.121792
-0.0853995
0.0513222
-0.0295267
-0.0446755
-0.0533219
0.00029712
0.0164156
-0.0358204
0.021243
0.0726099
-0.0938529
0.938326
0.00370449
-0.00418083
0.000476337
0.0760455
-0.0195477
0.859389
0.00539145
-0.00786178
-0.438821
-0.512189
0.0582639
0.0497599
0.00793563
0.0875025
-1.74267
1.56719
0.150795
-0.130831
-0.0199638
-0.247318
0.0713391
0.119121
-0.105104
-0.00153811
0.0939146
-0.0270841
-0.601407
-0.565707
-0.0388409
0.0600839
0.739337
-0.253873
-0.106087
0.0224935
0.336613
0.000754006
-0.0339719
-0.00798854
0.0851613
0.148278
0.202531
0.155383
-0.325016
0.169633
0.112653
0.569715
-0.0449502
-0.108861
0.941847
-0.257749
-0.684098
-1.775
-0.213905
1.16753
1.51569
-0.115051
0.292591
-0.17754
0.367684
-0.0759203
-0.291764
-0.168652
-1.30898
-0.0695512
0.0701248
-0.000573557
-0.0127229
-0.147673
0.160395
0.460526
-0.979408
0.518882
0.0413618
0.656679
-0.698041
-0.0453643
-0.112089
-0.0158053
-0.0565019
0.279195
-0.39885
-0.0154773
-0.00144316
0.0670547
0.00513562
-0.0721903
0.0396779
-0.128142
0.00701758
0.0354764
-0.0761558
0.116715
0.00423659
0.000342715
0.19273
-0.438068
-0.084241
1.63493
0.0145163
0.00689868
-0.993367
-0.017779
0.09548
-0.0747818
-0.0472201
-0.0569533
0.159833
0.658526
-0.791166
0.13264
0.0690713
-0.0108074
-0.936578
-0.0158746
-0.0187198
-0.64854
0.746823
-0.0183886
0.188308
-0.485878
-0.591926
0.182724
-0.450708
0.267984
-0.0370422
0.145668
0.00909584
-0.00952124
0.000425393
-0.0496488
-0.0593755
-0.0217192
-0.136867
0.749764
-0.646539
-0.0840008
0.0576811
-0.0911104
0.306029
-0.150646
0.0991037
1.24305
-0.278568
-0.964483
-0.118137
0.136556
-0.503652
-0.212813
-0.562977
0.622907
-0.604889
-0.0180182
-0.070849
-0.0131518
-1.67007
0.536893
-0.536893
-1.75633
1.75633
0.813165
0.0220783
-0.29625
0.274172
-0.899694
-0.093673
0.621751
-0.360258
-0.261494
0.169141
-0.247983
-0.0131686
-0.00573739
-0.884207
-0.0797706
-0.932977
0.212444
0.0375852
-0.0398423
0.697368
-0.113015
-0.584353
1.07819
0.437502
-0.00130654
0.0104024
-0.963655
0.104648
-0.881691
-0.0864607
-0.592843
0.679304
-0.0417544
-0.846015
-0.681024
0.21687
-0.812732
-0.930206
1.37265
-0.442448
-0.141247
0.284932
-0.143685
-0.0222222
0.719591
-0.104014
-1.01094
1.01094
-1.75419
1.27604
0.478152
-0.00132402
0.00502852
0.0515211
-0.432817
0.816875
-0.0523437
-0.0824498
-0.0362885
0.0662763
0.00824065
0.00873973
2.10444
-2.07211
-0.331121
0.406159
-0.630872
0.999391
-0.368519
-0.0212683
-0.0450554
0.12129
-0.0544788
0.361717
0.00628348
-0.0376207
0.35253
0.0357007
0.0422091
-0.24333
0.201121
0.142993
0.0351117
0.095271
0.177701
1.97501
0.134702
0.647108
0.334947
-0.982055
-1.42289
1.62836
0.234546
-0.166781
0.0777207
-0.767492
0.689771
0.669186
0.136675
-0.48314
-0.0746315
0.137356
-0.0627249
0.137475
-0.212107
-0.441781
-0.104073
-0.0696249
0.0725973
-0.00297242
0.00246312
0.00177346
-0.0712481
-0.0285301
0.666628
-0.617279
-0.0493493
-0.297654
0.310489
0.875654
0.625271
-0.257586
-0.0159495
0.0365667
-0.181577
-0.0939938
0.176964
-0.589819
0.412855
-0.00888871
-0.000632528
0.0522168
0.0128855
-0.0651023
0.00828196
-0.0138591
0.00557711
-0.0246706
0.0172847
0.00738589
-0.948656
0.62077
-0.167819
-1.35719
-0.193091
-0.795143
1.50424
1.57378
-0.197489
-0.177361
0.125126
-0.0615653
0.0670676
-0.00550237
-0.0492022
1.02307
-0.973869
0.541983
0.0797681
0.000935034
-0.00982374
0.118658
0.0115502
0.0362885
-0.0435724
0.00473145
-0.390763
0.209185
-0.00304441
0.00248999
-0.237613
0.63202
1.05352
0.0409986
-0.0633243
0.00147728
0.0618471
1.92415
-0.35037
-0.0627182
-0.0560136
-0.95639
0.161247
0.411653
-0.215793
-0.473818
-0.126083
0.599901
0.811869
-0.35984
-0.452029
0.0878718
0.570654
-1.72054
-0.0189345
0.00662954
-0.00405826
-0.00257128
0.0861409
1.84992
-0.175676
0.182695
0.0672647
2.11251
-0.608263
-0.682068
0.0583372
0.62373
0.37657
-0.0024137
-0.344899
0.541577
0.82062
0.212047
0.0784905
-0.0220583
-0.976826
-0.11806
1.09489
1.09493
-0.00344834
0.000622435
-0.0487868
-0.355505
0.100854
-0.306145
0.932892
0.31016
-0.0681809
-0.00266806
0.273817
-0.388868
-0.0243628
0.0169616
0.113681
-0.15159
0.0379085
-0.305344
0.319931
-0.0145873
0.459899
-0.738467
-1.14974
0.640378
0.509365
0.0967065
-0.147906
0.0511999
0.265753
0.0402761
-0.734747
0.225068
-0.655294
0.655294
1.83148
1.07819
-0.720504
0.333265
0.487355
-0.293642
0.160794
0.907562
-0.365579
0.00702315
-0.868985
0.861962
0.137507
0.00425778
0.026134
-0.534609
-0.200138
0.0575439
-0.169075
-0.124194
0.293269
0.056483
-0.521983
0.352908
-1.06309
-0.282295
-0.64827
-0.0313161
-0.00467973
0.000498908
-0.224163
0.0465598
0.0536947
0.0349212
-0.14149
0.106569
-1.40591
-0.348287
-0.00588852
0.0703222
-0.154172
0.579877
-0.425706
-0.576938
0.392344
-0.114204
0.18842
0.238184
0.0086334
-0.0117019
-0.734737
0.321672
0.0334387
0.0681889
-0.124885
0.0337749
0.198377
0.00881507
-0.419497
2.00694
0.442441
-0.199661
0.867452
-0.789732
0.776195
-0.439582
-0.603071
0.170255
0.151416
-0.790987
0.761635
0.0293518
1.21327
-0.280374
-0.201342
-0.12978
-0.0124829
-0.0106608
0.952901
-0.838289
-0.114612
-0.177731
0.104348
0.0281921
0.123481
0.876166
0.112479
-0.75195
0.639471
-0.329613
-0.0536296
0.748535
-0.902707
0.144901
1.35943
1.19073
-0.112538
0.171595
0.554605
-0.7262
0.0418602
0.048853
0.00446413
0.00416927
-0.506044
-0.0970277
0.0469183
-0.0541979
-0.182744
0.134187
-0.541829
0.283009
-0.991879
-0.345453
-0.28597
-0.514093
1.46709
-0.0571572
-0.282636
-0.219539
-0.171224
0.0410165
0.294038
0.0584922
1.33365
-0.873128
-0.18512
0.124126
-0.247518
-0.143225
0.390743
0.00668836
-5.88179e-05
0.0475454
-0.060648
-0.244696
-0.124745
0.697722
-0.417118
-0.280604
0.11582
0.138155
-0.09939
-0.038765
0.240529
0.0535092
0.0406098
-1.6907
-0.093954
0.137057
0.567925
-0.455447
-0.0190657
0.0552456
-0.0196191
0.0221152
-0.00249613
0.00236713
-0.0352686
-0.237912
0.0777276
-0.00638721
-0.566779
0.425532
0.0156542
0.0664754
0.0302311
-0.693811
1.60931
-1.29915
0.0157433
-0.188748
0.173004
-0.137438
-0.542511
0.679949
0.080179
-0.718496
-0.41467
-0.735072
-0.0360199
0.000436172
0.0355837
-0.252305
-0.622907
-0.168686
-0.146889
-0.976826
-0.226263
0.161539
-0.293236
-1.11575
-0.306286
0.235086
0.0712005
0.268856
0.118011
0.426957
0.222604
-0.64956
0.0580099
0.050867
1.01225
0.310295
-1.32254
-0.223805
0.312842
1.31551
-0.23686
0.176667
-0.6729
0.985742
0.11345
-0.14762
-0.0204094
0.0379752
-0.0237617
0.950068
-1.14973
0.72296
0.0889087
-1.12074
0.519331
0.243898
0.663664
0.932679
0.00916857
-0.0163886
-1.19073
-0.64827
-0.713231
0.722285
-0.0584099
-0.890764
0.656679
0.612326
-0.931962
0.620401
-0.0073358
-0.783651
-0.314032
0.63699
-0.776393
0.139403
0.0829601
0.0551949
0.00588418
0.138396
1.74841
-1.8868
-0.00464729
-3.24453e-05
-0.258423
0.210157
0.717169
0.227314
-0.211661
-0.185349
1.6489
-1.74857
0.150798
0.123374
0.251333
0.254476
-0.505808
-1.48553
1.36747
-0.208103
0.78798
0.0952143
1.23328
-1.09489
-0.00152238
0.212692
-0.045624
0.0833695
0.0121104
0.00537631
-0.0399052
0.0345289
-1.02192
-0.0364492
0.320194
-0.805053
-1.26254
1.41472
-0.152181
0.368961
0.63043
-0.0513706
0.0550063
-0.00363567
-0.203092
1.85199
-0.718056
1.75996
0.175944
-1.43848
0.30798
-0.0952882
-0.585216
-0.406663
-1.12352
1.37485
-0.0602746
-0.876321
-1.80337
-0.183162
1.23328
0.0495175
-0.85457
0.830643
-0.645193
-0.18545
-0.981819
0.396603
0.0152582
0.117323
-0.000383154
-0.116939
-0.971582
0.564919
-0.220259
0.911705
-0.92758
0.188295
-0.204684
-0.0936359
0.235946
-0.17123
0.239397
-0.0374196
-1.46034
0.495858
1.29162
-1.07957
-0.553242
-0.517981
1.07122
0.446758
0.0168402
-0.0107957
-0.73449
0.698041
1.04158
-1.24467
-0.92237
0.623202
0.299168
1.54753
-0.132808
0.778481
-0.811534
-0.493335
-0.450091
-0.471382
-0.5002
0.803462
-0.803462
0.684973
-0.684973
-0.73449
-0.522735
0.522735
-0.623202
-0.741139
-0.931008
0.505898
-0.907465
0.907465
1.04158
-1.24467
0.778481
0.767294
-0.767294
0.811534
0.758939
-0.758939
0.506665
0.528618
0.482019
0.134113
-0.4998
-0.549909
1.07853
-1.32535
-1.85693
0.733413
-0.318901
0.110798
0.0113885
-0.00116011
0.00655156
-0.886505
0.0964884
0.790016
-0.0829368
0.0596741
-0.996792
0.584184
0.935294
-0.602028
-0.126061
0.0134542
-0.0120256
-0.801687
-0.0795727
-0.548909
0.00293489
0.0169609
0.61872
-0.101684
0.0606646
0.173219
-0.00557832
-0.00693396
0.0125123
-0.810705
0.0669614
0.743744
-0.102687
-0.0685425
-0.534512
0.408855
0.125657
0.917077
-0.741079
-0.175998
0.0805
0.292911
-0.0135973
-0.0560276
-0.0548416
-0.0147097
0.844681
-1.99991
-0.833658
0.0996719
-0.739452
0.796513
-0.0570614
0.123092
-0.89982
0.776728
-0.802547
0.905819
-0.103272
-0.0602677
0.0626348
0.0199786
-0.281836
0.35765
1.0172
-0.0969059
-0.789599
0.91716
-0.0928525
-0.824307
0.0639994
-0.0852676
-0.421589
0.820171
-1.33827
0.454965
-0.375197
0.104299
-0.893898
1.41759
0.338738
-0.789552
0.00590075
1.01773
-0.894639
1.22125
0.0930438
0.439852
-0.532896
-0.878193
-0.118598
-0.405798
0.0276875
-0.402597
0.535237
-0.785073
0.785073
-0.598716
-0.0874898
-0.864074
0.122995
-0.93096
0.844499
0.0729549
-0.194747
-0.0591869
0.0628796
0.011067
0.189928
0.827803
0.81833
0.770903
0.14058
-0.911483
0.0594755
0.0513227
-0.781377
-0.108842
0.890219
0.175462
-0.893518
-0.674146
0.888348
-0.784049
-0.10925
0.459611
-0.029554
-0.430057
-0.0674597
0.928467
-0.861007
0.113711
-0.194825
0.081114
-0.890627
-0.830723
0.0912709
0.515741
0.260453
-2.0315
0.882608
-0.569335
0.569335
-0.912105
-0.548236
-0.489851
0.289713
-0.140634
0.781012
0.779506
-0.208208
0.184237
0.436533
-0.602123
-0.193542
0.795665
-0.243102
-1.34475
-0.00708448
0.152519
-0.959338
0.215246
0.123353
0.298971
-0.218471
0.779945
-0.883217
0.27412
-0.222797
-0.153887
0.738071
0.575721
-0.575721
-0.0655244
0.0572572
0.107392
-0.072471
0.579974
0.348493
0.134861
0.00292194
0.00737173
-0.0102937
-0.665336
0.694694
-0.0293579
0.527874
-0.088022
0.110682
-0.894731
-1.04077
1.36093
-0.320157
0.129929
0.875995
-0.468009
0.995883
-0.754151
0.599171
-0.660709
-0.65153
0.147877
-0.690145
0.0277894
0.128342
0.1053
-0.795445
0.00638567
0.255084
0.073296
0.723217
0.695678
-0.0965064
0.0775804
0.781809
0.856162
-0.208175
-0.647988
-0.467057
0.536244
0.460343
-0.966297
0.74036
0.225937
-0.685839
-0.126893
1.45198
-0.344924
-0.0539258
-0.0407067
0.486219
0.513781
-0.769916
-0.113301
-0.717877
-0.793494
-0.126634
-0.786131
0.400499
0.599501
-0.09114
0.0715923
-0.862768
-0.0724318
-0.588277
-0.15887
-0.252003
0.410874
-0.0248409
-0.00224327
0.10996
0.0707256
-0.128634
-0.109278
0.757396
-0.640591
0.718171
-0.66164
0.76694
-0.194522
-0.334852
0.529374
-0.747315
-0.195076
0.942392
-0.247305
0.235429
-0.0249235
-0.024516
0.00587586
0.0128909
0.69921
-0.129875
0.128432
0.109752
-0.736396
0.0710595
0.392757
-0.540361
-0.140773
0.142094
-0.669624
-0.289813
1.02749
-0.00774265
0.164209
-0.0969447
-0.0139556
-0.000581287
-0.0610716
0.168322
0.224435
0.108872
-0.0806191
-0.0282533
0.848667
-0.031728
-0.0030511
0.0347791
0.125703
-0.0153644
-0.000112907
0.222931
-0.109249
0.14843
-0.289064
0.493022
-0.38415
0.00840894
0.297449
-0.415471
-0.936692
1.20439
-0.267702
-0.77803
0.837985
-0.0599545
0.708268
0.287603
-0.174153
-0.0656165
0.748296
-0.452485
-0.082027
0.280177
0.461603
0.193953
-0.655556
0.416226
0.0443531
0.650341
-0.574126
0.557705
0.0164211
1.18325
-1.14224
0.00665445
-0.00670377
4.93185e-05
0.69478
-0.00918079
-0.0831581
0.0199377
1.26114
0.422206
0.286063
0.0128357
-0.0886224
-0.0592841
0.0365898
0.0309418
-0.0675316
0.0215696
-0.0161933
0.84059
-0.530296
0.111705
0.226248
-0.0264635
-0.0947655
0.219617
0.0987461
0.00342661
0.0637397
0.768076
-0.254937
0.201782
0.0531554
0.557217
-0.0428213
-0.514396
0.642908
0.120173
-0.0161252
0.0062429
0.00988228
-0.488149
-0.538125
0.344583
-0.00056802
0.741318
0.711805
0.033525
0.399124
-0.39324
0.818371
0.12221
-0.0231064
-0.871525
0.0454665
-0.273845
0.258351
-0.175174
0.689793
0.0782832
0.0130017
0.448058
-0.160455
-0.0971009
0.162317
0.031661
-0.113257
0.422683
-0.0568535
0.648178
-0.0742894
0.169354
0.13323
0.423987
-0.155867
0.009237
-0.0549402
-0.110508
0.0188582
-5.07546e-05
-0.0188075
-1.35942
0.217185
-0.0131783
0.858827
-0.230085
-0.615087
0.633999
-0.0189115
0.459946
0.760852
0.327671
0.201703
0.0776063
-0.171242
0.629214
0.131639
1.00981
0.773504
-0.261517
0.716482
0.726103
-0.501667
-0.607575
0.350137
0.257438
-0.0564786
-0.0711614
0.0423558
0.0616003
-0.0459769
1.11863
0.735855
0.0825159
0.615655
0.222141
-0.867912
-0.0807713
-0.671854
0.677755
-0.022754
-0.594586
0.435716
0.875258
0.673567
0.106113
0.00970444
-0.167706
-0.315434
1.12003
0.489286
-0.0710746
-0.0142732
-0.430517
-0.07115
0.844873
0.738014
-0.0761849
-0.228815
-0.744869
0.932974
-0.188105
-0.412789
-0.194786
0.00345051
-0.173024
-0.181942
0.731397
-0.00642233
0.00174434
0.628119
0.336836
-0.194742
0.601135
-0.13298
0.243193
0.733601
0.247513
-0.981114
0.277571
-0.922763
0.131172
-1.43032
-0.182472
0.773748
-0.591276
-0.664459
-0.0432538
0.0187378
-0.0545605
-1.50692
0.0262665
-0.0458856
0.733671
0.0367608
-0.168171
0.13141
-0.0314157
-0.577536
0.0693264
0.094883
-1.10411
-0.00932807
0.00374975
0.214988
-0.0532588
-0.587654
0.0135279
0.566914
0.308344
1.01209
0.934466
-0.250367
-0.384177
0.634544
-0.185505
-0.618012
0.618012
-0.21542
-0.911177
1.1266
0.0296482
-0.147785
0.687176
-0.120261
-0.22403
-0.337757
0.283832
-0.149996
1.01526
0.334782
0.171237
-0.105741
-1.27179
0.484419
0.0732858
0.0526688
0.0165045
-1.45728
-0.384707
-0.357628
0.693333
0.306667
-0.384707
0.693333
-0.503783
-0.0957023
-0.503783
-0.696274
0.696274
0.303726
-0.0146163
0.13432
-0.0753218
0.206016
0.0480803
-0.462859
0.6416
-0.0404649
0.663156
-0.504704
-0.158453
-0.0608165
0.0610878
-0.000271227
-0.0172119
0.0201339
0.41677
0.0193036
-0.037685
-0.435352
-0.347056
0.122893
0.0463173
0.834644
-0.280038
-0.387746
0.216522
-0.00442879
-0.0979107
-0.0103233
0.677067
0.0642512
0.217747
0.00815367
-0.000649785
-0.00258656
0.0861067
0.567961
-0.476142
-0.0918189
1.87318
0.545094
-0.432723
0.884703
0.0109748
-0.0609877
0.104164
-0.317997
0.0944396
1.10458
-0.370982
0.00863518
-0.0399513
0.57361
-0.174372
0.023229
-0.023229
0.0190842
-0.0190842
0.00106142
-0.00106142
0.0145163
0.365296
0.457467
-0.0176081
-0.731556
0.491006
0.193077
0.0298532
-0.0817562
-0.484997
0.7927
0.110827
-0.796666
-1.02148
0.429559
0.0630238
0.0189105
-0.00162579
-0.0108822
0.0108822
0.244463
-0.0113183
0.0113183
0.70091
0.0880792
0.00702615
0.00112752
0.00686461
-0.0701889
-0.0233446
0.0233446
0.00158911
-0.00158911
-0.021413
0.021413
-0.00947004
0.00947004
0.0908414
-0.293546
-0.0844374
0.221712
-0.00967041
0.00967041
-0.373175
0.517132
-0.143957
0.510443
-0.225512
-0.316863
-0.0708823
0.561515
-0.117874
0.0717408
0.562258
0.566299
-0.00739156
0.00739156
0.0435934
0.0237531
-0.0237531
-0.00981872
0.00981872
0.748808
-0.797202
0.034066
-0.219534
0.23242
0.00542745
-0.00542745
-0.00142885
0.00142885
0.0177233
-0.0177233
0.0242201
-0.0242201
-0.0225954
0.0225954
0.0339566
-0.0339566
0.479488
-0.0307249
0.0307249
-0.00531454
0.00531454
0.0232256
-0.0232256
0.00217554
-0.00217554
0.00757545
-0.00757545
-0.012312
-0.0243266
0.0243266
0.559299
0.031466
-0.0381848
0.0381848
-0.0015575
0.0015575
-0.00133743
0.00133743
0.0323882
-0.0323882
0.0265757
-0.0265757
0.0054782
-0.0054782
0.00274411
-0.00274411
-0.0149438
-0.294164
0.00190021
-0.00190021
-0.00476118
0.00476118
-0.036917
0.036917
-0.0288538
0.0288538
-0.00226668
0.00226668
-0.404655
0.648553
0.267585
-0.0310213
0.0310213
-0.0263633
0.00118904
-0.00118904
-0.00425977
0.00425977
0.0385174
-0.0385174
-0.149118
0.126012
-0.00270347
0.00270347
-0.0240684
0.0240684
-0.504694
0.0457548
-0.00851611
-0.0324092
0.0324092
-0.450342
0.0352332
0.0197731
-0.456022
-0.664716
-0.0355704
0.0355704
-0.194903
0.13805
-0.0420611
-0.00392928
0.00392928
0.00782069
0.0439168
0.262614
-0.325497
-0.287181
0.612678
0.201698
0.00249284
-0.00249284
-0.116919
0.257855
-0.140936
0.781325
-0.403832
-0.377493
-0.452533
-0.662353
-0.0558978
0.27242
-0.218374
-0.248684
-0.573324
-0.0028896
0.191506
-0.221124
0.0143528
-0.0143528
-0.00284527
0.00284527
0.0298614
-0.0298614
0.0270083
-0.0270083
0.000527694
-0.000527694
-0.00221275
0.00221275
-0.022386
-0.134289
0.18122
-0.307281
-0.0012252
0.0012252
-0.0463119
0.0463119
-0.0390791
0.0390791
0.141202
-0.0135168
-0.127685
-0.00550916
0.322714
-0.552799
0.00185864
-0.00185864
0.00315085
-0.00315085
-0.0892718
0.121652
-0.177549
-0.00263814
0.00263814
0.0770346
0.0176101
1.00906
-0.483005
-0.0748961
0.557901
-0.634595
0.0687366
-0.471333
-0.0397768
0.0397768
-0.683043
0.283045
0.0481187
-0.0481187
-0.637023
0.375529
0.269619
0.122988
-0.000369943
0.000369943
-0.817188
-0.000868855
0.000868855
0.30955
0.410041
0.00821097
-0.0520128
0.0520128
-0.00274686
0.00274686
-0.0410694
0.0410694
-0.0553441
0.0553441
-0.00134519
0.00134519
-0.0611248
0.0611248
-0.00177138
0.00177138
-0.0443083
0.0443083
-0.00171239
-0.0465084
0.0465084
0.0043812
-0.0043812
0.0467732
-0.0467732
-0.00229191
0.00229191
0.0490666
-0.0490666
-0.107258
-0.00355325
0.00355325
-0.00475265
0.00475265
-0.0559547
0.0851613
-0.0103298
0.0103298
0.00475678
-0.00475678
-0.0576856
0.0576856
0.291859
-0.0177157
0.0177157
-0.0586979
0.0586979
-0.00733469
0.00733469
-0.0653973
0.0653973
-0.0134469
0.0134469
-0.0783364
0.0783364
-0.0209888
0.0209888
-0.0966063
0.0966063
-0.685781
0.178426
-0.524243
0.505331
-0.846015
0.00702887
-0.575402
0.400227
0.00628358
0.109537
0.00356494
-0.00356494
0.178133
-0.729329
0.0408308
-0.0243264
-0.988561
1.42606
0.292274
0.25844
-0.0273847
-0.0111665
-0.402092
-0.572277
-0.0102493
0.390463
-1.14139
-0.0170943
0.0170943
-0.766607
0.021844
-0.021844
0.00271456
-0.00271456
0.311827
-0.348125
-0.00259341
0.00259341
0.0197111
0.0150393
0.596907
0.136212
-0.020263
-0.0118961
-0.00449248
-0.0911412
0.485874
-0.394733
0.018907
-0.0259915
0.0132956
0.884238
0.00885369
0.0592578
-0.406019
0.433706
-0.480915
-1.0184
-0.228151
-0.0685793
0.0174962
-0.103863
-0.0909619
0.0312732
-0.00274156
0.000352786
0.776056
-0.561026
-0.0338298
0.0654908
-0.03455
0.0569133
0.0774072
0.428702
0.233465
-0.169053
0.216857
0.021247
-0.00758884
-1.07058
0.000322376
-0.0331219
-0.135049
-0.0197089
-1.35083
-0.0707774
0.261023
-0.348987
0.384688
0.257153
-0.771246
0.044083
-0.0375501
-0.0477175
-0.343275
0.468932
-0.0349804
-0.0294367
0.0644171
-0.0261981
0.0261981
0.168635
-0.426222
-0.0245752
0.0581855
-0.0757734
0.0530194
-0.0671374
-0.00712491
0.0742623
-0.0399901
-0.150294
0.0525794
-0.0450381
-0.292727
-0.364661
0.657388
0.0135885
0.0565363
0.153249
-0.0248167
-0.0594267
0.0630274
-0.152158
0.303574
0.00592404
0.0288551
-0.0310518
0.184301
0.00356308
0.254308
-0.00261827
0.00261827
-0.580201
1.42507
0.0852454
-0.166017
-0.0189678
-0.0227866
0.530868
0.465014
-0.0155196
-0.00619251
-0.531691
0.00744826
0.177211
0.0847192
-0.667389
0.30181
-0.0575336
0.388546
-0.681272
0.218354
0.522006
-0.0876679
0.0876679
-0.000383155
-0.683388
0.0459202
0.637468
-0.206609
0.152048
0.0711677
-0.153992
-0.584476
-0.0960949
0.00320815
-0.00189929
0.930215
0.241329
-0.135216
-0.0685593
-1.07679
-0.361695
-0.0593915
-0.271143
0.81272
0.588691
-0.265977
-0.282011
0.579459
-0.0474216
0.340013
-0.26979
0.0751299
-0.470266
0.32631
0.12646
-0.12646
0.0725305
-0.0532854
-0.0192451
0.00363414
0.00696527
0.0221152
-0.166179
-0.321971
0.234739
-0.187652
-0.0470877
0.551834
-1.05201
0.310268
-0.822456
0.698807
-0.126172
-0.18111
-0.0455919
-0.0791534
-0.47891
0.0435576
-0.280611
0.0018483
-0.0197089
0.371926
-0.00524238
-0.000276008
-0.000200375
0.0150585
-0.00839086
-0.00666762
-0.107531
-0.017475
-0.163369
0.180844
-0.133383
-0.336883
0.0197111
0.345088
0.000127615
-0.366217
0.0802467
0.00234005
0.0630494
-0.0806575
-0.011635
0.011635
-0.000839369
0.000160262
-0.00966358
-0.000148311
-0.0484045
0.000875553
-0.00118242
0.177159
-0.0173258
-0.0023487
0.0023487
0.0725434
0.520052
0.000311102
-0.29584
0.501743
1.11543
-0.476658
0.342888
-0.437357
-0.117894
0.0933185
0.237802
-0.236679
-0.0123687
0.0162505
-0.00335968
-0.00359571
-0.183058
-0.387313
0.878319
0.307552
-0.329938
0.145011
-0.00156844
0.120627
0.0093023
0.000239813
0.00144632
0.0148042
-0.141248
0.00126777
-0.000151733
0.709209
-0.646181
-0.243324
0.161538
0.884621
0.000501412
4.06468e-05
-0.0420611
-0.00583347
0.817507
-0.431017
0.504303
-1.15112
0.906169
-0.881834
0.590208
-0.18998
0.68881
0.000317304
0.00327319
0.0156373
-0.114395
0.140484
-0.16434
0.00952019
-0.00251466
0.0621849
-0.0468906
-0.0152943
0.000210626
0.0289791
-0.00795668
-0.0210224
-0.0909331
0.00776989
-0.000398154
0.0020325
0.46613
-0.423569
-0.00181342
-0.000408032
0.887253
-0.841333
0.395118
-0.00570901
0.00108401
0.165246
-0.0535418
-0.0380649
-0.124032
-0.0195905
-0.00350868
0.113876
0.00569813
-0.00138506
0.421154
-2.95542e-05
-0.00403188
0.00403188
-0.00412142
-0.00777473
-0.000697505
-0.323225
-0.00360265
0.0703233
-0.107188
0.403682
0.138029
-0.0656067
-0.000633445
0.00119941
0.47433
-0.000897639
-0.00155155
0.00500206
-0.00199027
-0.000351591
0.0884272
0.0464337
-0.710319
0.485943
-0.873256
0.0306897
-0.000108712
-0.655644
0.035498
0.0878553
0.607176
-0.0155674
0.0400331
-0.00389411
-0.00134555
-0.551404
-0.00323888
-0.000426182
-0.0237506
0.958317
-0.542091
-0.00246491
-0.000520538
-0.00567281
-0.00126134
0.068597
-0.0229653
0.0229653
0.00147876
-0.0013185
-0.00257791
-0.00771163
0.00152187
-0.00179788
-0.15945
0.0882891
-0.0061122
-0.0129392
0.0448058
-0.0155598
0.0596303
-0.0421341
-0.624338
0.567277