/*--------------------------------*- C++ -*----------------------------------*\
| =========                 |                                                 |
| \\      /  F ield         | OpenFOAM: The Open Source CFD Toolbox           |
|  \\    /   O peration     | Version:  2306                                  |
|   \\  /    A nd           | Website:  www.openfoam.com                      |
|    \\/     M anipulation  |                                                 |
\*---------------------------------------------------------------------------*/
FoamFile
{
    version     2.0;
    format      ascii;
    arch        "LSB;label=32;scalar=64";
    class       volVectorField;
    location    "33";
    object      U;
}
// * * * * * * * * * * * * * * * * * * * * * * * * * * * * * * * * * * * * * //

dimensions      [0 1 -1 0 0 0 0];

internalField   nonuniform List<vector> 
2186
(
(1.33425 -0.0705569 1.86625e-19)
(1.66468 -0.973482 -1.15579e-19)
(1.50526 -0.948553 -5.45157e-22)
(0.772756 -0.615436 -1.27109e-19)
(-0.0498202 0.114628 -1.6362e-19)
(1.43619 -0.242648 0)
(0.755059 -0.697904 0)
(-0.228578 -0.272778 1.30678e-19)
(1.49351 -0.211637 2.09607e-19)
(0.579485 -0.352795 -2.5056e-21)
(0.6526 0.586836 0)
(0.846054 -0.287116 -1.55389e-19)
(-0.247025 -0.280118 -5.21704e-20)
(1.21297 0.0210541 -3.3128e-19)
(1.85433 -0.711418 -1.21397e-19)
(1.01179 -0.00590357 1.57578e-19)
(0.978804 0.0118855 0)
(-0.340051 0.20104 0)
(0.896985 0.0777336 0)
(-0.139079 0.152668 -6.0508e-20)
(0.48015 0.0390483 -1.05837e-19)
(-0.136384 0.192367 8.42629e-20)
(1.19824 0.0246335 2.74096e-19)
(-0.212331 -0.0624071 6.50566e-21)
(1.03555 0.00266377 -2.15622e-19)
(0.824227 -0.590172 0)
(0.76563 -0.0609999 1.30871e-19)
(0.64097 -0.620278 -1.43104e-19)
(1.18017 0.689966 0)
(0.966619 0.0227734 -2.94356e-19)
(-0.0781346 0.080829 0)
(1.02793 -0.0158142 1.01928e-20)
(-0.218893 -0.00199622 0)
(2.23891 0.205492 2.1905e-19)
(-0.118271 -0.201811 2.08771e-21)
(1.50141 0.753014 7.00809e-20)
(1.87445 0.103665 1.42625e-19)
(0.501598 0.0884183 -3.16002e-19)
(1.82879 0.216166 -2.24638e-19)
(1.49249 0.00238702 1.05419e-20)
(-0.267752 -0.293372 0)
(-0.0774153 0.135136 0)
(1.94256 -0.913773 1.04067e-19)
(-0.36092 0.0795821 0)
(1.09004 0.265783 1.42329e-19)
(0.620399 -0.333311 2.53576e-19)
(0.959911 -0.818406 0)
(1.22916 -0.81965 8.23363e-20)
(2.12302 0.091006 0)
(-0.118596 0.284485 1.45539e-19)
(-0.0778394 0.0981571 8.93781e-20)
(0.607108 0.559848 7.5392e-20)
(2.13958 -0.790735 1.31727e-19)
(0.578368 0.230686 -2.55024e-19)
(-0.309393 -0.205445 3.30425e-20)
(0.797869 -0.682174 0)
(1.72311 -1.00574 1.95819e-20)
(0.610375 -0.569767 0)
(2.17691 0.204865 6.32894e-20)
(1.16312 -0.180138 -3.02424e-19)
(2.13226 -0.0724329 1.63272e-19)
(1.31786 0.293756 -1.6635e-19)
(1.31468 0.519745 0)
(1.74291 -0.0982194 -1.15517e-20)
(1.33702 0.380071 -1.02007e-19)
(1.29264 -0.76303 -1.09208e-19)
(1.14014 0.640997 4.94872e-20)
(0.676605 0.0365591 -5.09348e-19)
(0.816973 0.0292365 0)
(2.27239 -0.193412 -7.91327e-20)
(-0.241929 -0.29533 -1.52785e-19)
(2.5495 0.0696329 -1.78187e-19)
(0.730317 -0.0734969 -2.23141e-19)
(0.907791 -0.548444 0)
(0.81601 0.152027 -8.30508e-20)
(0.578151 -0.540142 -2.60613e-19)
(2.2927 0.0597493 0)
(1.00732 0.00786834 3.23788e-19)
(-0.114471 -0.248305 0)
(1.96735 0.316565 0)
(0.491379 0.224392 6.17077e-20)
(1.42998 -0.198367 -3.73993e-20)
(1.02393 0.0036776 3.57824e-20)
(1.28681 0.398333 2.56733e-20)
(0.974726 0.0213368 3.74699e-19)
(1.04335 0.0241881 -8.90479e-21)
(0.658071 0.138701 -3.06004e-19)
(1.15828 -0.188877 7.21804e-21)
(1.48062 -0.282028 0)
(-0.0709116 -0.0640758 1.1422e-19)
(0.896128 -0.65467 -1.38484e-19)
(-0.0825708 0.0324638 -2.36841e-22)
(1.13173 -0.0857821 2.15307e-19)
(0.835451 -0.212555 0)
(0.974722 0.0222953 3.59116e-20)
(1.33156 0.626436 0)
(1.67845 -0.987532 0)
(1.27682 0.216157 0)
(-0.0907317 0.226246 0)
(0.827312 -0.700015 2.48708e-19)
(0.360894 0.30257 -1.96051e-19)
(0.414293 0.314311 1.21485e-19)
(1.53638 0.18667 0)
(1.16377 -0.110573 -1.96823e-19)
(1.12423 0.0226954 1.60281e-19)
(-0.176635 0.185902 1.08917e-19)
(0.609633 0.471573 0)
(2.28385 -0.158873 -1.43158e-19)
(0.996837 -0.507047 6.96855e-20)
(-1.0622 0.697599 2.78831e-19)
(1.70199 0.289573 1.1283e-19)
(-0.0697254 0.226404 -2.31139e-19)
(0.851342 -0.774251 0)
(0.541003 0.306827 1.55382e-19)
(1.76397 -0.229196 -6.15764e-19)
(-0.242494 -0.249262 -5.06072e-19)
(1.5336 0.0976817 2.12101e-19)
(1.70134 0.0846327 0)
(-0.0948467 -0.0891196 -3.41575e-19)
(0.717493 -0.108757 7.03045e-20)
(1.52266 0.857468 0)
(-0.130176 0.303957 -1.88051e-19)
(0.857524 0.735037 -2.53861e-19)
(-0.485743 0.202565 2.76698e-19)
(1.02781 -0.0269835 0)
(1.54761 -0.0429361 -2.67197e-19)
(-0.0502224 0.163418 0)
(0.729551 -0.529516 -9.31752e-20)
(-0.398896 0.193932 -1.49509e-19)
(0.823486 -0.752085 0)
(0.463933 -0.328158 3.70416e-19)
(0.574055 -0.492918 2.45743e-19)
(0.43175 -0.391132 0)
(1.02332 -0.81477 -9.71384e-20)
(0.368077 0.196194 0)
(-0.0970071 0.342537 -1.1408e-19)
(0.847307 -0.731449 1.1714e-19)
(2.46498 -0.24102 3.34967e-19)
(2.10714 0.176148 0)
(-0.146305 -0.197539 0)
(0.661188 0.61386 -3.16138e-19)
(1.84277 -0.648882 2.42697e-20)
(-0.162203 -0.183222 0)
(1.02354 -0.8409 -1.07983e-20)
(1.16762 -0.104572 0)
(1.09765 -0.134325 3.41897e-19)
(2.1124 -0.168761 -1.41132e-19)
(-0.0736232 0.148799 0)
(1.26246 -0.577339 -4.25583e-20)
(-0.32532 0.143052 -4.1224e-20)
(0.00210006 0.049171 0)
(1.13409 -0.847448 1.29514e-20)
(1.00709 0.00423047 -5.40906e-19)
(0.683471 -0.516235 -9.20684e-21)
(0.850461 -0.549155 0)
(1.2424 -0.760651 -7.01063e-20)
(0.639856 0.19927 2.38962e-19)
(1.18459 0.119919 0)
(1.45835 0.0766478 -2.33541e-19)
(1.23975 -0.889807 -1.31547e-19)
(-0.137409 -0.187448 -1.24975e-19)
(-0.164688 -0.367994 -1.97024e-19)
(1.0627 0.000511517 2.04375e-19)
(0.951228 -0.493655 -8.76265e-20)
(0.862323 -0.0778322 -6.68185e-21)
(0.218559 0.209879 -1.85504e-20)
(0.758015 -0.122638 1.38265e-19)
(-0.128037 -0.0898445 -3.12124e-19)
(2.03745 -0.275627 0)
(2.65476 -0.375801 1.53068e-19)
(1.41101 0.629421 1.26453e-19)
(0.843653 -0.647474 -1.81434e-19)
(0.995846 0.00780028 1.1083e-20)
(0.755122 -0.565187 2.56104e-19)
(1.26991 0.777106 1.16001e-19)
(1.76606 0.0695166 1.16109e-20)
(-0.0978717 0.109051 0)
(1.07787 0.0469841 -2.12207e-19)
(-0.544509 -0.0965198 -2.50632e-19)
(1.04403 0.469094 7.34954e-20)
(0.111826 -0.137797 1.88613e-19)
(1.16494 0.0259278 -3.83159e-20)
(-0.215623 -0.00407759 -1.46344e-19)
(1.26283 0.563236 -7.0999e-20)
(1.10474 0.859727 0)
(-0.142199 0.0960805 -9.044e-20)
(-0.104097 -0.140655 0)
(0.62625 0.533889 -2.56447e-19)
(2.02931 0.165928 -1.56059e-20)
(-0.259284 -0.280999 1.7385e-19)
(-0.3645 -0.0638571 -5.67646e-19)
(0.721815 0.0381253 2.23715e-19)
(1.84861 0.16714 -3.26577e-20)
(1.01055 -0.370966 -2.59555e-20)
(-0.0841079 -0.098235 0)
(-0.936546 1.03167 4.10439e-19)
(1.29132 0.94386 -1.61206e-20)
(0.834567 0.0455939 -1.22515e-19)
(0.53278 0.498939 1.7845e-19)
(0.454163 0.194507 0)
(-0.213968 -0.308682 -2.44292e-19)
(-0.927096 1.26697 2.77316e-19)
(1.34369 -0.992923 1.17373e-22)
(0.994007 -0.0486946 -1.67584e-19)
(-0.1757 -0.168217 6.52562e-21)
(0.0321156 -0.0280264 1.37749e-19)
(-0.242643 -0.208836 -2.20118e-19)
(1.80006 0.059142 0)
(1.12011 0.0394608 -2.85426e-19)
(2.40623 0.167378 1.71011e-19)
(1.31648 -0.645525 7.12664e-20)
(1.14825 -0.122877 2.36028e-20)
(0.571144 0.286314 0)
(0.913487 0.723759 -1.5019e-20)
(0.658932 0.605086 1.69902e-19)
(0.932533 -0.595317 1.25485e-19)
(0.657472 0.468096 0)
(1.0243 -0.00347507 7.19791e-21)
(0.918905 -0.696632 1.78295e-19)
(0.815014 0.393987 -4.18951e-19)
(1.24007 -0.110605 0)
(-0.102177 -0.118456 -3.6197e-19)
(-0.120206 0.0358501 -9.18852e-20)
(1.54905 0.699657 0)
(1.39894 -0.973214 -1.00468e-22)
(-0.315698 0.220266 0)
(-0.0247171 0.0974302 1.02845e-19)
(0.708129 0.624669 -9.03261e-20)
(0.867903 -0.245704 0)
(-0.205628 -0.182527 0)
(1.66558 -0.478541 0)
(-1.2159 0.5045 4.34759e-19)
(1.25838 -0.917877 8.64072e-20)
(1.21689 -0.632206 4.72537e-20)
(1.08085 -0.182301 -1.35757e-19)
(0.916712 -0.726744 -1.39746e-19)
(0.197251 -0.201805 0)
(-0.656951 0.190386 0)
(1.03792 -0.538935 1.44838e-19)
(-0.173739 -0.224847 0)
(-0.110605 0.278785 0)
(-0.229386 -0.246456 4.34559e-19)
(0.763857 0.642576 7.83566e-20)
(0.981773 0.767429 0)
(0.668618 0.521551 -7.81801e-20)
(0.836229 -0.0717639 -1.99989e-19)
(0.717841 0.531446 -2.08953e-19)
(0.566836 0.525351 -1.53726e-19)
(-0.232893 -0.318008 5.93716e-22)
(0.751536 -0.674646 0)
(0.888872 0.150158 -2.91965e-19)
(-0.268136 -0.308514 6.81593e-20)
(0.579679 0.536724 3.46363e-19)
(0.926268 0.770067 0)
(-0.749456 0.299827 2.95613e-19)
(-0.114586 -0.274371 3.81856e-19)
(-0.0632885 -0.120103 -1.97804e-19)
(0.635821 0.538857 -1.3595e-20)
(0.96932 -0.00899621 5.24521e-20)
(-0.265602 -0.286981 0)
(2.27993 -0.0129881 -3.43001e-19)
(2.01388 -0.138993 -4.56281e-19)
(0.683999 -0.634313 -6.33444e-20)
(-0.371631 0.279849 8.87805e-21)
(1.16439 0.440553 1.65235e-19)
(0.862786 0.385555 0)
(1.07808 -0.187081 1.64058e-19)
(0.0275602 -0.295224 -2.79306e-21)
(-0.125967 -0.000129181 3.3941e-19)
(0.92764 0.0165729 -4.61681e-20)
(1.08942 0.140622 0)
(1.90292 -0.0417025 -3.44481e-19)
(1.81104 0.0792221 0)
(0.529761 0.208949 -4.19123e-19)
(0.0358296 -0.0282747 0)
(-0.235366 -0.292638 2.99961e-19)
(0.720155 0.108217 0)
(0.653845 -0.550075 -1.58109e-19)
(1.14789 0.0153123 1.83475e-19)
(-0.112966 0.197522 3.55934e-20)
(2.10522 -0.0199642 6.93758e-21)
(2.17199 -0.23879 -1.58257e-19)
(1.09277 0.214458 -1.98122e-19)
(-0.267237 -0.301821 -1.30549e-19)
(1.11649 -0.885269 0)
(0.818588 0.0177988 -1.33584e-19)
(0.956508 -0.404814 -2.49643e-19)
(1.77029 -0.596272 -1.04486e-20)
(1.79806 0.0141544 3.19313e-19)
(1.06873 -0.0105776 3.41428e-19)
(0.0266747 -0.295038 -1.81597e-19)
(1.0269 -0.464933 -1.05811e-19)
(0.207969 -0.200429 2.23713e-19)
(1.00781 -0.00913996 0)
(1.00478 -0.00776373 0)
(1.19398 -0.00335644 1.83775e-19)
(-0.0704395 0.309467 -8.07729e-20)
(0.181689 -0.119749 -1.64266e-19)
(2.00887 0.0690305 -9.35672e-21)
(1.09973 0.126072 0)
(1.72239 0.163953 -1.11632e-19)
(0.982456 -0.855756 -5.25927e-20)
(1.84676 -0.583721 -9.94952e-20)
(1.07241 0.809794 0)
(0.499008 -0.482034 0)
(0.576875 0.485669 -1.62861e-19)
(1.07445 0.263622 -3.66327e-19)
(2.30817 -0.237953 5.02284e-22)
(0.852955 0.134913 1.25208e-19)
(-0.101082 -0.29404 -5.06357e-19)
(1.60382 -0.453239 -5.56981e-20)
(-0.256491 -0.316414 0)
(-0.147879 -0.210382 0)
(-0.27641 -0.284908 0)
(1.38528 -0.751935 -4.83666e-20)
(-0.000982642 0.0503883 -1.9534e-19)
(0.028362 -0.0442423 0)
(1.25261 0.945564 -3.01035e-20)
(1.09325 0.136889 -3.79242e-19)
(1.88019 0.0881144 -1.76752e-20)
(1.04637 0.892653 7.52773e-20)
(-0.0678645 0.196741 1.17927e-19)
(1.43389 -0.205505 0)
(-0.273149 -0.272093 -3.5954e-19)
(-0.037268 0.152077 2.25855e-19)
(0.775056 0.00221863 1.64305e-19)
(1.49386 0.918682 3.01227e-22)
(1.16864 -0.326302 -8.7667e-20)
(-0.105108 0.013247 -8.65914e-22)
(0.778977 -0.711089 -2.98224e-20)
(1.09144 -0.0254298 0)
(1.66498 -0.0537192 0)
(1.08641 0.0499317 0)
(-0.690497 0.821176 -2.06668e-19)
(-0.274122 -0.29309 1.25547e-19)
(1.01392 0.815975 0)
(1.00298 -0.0144372 4.50468e-19)
(0.739014 0.573948 -2.09656e-19)
(-1.11141 0.830925 -2.62426e-19)
(0.860057 -0.00664316 -3.67049e-20)
(0.746597 -0.682411 -1.80962e-19)
(1.34997 0.686155 -2.8863e-20)
(0.595473 -0.490442 -2.56349e-19)
(1.12369 -0.0014822 -4.08122e-19)
(0.822417 0.0379569 3.89493e-20)
(1.57087 -0.181263 3.94478e-20)
(1.95037 -0.108217 -1.3695e-19)
(-0.0979698 -0.113459 -1.6048e-22)
(1.05209 0.445281 -2.44043e-19)
(1.29462 0.594359 7.05761e-20)
(-0.132836 -0.205952 0)
(-0.119979 -0.287377 1.86424e-19)
(-0.143311 -0.173549 1.52788e-19)
(-0.166456 -0.153568 -1.58233e-19)
(0.448939 0.267404 0)
(1.45711 -0.0630527 0)
(-0.0310245 0.0219364 -1.23228e-19)
(-0.254764 -0.319066 -7.00383e-20)
(1.04352 -0.0323707 1.61675e-19)
(-0.0594647 0.0701747 -4.29178e-20)
(1.23198 0.178473 -3.33783e-19)
(-0.156775 0.276159 0)
(0.868736 -0.770748 -2.40003e-19)
(1.73207 -0.14054 2.31605e-19)
(-0.264887 -0.314536 1.67642e-19)
(0.708639 0.125095 2.9811e-19)
(0.61401 0.0934959 9.66749e-20)
(0.528644 -0.502007 1.74891e-19)
(-0.179983 -0.210851 -1.59201e-19)
(1.00003 -0.532527 0)
(0.365661 0.300078 -1.78864e-19)
(1.02705 -0.0181464 -2.57172e-19)
(-0.375136 -0.0480988 2.24155e-19)
(1.38286 0.461903 -1.0818e-19)
(-0.189104 -0.255166 -6.10897e-20)
(0.718297 -0.655871 -1.51785e-20)
(0.801088 0.158888 -1.87131e-19)
(0.952472 0.401155 2.08451e-20)
(1.17292 -0.152033 2.93159e-20)
(0.626478 -0.270796 -2.66011e-19)
(2.0708 -0.368082 -2.11524e-19)
(2.04629 0.00581743 0)
(1.73621 0.0625482 -2.02071e-20)
(1.63934 0.108413 -1.5274e-20)
(0.769764 -0.180272 1.35915e-19)
(0.942296 0.350783 -1.76918e-19)
(1.81861 -0.26104 6.22839e-20)
(0.393086 0.356197 -2.31925e-19)
(-0.190193 0.289588 1.51299e-19)
(2.08396 -0.135256 0)
(0.933058 0.00485582 0)
(0.909798 -0.805418 4.40355e-20)
(-0.11083 -0.310296 -4.18298e-19)
(-0.620119 0.26713 -1.80064e-19)
(-0.119989 -0.145651 -2.64685e-19)
(-0.200573 0.263084 -1.20725e-19)
(-0.245903 -0.379014 0)
(-0.13809 -0.185875 4.74747e-20)
(-0.228918 0.202327 -8.38599e-20)
(0.0313033 -0.0239545 -3.13723e-19)
(0.81676 -0.140809 0)
(1.90707 -0.218885 2.07454e-19)
(-0.135389 -0.159623 0)
(0.995334 0.0237342 3.25261e-19)
(-0.163964 -0.342681 2.20381e-20)
(0.570924 -0.46254 3.43535e-19)
(-0.521745 -0.187522 4.1516e-19)
(-1.12049 0.125208 0)
(-0.00733484 0.261634 8.19982e-20)
(1.00596 0.0202526 -9.76791e-21)
(-0.0636105 -0.153913 0)
(1.00505 -0.0096094 -5.08306e-20)
(0.896483 -0.758777 -2.3422e-19)
(1.18568 0.186017 0)
(0.957173 -0.295961 1.78533e-19)
(-0.0563324 0.351684 1.56873e-19)
(-0.059976 -0.0625444 0)
(-0.235502 -0.294843 -6.80709e-21)
(0.759167 -0.665441 -3.60163e-19)
(0.972415 -0.0286424 -2.30745e-19)
(-0.101559 -0.316401 5.07725e-19)
(-0.216853 -0.300803 1.85612e-19)
(-0.241315 -0.359091 0)
(0.93348 0.449769 0)
(-0.210676 -0.406277 2.12596e-19)
(1.94931 0.0331577 -2.32143e-19)
(1.04212 0.867527 1.69909e-20)
(1.05636 0.198664 -1.11161e-19)
(1.15145 0.0062427 -1.88316e-19)
(1.0715 -0.0759762 -6.43967e-20)
(-0.11898 -0.334232 -4.61509e-19)
(1.83713 0.0976832 3.53253e-19)
(0.660957 0.0331497 1.86245e-19)
(1.81012 -0.0314969 1.55885e-19)
(1.06784 -0.164953 0)
(-0.258569 0.642514 5.4889e-19)
(1.14471 0.0243669 -4.40819e-19)
(1.70732 0.599179 7.02376e-21)
(0.771782 -0.488293 -1.39755e-19)
(-0.0936833 -0.0880222 2.55346e-19)
(0.831717 -0.730969 3.09759e-19)
(1.21415 0.189485 6.70589e-20)
(1.00656 -0.00835028 2.25238e-19)
(-0.037468 -0.309046 -1.9633e-19)
(1.01818 0.0101219 0)
(1.64329 0.0960893 -2.26565e-19)
(-0.0789348 -0.0789012 0)
(1.01407 0.011162 -1.32112e-19)
(-1.0726 0.40248 -5.01276e-19)
(1.6997 0.293178 3.22567e-20)
(-0.206592 -0.234366 1.88015e-19)
(1.56799 0.012768 -1.53996e-21)
(1.01317 -0.0201669 4.66726e-20)
(1.32479 -0.0835227 0)
(1.48957 -0.629947 -8.15542e-20)
(1.01747 0.0249996 -1.38516e-19)
(1.40431 0.765733 -5.01717e-20)
(1.34529 -0.0324613 0)
(1.79123 0.562929 -1.219e-20)
(-0.0422344 0.0267915 0)
(1.41144 0.0436134 0)
(-0.277134 -0.290338 0)
(1.21519 0.430669 0)
(1.81025 0.249004 3.99064e-20)
(0.712736 0.587275 3.67441e-19)
(0.307681 -0.309778 -2.06982e-19)
(-0.245448 -0.32721 -4.36691e-19)
(-0.0892487 -0.10522 0)
(2.63494 -0.150315 1.72815e-19)
(1.31979 0.508737 0)
(1.42888 0.28482 0)
(-0.277082 -0.276688 1.56852e-19)
(0.780653 0.688589 1.17939e-19)
(1.7385 -0.0271569 0)
(-0.231448 -0.258352 1.00131e-19)
(0.893548 0.196136 1.71412e-19)
(2.19248 -0.173162 -1.31751e-19)
(1.20678 0.899854 4.10049e-20)
(0.95977 -0.863811 -1.90892e-20)
(1.94442 -0.0529284 -1.05234e-19)
(0.767063 0.692414 1.21043e-19)
(1.14488 0.898227 0)
(2.33963 0.0224533 1.97796e-19)
(0.762525 1.00208 0)
(1.72204 -0.40524 1.48672e-19)
(1.05934 0.0915844 1.91851e-19)
(1.00511 -0.00692221 0)
(0.413826 1.31765 4.68299e-19)
(0.905858 -0.197454 4.17729e-20)
(0.659319 -0.444869 0)
(0.696596 -0.41763 1.85908e-19)
(1.20833 0.537733 -3.06606e-20)
(0.453069 0.425749 2.54985e-19)
(0.0298538 -0.0123666 3.74822e-20)
(-0.0137221 -0.131512 8.91943e-20)
(0.772498 0.0630825 0)
(1.36796 -0.933309 -2.59974e-20)
(1.02958 -0.0456205 3.59188e-19)
(1.49861 0.334775 1.40174e-19)
(-0.238842 -0.261231 8.617e-20)
(-0.566 -0.109393 0)
(1.25816 -0.25188 -9.2556e-20)
(-0.0619304 -0.0658424 -2.18719e-19)
(0.022506 0.0993008 -5.91156e-20)
(-0.133891 0.0647548 -8.89347e-22)
(-0.197163 0.101688 2.80973e-19)
(0.588685 -0.277443 -1.52268e-20)
(2.45766 0.00049415 4.59311e-19)
(1.16317 0.442535 -2.66449e-19)
(0.837887 -0.0573183 0)
(1.8286 -0.102279 1.71171e-19)
(1.91989 0.0873528 1.41822e-19)
(0.948052 -0.797579 1.12368e-19)
(1.20006 -1.01217 -9.16455e-21)
(0.457954 0.423973 1.71015e-19)
(1.63242 0.691108 0)
(1.71758 0.557315 2.77768e-20)
(-0.0750125 -0.0879185 -4.45317e-19)
(0.856377 0.745853 0)
(1.50876 -0.294136 0)
(0.309443 -0.309354 -3.9809e-21)
(0.298763 0.261888 0)
(-0.75379 0.0373367 -3.56074e-19)
(0.0110199 0.030118 -1.07063e-19)
(1.78574 -0.444975 0)
(1.20611 0.089067 1.71478e-19)
(-0.609709 0.312423 1.50115e-19)
(0.560749 -0.533258 -3.94487e-19)
(1.92113 -0.0718421 -5.82354e-20)
(0.640616 -0.582731 0)
(1.00652 0.121615 0)
(1.39023 -0.272354 0)
(1.10218 0.213626 -2.11089e-19)
(1.32761 0.100523 2.98451e-19)
(-1.00382 0.134235 0)
(0.896422 -0.0649414 0)
(2.13193 -0.0497399 -9.4765e-21)
(-0.026534 -0.0345324 9.43403e-20)
(2.27303 0.111849 -2.23489e-19)
(1.10894 -0.535845 2.29526e-19)
(1.91934 0.0816293 -2.71376e-19)
(-0.551045 0.179173 -1.12321e-19)
(1.86124 0.0756248 -1.46138e-19)
(1.02021 -0.0306289 3.6618e-19)
(1.48176 0.582575 0)
(-0.0386253 0.14289 2.89598e-20)
(1.04286 -0.861764 1.31263e-19)
(0.861495 -0.0409121 4.2904e-20)
(0.664798 -0.46727 0)
(1.9671 -0.553572 1.11616e-20)
(1.23763 -0.202414 1.19115e-19)
(1.98133 -0.358348 0)
(0.635525 -0.590808 3.55608e-19)
(1.30185 -0.000380367 -3.07545e-20)
(2.19107 0.122068 3.54508e-19)
(-0.00020082 -0.024643 -1.96067e-19)
(1.29935 0.598552 1.36197e-19)
(1.12331 0.389492 3.354e-21)
(0.884697 0.347957 2.05139e-19)
(1.99313 0.210068 -2.69379e-19)
(-0.135534 -0.329802 -2.16163e-21)
(0.763026 -0.193096 0)
(-0.141212 -0.113153 4.18483e-19)
(1.13416 -0.987113 0)
(1.1019 -0.681134 1.72714e-20)
(1.08554 -0.0962971 -7.54837e-19)
(0.761329 0.824865 6.76901e-20)
(-0.37597 -0.319262 -3.93291e-19)
(0.962718 0.460816 1.60522e-19)
(-0.247253 1.0604 2.28481e-19)
(0.685835 -0.039873 0)
(2.08083 0.0307994 0)
(1.21409 0.0889309 1.58222e-20)
(0.789584 -0.0108507 0)
(1.38824 -0.214614 -1.22568e-19)
(-0.707324 0.146986 4.15314e-19)
(1.88488 0.487082 1.24765e-20)
(1.0365 -0.0351892 0)
(0.580367 -0.389166 9.10267e-20)
(1.00931 0.0263725 1.74611e-19)
(-0.259327 0.671183 -1.67826e-19)
(-0.256309 0.285316 0)
(1.1435 -0.498804 3.94916e-19)
(2.0681 -0.0936283 -6.35207e-22)
(1.13268 -0.521626 -1.72167e-19)
(2.23497 0.248582 1.24286e-19)
(1.2561 0.767177 0)
(0.863172 0.0187923 0)
(-0.257526 -0.276226 -2.14818e-19)
(-0.0315583 0.0121573 1.38669e-19)
(0.928851 0.345197 -1.89413e-19)
(0.145366 -0.282799 -1.72551e-19)
(0.624305 0.373957 2.22565e-19)
(1.59345 0.53334 0)
(0.564266 -0.524791 0)
(-0.048602 -0.673241 -1.08521e-20)
(1.26715 -0.529776 -7.69174e-20)
(0.753659 -0.0768743 1.7188e-20)
(0.742131 -0.188381 1.05116e-19)
(-0.0649801 -0.0268625 -2.4801e-19)
(0.92157 0.190526 1.58422e-19)
(0.636739 0.592668 0)
(1.23915 0.674495 0)
(1.58336 0.253273 0)
(-0.301862 -0.350621 -1.80984e-19)
(1.2321 0.540989 1.9166e-19)
(2.04143 0.0715147 5.68097e-20)
(0.911547 -0.012321 0)
(2.70508 -0.456633 0)
(2.06745 -0.0421904 -2.65855e-19)
(0.195592 0.791901 1.996e-19)
(1.00527 0.00221664 -1.7486e-19)
(1.46514 0.466482 0)
(-0.152821 0.291915 0)
(1.21602 0.304184 2.62828e-19)
(0.997387 0.505134 -1.1915e-19)
(1.06583 0.0199679 0)
(1.91917 0.259516 0)
(1.95112 0.647401 -2.82511e-19)
(-0.0775389 0.0683169 1.80021e-22)
(0.997365 0.0115487 0)
(0.683619 0.440999 -3.06253e-20)
(0.973146 -0.858148 0)
(1.00102 0.0145594 4.0514e-20)
(0.648871 -0.562941 -3.16305e-19)
(0.928181 -0.346811 2.62016e-19)
(0.317246 -0.679722 2.28302e-19)
(2.16165 -0.125177 4.09667e-19)
(1.43295 0.0191615 1.01885e-19)
(0.798822 -0.0271202 0)
(1.02222 0.00712083 0)
(-0.375367 -0.294192 0)
(0.642084 0.614169 -1.73595e-19)
(-0.0385682 -0.0272797 1.6738e-19)
(1.14663 0.334765 -4.21195e-19)
(-0.180535 0.122996 0)
(0.80136 0.615037 1.54425e-19)
(1.03392 -0.356819 0)
(1.00557 -0.00264838 1.02398e-19)
(0.278854 0.288463 7.69997e-20)
(1.011 0.384776 2.34807e-19)
(1.21457 0.19995 0)
(2.12276 0.133558 -5.81392e-20)
(0.834034 -0.138239 -3.21661e-19)
(-0.731154 -0.0427512 -4.84266e-19)
(1.1911 0.60603 0)
(0.863805 0.217605 1.59243e-19)
(2.06543 -0.136368 0)
(0.750481 0.492099 3.32984e-19)
(-0.796875 0.0696476 1.826e-19)
(-0.00167037 -0.0439898 0)
(0.567944 0.539009 -6.50168e-20)
(1.06266 -0.669574 -1.21637e-19)
(0.504526 -0.294338 -1.08796e-19)
(1.02174 -0.0213883 0)
(-0.348355 0.345155 -1.33623e-19)
(0.66818 -0.598486 6.98259e-20)
(0.889027 0.265478 0)
(1.85427 -0.0993706 2.21041e-19)
(0.953464 0.81084 2.23168e-20)
(0.455816 -0.727401 2.71668e-19)
(0.20761 -0.0650725 -3.21352e-19)
(0.246924 -0.116453 -4.98428e-19)
(-0.166747 -0.234876 1.14433e-20)
(0.795292 0.329896 2.25757e-19)
(-0.00138496 0.0686062 -4.77883e-21)
(1.45581 -0.673035 3.58289e-21)
(1.02535 0.00222957 -3.02498e-19)
(-0.317749 -0.378054 0)
(1.02818 0.0257952 -3.60712e-19)
(2.19563 0.373102 2.23963e-19)
(0.859128 0.662746 2.59014e-19)
(1.14576 -0.0769071 1.38113e-19)
(1.00842 -0.0379711 1.40004e-19)
(0.845219 0.755562 -6.33672e-20)
(-0.197057 -0.210138 -3.19531e-22)
(1.7855 -0.902236 1.61074e-20)
(1.15486 -0.132633 -5.97576e-20)
(0.837048 0.0535616 6.80344e-20)
(0.931068 -0.315974 7.78986e-20)
(1.08492 -0.0417953 0)
(0.932583 0.707596 0)
(0.649657 0.210278 -9.18066e-20)
(1.94377 0.171892 -1.76468e-20)
(-0.66442 0.00172552 1.61507e-19)
(1.06229 -0.565783 -4.23287e-19)
(0.64684 -0.565107 3.37782e-19)
(1.13325 0.143997 -8.55758e-20)
(0.165128 -0.300803 2.02083e-20)
(1.49774 -0.473794 0)
(0.747235 0.0833765 -6.08827e-21)
(1.69182 -0.414538 -2.98566e-19)
(1.00949 0.735359 0)
(0.920153 -0.50718 0)
(0.257034 0.336041 0)
(-0.198405 -0.248713 -7.3054e-20)
(-0.0613477 0.1789 0)
(1.56377 0.600364 2.17731e-19)
(1.20165 0.173838 5.76863e-21)
(-0.978489 0.367093 1.9928e-19)
(1.40254 -0.177035 6.12074e-21)
(1.78672 0.434507 -6.27382e-20)
(2.17589 -0.315742 -4.48789e-20)
(-0.171097 0.0357222 -1.97939e-19)
(-0.229777 -0.318898 5.07454e-21)
(1.2646 -0.00773875 0)
(0.670661 -0.0350578 0)
(1.00058 -0.000619791 2.15205e-22)
(-0.293037 -0.361805 0)
(1.46687 0.0290632 -1.46132e-19)
(0.67385 -0.0315966 0)
(1.065 0.00333372 1.10713e-19)
(0.988409 0.0143598 -3.96963e-20)
(0.951203 0.211222 9.94146e-20)
(1.05672 -0.0211251 -8.23519e-22)
(0.966877 -0.210348 -4.71922e-20)
(1.02958 -0.0392797 3.23785e-19)
(0.702273 -0.640884 1.56672e-19)
(-1.26806 0.71026 -2.41174e-19)
(1.72934 -0.296112 2.86655e-20)
(-0.0345528 0.00245446 0)
(1.09434 0.768948 0)
(1.03336 -0.0142092 0)
(1.03867 -0.805126 -8.17161e-20)
(1.07909 -0.924188 9.8708e-21)
(2.1081 0.119048 -5.49852e-20)
(-0.0953638 0.105908 -1.07998e-18)
(0.22974 -0.160963 -3.50197e-20)
(0.614281 -0.421543 -5.55344e-19)
(1.76118 -0.188136 -3.76664e-20)
(-0.307282 -0.813542 2.44787e-19)
(2.13133 -0.323569 1.45015e-19)
(1.38135 0.0303874 -2.31094e-20)
(-0.238891 -0.266106 -1.51436e-19)
(1.08581 0.530664 1.80848e-19)
(-0.141593 -0.296338 0)
(0.0521444 -0.320845 4.03512e-19)
(-0.139979 -0.180126 -1.93689e-22)
(1.02519 -0.0460729 2.94219e-19)
(1.02611 -0.00459152 -7.50931e-21)
(1.10503 -0.0122667 -8.12973e-20)
(1.27261 0.891389 -1.42495e-19)
(1.58951 0.309498 5.45081e-20)
(0.423599 -0.398946 -2.73928e-19)
(1.92169 0.206136 1.03848e-19)
(1.03919 -0.00454751 -2.13576e-19)
(2.05642 -0.0438819 -2.95189e-20)
(1.45777 0.778604 0)
(1.08128 0.569411 -3.39098e-19)
(1.00246 -0.00535078 8.3559e-20)
(0.648729 0.576668 2.3818e-19)
(1.57009 -0.439799 7.46058e-21)
(1.05969 -0.0141584 -2.68576e-20)
(1.12008 0.0111753 7.60709e-22)
(2.21806 0.123947 1.22125e-20)
(1.42918 -0.0515646 0)
(1.04229 -0.041215 0)
(1.04896 -0.0353093 5.15405e-19)
(1.00261 -0.00316491 0)
(-0.114618 -0.141665 0)
(0.99027 -0.606641 0)
(1.00113 -0.00119178 -4.85862e-19)
(1.19549 -0.710549 6.19389e-20)
(1.02465 -0.00585414 1.01508e-20)
(1.30827 0.928815 -2.37357e-20)
(1.48929 0.975895 -7.65798e-21)
(-0.055104 -0.334807 6.34486e-20)
(1.6185 0.390479 2.26559e-19)
(1.18984 0.0713249 0)
(-0.15114 0.187129 0)
(2.23547 -0.0159881 5.28821e-19)
(1.28035 -0.485445 0)
(0.999906 -0.00533964 -1.50848e-19)
(1.01062 -0.00112616 2.92959e-19)
(1.42624 0.135135 -6.28841e-20)
(-0.00226909 -0.116581 3.23221e-19)
(0.973418 -0.000220277 1.59448e-19)
(1.32692 0.177784 2.37554e-20)
(0.872988 -0.0897056 -4.39018e-20)
(1.2172 0.953595 -1.32442e-21)
(0.933387 0.016941 -1.59054e-19)
(1.00386 0.00354017 1.887e-19)
(1.0002 -0.000706846 1.11535e-20)
(0.788903 -0.013345 0)
(0.725944 -0.0271132 0)
(0.721102 -0.0275216 6.20871e-22)
(0.696248 -0.0296446 0)
(1.66215 -0.105332 0)
(1.03463 -0.180893 0)
(0.531842 -0.0248117 7.19425e-20)
(0.715439 0.00358023 -3.98723e-20)
(1.34804 0.0884032 0)
(0.889531 0.806451 1.04122e-20)
(1.04775 0.979364 0)
(1.00035 0.228241 0)
(1.23796 0.114721 0)
(1.46981 0.0187807 4.9639e-21)
(1.22987 -0.0473982 5.25749e-20)
(0.77998 0.0225049 0)
(0.786933 0.0200711 0)
(0.970354 0.0196096 -1.96275e-19)
(0.814188 0.00812454 3.67839e-19)
(1.0083 -0.00134932 0)
(1.00025 -0.000657911 3.48778e-19)
(1.00018 -0.000802309 -3.82848e-22)
(0.786914 0.0218766 3.11391e-19)
(0.994108 -0.00657188 -1.83038e-19)
(1.03231 0.215391 0)
(0.66231 -0.0994887 4.39296e-20)
(1.00063 -0.00168904 -1.76545e-19)
(0.99953 0.000657146 -3.02523e-19)
(1.19246 0.747774 0)
(0.999 0.00154815 0)
(0.999738 5.24488e-05 0)
(1.77233 -0.484127 4.76018e-20)
(-0.146463 -0.106092 -5.40992e-20)
(1.88747 -0.0987121 0)
(-0.0328798 0.0515511 1.98367e-19)
(-0.355607 0.803137 -4.53022e-19)
(1.01884 -0.0192079 -2.34975e-19)
(-0.280077 -0.297729 -1.29634e-19)
(1.01935 -0.00192057 -1.88636e-19)
(1.19841 -0.224849 -7.40207e-20)
(0.827764 -0.502713 2.60096e-19)
(-0.108967 -0.129872 -1.07462e-19)
(1.03252 0.00907989 0)
(1.04603 -0.0145372 -5.17474e-20)
(0.861569 0.0196294 0)
(-0.105284 0.0207389 2.45415e-19)
(1.38515 -0.379862 0)
(-0.297234 -0.311257 -3.2415e-19)
(1.43881 0.0877522 -2.67338e-20)
(1.6177 0.663017 -1.59733e-21)
(-0.0784625 0.0303407 0)
(1.0522 -0.0386853 1.59332e-19)
(-0.339055 -0.203946 -8.76004e-21)
(0.926584 -0.0276696 2.508e-19)
(1.01133 -0.0104536 -1.60257e-19)
(1.63689 0.836195 3.77577e-20)
(0.498922 0.465699 0)
(0.419579 0.364203 1.87011e-19)
(2.50619 -0.452195 -1.35949e-20)
(1.13152 0.118645 1.7536e-19)
(1.12411 -0.741032 0)
(1.02122 -0.000253447 0)
(0.999452 -0.0192778 -3.69558e-19)
(1.0196 0.0134747 -3.58404e-19)
(-0.189618 -0.289095 0)
(1.18945 0.796507 -1.18425e-19)
(1.28926 -0.390998 -7.94379e-21)
(1.01591 0.00187708 1.38316e-19)
(1.01245 0.0121093 -1.73216e-19)
(-0.308826 -0.297737 -3.17485e-20)
(-0.738073 -0.151762 1.90464e-19)
(1.01729 -0.0176939 5.90732e-19)
(1.46294 -0.340476 0)
(1.81893 0.62266 -4.40548e-20)
(1.01513 -0.0143441 -1.83818e-19)
(2.00655 0.119064 -1.41479e-19)
(1.05814 0.00424826 -4.25864e-22)
(1.009 -0.0110672 3.68471e-20)
(2.116 -0.220029 -3.49787e-19)
(1.01655 0.00554262 1.77905e-19)
(-0.0447718 -0.651775 1.50388e-20)
(1.01892 -0.000758895 0)
(0.922636 0.131549 4.47249e-20)
(-0.838361 -0.00262784 5.65747e-21)
(1.00172 0.0211489 1.76679e-19)
(1.04199 0.0201226 -6.37638e-22)
(1.2324 -0.55279 1.75966e-20)
(1.23459 0.30647 3.75736e-19)
(0.998448 0.0135995 1.21198e-19)
(1.01635 -0.0161221 4.40605e-22)
(1.70008 0.243097 -2.13381e-20)
(1.73418 0.913928 -9.87799e-20)
(0.806485 -0.724242 4.62091e-20)
(0.477932 -0.367471 -2.70391e-19)
(1.0069 -0.0119453 0)
(1.02138 0.000962353 4.42144e-20)
(1.01081 -0.0106112 9.34451e-20)
(-0.0208759 -0.233345 2.21759e-20)
(1.01488 0.00301327 -1.85211e-19)
(1.03282 -0.0292992 2.10878e-19)
(1.00762 -0.0095545 -1.74793e-19)
(1.01374 0.00289811 -4.69034e-22)
(1.01308 0.000651363 -3.24948e-22)
(1.02657 0.0115284 1.77156e-19)
(0.895552 0.0648545 4.57536e-19)
(1.19646 0.283338 0)
(0.344917 0.0301639 2.62575e-19)
(1.01187 -0.00612127 0)
(1.02021 -0.0226881 -5.15059e-20)
(1.49769 0.42615 -7.55563e-20)
(1.7441 0.0569696 0)
(2.283 -0.0722575 -1.80519e-19)
(0.863352 0.396856 -2.84102e-20)
(0.742922 -0.0171318 0)
(2.00217 -0.0801441 0)
(-0.113852 1.06563 -1.4147e-19)
(0.822742 0.704231 3.18385e-20)
(1.01746 -0.00748914 -1.86866e-19)
(1.15235 -0.588501 -4.8292e-20)
(-0.314454 -0.792611 2.37173e-20)
(0.145963 -0.698856 0)
(1.75759 -0.486921 0)
(1.64185 0.12536 0)
(-0.171004 0.0328592 6.93663e-20)
(0.191945 -0.0372988 -3.46731e-19)
(-0.962509 0.954346 0)
(-0.118447 0.379617 -1.77273e-19)
(1.66234 0.940331 -5.5483e-20)
(1.00827 -0.00493301 -3.65015e-19)
(0.158076 0.287409 -4.56945e-20)
(1.02197 0.00260833 2.41373e-19)
(0.677932 -0.0415789 0)
(-0.169019 -0.27421 -3.31155e-20)
(0.589948 0.39909 -3.13637e-19)
(1.09997 0.265824 -4.94399e-21)
(0.0117264 0.31228 0)
(0.818902 0.0747904 6.31459e-20)
(0.498151 0.474502 4.76584e-20)
(1.1548 0.859045 -3.19547e-20)
(-0.0757793 -0.0758519 1.61954e-19)
(1.01834 0.00672046 0)
(0.0630235 -0.530942 -1.80597e-19)
(1.01176 -0.00482036 1.37144e-19)
(2.20501 0.159379 0)
(1.01221 0.00539564 2.29797e-19)
(0.0706384 -0.31283 -1.92137e-19)
(1.01874 0.00747586 -1.42257e-19)
(1.02749 -0.183784 0)
(2.62231 -0.0218396 6.86992e-22)
(1.00916 0.0019636 -9.55037e-20)
(0.994882 -0.0404058 2.52317e-19)
(1.0787 0.0870191 -2.21906e-21)
(0.0125239 -1.02885 1.36214e-19)
(-0.127946 -0.123101 4.25541e-19)
(1.94573 0.205314 1.32997e-19)
(-0.432804 -0.78629 -1.48212e-19)
(0.799546 0.0148124 -3.44524e-19)
(0.79647 0.0250152 0)
(-0.305879 -0.753872 -9.55866e-20)
(1.02004 -0.0211116 -2.76984e-20)
(0.97327 0.0133153 0)
(1.04878 -0.00182297 -1.76248e-19)
(0.00550418 -0.591377 1.77418e-19)
(-0.838685 0.00999611 2.28313e-19)
(2.22428 -0.601509 0)
(-0.937988 0.100725 -5.35429e-19)
(1.558 -0.358195 0)
(1.03882 -0.0193191 5.16593e-20)
(1.46193 0.714956 2.8682e-21)
(1.01464 -0.00555424 1.4812e-19)
(-0.781902 0.227794 3.2453e-19)
(1.01833 0.00028089 0)
(0.993895 0.00365601 -3.58702e-19)
(1.00881 0.00635108 1.88496e-19)
(1.51843 0.0406296 0)
(0.914619 0.345894 4.10357e-21)