/*--------------------------------*- C++ -*----------------------------------*\
| =========                 |                                                 |
| \\      /  F ield         | OpenFOAM: The Open Source CFD Toolbox           |
|  \\    /   O peration     | Version:  2306                                  |
|   \\  /    A nd           | Website:  www.openfoam.com                      |
|    \\/     M anipulation  |                                                 |
\*---------------------------------------------------------------------------*/
FoamFile
{
    version     2.0;
    format      ascii;
    arch        "LSB;label=32;scalar=64";
    class       volScalarField;
    location    "17.6";
    object      p;
}
// * * * * * * * * * * * * * * * * * * * * * * * * * * * * * * * * * * * * * //

dimensions      [0 2 -2 0 0 0 0];

internalField   nonuniform List<scalar> 
2186
(
0.832135
-0.318297
-0.00805103
1.13477
-0.742849
-0.073927
0.726771
-0.976477
-0.990573
1.38999
1.13852
-0.925074
-0.986244
1.09192
-0.549694
1.09948
1.12112
-1.15581
0.00112915
-0.715931
1.49569
-0.696717
1.10087
-1.00273
1.0921
1.10913
1.31452
0.957855
0.68027
1.09212
-0.70297
1.09297
-0.657047
-1.17281
-0.91851
0.205888
-1.07736
1.48606
-0.679705
-0.141488
-0.997498
-0.680617
-0.661958
-0.793451
0.983974
1.37326
0.388671
0.564054
-1.55235
-0.849212
-0.708066
0.985085
-0.660602
1.4213
-0.672076
1.0093
-0.711275
1.03733
-0.783087
0.870467
-1.01295
0.715523
0.639571
-0.126219
0.652429
0.505402
0.755698
1.3831
1.27881
-1.02438
-0.981914
-1.08988
1.34891
1.06413
1.27034
1.22325
-1.30221
1.11619
-0.921821
-0.648712
-1.45422
-0.20897
1.08662
0.702297
1.08084
1.08766
1.39234
-0.0171004
-0.0756501
-0.938546
1.01208
-0.711177
1.00001
1.24464
1.10206
0.508014
-0.13433
0.665431
-0.813057
1.05212
-1.74916
-1.69303
0.719555
1.02265
1.1231
-0.715298
1.31386
-0.764307
0.996948
-1.83999
-0.616843
-0.79138
0.588683
1.42094
-0.949139
-0.898965
-0.0966985
-1.66091
-0.940084
1.34994
0.0744761
-1.0172
0.944974
-1.38791
1.10414
-0.0709954
-0.773006
1.2147
-1.21975
0.706909
1.46403
1.31035
0.276954
0.698864
-1.54042
-0.874457
0.979483
-1.02903
-0.639266
-0.94684
0.889026
-0.182605
-0.962345
0.752605
0.987936
1.03006
-0.692714
-0.762344
0.663154
-0.751377
-0.735683
0.627803
1.11904
1.2547
1.11105
0.57524
1.39041
0.510012
0.414117
0.46594
-0.948252
-1.27385
1.07456
1.05386
-0.00404704
0.0128852
-0.853221
-0.894495
-0.221276
-0.257277
0.448549
1.05828
1.12186
1.17883
0.516664
-0.284925
-0.744418
1.07492
-1.51809
0.947788
-0.892216
1.10749
-0.71072
0.634765
0.620591
-0.780236
-0.788454
1.23368
-0.541033
-0.982269
-0.957
1.35224
-1.52188
1.04607
-0.944595
-1.75291
0.181797
1.27188
1.16804
-0.701445
-1.06711
-1.15515
0.116133
1.12176
-0.937053
-0.735065
-0.93933
-1.48907
1.04151
-1.25951
0.570105
-0.100198
1.40694
0.917141
1.01382
1.01407
1.28553
1.09668
0.958114
1.19917
0.419037
-0.849203
-0.686549
0.19286
0.22587
-1.15768
-0.763124
1.13626
1.21515
-0.915375
-0.87297
-1.96033
0.413135
0.707818
0.848465
0.959104
1.18983
-1.54601
0.948965
-0.954533
-0.853969
-0.882992
1.09632
0.819054
1.25305
1.26894
1.21191
1.19006
-0.970613
0.883478
1.21042
-0.993352
1.08305
0.866441
-1.99247
-0.927505
-0.900246
1.25476
1.12158
-1.00287
-1.26356
-0.713011
1.0181
-1.47461
0.83777
1.16803
0.938318
-0.946956
-0.707026
1.06723
0.705419
-0.713671
-0.53076
1.44572
-0.736624
-0.970274
0.920155
1.25834
1.08285
-0.80222
-1.07487
-0.882134
1.00392
-1.00886
0.594342
1.06621
1.09267
-0.177834
-0.551055
1.05913
-0.995682
0.996844
1.26907
1.1166
1.11346
-0.966877
-0.837607
-1.00353
-1.10921
-1.8778
-1.57487
0.421515
-0.550027
0.698863
1.24384
1.31074
1.00861
-0.734103
1.24115
-1.11772
-0.183029
-1.15769
-0.946169
-0.99759
0.395955
-0.736168
-0.723009
0.261548
1.01908
-0.372982
0.475364
-0.782905
-0.0696483
-0.97032
-0.773679
1.31366
0.0834352
-0.0277271
-0.700131
0.846772
0.634346
-0.402376
0.580311
-1.02864
-1.03341
0.751673
1.11877
1.17492
-1.48039
1.24669
0.950931
0.467396
1.32155
1.09549
1.02426
0.41141
-0.409059
-0.952761
0.961449
-0.794885
-0.911409
-1.17258
-0.81044
-0.94349
1.47217
-0.766109
-0.707814
-0.999393
1.09491
-0.722611
-1.91204
-0.832861
0.817274
-0.167822
-1.37778
1.35479
1.41633
1.19887
-0.967907
-0.0803339
1.4882
1.09928
-0.997257
0.539443
-0.96056
0.210595
1.27899
1.08072
0.951304
1.3876
-0.517543
-0.533776
-0.344441
-0.939935
-1.40751
-0.68703
-0.220109
1.41755
-1.2418
-1.24935
1.08623
0.634516
-0.935037
-1.60592
-0.955625
-1.02058
-1.26003
-0.940687
-0.702678
-0.727884
1.27873
-0.567093
-0.870831
1.10893
-1.24723
1.34049
-1.44917
-1.87071
-0.842133
1.09158
-0.888249
1.11972
0.909368
-1.25063
1.1213
-1.06973
-0.942417
-1.07919
1.08099
1.02888
-0.955247
-0.962105
-1.17443
1.0804
-1.40091
-1.79001
0.603855
1.04188
0.96321
0.779364
-0.97232
-1.02917
0.917156
-1.04051
0.881449
-2.02286
1.11478
0.0551008
1.2066
-0.940663
0.914299
0.786152
1.12716
-1.08648
1.09281
-0.837897
-0.941334
1.09515
-1.77097
0.210895
-0.839892
-0.10995
1.10178
0.119279
0.334826
1.10072
0.335226
-0.14359
-0.0970736
-0.708097
0.269089
-1.03029
0.791853
-0.586661
1.17367
1.20764
-0.981402
-0.945531
-0.531613
-0.692052
0.513034
-0.975789
0.93118
-0.0380811
-0.978958
1.19886
-0.46176
0.467485
0.338349
-0.241763
0.893374
0.439965
-1.04711
-1.72082
-0.214866
-0.623365
1.11128
-1.98394
1.19265
1.30674
1.29389
0.742981
1.27242
-0.731585
-0.631377
0.97934
0.25847
1.08661
-0.689272
-0.971002
-1.64553
0.861869
-0.941268
-2.09287
-0.714685
-0.751667
0.0298009
-1.10606
0.827284
0.791847
-0.677454
-0.902474
0.808703
0.11138
1.2414
-1.9905
-0.0846917
-0.942504
0.856249
-0.0974848
1.24834
1.50321
-1.6715
-0.745168
-0.843191
0.370063
-1.59683
1.10819
-0.944061
1.06248
0.846433
-0.965552
0.962883
0.924132
-1.84719
0.958731
-1.11669
-0.711402
-1.3603
-0.902316
-1.08344
-1.42046
-0.823644
1.09537
0.306698
-0.764288
0.643126
1.2421
1.29234
-0.336643
0.824007
-0.40585
0.83635
-0.158172
-1.49851
-0.715867
0.589667
0.906642
1.16265
-1.79436
-0.986126
-1.36192
-0.946634
-0.0824195
0.79057
-1.93056
0.0431843
-1.19672
1.04117
-1.27501
1.04972
-0.862716
-0.697853
1.0369
0.726971
-1.53284
-0.0842472
1.06087
1.37524
1.11698
-1.06112
-1.21145
0.864582
-0.737649
0.851661
-0.543832
0.538696
1.05822
-0.975659
-0.707398
1.12014
-1.12895
1.34766
-0.155279
0.940424
0.238653
0.683445
-0.79121
1.32571
-0.711021
-1.5243
1.0632
0.615231
0.581357
-1.15474
-0.702879
-1.00821
0.865352
-0.13024
-0.966996
-1.19017
1.11202
0.480219
-1.06583
0.83551
0.992069
1.08032
-1.95801
-0.630823
-0.711011
1.10893
1.28156
0.540648
1.1048
0.0410172
1.13327
0.218158
-0.868136
-0.541979
1.00921
1.05745
-1.5273
0.951519
-0.713428
0.899716
-0.823521
1.10401
1.02623
1.11266
-1.97201
1.02218
-1.41663
-0.774751
1.25853
-1.7766
-1.75511
1.21818
-1.23684
1.21096
-1.70785
-0.717941
1.14862
0.84344
1.44585
1.09466
-1.42758
1.15711
1.18752
-0.895746
0.734998
0.0428603
-0.861883
1.58879
-0.954617
1.23961
-0.740995
0.349591
1.09513
-1.23102
1.08648
-1.65615
1.02669
1.03828
1.10762
0.0492382
-0.945883
-0.587525
0.645663
0.740627
1.14746
-0.231062
0.929288
-2.0693
-0.359895
-1.47074
0.900197
1.22283
-0.861995
-1.00667
-0.0855021
1.33712
-0.125486
0.83458
-0.127346
-1.74609
-0.970206
-0.715149
-1.04364
0.894696
-1.76808
-0.143342
-0.218503
-0.561123
-0.731312
-1.15926
-0.302411
1.06661
1.11466
-1.17123
-0.449943
1.08009
1.02243
1.11366
-1.67971
1.07863
1.13998
1.0895
1.13264
-1.49477
-0.147238
-0.708056
0.718145
1.09566
0.766716
0.194852
-0.141059
-2.04525
0.0954671
1.34173
-0.164489
0.300224
-0.684593
-0.112226
-0.973887
0.884719
-0.910314
-1.28206
-0.936528
1.09764
1.09629
1.10766
-0.0282971
0.436798
1.31651
-0.185017
1.09092
-0.154363
-0.0619448
0.861483
1.11472
1.1988
-0.00312039
1.07355
1.07194
-1.24805
-0.123037
1.1082
1.1202
1.11622
-0.943689
-0.984228
1.11608
0.667436
1.09693
0.312658
-0.0163055
0.16403
-1.86489
-0.446793
-0.726261
-1.60056
-0.433441
1.12235
1.12699
0.846042
-0.951223
1.09763
-0.188419
-0.216401
-0.0169951
1.09326
1.11981
1.11678
1.1308
1.10788
1.10149
1.0922
-0.0784764
-0.145782
-0.139669
-0.222073
-0.0119581
0.0124889
0.0023232
-0.115831
-0.17413
-0.167244
-0.118041
1.08765
1.10861
1.10332
1.12596
1.1245
1.11657
1.12054
1.09802
1.1058
-0.161293
-0.229672
1.11769
1.11618
-0.0166005
1.11834
1.11748
-0.0550838
0.190119
-0.178369
-0.707812
-1.74502
1.10004
-1.03875
1.09662
0.698326
1.15372
-0.952705
1.09606
1.04123
1.03829
-0.706297
-0.212871
-1.07166
-0.151472
0.0603059
-0.701679
1.11354
0.121022
1.18805
1.10395
-0.0670465
1.28943
1.43935
-0.106848
0.973838
0.725471
1.097
1.11524
1.10567
-0.951213
0.585873
-0.00390409
1.1023
1.11091
-1.02937
0.145893
1.10455
-0.0845012
-0.23066
1.10321
-1.1224
1.085
1.11644
-1.00129
1.10815
0.242486
1.09919
1.18272
-1.99046
1.11311
1.12113
0.0464555
0.78599
1.09957
1.10618
0.260217
-0.61779
0.778387
1.43685
1.11275
1.10184
1.10709
0.239101
1.10216
1.08687
1.10922
1.10285
1.10556
1.10121
1.21139
-0.70009
-2.12716
1.10361
1.09858
0.383197
-1.10164
-0.761922
-0.794939
0.974647
-1.49764
-0.590782
0.0394815
1.1001
0.793527
0.0731623
0.100182
-0.0962789
-0.56383
-0.752034
0.197959
-0.690677
-1.26101
-0.219944
1.10723
0.122933
1.09479
1.02128
-0.939067
1.3608
-0.447284
-0.976677
0.83095
1.24934
0.56171
-0.940384
1.09947
0.18861
1.10529
-1.02915
1.10577
-1.2156
1.09742
0.105439
-0.830423
1.10751
1.12249
1.05121
0.198138
-0.938589
-0.628329
0.282844
1.11909
1.0053
0.22782
1.09919
1.14085
1.09238
0.335083
-1.78039
-0.655263
-1.78872
0.373558
1.10562
-0.107776
1.10084
-1.72243
1.09969
1.13841
1.1089
-0.0462115
-0.0553035
1.1344
-1.0288
1.11076
1.11495
0.0505765
-0.975832
1.05836
1.25248
1.09484
1.09387
0.406666
0.195452
1.06689
0.464792
1.10967
0.912843
-0.770895
-0.967751
0.951757
1.33859
1.10015
0.395053
-0.65618
0.456736
-1.93282
-0.547037
1.08188
-1.23857
1.08681
-1.29394
-0.946817
-0.740677
0.558291
-1.01376
-0.436908
-0.346251
1.09652
-0.938242
1.02971
-0.957786
-0.136489
0.141707
0.0574006
-0.383529
1.07347
0.251757
-0.797604
-0.157645
-0.987197
1.08538
-0.546336
0.0581546
-1.79992
1.1976
-0.306313
-0.955276
1.16899
1.08341
1.07318
0.542591
-0.902061
1.10542
1.13313
-1.36286
-0.724017
1.09595
0.86194
1.36797
1.11736
-1.26228
-0.748813
-0.741979
-1.23459
-0.889787
-0.940785
-0.0121805
-1.06998
0.866677
0.0185916
1.10526
1.32085
1.09647
-0.942216
-1.06216
1.09823
-1.17453
-0.476826
1.074
-0.29366
-0.69393
-1.7606
0.0908247
1.05305
1.02545
-1.1384
0.914126
0.796477
-1.53741
1.08065
-1.45992
0.919974
-0.651834
1.06601
-1.69373
0.480687
1.09884
1.21457
-1.90231
-1.56495
0.937796
1.47478
1.11986
1.13959
-0.985282
1.32745
-0.88232
-0.248686
-0.807532
0.525909
-2.0028
1.21216
1.242
-0.961657
-1.38726
1.09675
-0.849767
0.925398
1.12932
1.07135
-1.78998
1.10022
-0.0395973
1.12577
-0.0516899
-0.153736
-0.0130646
1.10321
-0.192972
-0.352012
-0.327882
1.0917
-0.257701
1.30937
0.311141
1.44193
1.10943
-0.836585
1.07763
-0.71606
1.07681
1.07548
-0.118063
-0.377647
1.24574
1.08941
1.34468
1.05848
0.130271
1.06312
1.08414
0.978191
1.10772
-0.970414
-0.843213
-1.21144
1.19086
-1.56089
-0.541846
-0.712853
-1.62343
-0.148431
-0.0827613
0.99234
0.0606105
1.04763
1.1013
-0.728441
-1.17812
-0.922894
-1.3439
-0.910911
-0.716049
1.10561
-2.02266
1.11699
1.32125
1.15573
-0.0884658
1.12353
1.03772
-1.50124
1.05123
1.0849
-0.792721
1.08397
1.06696
-0.140568
-1.08945
1.55613
-1.92954
-1.17097
-1.05437
0.284808
1.07492
-1.17169
-0.748502
-0.700838
1.24226
-0.738123
0.980729
1.11717
1.07998
-1.3375
1.06103
-2.11872
1.11344
1.12855
-0.320266
1.11781
0.634335
1.08461
0.779487
-1.78714
0.0193118
0.0154416
0.0779296
1.35496
-0.176361
1.13385
1.50634
-0.638178
-0.0440624
1.16372
-0.0640596
1.16105
-0.0366311
-0.0540088
1.16348
1.16785
0.479212
-1.38064
0.891976
-0.614195
-0.793732
-0.545538
1.12414
1.09046
1.51334
-0.940867
-0.866425
0.806969
-1.07752
1.18277
1.10923
1.08216
1.09283
1.05128
-1.9159
-0.93951
-1.26849
0.930577
1.02951
-2.04075
-0.719538
-0.958615
1.11404
1.12872
-1.27201
-1.59504
1.1378
-1.28176
0.334242
0.905062
1.05183
-0.215405
-1.10829
-0.119337
-0.952017
-0.650733
-2.05326
-1.69179
1.46038
1.48657
-0.680989
-0.898702
1.1149
1.09117
-0.879018
-0.02597
-0.325773
0.785793
1.20121
-1.37797
1.10879
-1.35155
-1.09363
-0.902906
-1.11164
-0.787507
1.0765
-0.938309
-1.50561
1.47794
-0.956822
1.1093
1.34657
-0.719173
1.12349
1.33662
-0.729384
1.36929
-0.971382
-1.11277
1.13917
0.154119
1.09247
1.11045
-0.976646
1.15341
0.194995
-1.94701
1.14547
1.11094
-0.879309
-1.33997
1.05623
1.10181
-0.970962
-1.79618
1.40841
-0.977273
1.0207
0.0421867
1.03279
-0.910827
-1.98982
-0.961439
-0.719293
1.22196
1.12733
1.3753
1.3335
1.10898
1.16468
1.19327
-0.957517
1.26183
1.22673
-0.735386
-0.978355
-0.846869
1.44824
-1.76884
-1.08048
0.142262
1.06956
-0.738527
-0.654198
1.15132
1.09974
-0.965542
-0.725979
-1.04921
0.119771
-1.84589
-0.734166
-0.953293
1.02378
0.968315
-0.718642
-0.31771
-0.84743
0.976227
-0.976211
-0.704731
-0.950058
1.02233
-1.58721
-0.7289
1.41652
0.98692
0.453669
1.28154
0.133075
1.05874
1.11616
1.21759
1.29469
-0.210553
0.821291
1.13824
0.318182
-0.946399
1.53236
1.05525
0.994369
1.15569
-0.732956
-1.85545
0.939007
0.927297
1.05975
-1.96107
-1.85066
1.08665
-0.944881
0.905673
0.00284235
1.53621
-0.944102
0.874239
0.808411
-0.712188
-0.942364
-1.23343
1.14379
-0.714429
-0.938328
0.769923
0.76008
-1.2085
1.17392
0.91693
-0.716043
-0.60786
1.06723
-2.10435
-0.940978
-1.02958
-0.703319
-0.942469
1.09333
1.10683
-1.98043
0.685753
1.10669
1.45562
0.334654
0.442186
0.173395
0.961612
-0.418228
-0.710373
-1.58482
-0.449033
-0.708246
1.09933
-0.708041
0.335467
-0.939874
0.694011
0.634977
-0.705411
0.706132
-2.06779
0.559891
-0.702685
0.621197
-0.711816
0.450102
-0.938863
0.539729
-0.700309
0.893523
-1.61882
-0.700805
-0.707432
-0.930476
1.11781
0.14022
-0.73525
-0.945819
0.206418
0.247512
-0.703949
-0.935928
-0.77704
-0.07404
-0.960739
0.0483896
-0.992648
-0.151058
-0.853037
-0.247938
1.00294
-0.260186
-1.79971
1.09077
0.0429426
-0.151292
0.517004
1.06703
-1.50174
-1.92864
-0.940912
-1.41572
0.977023
1.53349
-0.951206
-0.171682
0.0687631
-0.940997
-0.272316
-0.33076
1.08442
-0.718343
1.04929
-1.37896
1.60144
0.519975
1.51081
-0.723447
1.27616
-0.394838
1.0949
-1.00887
-0.937973
1.15744
1.09274
-1.78239
-0.939884
-0.705191
1.091
-0.750786
1.0893
-1.07818
-0.997805
-0.96183
1.41415
1.15183
1.19544
1.12883
1.11642
-0.0571689
-0.573185
1.33249
-2.10153
-0.8914
1.53499
-0.721903
1.02196
1.04023
1.47454
1.52324
-0.735212
-1.4211
1.13591
0.283433
-0.423974
-0.660282
-0.992394
-2.07978
-0.722325
0.625417
-1.27616
1.28744
-1.30083
1.17305
1.25069
1.15399
-1.30299
-0.915771
-1.02914
1.18944
-0.909637
1.30154
-0.567303
-0.974181
1.36377
1.39378
-0.933972
0.243827
1.04197
-1.19505
-0.973788
0.735521
1.39854
1.31615
-0.913809
0.992678
0.976464
-0.936553
1.32714
0.433359
-0.720574
-1.12643
-0.154385
-0.141466
1.24109
-0.810273
0.412509
0.0525954
-0.0328837
-0.715484
-0.92348
1.09856
-1.67312
1.1378
0.0511134
0.134781
0.765348
0.310012
-0.926385
-0.455021
-1.15745
-0.130264
0.0633581
-1.23813
1.06491
-1.81152
-1.82483
1.12916
-1.12589
-0.736537
1.11499
-0.952957
1.1002
-0.0602407
-0.946295
-0.312319
0.867177
-0.800954
-1.58641
0.968837
-0.979769
1.17089
-0.547473
-0.961936
-0.921745
-0.93946
1.58035
-1.84404
1.21281
0.107376
1.05706
1.29654
0.796024
1.11742
1.28668
-0.0359739
-1.81175
1.06622
1.17822
1.45317
-0.94832
1.15737
0.80746
-0.967605
0.860965
1.294
-0.426768
1.46758
0.284653
-0.6676
0.907532
-0.974827
-0.704441
1.03754
-0.318988
1.15702
1.13549
1.0751
-0.694348
1.02972
1.38844
-0.955089
-0.204548
-1.84976
-1.03129
-0.962756
-0.939885
1.43999
0.81876
-0.726175
0.984857
-0.978571
-0.854587
1.35704
1.35223
-1.65062
-1.35876
-0.939101
-0.965825
1.06724
-0.732963
0.120022
-0.68028
-0.341632
1.16513
-0.976507
1.51181
1.15466
0.960235
1.13482
1.42822
-1.03873
-0.981635
1.10597
1.23014
-0.66583
1.10485
-1.8524
-0.960393
-0.964769
1.21228
1.24166
-0.964785
-0.748186
0.616465
-0.0421915
-1.12878
1.09005
1.09156
-1.33113
1.131
1.17297
-1.2423
-0.737242
-0.712685
-0.956495
-0.966683
1.40041
-0.496806
1.0458
-0.739863
1.3958
0.988803
0.998077
1.06743
-2.06533
-1.12204
-0.952491
0.663491
-0.728861
0.993423
0.345672
-0.481415
0.986762
1.08173
1.14212
1.11682
-0.0599491
1.14056
-0.0573202
0.476265
0.918775
-0.439136
-0.735463
-0.79329
-0.547886
1.11327
1.0435
1.1126
-1.64948
-0.780479
-0.948961
-0.642944
1.11216
1.40929
1.12548
-0.732254
-0.749974
-1.13164
-0.404412
-0.939906
-0.940144
-0.0734548
1.10283
-0.636382
-0.718107
0.0183849
-0.0568649
0.852103
-1.89751
-0.946328
-1.06831
1.05872
1.53202
0.0830677
1.19995
1.59497
0.792299
1.32261
-0.739671
0.0235231
1.48537
-0.943586
0.366579
-0.725828
-0.970757
-0.701459
-0.713538
1.06709
0.79848
1.31778
1.28016
0.00837104
0.847262
0.171775
0.00258435
-0.941461
1.21081
0.853758
1.12043
1.13694
-0.118145
-0.140186
1.13166
-1.2226
-0.943446
-0.715823
-0.711078
0.657074
-0.711464
1.05751
0.733108
-0.9425
1.31588
-0.727348
-0.18991
1.08181
-0.750586
-0.919985
-1.92945
0.729157
-0.720622
-1.0243
1.04149
1.12826
-0.109467
0.0746219
-2.09377
-0.940107
-0.648625
-1.30644
-0.1751
0.662778
-1.0446
-0.709329
1.38667
0.393876
0.493884
-0.707148
-0.975376
1.10291
1.12296
0.659525
0.595658
-0.704039
-0.930923
-0.756973
0.583766
0.500935
-0.700857
0.951617
0.278517
-0.697282
1.56219
-0.700824
-1.68195
-0.966821
-0.653677
0.912852
-0.716823
-0.725039
-0.950643
0.0497257
-0.752708
0.136748
-0.680991
-0.140531
1.29821
-0.80823
-0.138382
-0.976843
-0.0384133
1.46228
1.48552
1.35392
1.10893
1.33104
-0.561756
1.09627
-0.73075
1.12061
-0.942035
-0.934024
1.34783
-1.09533
0.539057
-1.44908
1.49396
0.063412
1.42879
0.72732
0.88852
-0.722798
-0.7233
-0.938523
-0.91446
1.41148
1.31337
1.09571
0.697863
1.09759
0.938338
0.938695
-0.701541
-0.96103
0.384874
0.118159
0.913815
1.11299
0.0102989
-0.718276
-0.697795
-1.36073
-0.938675
-1.64159
1.43038
1.13136
1.10732
-0.090516
-0.105049
1.1284
-1.01734
-0.940651
-2.19921
-0.958448
0.902444
-0.71562
-0.705401
-0.284557
1.11323
-1.66038
-0.965775
1.09763
0.671439
0.794792
1.09749
-0.939568
0.988743
1.27653
0.908371
-0.937951
1.08924
0.40854
0.582921
-0.907714
-0.712556
1.55449
0.292627
-1.02416
0.0557877
1.02463
1.08139
-0.916458
-1.31312
-0.12166
-0.682506
-0.880161
-0.729384
-0.0294098
1.09256
-0.90559
1.09709
1.36763
1.17048
1.10162
1.20371
1.26385
1.10077
-1.29545
-0.63865
-0.278035
-1.01803
-0.885771
-0.704489
1.26254
1.16908
-0.972479
1.05039
-0.678813
-0.059057
-0.702567
-0.388031
0.599118
-1.19571
1.09086
1.0243
-1.18963
-0.371343
1.43954
-1.55935
-0.93808
-1.05602
-0.735025
-0.673053
1.139
0.889335
1.1778
-1.13284
-0.87417
-0.917654
-0.2357
-0.972632
-1.48218
-1.14841
-1.94073
1.02844
-0.744008
1.54356
-0.939033
-0.571235
-0.975788
-0.703694
1.01353
-1.00019
-1.08448
-0.921111
-0.350818
1.31362
1.30734
-2.17069
-1.19421
0.938957
-0.959414
-0.875561
1.19043
-1.15752
-1.79097
-0.916326
0.866787
-0.426734
-0.971431
1.09358
0.126965
-0.784965
1.10744
-0.71861
-1.32801
-0.965673
-0.770017
-0.0668199
-0.969797
1.43345
-0.943757
0.197522
-0.943211
0.908262
-0.574751
-0.848895
0.767185
0.833867
1.15471
1.05269
1.29179
-0.713997
0.926475
0.613343
-1.04481
1.04308
-0.245015
-0.582486
-1.81997
1.26479
1.2515
-0.659306
-0.79879
-1.10527
1.13157
-0.739622
0.163325
-1.21983
-0.710421
1.39779
1.12954
-0.722987
-0.699662
-0.72379
-0.718595
1.00773
-0.744948
1.09591
0.353284
0.825866
0.951247
-0.686329
-0.81199
1.05636
-0.706478
-0.0187052
1.38006
-0.949819
-0.716353
0.936832
-1.03456
-0.714178
-0.185992
-0.932443
1.45162
-0.627734
0.168374
-0.724566
1.38938
-0.726061
-0.696317
0.76248
-1.16406
-0.941871
1.42973
0.791918
1.08294
-0.722226
1.34993
-0.267082
-0.836958
-0.729154
-0.733268
-0.729181
1.38196
0.695806
-0.962782
-0.727648
-0.964675
1.23959
-0.652997
1.36487
-0.942082
0.826721
-0.714754
0.49488
0.659418
0.625594
0.545866
0.229497
-0.67567
1.12432
-0.731076
-0.551069
-1.09071
0.322492
1.40686
-0.314863
-0.720519
-0.742221
-0.716267
0.390635
-0.937187
-0.713534
0.913596
0.22726
-0.718832
1.47408
-0.967943
-1.43647
1.45464
-0.716936
0.278881
-0.678973
-0.70296
-0.712323
1.44809
-0.695049
1.36896
-0.711063
-0.778022
1.28729
-0.237688
-0.698688
0.686035
-0.934983
0.148002
-0.419784
-0.713674
0.880603
-1.01598
-0.713318
-0.70449
-0.703972
-0.949016
0.919737
-0.0203784
-0.492007
-0.720927
1.39836
-0.85708
-0.708495
-0.690892
-0.139525
-0.826038
-0.689624
-0.720086
-0.0969969
1.36458
-0.730949
-0.938952
-1.03559
-0.752019
-0.0996399
-0.954461
1.4869
1.42134
0.537214
-0.863312
-0.946096
0.453881
-0.946485
1.5012
0.335922
1.15052
0.817795
1.37024
0.220555
-0.838148
-0.915665
0.0712606
-0.731254
0.0716839
-0.0831007
-0.711464
1.3954
-0.31044
0.346805
-0.453712
-0.940545
-0.886427
)
;

boundaryField
{
    frontback
    {
        type            empty;
    }
    Top
    {
        type            zeroGradient;
    }
    outlet
    {
        type            fixedValue;
        value           uniform 0;
    }
    bottom
    {
        type            zeroGradient;
    }
    Inlet
    {
        type            zeroGradient;
    }
    rectangle
    {
        type            zeroGradient;
    }
}


// ************************************************************************* //
