/*--------------------------------*- C++ -*----------------------------------*\
| =========                 |                                                 |
| \\      /  F ield         | OpenFOAM: The Open Source CFD Toolbox           |
|  \\    /   O peration     | Version:  2306                                  |
|   \\  /    A nd           | Website:  www.openfoam.com                      |
|    \\/     M anipulation  |                                                 |
\*---------------------------------------------------------------------------*/
FoamFile
{
    version     2.0;
    format      ascii;
    arch        "LSB;label=32;scalar=64";
    class       volVectorField;
    location    "15.2";
    object      U;
}
// * * * * * * * * * * * * * * * * * * * * * * * * * * * * * * * * * * * * * //

dimensions      [0 1 -1 0 0 0 0];

internalField   nonuniform List<vector> 
2186
(
(1.336 -0.0630008 1.8026e-19)
(1.63293 -0.956257 -1.05815e-19)
(1.4783 -0.931384 -8.42181e-23)
(0.752229 -0.595975 -1.24281e-19)
(-0.395169 0.563918 -1.97903e-19)
(1.1798 0.0314945 0)
(0.736169 -0.679761 0)
(-0.335484 -0.470135 1.26419e-19)
(1.48939 -0.271441 2.13101e-19)
(0.562685 -0.334821 -2.38439e-21)
(0.662049 0.595258 0)
(0.802469 -0.280929 -1.45919e-19)
(-0.379332 -0.484171 -5.07047e-20)
(1.19025 0.0239685 -3.16589e-19)
(1.82167 -0.7043 -1.12666e-19)
(1.00929 -0.00487883 1.49829e-19)
(0.988321 0.0118964 0)
(-0.65742 0.593282 0)
(1.21817 0.065435 0)
(-0.0701273 0.209013 -6.81413e-20)
(0.479657 0.0608222 -1.01712e-19)
(-0.234315 0.139699 9.27139e-20)
(1.17538 0.0235456 2.61924e-19)
(-0.216488 -0.00113763 5.56687e-21)
(1.02896 0.0102892 -2.05658e-19)
(0.802925 -0.570615 0)
(0.763333 -0.0431025 1.26175e-19)
(0.623099 -0.602149 -1.40626e-19)
(1.1955 0.698815 0)
(0.966091 0.0244944 -2.81265e-19)
(-0.0197147 0.0247534 0)
(1.02522 -0.0128245 9.72648e-21)
(-0.0482028 0.271118 0)
(2.51017 0.163401 2.36154e-19)
(-0.100494 -0.185607 3.39394e-21)
(1.51966 0.768615 4.45732e-20)
(1.83337 0.154934 1.45039e-19)
(0.50354 0.109894 -3.03052e-19)
(1.88116 0.343525 -3.54193e-19)
(1.06182 0.0673753 1.05604e-20)
(-0.415589 -0.476663 0)
(-0.205904 0.105709 0)
(1.89657 -0.900926 9.74954e-20)
(-0.390579 0.140388 0)
(1.1034 0.273846 1.31546e-19)
(0.603865 -0.315979 2.46066e-19)
(0.937453 -0.799211 0)
(1.20563 -0.801146 8.23737e-20)
(2.41146 -0.383409 0)
(-0.360997 0.718921 2.02182e-19)
(-0.00869543 0.0814835 1.00737e-19)
(0.61643 0.568252 6.8961e-20)
(2.09199 -0.787779 1.23225e-19)
(0.584569 0.249321 -2.43446e-19)
(-0.252757 0.136925 3.41607e-20)
(0.77736 -0.662964 0)
(1.6806 -0.985404 1.85763e-20)
(0.59257 -0.552406 0)
(2.3227 0.300548 1.14353e-19)
(1.15367 -0.167101 -2.92148e-19)
(1.84644 -0.110256 1.67071e-19)
(1.33774 0.29725 -1.46538e-19)
(1.33114 0.521454 0)
(0.843778 0.124727 -1.15688e-20)
(1.35052 0.379531 -8.55465e-20)
(1.27174 -0.744248 -1.09641e-19)
(1.15515 0.64913 4.42487e-20)
(0.678562 0.0559826 -4.89272e-19)
(0.821732 0.0480336 0)
(2.15156 -0.227157 -7.66167e-20)
(-0.329911 -0.515587 -1.48269e-19)
(1.97289 -0.377777 -1.53671e-19)
(0.727202 -0.0555104 -2.14921e-19)
(0.886145 -0.528826 0)
(0.824821 0.171695 -7.91981e-20)
(0.560197 -0.522331 -2.54308e-19)
(2.50424 -0.31487 0)
(1.00537 0.00867429 3.089e-19)
(-0.0839676 -0.281923 0)
(1.92809 0.427947 0)
(0.858808 0.473444 1.47464e-19)
(0.822046 0.0942208 -2.16194e-20)
(1.03433 0.00408537 3.41912e-20)
(1.31133 0.416243 2.21103e-20)
(0.970988 0.0261751 3.58088e-19)
(1.04049 0.0282277 -8.4974e-21)
(0.66381 0.159387 -2.92711e-19)
(1.20332 0.00998119 -8.23611e-22)
(0.396497 -0.125708 0)
(-0.0648279 -0.0354185 1.06091e-19)
(0.874938 -0.634714 -1.35922e-19)
(-0.0983179 0.399246 -1.73927e-21)
(1.1237 -0.0820689 2.06984e-19)
(0.818999 -0.201211 0)
(0.974777 0.0215555 3.42937e-20)
(1.35377 0.63856 0)
(1.6453 -0.971078 0)
(1.28939 0.218009 0)
(-0.430101 0.677761 0)
(0.806111 -0.679514 2.43664e-19)
(0.564847 0.249835 -4.59324e-19)
(0.790947 0.345006 2.88724e-19)
(1.53233 0.198089 0)
(1.14727 -0.109157 -1.89216e-19)
(1.10808 0.0237368 1.53129e-19)
(-0.0639292 0.538952 1.23557e-19)
(0.618976 0.482842 0)
(2.22972 -0.186035 -1.51445e-19)
(0.977756 -0.488406 6.8085e-20)
(-1.56312 0.189511 2.14013e-19)
(1.6945 0.316291 1.18408e-19)
(-0.261835 0.693439 -2.89535e-19)
(0.831386 -0.755421 0)
(0.549355 0.322603 1.47835e-19)
(1.68835 -0.273855 -6.13828e-19)
(-0.406726 -0.223422 -4.70844e-19)
(1.26332 0.216322 6.69787e-20)
(2.00908 -0.52373 0)
(-0.0867769 -0.0392559 -3.17859e-19)
(0.710777 -0.0921131 6.79008e-20)
(1.53844 0.871676 0)
(-0.276087 0.81283 -3.23903e-19)
(0.869039 0.744673 -2.3334e-19)
(-0.912856 0.470651 4.9357e-19)
(1.02902 -0.0230521 0)
(1.35378 0.232848 -8.43962e-20)
(-0.340374 0.642854 0)
(0.709461 -0.510941 -9.09193e-20)
(-0.796178 0.505234 -2.6421e-19)
(0.803822 -0.733099 0)
(0.448607 -0.306809 3.59928e-19)
(0.555435 -0.474851 2.39528e-19)
(0.420432 -0.380693 0)
(1.00102 -0.795454 -9.68596e-20)
(0.822677 0.375118 0)
(-0.139281 0.823675 -1.58634e-19)
(0.826025 -0.711082 1.15103e-19)
(2.45249 -0.265524 3.36373e-19)
(2.27782 0.186244 0)
(-0.0950186 -0.206885 0)
(0.671296 0.623236 -2.87609e-19)
(1.80918 -0.645197 2.13478e-20)
(-0.223877 -0.290453 0)
(1.00161 -0.820571 -1.07258e-20)
(1.14958 -0.102272 0)
(1.10233 -0.126422 3.29852e-19)
(2.15556 -0.195227 -1.47207e-19)
(-0.431388 0.571998 0)
(1.24424 -0.560939 -4.2107e-20)
(-0.231834 0.350241 -4.265e-20)
(-0.215838 0.488075 0)
(1.1121 -0.827437 1.242e-20)
(1.00635 0.00407278 -5.16108e-19)
(0.66363 -0.497997 -8.97721e-21)
(0.828342 -0.529483 0)
(1.22021 -0.741662 -6.99729e-20)
(0.647708 0.218371 2.28103e-19)
(1.22418 0.103372 0)
(1.48423 0.104594 -1.64101e-19)
(1.21726 -0.87008 -1.34224e-19)
(-0.0790974 -0.179549 -1.17815e-19)
(-0.295892 -0.354142 -2.16877e-19)
(1.06279 0.000771055 1.93454e-19)
(0.929721 -0.476078 -8.56175e-20)
(1.20462 0.0391108 7.62543e-22)
(1.32931 0.0255797 6.11679e-22)
(0.710802 -0.104255 1.29531e-19)
(-0.205238 -0.0421943 -2.85425e-19)
(1.37903 -0.430352 0)
(1.35498 -0.515823 5.01263e-20)
(1.43114 0.642698 1.02219e-19)
(0.822565 -0.62777 -1.7774e-19)
(0.996103 0.00876802 1.05818e-20)
(0.733973 -0.546658 2.49941e-19)
(1.28506 0.789509 9.73109e-20)
(1.86769 0.103957 2.35613e-20)
(-0.474631 0.510177 0)
(1.07679 0.0511732 -2.00318e-19)
(-0.884629 -0.231545 -3.05396e-19)
(1.06094 0.479745 6.75284e-20)
(0.0374286 -0.103069 1.72475e-19)
(1.14761 0.0267584 -3.65524e-20)
(-0.139667 0.198622 -1.65336e-19)
(1.28444 0.575985 -6.05293e-20)
(1.11854 0.870988 0)
(-0.530794 0.517404 -1.06631e-19)
(-0.147846 -0.0375227 0)
(0.63544 0.54243 -2.40778e-19)
(2.0499 0.270897 -2.5715e-20)
(-0.421309 -0.418432 1.68331e-19)
(-0.798099 0.272884 -6.87208e-19)
(0.725904 0.0596113 2.14825e-19)
(2.16728 0.0427675 -6.9714e-20)
(0.994624 -0.36067 -2.52709e-20)
(-0.0308032 -0.0542682 0)
(-0.985128 -0.0750947 3.55802e-19)
(1.30495 0.957161 -7.33188e-22)
(0.840612 0.0647133 -1.17074e-19)
(0.54085 0.506395 1.67115e-19)
(0.415718 0.188477 0)
(-0.215145 -0.454787 -2.55669e-19)
(-0.568442 -0.103377 1.96709e-19)
(1.31692 -0.973461 1.46732e-22)
(0.989176 -0.0402219 -1.60163e-19)
(-0.176818 -0.137241 7.24365e-21)
(-0.130924 0.176276 1.6157e-19)
(-0.307396 -0.12771 -2.05628e-19)
(2.00617 -0.512982 0)
(1.12624 0.0417135 -2.68565e-19)
(2.30657 0.0835282 2.75852e-19)
(1.29879 -0.630477 7.13939e-20)
(0.320477 -0.0694034 1.81694e-20)
(0.578901 0.303421 0)
(0.92557 0.73317 -1.37327e-20)
(0.668687 0.613989 1.56815e-19)
(0.910775 -0.575397 1.22975e-19)
(0.667403 0.479348 0)
(1.02089 0.00137727 6.87101e-21)
(0.897381 -0.676535 1.74977e-19)
(0.827282 0.410526 -3.93958e-19)
(1.2492 -0.109836 0)
(-0.168636 -0.140683 -3.15994e-19)
(-0.0371984 0.393173 -1.00655e-19)
(1.56932 0.718946 0)
(1.3712 -0.95495 -1.25587e-22)
(-0.651271 0.605556 0)
(-0.367082 0.577276 1.23728e-19)
(0.717945 0.633392 -8.41711e-20)
(0.853979 -0.237698 0)
(-0.211279 -0.206711 0)
(1.60188 -0.474897 0)
(-0.880035 -0.225161 6.44981e-19)
(1.23303 -0.899293 8.82102e-20)
(1.19773 -0.614086 4.67578e-20)
(1.08141 -0.168499 -1.30878e-19)
(0.894776 -0.706715 -1.37378e-19)
(0.189977 -0.19421 0)
(-1.22813 0.255582 0)
(1.01741 -0.521057 1.41983e-19)
(-0.167026 -0.304226 0)
(-0.323166 0.745972 0)
(-0.402339 -0.189623 4.0277e-19)
(0.774283 0.651453 7.30217e-20)
(0.994388 0.777505 0)
(0.678299 0.531713 -7.35124e-20)
(0.833423 -0.0539221 -1.92516e-19)
(0.728111 0.541551 -1.96109e-19)
(0.57521 0.533204 -1.4394e-19)
(-0.281914 -0.552614 2.98252e-21)
(0.732696 -0.656927 0)
(0.892062 0.165669 -2.7668e-19)
(-0.374089 -0.522316 6.78833e-20)
(0.588409 0.544639 3.22217e-19)
(0.938523 0.780051 0)
(-0.823683 -0.0618117 4.97437e-19)
(-0.0507317 -0.492885 3.62247e-19)
(0.0380847 -0.395018 -1.89845e-19)
(0.645047 0.548236 -1.27883e-20)
(0.97178 -0.007564 4.99154e-20)
(-0.417915 -0.426896 0)
(2.35368 -0.00866184 -3.45922e-19)
(1.73528 -0.68804 -1.93256e-19)
(0.66467 -0.615407 -6.2199e-20)
(-0.517574 0.440936 1.793e-20)
(1.18312 0.453841 1.48815e-19)
(0.872469 0.401988 0)
(1.06384 -0.182468 1.57764e-19)
(0.134837 -0.550511 -9.46686e-21)
(-0.0486681 0.0927307 3.84005e-19)
(0.931752 0.0195893 -4.40864e-20)
(1.11631 0.132644 0)
(1.958 -0.0632772 -3.45017e-19)
(1.9428 0.127636 0)
(0.534586 0.227467 -4.01047e-19)
(-0.143186 0.212723 0)
(-0.310336 -0.493368 2.90687e-19)
(0.716371 0.0995452 0)
(0.634351 -0.531401 -1.54234e-19)
(1.13063 0.0168636 1.75199e-19)
(-0.457758 0.631089 4.61809e-20)
(2.16692 -0.108462 8.74914e-22)
(2.1359 -0.283471 -1.54341e-19)
(1.10638 0.224487 -1.84174e-19)
(-0.385581 -0.496471 -1.31771e-19)
(1.09372 -0.865427 0)
(0.80402 0.0132278 -1.27557e-19)
(0.937321 -0.392451 -2.42812e-19)
(1.75399 -0.593076 -9.54127e-21)
(1.75108 0.0223732 3.20256e-19)
(1.07067 -0.00878226 3.22104e-19)
(0.0941269 -0.466798 -1.87751e-19)
(1.00996 -0.450951 -1.0329e-19)
(0.200391 -0.193115 2.18196e-19)
(1.00615 -0.007575 0)
(1.00401 -0.00661324 0)
(1.19446 -0.700456 7.79985e-20)
(-0.0474061 0.744134 -1.05955e-19)
(0.176256 -0.120328 -1.53422e-19)
(1.92763 -0.136751 1.73659e-20)
(1.26959 -0.32684 0)
(2.07462 0.0286211 -1.86093e-19)
(0.96008 -0.835681 -5.38118e-20)
(1.81793 -0.581157 -9.30735e-20)
(1.08574 0.820746 0)
(0.482661 -0.465692 0)
(0.585899 0.495638 -1.53748e-19)
(1.08895 0.277758 -3.38509e-19)
(2.30791 -0.274808 4.99046e-22)
(0.863406 0.151574 1.18902e-19)
(-0.0873476 -0.414397 -5.45136e-19)
(1.05826 -0.191024 -4.11768e-20)
(-0.3533 -0.327886 0)
(-0.0840358 -0.208141 0)
(-0.457672 -0.318365 0)
(1.36242 -0.736527 -5.02225e-20)
(-0.22595 0.493222 -2.30046e-19)
(-0.0564325 0.148463 0)
(1.26631 0.958939 -2.11676e-20)
(1.10467 0.146092 -3.52719e-19)
(1.74977 0.466305 -4.51544e-20)
(1.05961 0.904999 6.07052e-20)
(-0.230165 0.682153 1.48615e-19)
(0.52405 -0.0877623 0)
(-0.460026 -0.254872 -3.48749e-19)
(-0.296606 0.650686 2.80165e-19)
(0.779424 0.0214651 1.57926e-19)
(1.50832 0.934701 2.16722e-20)
(1.5941 0.448346 -1.77581e-20)
(-0.142445 0.366773 -3.55581e-21)
(0.758957 -0.69219 -2.94643e-20)
(1.12945 0.00553507 0)
(1.72932 -0.0629563 0)
(1.0539 0.0533245 0)
(-1.34773 0.263814 -2.06254e-19)
(-0.454524 -0.324694 1.27373e-19)
(1.02704 0.826529 0)
(0.999677 -0.00934808 4.30782e-19)
(0.749419 0.583649 -1.96339e-19)
(-1.72466 0.0681733 -1.95166e-19)
(0.864281 0.0110813 -3.52014e-20)
(0.727681 -0.66371 -1.77958e-19)
(1.36755 0.697892 -2.20441e-20)
(0.576752 -0.471451 -2.49695e-19)
(1.12339 -0.00102789 -3.874e-19)
(0.822297 0.0396668 3.7245e-20)
(1.53867 -0.179225 3.91657e-20)
(1.13455 -0.125113 -4.40379e-20)
(-0.0666011 -0.097291 -2.44875e-22)
(1.06799 0.456769 -2.25049e-19)
(1.29333 0.603219 8.23101e-20)
(-0.0464014 -0.450324 0)
(-0.126598 -0.32952 2.00641e-19)
(-0.229591 -0.163578 1.3296e-19)
(-0.195829 -0.0741414 -1.47134e-19)
(0.457853 0.285108 0)
(1.40823 -0.710027 0)
(0.0284702 -0.0266137 -1.39989e-19)
(-0.327089 -0.546563 -7.44936e-20)
(1.0463 -0.0302067 1.53604e-19)
(-0.424136 0.487779 -4.93701e-20)
(1.67528 -0.333003 -6.44757e-19)
(-0.0697469 0.758628 0)
(0.848138 -0.751337 -2.37395e-19)
(0.793707 -0.141821 6.28325e-20)
(-0.533791 -0.335025 1.8977e-19)
(0.716268 0.146983 2.85042e-19)
(0.617601 0.114665 9.26764e-20)
(0.511737 -0.485443 1.70744e-19)
(-0.248531 -0.34718 -1.53184e-19)
(1.4484 0.47315 0)
(0.374435 0.315927 -1.70526e-19)
(1.02464 -0.0162169 -2.44515e-19)
(-0.890597 0.255002 2.67994e-19)
(1.40459 0.481556 -8.74532e-20)
(-0.193139 -0.37417 -5.81551e-20)
(0.699579 -0.638856 -1.87837e-20)
(0.814098 0.179487 -1.77541e-19)
(0.963193 0.414437 1.93613e-20)
(1.15549 -0.143395 2.83283e-20)
(0.611578 -0.254195 -2.58152e-19)
(2.04245 -0.385784 -2.01509e-19)
(1.32719 -0.192107 0)
(1.34914 0.426935 -3.08293e-20)
(1.76871 0.112079 -2.06316e-20)
(0.921473 -0.255979 1.53065e-19)
(0.905277 0.337067 -1.89455e-19)
(0.893268 0.0785618 3.80638e-20)
(0.401304 0.366721 -2.20339e-19)
(-0.211632 0.491011 3.04934e-19)
(2.00558 -0.183354 0)
(0.930033 0.00467118 0)
(0.888659 -0.785825 4.396e-20)
(-0.0495841 -0.570999 -3.96152e-19)
(-0.971404 0.212084 -3.45386e-19)
(-0.0921691 -0.147171 -2.50385e-19)
(-0.442418 0.776609 -1.95352e-19)
(-0.399085 -0.320772 0)
(-0.0672908 -0.150752 4.46337e-20)
(0.203647 0.484908 -9.41553e-20)
(-0.151484 0.203869 -3.69595e-19)
(0.803628 -0.128814 0)
(1.48413 -0.652142 7.53132e-20)
(-0.232137 -0.230168 0)
(0.99272 0.0238613 3.10567e-19)
(-0.259905 -0.395986 2.26446e-20)
(0.552574 -0.444004 3.34636e-19)
(-0.930154 -0.227406 5.06188e-19)
(-1.69405 0.0453588 0)
(0.257038 0.695891 1.17095e-19)
(1.00546 0.0201359 -9.31899e-21)
(-0.182858 -0.142654 0)
(1.00608 -0.00604605 -4.84276e-20)
(0.875446 -0.738833 -2.3077e-19)
(1.4508 -0.798507 0)
(0.942818 -0.291734 1.73285e-19)
(0.126752 0.775776 2.70662e-19)
(-0.0124566 -0.0119253 0)
(-0.273082 -0.386132 -7.27696e-21)
(0.739023 -0.646193 -3.52591e-19)
(0.965508 -0.0301461 -2.20766e-19)
(-0.075377 -0.588285 5.0351e-19)
(-0.242831 -0.487316 1.78851e-19)
(-0.377587 -0.33405 0)
(0.943063 0.461589 0)
(-0.464785 -0.402382 2.40281e-19)
(1.88424 0.0798586 -2.52154e-19)
(1.05521 0.879551 1.46453e-20)
(1.06484 0.207847 -1.04109e-19)
(1.15796 -0.00320039 -1.81092e-19)
(1.05168 -0.0767962 -6.18285e-20)
(-0.0914517 -0.577783 -4.61875e-19)
(2.03021 0.06497 5.46033e-19)
(0.673268 0.0263633 1.71385e-19)
(1.97247 -0.0961916 1.64949e-19)
(1.0582 -0.140439 0)
(-0.155607 0.419944 4.40911e-19)
(1.13062 0.0260875 -4.20874e-19)
(1.72725 0.620986 -9.55129e-21)
(0.749939 -0.47003 -1.36105e-19)
(-0.0699649 -0.0332493 2.3768e-19)
(0.811324 -0.711525 3.04887e-19)
(1.22704 0.193291 6.03554e-20)
(1.00421 -0.00770516 2.14632e-19)
(0.0110242 -0.436908 -2.05396e-19)
(1.02662 0.0106133 0)
(1.57808 0.165567 -2.16124e-19)
(-0.0230656 -0.018554 0)
(1.02429 0.0143549 -1.26028e-19)
(-1.36216 -0.158073 -7.03819e-19)
(1.67783 0.328875 1.53248e-20)
(-0.352316 -0.135099 1.72793e-19)
(1.61247 0.00633902 -2.39868e-20)
(1.0132 -0.0161871 4.43758e-20)
(1.34637 -0.0882363 0)
(1.47292 -0.621368 -8.36413e-20)
(1.02212 0.0281754 -1.31267e-19)
(1.42239 0.778338 -2.81249e-20)
(1.38623 -0.0587542 0)
(0.707113 -0.145946 -1.45797e-20)
(0.0276434 -0.0288865 0)
(1.36274 0.049573 0)
(-0.445711 -0.383261 0)
(1.23207 0.430076 0)
(1.83145 0.31639 5.60183e-20)
(0.722721 0.596032 3.43943e-19)
(0.29698 -0.298762 -2.02105e-19)
(-0.297747 -0.559931 -4.31388e-19)
(-0.0290111 -0.0559795 0)
(1.54587 -0.524773 8.65549e-20)
(1.30635 0.511121 0)
(1.43642 0.297184 0)
(-0.486665 -0.21673 1.54086e-19)
(0.791567 0.698046 1.07582e-19)
(1.69738 -0.0239562 0)
(-0.377143 -0.443942 9.69357e-20)
(0.897666 0.21321 1.62425e-19)
(1.65958 -0.439706 -4.31868e-20)
(1.22094 0.91221 3.38569e-20)
(0.937097 -0.84322 -2.01749e-20)
(0.961789 -0.186222 -2.18985e-20)
(0.778127 0.702194 1.09819e-19)
(1.15848 0.910822 0)
(2.24698 -0.3961 1.70669e-19)
(1.19435 0.640764 0)
(1.3585 -0.555717 2.69223e-20)
(0.896588 0.0751311 1.87542e-19)
(1.00667 -0.0045057 0)
(-0.122892 0.180017 4.22108e-19)
(0.893282 -0.190204 4.04304e-20)
(0.639993 -0.426926 0)
(0.676886 -0.399821 1.80744e-19)
(1.22664 0.545753 -2.73443e-20)
(0.46038 0.43293 2.40351e-19)
(-0.184813 0.282816 4.41036e-20)
(0.0614035 0.0234909 9.52081e-20)
(0.764935 0.0631124 0)
(1.34362 -0.914801 -3.00426e-20)
(1.04146 -0.0429893 3.40699e-19)
(1.46183 0.323583 1.50165e-19)
(-0.389551 -0.42668 8.37758e-20)
(-0.954835 -0.235305 0)
(1.24609 -0.245781 -9.00391e-20)
(-0.0114131 -0.015035 -2.05366e-19)
(-0.0316494 0.104874 -5.64221e-20)
(-0.124851 0.0308488 -5.0429e-22)
(-0.200189 0.084115 3.10613e-19)
(1.26834 -0.0470383 -8.94361e-22)
(2.39137 -0.0547447 4.63198e-19)
(1.18493 0.454933 -2.39977e-19)
(0.880905 -0.0355639 0)
(1.93006 -0.113003 3.02572e-19)
(1.85917 0.11955 1.42042e-19)
(0.926629 -0.777642 1.11123e-19)
(1.17374 -0.990079 -1.21182e-20)
(0.465285 0.430869 1.60628e-19)
(1.43956 0.352532 0)
(1.73674 0.578065 4.33076e-20)
(-0.0170974 -0.0303089 -4.18482e-19)
(0.867858 0.756001 0)
(1.26657 0.356566 0)
(0.298343 -0.29828 -3.78583e-21)
(0.307601 0.277324 0)
(-1.28513 -0.0776796 -4.81387e-19)
(-0.282023 0.467338 -1.2854e-19)
(1.75075 -0.438899 0)
(1.26691 0.0819681 1.13231e-19)
(-0.693356 0.233201 2.89617e-19)
(0.543548 -0.516224 -3.86006e-19)
(1.99134 -0.0968321 -5.99562e-20)
(0.622138 -0.564972 0)
(1.0257 0.11858 0)
(1.3596 -0.25129 0)
(1.11299 0.223189 -1.94969e-19)
(1.3296 0.109237 2.73978e-19)
(-1.39775 0.0752893 0)
(0.880982 -0.0635248 0)
(2.07832 -0.129085 6.7271e-21)
(-0.0768614 0.17046 1.06929e-19)
(2.58387 -0.148238 -3.65812e-19)
(1.07514 -0.520717 2.14288e-19)
(2.01846 -0.0332187 -3.72591e-19)
(-1.12311 0.291784 -2.22314e-19)
(2.0251 0.135392 -2.56634e-19)
(1.01749 -0.0261352 3.49557e-19)
(1.50398 0.599919 0)
(-0.324411 0.616141 3.44957e-20)
(1.02027 -0.841904 1.30857e-19)
(0.861758 -0.0237073 4.11459e-20)
(0.645058 -0.449294 0)
(1.92974 -0.558145 1.01916e-20)
(1.23028 -0.194608 1.15674e-19)
(1.55517 -0.62487 0)
(0.618465 -0.574068 3.51307e-19)
(0.617382 0.113514 -3.68308e-20)
(2.47223 -0.14873 6.746e-19)
(-0.112022 0.269521 -2.22993e-19)
(1.32009 0.609304 1.16125e-19)
(1.1401 0.396766 3.07024e-21)
(0.892349 0.365465 1.92738e-19)
(1.95791 0.140703 -2.62487e-19)
(-0.130621 -0.544585 -5.69913e-21)
(0.901667 -0.171935 0)
(-0.15366 -0.0960518 3.91158e-19)
(1.10741 -0.964212 0)
(1.07927 -0.661631 1.70439e-20)
(1.20919 0.000877977 -7.42232e-19)
(1.36472 0.0516563 -8.76632e-23)
(-0.674906 -0.179069 -4.37271e-19)
(0.974336 0.471555 1.48745e-19)
(-0.28303 0.279774 2.28163e-19)
(0.703328 -0.0369328 0)
(1.67646 -0.171225 0)
(1.42741 0.157728 2.28574e-20)
(0.765418 -0.0113945 0)
(1.38324 -0.213585 -1.19026e-19)
(-1.64611 0.142855 6.33847e-19)
(1.90705 0.498301 3.62409e-20)
(1.04642 -0.027675 0)
(0.5626 -0.370919 8.86786e-20)
(1.009 0.0229998 1.66669e-19)
(0.71623 0.787637 -2.17476e-19)
(-0.469301 0.781764 0)
(1.12907 -0.484919 3.87419e-19)
(1.51575 -0.107643 -4.14653e-22)
(1.11728 -0.505739 -1.68855e-19)
(2.34435 0.264744 2.0395e-19)
(1.2719 0.778036 0)
(0.864724 0.0209854 0)
(-0.4207 -0.368676 -2.07872e-19)
(0.0290242 -0.0255532 1.57461e-19)
(0.937883 0.360551 -1.77182e-19)
(0.209097 -0.366628 -1.84908e-19)
(0.633575 0.388442 2.11203e-19)
(0.805172 -0.100673 0)
(0.547546 -0.508846 0)
(1.04539 -0.161533 3.4738e-21)
(1.25252 -0.514673 -7.5598e-20)
(0.629645 -0.0372535 1.49656e-20)
(0.731186 -0.173087 1.01676e-19)
(-0.0410159 0.0869029 -2.82455e-19)
(1.36872 0.210799 3.68305e-19)
(0.64633 0.601355 0)
(1.25624 0.683889 0)
(1.58654 0.259277 0)
(-0.480907 -0.294951 -1.9153e-19)
(1.23031 0.549924 2.15584e-19)
(2.01257 0.0857493 5.84828e-20)
(0.935872 -0.00187253 0)
(1.29593 -0.428515 0)
(2.20852 -0.104383 -4.20766e-19)
(0.634236 0.409414 2.49386e-19)
(1.0082 0.00157879 -1.66722e-19)
(1.47839 0.462415 0)
(-0.312598 0.747316 0)
(1.23909 0.315095 2.37409e-19)
(1.00896 0.514673 -1.09466e-19)
(1.06801 0.0215361 0)
(1.70784 0.212131 0)
(1.94645 0.671693 -3.22873e-19)
(-0.115444 0.484397 -2.62329e-21)
(0.998478 0.0135924 0)
(0.693895 0.454099 -2.88731e-20)
(0.950705 -0.837779 0)
(1.01294 0.0162349 3.86493e-20)
(1.02883 -0.41578 4.35929e-20)
(0.910522 -0.337414 2.54941e-19)
(0.991325 -0.193195 -6.03503e-20)
(2.21928 -0.133035 4.27759e-19)
(1.24354 0.136156 8.82921e-20)
(0.779587 -0.0230303 0)
(1.02009 0.0111607 0)
(-0.684204 -0.349818 0)
(0.651933 0.623485 -1.59412e-19)
(-0.00486935 0.0298537 1.90819e-19)
(1.1622 0.339005 -3.81669e-19)
(-0.593646 0.533134 0)
(0.812429 0.624474 1.43946e-19)
(1.01958 -0.350653 0)
(1.00489 -0.00153481 9.75704e-20)
(0.225186 0.0418183 6.48314e-20)
(1.02422 0.397426 2.16436e-19)
(1.4979 0.248344 0)
(2.18815 0.22471 -1.03724e-19)
(0.825938 -0.123812 -3.10157e-19)
(-1.26127 -0.0305512 -6.61789e-19)
(1.11061 0.273531 0)
(0.869673 0.237382 1.5068e-19)
(2.07486 -0.137718 0)
(0.761482 0.503765 3.12591e-19)
(-1.66164 0.11634 2.66136e-19)
(-0.0236489 0.0796731 0)
(0.576497 0.546998 -6.07035e-20)
(1.04053 -0.64915 -1.19771e-19)
(0.489346 -0.273833 -1.05763e-19)
(1.02188 -0.0207112 0)
(-0.42635 0.43672 -2.91773e-19)
(0.649063 -0.58011 6.81984e-20)
(0.893634 0.284023 0)
(1.6278 -0.691201 1.08107e-19)
(0.965959 0.821929 2.00441e-20)
(1.05276 -0.364444 -3.34014e-20)
(0.252719 -0.288379 -2.91608e-19)
(0.238608 -0.0826824 -4.82812e-19)
(-0.126917 -0.288551 1.08223e-20)
(0.807982 0.347763 2.12526e-19)
(-0.242755 0.53605 -5.74044e-21)
(1.43732 -0.660493 3.62298e-21)
(1.02503 0.00605174 -2.8874e-19)
(-0.556426 -0.273798 0)
(1.02901 0.0270829 -3.41574e-19)
(2.13292 0.239001 2.18237e-19)
(0.870714 0.672051 2.39322e-19)
(1.13133 -0.0742543 1.32342e-19)
(1.00201 -0.0348288 1.33696e-19)
(1.42536 0.0588701 1.50018e-22)
(-0.33513 -0.347419 2.11179e-22)
(1.74894 -0.887883 1.53929e-20)
(1.15128 -0.140162 -5.73916e-20)
(0.804218 0.0459134 6.54518e-20)
(0.914974 -0.309304 7.55667e-20)
(0.786168 0.178272 0)
(0.944896 0.717158 0)
(0.716997 0.266107 -7.72957e-20)
(2.06144 0.199875 -3.58103e-20)
(-1.18701 -0.0801223 2.27658e-19)
(1.04264 -0.546156 -4.14892e-19)
(0.627871 -0.54696 3.29465e-19)
(1.21064 0.285609 -1.73243e-19)
(0.314537 -0.453697 2.1202e-20)
(1.43649 -0.356417 0)
(0.753865 0.105076 -5.83453e-21)
(1.42272 -0.49637 -5.31388e-20)
(1.02255 0.745049 0)
(1.26643 -0.499286 0)
(0.597708 0.141283 0)
(-0.240364 -0.392985 -7.06576e-20)
(-0.142502 0.152543 0)
(1.53289 0.685498 2.86545e-19)
(1.21444 0.180361 5.28267e-21)
(-1.20718 0.137901 2.59206e-19)
(1.61533 0.533891 2.11668e-20)
(1.79528 0.475934 -8.54328e-20)
(2.17133 -0.343408 -4.45485e-20)
(-0.17079 -0.00244787 -2.19442e-19)
(-0.277977 -0.371542 5.42708e-21)
(0.935203 0.0892647 0)
(0.681398 -0.0334855 0)
(0.997974 0.00175559 2.35091e-22)
(-0.510717 -0.283582 0)
(1.53308 0.00242346 -1.46796e-19)
(0.680967 -0.0317106 0)
(1.06164 0.00436076 1.05788e-19)
(0.997176 0.0172411 -3.78846e-20)
(1.3148 0.134478 2.27943e-19)
(1.06307 -0.0178316 -7.79629e-22)
(0.953209 -0.208707 -4.56761e-20)
(1.02711 -0.0361628 3.09472e-19)
(0.682727 -0.62141 1.53198e-19)
(-0.733854 -0.180211 -2.62522e-19)
(1.11028 0.364588 3.99696e-20)
(0.0293113 -0.0189936 0)
(1.1082 0.779044 0)
(1.02856 -0.0100285 0)
(1.01766 -0.785291 -8.10238e-20)
(1.05469 -0.903878 1.30503e-20)
(0.74487 0.0579433 -4.39302e-20)
(0.0217722 0.318019 -8.65982e-19)
(1.25541 -0.266395 7.57696e-21)
(0.595539 -0.403003 -5.40288e-19)
(1.13275 0.430261 -5.24862e-20)
(1.03776 -0.0121547 -5.87204e-20)
(2.10217 -0.347025 1.40043e-19)
(0.381799 0.0578008 -3.77603e-20)
(-0.364964 -0.465001 -1.47056e-19)
(1.10212 0.539197 1.63884e-19)
(-0.0573929 -0.394989 0)
(0.0811328 -0.397083 4.47326e-19)
(-0.0705057 -0.121004 6.44174e-23)
(1.03861 -0.0426755 2.7932e-19)
(1.0273 -0.00197282 -7.16829e-21)
(1.10393 -0.0114132 -7.73211e-20)
(1.25766 -0.0264475 -1.05899e-20)
(1.60569 0.315709 3.78859e-20)
(0.408221 -0.384002 -2.66972e-19)
(0.740351 0.00271609 7.99774e-20)
(1.03729 -0.000675352 -2.04089e-19)
(0.916262 0.22622 -4.11412e-20)
(1.19388 -0.0715746 0)
(1.09595 0.577552 -3.06674e-19)
(1.00426 -0.00446223 7.97206e-20)
(0.657996 0.585341 2.23642e-19)
(1.27711 -0.121231 6.43063e-22)
(1.06202 -0.014781 -2.53783e-20)
(1.12448 0.0139747 7.20167e-22)
(2.54202 0.00245338 2.47769e-20)
(0.134463 0.047085 0)
(1.05391 -0.040449 0)
(1.06006 -0.0338352 4.90851e-19)
(1.00202 -0.00414778 0)
(-0.0449092 -0.087805 0)
(0.962278 -0.587719 0)
(1.00188 -0.000970105 -4.63353e-19)
(1.17403 -0.69109 6.18209e-20)
(1.02397 -0.00369785 9.68429e-21)
(1.32251 0.942737 -1.56323e-20)
(1.50349 0.992049 -6.05145e-20)
(1.17601 -0.0942715 -1.18307e-20)
(1.54144 0.281776 2.2709e-19)
(1.22867 0.256869 0)
(0.0169228 0.58316 0)
(2.19029 -0.0257717 5.47792e-19)
(1.2497 -0.682455 0)
(1.00119 -0.00726268 -1.43758e-19)
(1.01 -0.000502487 2.79204e-19)
(1.42435 0.146861 -5.65973e-20)
(-0.000489227 -0.12268 3.02226e-19)
(0.969149 -0.000311732 1.51477e-19)
(0.29817 -0.0571082 4.75513e-20)
(0.309038 0.0824108 -3.67421e-20)
(1.25633 -0.0608076 -1.35731e-22)
(0.928765 0.0170894 -1.52026e-19)
(1.00113 0.00282619 1.80092e-19)
(1.00063 -0.000228521 1.06368e-20)
(0.789084 -0.0137419 0)
(0.724698 -0.0269236 0)
(0.722547 -0.0286541 6.46159e-22)
(0.700645 -0.0292493 0)
(0.573044 -0.147627 0)
(0.0759404 0.000908993 0)
(0.192362 -0.000621548 3.18956e-20)
(0.394506 0.115289 -1.98761e-20)
(1.08152 0.0993789 0)
(1.31667 0.0333274 -4.4251e-22)
(1.25134 -0.0731156 0)
(0.192431 -0.0067698 0)
(0.0233736 -0.00185406 0)
(-0.00315026 0.0286596 2.58383e-21)
(0.442639 0.126684 7.28836e-20)
(0.791695 0.0243636 0)
(0.797173 0.0200304 0)
(0.966542 0.018476 -1.87494e-19)
(0.824366 0.00767523 3.51432e-19)
(1.00622 -0.00136433 0)
(0.999649 -0.00104774 3.32544e-19)
(1.00047 -0.000427643 -3.55966e-22)
(0.797257 0.0235647 2.97557e-19)
(0.99116 -0.00646295 -1.73945e-19)
(0.355524 -0.0426041 0)
(0.0513554 -0.00352049 3.67759e-20)
(1.00071 -0.00260291 -1.68274e-19)
(0.999996 0.000352995 -2.88442e-19)
(1.06401 -0.143938 0)
(1.00062 0.00144206 0)
(0.999488 0.000142284 0)
(1.35813 -0.235819 2.19854e-20)
(1.13769 0.0033193 8.04694e-21)
(0.889475 0.178998 0)
(-0.385419 0.473721 2.30438e-19)
(-0.837393 0.418269 -4.12886e-19)
(1.02136 -0.0137189 -2.23806e-19)
(-0.398898 -0.448025 -1.33914e-19)
(1.02164 0.00149104 -1.79822e-19)
(1.18626 -0.22195 -7.19223e-20)
(0.806166 -0.48383 2.53606e-19)
(-0.0672346 -0.108557 -1.01438e-19)
(1.02735 0.01104 0)
(1.05081 -0.00979972 -4.87564e-20)
(0.862131 0.0236036 0)
(-0.0145404 0.0277416 2.77588e-19)
(1.22716 -0.614591 0)
(-0.505225 -0.285206 -3.32453e-19)
(0.305251 -0.0302232 -4.6521e-20)
(1.6387 0.680211 3.97835e-20)
(-0.051229 -0.0565778 0)
(1.06411 -0.039974 1.51622e-19)
(1.22894 -0.121572 1.38798e-21)
(0.928186 -0.0159484 2.39631e-19)
(1.01235 -0.00972408 -1.52507e-19)
(1.65163 0.855561 5.71868e-20)
(0.506899 0.473754 0)
(0.428349 0.377176 1.78091e-19)
(1.28557 -0.282668 -5.68172e-21)
(1.14303 0.126053 1.61972e-19)
(1.1013 -0.72064 0)
(1.02287 0.00584461 0)
(1.00121 -0.0194935 -3.51855e-19)
(1.0156 0.014105 -3.41822e-19)
(-0.170046 -0.435694 0)
(1.20421 0.807306 -9.93412e-20)
(1.30282 -0.0994905 -6.84623e-22)
(1.01507 0.00420016 1.31765e-19)
(1.00741 0.0140887 -1.65251e-19)
(-0.53947 -0.199176 -3.26274e-20)
(1.21856 0.00644901 -2.82588e-20)
(1.01671 -0.0166835 5.62335e-19)
(1.18699 0.00206132 0)
(1.83457 0.653315 -6.86865e-20)
(1.01479 -0.0152622 -1.75096e-19)
(1.97475 0.127065 -1.50665e-19)
(1.06275 0.00832149 -4.03722e-22)
(1.0092 -0.0117093 3.5085e-20)
(2.1121 -0.244116 -3.51674e-19)
(1.01697 0.00466487 1.69665e-19)
(1.28298 0.197725 7.17045e-21)
(1.01612 0.00141575 0)
(0.923894 0.14126 4.23134e-20)
(-1.36911 0.151907 6.66897e-21)
(0.996933 0.0220522 1.68694e-19)
(1.036 0.0220662 -6.9012e-22)
(1.24555 -0.0545934 -2.58962e-23)
(1.24724 0.309711 3.33714e-19)
(0.999247 0.0162247 1.15632e-19)
(1.01776 -0.0137202 3.23704e-22)
(1.71868 0.260708 -1.01383e-20)
(1.73956 0.927603 -1.08888e-19)
(0.78677 -0.70562 4.57436e-20)
(0.461561 -0.347162 -2.63005e-19)
(1.00818 -0.0102673 0)
(1.0204 0.00339049 4.22242e-20)
(1.01087 -0.00674219 8.89933e-20)
(1.2381 0.118402 3.46016e-21)
(1.01259 0.00460045 -1.7668e-19)
(1.03071 -0.0280199 2.0135e-19)
(1.0104 -0.00680173 -1.66408e-19)
(1.01509 0.00372688 -5.29454e-22)
(1.01391 0.000377203 -3.52186e-22)
(1.02386 0.0133131 1.68918e-19)
(0.901176 0.0769302 4.35715e-19)
(1.74702 0.616651 0)
(0.497825 0.00936421 2.8049e-19)
(1.01287 -0.00370573 0)
(1.02342 -0.0180895 -4.90527e-20)
(1.52355 0.451411 -5.17469e-20)
(1.8263 -0.0118531 0)
(1.97543 -0.422478 -9.04067e-20)
(1.32081 0.613106 -4.59245e-20)
(0.764615 -0.0140683 0)
(1.97473 -0.0505994 0)
(0.344928 0.328556 -1.51046e-19)
(1.34778 0.043814 5.47121e-22)
(1.01736 -0.00387293 -1.78061e-19)
(1.13383 -0.570091 -4.74822e-20)
(1.28334 0.00468088 -4.69698e-21)
(1.51213 0.471034 0)
(1.30193 -0.256307 0)
(1.78622 0.480327 0)
(0.179469 0.566116 1.02017e-19)
(1.36957 0.199955 2.53828e-20)
(-0.11962 0.162947 0)
(-0.0349999 0.683792 -3.57551e-19)
(1.67459 0.958552 -8.40298e-20)
(1.0084 -0.00325787 -3.48097e-19)
(1.34447 0.112257 4.87032e-21)
(1.02227 0.00623998 2.30095e-19)
(0.699309 -0.0396888 0)
(-0.12603 -0.385628 -3.11885e-20)
(0.598719 0.412362 -2.97357e-19)
(1.74801 0.674381 8.47198e-20)
(0.129757 0.733589 0)
(0.793791 0.0901791 6.06229e-20)
(0.505843 0.48208 4.48283e-20)
(1.16859 0.871041 -2.63829e-20)
(-0.0317072 -0.0195291 1.51365e-19)
(1.02114 0.00935345 0)
(1.46358 0.298631 1.55826e-20)
(1.01033 -0.00455722 1.30738e-19)
(2.4634 0.143554 0)
(1.01037 0.00743087 2.1912e-19)
(0.184043 -0.419526 -2.12939e-19)
(1.02028 0.0114528 -1.3551e-19)
(1.43435 0.228295 0)
(1.78801 -0.476501 4.4849e-22)
(1.0086 0.0056582 -9.10335e-20)
(0.993623 -0.035613 2.40607e-19)
(1.0897 0.0953399 -2.47064e-21)
(1.29474 0.279542 -3.1315e-20)
(-0.150846 -0.0663126 3.95621e-19)
(1.95884 0.357225 2.1059e-19)
(0.892572 0.20588 3.63996e-20)
(0.811687 0.0126524 -3.28968e-19)
(0.80423 0.0228716 0)
(0.999462 0.101834 3.82205e-20)
(1.02277 -0.0135788 -2.63495e-20)
(0.971043 0.0181199 0)
(1.04866 0.00043817 -1.6745e-19)
(0.555299 -0.310503 -5.46002e-20)
(-1.62046 0.0594824 2.96699e-19)
(2.17533 -0.607729 0)
(-1.00131 -0.0429567 -9.01402e-19)
(1.53309 -0.349324 0)
(1.03792 -0.0173964 4.91489e-20)
(1.00289 -0.113475 1.47512e-21)
(1.0155 -0.000902644 1.41298e-19)
(-1.1112 0.159834 5.71037e-19)
(1.01786 0.00282926 0)
(0.991621 0.00392966 -3.42106e-19)
(1.00843 0.00698298 1.79777e-19)
(0.906538 0.123773 0)
(0.830669 -0.159576 -6.35948e-21)
(0.962132 -0.00123116 -1.54157e-19)
(-0.329417 -0.487499 4.68146e-19)