/*--------------------------------*- C++ -*----------------------------------*\
| =========                 |                                                 |
| \\      /  F ield         | OpenFOAM: The Open Source CFD Toolbox           |
|  \\    /   O peration     | Version:  2306                                  |
|   \\  /    A nd           | Website:  www.openfoam.com                      |
|    \\/     M anipulation  |                                                 |
\*---------------------------------------------------------------------------*/
FoamFile
{
    version     2.0;
    format      ascii;
    arch        "LSB;label=32;scalar=64";
    class       volVectorField;
    location    "10.3";
    object      U;
}
// * * * * * * * * * * * * * * * * * * * * * * * * * * * * * * * * * * * * * //

dimensions      [0 1 -1 0 0 0 0];

internalField   nonuniform List<vector> 
2186
(
(1.29821 -0.102989 1.65894e-19)
(1.59978 -0.931536 -1.09829e-19)
(1.44725 -0.908907 -8.10892e-22)
(0.737799 -0.581714 -1.16692e-19)
(-0.550564 0.633035 -2.3769e-19)
(1.05148 0.0437438 0)
(0.717682 -0.663654 0)
(-0.293818 -0.527831 1.24545e-19)
(1.48809 -0.261601 2.00274e-19)
(0.55267 -0.307794 -2.2915e-21)
(0.677248 0.612047 0)
(0.829856 -0.278458 -1.47501e-19)
(-0.377286 -0.654157 -5.07707e-20)
(1.16496 0.0172039 -2.89187e-19)
(1.78777 -0.68143 -1.15769e-19)
(1.01125 -0.00666432 1.36035e-19)
(0.984205 0.00555895 0)
(-0.693692 0.473689 0)
(1.06584 0.00962478 0)
(-0.0478999 0.273306 -8.58786e-20)
(0.489363 0.100685 -9.45623e-20)
(-0.232832 0.173791 1.16788e-19)
(1.14763 0.0305438 2.38731e-19)
(-0.220012 -0.00156619 4.18083e-21)
(1.02017 0.0111085 -1.87945e-19)
(0.789092 -0.559275 0)
(0.763354 -0.0279077 1.16834e-19)
(0.608794 -0.589445 -1.30884e-19)
(1.22125 0.716193 0)
(0.985332 0.0200434 -2.56398e-19)
(-0.00102178 0.0509933 0)
(1.02406 -0.00565317 8.87519e-21)
(0.0110848 0.327894 0)
(2.20447 0.27523 1.75126e-19)
(-0.118643 -0.132184 2.82596e-21)
(1.55126 0.781526 1.4884e-21)
(1.63273 0.153936 1.00276e-19)
(0.51654 0.149763 -2.80496e-19)
(1.95904 0.249285 -4.53415e-19)
(1.05406 0.0267756 7.87108e-23)
(-0.446384 -0.717786 0)
(-0.195916 0.155258 0)
(1.86102 -0.874764 9.71682e-20)
(-0.444582 0.213975 0)
(1.11139 0.287369 1.14332e-19)
(0.597008 -0.290011 2.32108e-19)
(0.91325 -0.77855 0)
(1.17874 -0.786184 7.38867e-20)
(2.05805 -0.634872 0)
(-0.389331 0.691959 2.62978e-19)
(0.0163355 0.119046 1.26982e-19)
(0.629237 0.580263 5.76493e-20)
(2.05261 -0.757888 1.2426e-19)
(0.598898 0.282814 -2.23244e-19)
(-0.258008 0.176664 4.3681e-20)
(0.760844 -0.650274 0)
(1.64774 -0.959268 1.78794e-20)
(0.580078 -0.54134 0)
(2.39099 0.19512 1.40861e-19)
(1.13553 -0.1895 -2.68822e-19)
(1.35491 -0.105272 9.18677e-20)
(1.35464 0.294387 -1.17363e-19)
(1.3442 0.53358 0)
(1.06648 0.0382565 -8.62354e-23)
(1.36059 0.379664 -6.27733e-20)
(1.24724 -0.734387 -9.71708e-20)
(1.18013 0.665452 3.5345e-20)
(0.685575 0.0726444 -4.52632e-19)
(0.819401 0.0546634 0)
(2.09411 -0.207137 -7.2412e-20)
(-0.265963 -0.597708 -1.45048e-19)
(1.66188 -0.502117 -8.50924e-20)
(0.727968 -0.0364289 -1.9964e-19)
(0.875031 -0.521753 0)
(0.826188 0.176927 -7.24233e-20)
(0.548104 -0.509588 -2.40083e-19)
(2.02647 -0.385858 0)
(1.00372 0.0118998 2.82299e-19)
(-0.102865 -0.206656 0)
(2.02923 0.42464 0)
(1.00028 0.321978 1.71731e-19)
(0.954964 0.0452956 -8.68354e-22)
(1.03677 0.00836366 3.12221e-20)
(1.31962 0.414471 1.69745e-20)
(0.976253 0.0151018 3.27108e-19)
(1.03892 0.0296899 -7.75371e-21)
(0.672419 0.180842 -2.69177e-19)
(1.07044 0.0270723 8.47828e-23)
(0.473018 0.0155105 0)
(-0.0686895 -0.0291109 1.05466e-19)
(0.858793 -0.624951 -1.26453e-19)
(-0.0809843 0.547849 -1.97023e-21)
(1.09597 -0.0795844 1.89666e-19)
(0.810924 -0.178439 0)
(0.994168 0.0289215 3.12804e-20)
(1.37801 0.649418 0)
(1.6099 -0.944651 0)
(1.30917 0.223722 0)
(-0.540769 0.710977 0)
(0.788743 -0.665778 2.2785e-19)
(0.787791 -0.120713 -4.67514e-19)
(0.964753 0.143237 3.26046e-19)
(1.50947 0.189151 0)
(1.10041 -0.114648 -1.73398e-19)
(1.08275 0.0246704 1.40266e-19)
(0.0346614 0.638425 1.6538e-19)
(0.639824 0.514149 0)
(2.17348 -0.150624 -1.44135e-19)
(0.96383 -0.481931 6.33997e-20)
(-0.937989 0.278262 1.23884e-19)
(1.76444 0.291849 1.54415e-19)
(-0.30026 0.761709 -3.72549e-19)
(0.81028 -0.736824 0)
(0.570143 0.358664 1.34698e-19)
(1.65218 -0.261446 -5.74549e-19)
(-0.588394 -0.422349 -4.81446e-19)
(1.04653 -0.105677 7.81241e-21)
(1.79397 -0.684381 0)
(-0.0929703 -0.0252025 -3.16127e-19)
(0.71103 -0.0718069 6.33929e-20)
(1.57103 0.886572 0)
(-0.292663 0.726702 -4.12563e-19)
(0.886418 0.761193 -1.974e-19)
(-0.939814 0.30296 5.88623e-19)
(1.02705 -0.023883 0)
(1.07257 -0.10725 -9.8423e-21)
(-0.457692 0.737946 0)
(0.696984 -0.49465 -8.56134e-20)
(-0.884386 0.395351 -3.20729e-19)
(0.783556 -0.715656 0)
(0.435098 -0.271649 3.41797e-19)
(0.541643 -0.455763 2.26888e-19)
(0.408975 -0.370109 0)
(0.976923 -0.778138 -8.77271e-20)
(1.02 0.153703 0)
(-0.109878 0.75484 -2.06283e-19)
(0.807865 -0.696993 1.07031e-19)
(2.36855 -0.249822 3.2283e-19)
(2.21219 0.112347 0)
(-0.0400742 -0.119337 0)
(0.68501 0.63561 -2.37392e-19)
(1.77418 -0.624586 2.39124e-20)
(-0.173702 -0.252108 0)
(0.9778 -0.803646 -9.7798e-21)
(1.12884 -0.0987631 0)
(1.08726 -0.13936 3.02946e-19)
(2.08559 -0.165327 -1.40141e-19)
(-0.588649 0.619992 0)
(1.21667 -0.558033 -3.8287e-20)
(-0.202173 0.397812 -5.45264e-20)
(-0.300051 0.683921 0)
(1.08769 -0.811323 1.20282e-20)
(1.00537 0.00858791 -4.71651e-19)
(0.651031 -0.479396 -8.47197e-21)
(0.817104 -0.518207 0)
(1.19614 -0.732892 -6.30021e-20)
(0.661332 0.243548 2.09144e-19)
(1.24789 0.0925548 0)
(1.52064 0.0949176 -7.65283e-20)
(1.19039 -0.851964 -1.16442e-19)
(-0.0314027 -0.101725 -1.16545e-19)
(-0.118864 -0.522172 -2.4992e-19)
(1.06645 0.00334007 1.74686e-19)
(0.92104 -0.466871 -7.97281e-20)
(1.06942 0.0174782 -7.84932e-23)
(1.07903 0.00629145 -1.96336e-21)
(0.730964 -0.113763 1.31637e-19)
(-0.22642 -0.00702573 -2.87057e-19)
(1.0466 -0.0627656 0)
(1.18722 -0.162616 3.46614e-20)
(1.44985 0.65426 6.31552e-20)
(0.806935 -0.615803 -1.66195e-19)
(0.997574 0.00697971 9.6735e-21)
(0.720408 -0.532168 2.354e-19)
(1.31219 0.803859 6.51053e-20)
(1.88033 0.0214174 2.99564e-20)
(-0.643586 0.51066 0)
(1.05734 0.0545364 -1.80305e-19)
(-1.00709 -0.262024 -3.65859e-19)
(1.07697 0.490996 5.77594e-20)
(0.0647465 -0.0941464 1.73409e-19)
(1.12171 0.0246189 -3.33079e-20)
(-0.147181 0.253917 -2.07362e-19)
(1.30682 0.585303 -4.31397e-20)
(1.14091 0.886689 0)
(-0.692551 0.512675 -1.21929e-19)
(-0.243271 -0.117864 0)
(0.654023 0.565658 -2.13178e-19)
(2.05424 0.202843 -3.13935e-20)
(-0.525237 -0.666911 1.73545e-19)
(-1.02712 0.188665 -8.05142e-19)
(0.732101 0.0750315 1.98575e-19)
(2.14781 -0.268494 -6.18646e-20)
(0.976963 -0.342114 -2.34953e-20)
(-0.00137387 -0.0177011 0)
(-0.650509 -0.0970903 1.39057e-19)
(1.33289 0.97454 2.78558e-20)
(0.841645 0.0680173 -1.07288e-19)
(0.554404 0.521082 1.47109e-19)
(0.442173 0.187299 0)
(-0.0216872 -0.760924 -2.61113e-19)
(-0.104091 0.119562 6.1013e-21)
(1.28671 -0.950149 8.77012e-23)
(0.983812 -0.0304733 -1.4682e-19)
(-0.159726 -0.136876 7.20889e-21)
(-0.265996 0.338203 1.93885e-19)
(-0.33993 -0.102665 -2.07384e-19)
(1.77124 -0.685501 0)
(1.10792 0.0491509 -2.40383e-19)
(2.10888 -0.177676 2.04054e-19)
(1.27388 -0.624886 6.35064e-20)
(0.732034 0.0433519 4.0199e-21)
(0.597087 0.338166 0)
(0.944274 0.74948 -1.14842e-20)
(0.682248 0.627301 1.33756e-19)
(0.897754 -0.568562 1.14373e-19)
(0.686024 0.509264 0)
(1.02089 0.00228525 6.2646e-21)
(0.879821 -0.665618 1.62772e-19)
(0.836934 0.431394 -3.52004e-19)
(1.21217 -0.119327 0)
(-0.248709 -0.23924 -3.10669e-19)
(0.0388193 0.498322 -1.27848e-19)
(1.59544 0.729688 0)
(1.33919 -0.931362 -7.50537e-23)
(-0.698596 0.509505 0)
(-0.526282 0.722243 1.5084e-19)
(0.734976 0.653363 -7.33741e-20)
(0.841746 -0.207491 0)
(-0.232494 -0.132993 0)
(1.59989 -0.45616 0)
(-0.397854 -0.349453 3.74331e-19)
(1.20348 -0.878013 7.6577e-20)
(1.17611 -0.612399 4.25195e-20)
(1.04399 -0.177835 -1.21185e-19)
(0.874767 -0.693766 -1.27586e-19)
(0.186632 -0.190654 0)
(-1.24201 -0.0160891 0)
(1.00225 -0.517229 1.3094e-19)
(-0.0943615 -0.209715 0)
(-0.374648 0.709694 0)
(-0.5735 -0.388528 4.09733e-19)
(0.791449 0.67106 6.36636e-20)
(1.01421 0.792997 0)
(0.696825 0.559479 -6.53862e-20)
(0.830394 -0.0391557 -1.78047e-19)
(0.74536 0.567892 -1.73983e-19)
(0.589964 0.550157 -1.2667e-19)
(-0.203132 -0.563683 2.76197e-21)
(0.715594 -0.643057 0)
(0.89603 0.171982 -2.50599e-19)
(-0.337864 -0.725329 6.73211e-20)
(0.601327 0.558022 2.79675e-19)
(0.957007 0.795821 0)
(-0.687688 -0.15646 3.75872e-19)
(-0.0625031 -0.41092 3.5102e-19)
(-0.0115864 -0.34663 -1.77014e-19)
(0.664333 0.574215 -1.13688e-20)
(0.979052 -0.0125857 4.56938e-20)
(-0.474448 -0.734429 0)
(2.28005 0.0904652 -3.31427e-19)
(1.36389 -0.489189 -6.66014e-20)
(0.650066 -0.602917 -5.7997e-20)
(-0.597972 0.222488 2.07014e-20)
(1.19284 0.458025 1.22118e-19)
(0.88263 0.42031 0)
(1.06109 -0.182002 1.46423e-19)
(0.142779 -0.567878 -1.00456e-20)
(-0.0548825 0.138319 4.80999e-19)
(0.927564 0.0156116 -4.0294e-20)
(1.13872 0.121914 0)
(1.89901 -0.0259334 -3.18535e-19)
(1.92515 0.0481737 0)
(0.550679 0.262921 -3.696e-19)
(-0.276661 0.396575 0)
(-0.238492 -0.516432 2.84603e-19)
(0.734904 0.105288 0)
(0.620393 -0.513909 -1.45597e-19)
(1.11307 0.020491 1.59914e-19)
(-0.586867 0.633115 5.6926e-20)
(1.89324 -0.099595 -1.04111e-20)
(2.09441 -0.257488 -1.472e-19)
(1.11447 0.236015 -1.61672e-19)
(-0.370543 -0.781194 -1.35609e-19)
(1.06761 -0.846269 0)
(0.804356 0.0153582 -1.16377e-19)
(0.93129 -0.37167 -2.26182e-19)
(1.71141 -0.566908 -1.00178e-20)
(1.71763 0.0372934 2.94287e-19)
(1.05934 -0.00153293 2.89571e-19)
(0.166406 -0.597879 -1.78934e-19)
(0.990865 -0.435799 -9.56408e-20)
(0.196691 -0.189433 2.0639e-19)
(1.0059 -0.00149586 0)
(1.00744 -0.00599518 0)
(1.24943 -0.690686 6.45651e-21)
(-0.0190981 0.744865 -1.3936e-19)
(0.181959 -0.119032 -1.52837e-19)
(1.42843 -0.177115 2.22045e-20)
(1.40128 -0.665327 0)
(2.16866 -0.295174 -1.35292e-19)
(0.935992 -0.814426 -4.68312e-20)
(1.78727 -0.551429 -9.3842e-20)
(1.10745 0.835977 0)
(0.472146 -0.45412 0)
(0.606709 0.524237 -1.37719e-19)
(1.09301 0.280692 -2.94038e-19)
(2.22153 -0.245417 4.78174e-22)
(0.860724 0.152475 1.08079e-19)
(0.161705 -0.674089 -5.75705e-19)
(0.945932 0.0908969 -7.69104e-21)
(-0.248942 -0.594024 0)
(-0.0436385 -0.123208 0)
(-0.632314 -0.604285 0)
(1.33528 -0.723619 -4.16908e-20)
(-0.316741 0.698487 -2.89903e-19)
(-0.114618 0.267515 0)
(1.29246 0.976075 -5.02189e-21)
(1.11242 0.161524 -3.1007e-19)
(1.34747 0.392007 -2.98036e-20)
(1.08139 0.922046 3.47218e-20)
(-0.24786 0.788561 1.92065e-19)
(0.717621 0.0646133 0)
(-0.640119 -0.50568 -3.6696e-19)
(-0.377464 0.788126 3.58291e-19)
(0.781218 0.0295213 1.45884e-19)
(1.53967 0.948986 6.1164e-20)
(1.12451 -0.0431932 -5.83245e-21)
(-0.138704 0.524276 -2.80404e-21)
(0.740994 -0.677311 -2.7132e-20)
(1.2066 0.0102328 0)
(1.7221 0.0195103 0)
(1.06188 0.0418873 0)
(-0.209011 0.273923 -4.34245e-20)
(-0.550417 -0.632057 1.3983e-19)
(1.04723 0.842109 0)
(0.998145 0.00245377 3.94679e-19)
(0.767002 0.608766 -1.72995e-19)
(-0.785674 0.0446656 -8.58371e-20)
(0.858768 0.0160169 -3.23767e-20)
(0.711461 -0.65055 -1.65244e-19)
(1.39529 0.711553 -1.05282e-20)
(0.562718 -0.449263 -2.3677e-19)
(1.09503 -0.00052035 -3.52051e-19)
(0.832751 0.04122 3.4191e-20)
(1.53967 -0.185164 3.29902e-20)
(0.75082 -0.0426967 -4.19374e-20)
(-0.027233 -0.0486574 -2.08034e-22)
(1.08148 0.468958 -1.93765e-19)
(1.3358 0.619273 1.07778e-19)
(-0.123053 -0.360051 0)
(0.107607 -0.635106 2.16178e-19)
(-0.347449 -0.315088 1.30315e-19)
(-0.218359 -0.0611574 -1.46622e-19)
(0.483314 0.326302 0)
(1.26864 -0.568052 0)
(0.0207665 -0.00878827 -1.75412e-19)
(-0.257684 -0.784901 -7.94465e-20)
(1.04937 -0.022172 1.39202e-19)
(-0.582754 0.523853 -5.57595e-20)
(1.69777 -0.70705 -4.59698e-19)
(0.0184115 0.761961 0)
(0.827765 -0.735064 -2.18164e-19)
(0.677082 0.0492942 7.46772e-20)
(-0.568883 -0.376775 2.23829e-19)
(0.724179 0.162226 2.6192e-19)
(0.630536 0.143222 8.56498e-20)
(0.500935 -0.474564 1.61069e-19)
(-0.195457 -0.328247 -1.51229e-19)
(1.13729 0.00164749 0)
(0.399512 0.355761 -1.56034e-19)
(1.02518 -0.00809586 -2.22012e-19)
(-1.12695 0.156922 3.12888e-19)
(1.42302 0.482712 -5.40354e-20)
(-0.118178 -0.287632 -5.70441e-20)
(0.680811 -0.621313 -1.17585e-20)
(0.81562 0.184661 -1.61194e-19)
(0.974516 0.428025 1.69056e-20)
(1.11366 -0.163667 2.5919e-20)
(0.607662 -0.227384 -2.43507e-19)
(1.98831 -0.356685 -1.97432e-19)
(0.675972 -0.148297 0)
(1.06766 0.273497 -3.11618e-20)
(1.44806 0.237382 -1.91497e-20)
(1.13782 -0.331989 1.68113e-19)
(0.954313 0.355416 -2.36401e-19)
(1.03448 0.0610694 1.77661e-21)
(0.423659 0.395779 -2.00072e-19)
(-0.148607 0.308564 3.72462e-19)
(1.97322 -0.172711 0)
(0.945119 -0.00099265 0)
(0.866138 -0.766683 3.979e-20)
(-0.0502206 -0.515009 -3.83984e-19)
(-1.16605 -0.0702695 -3.84709e-19)
(-0.0435991 -0.0843795 -2.46741e-19)
(-0.475063 0.684638 -2.42515e-19)
(-0.392779 -0.493142 0)
(-0.0279355 -0.0818594 4.4214e-20)
(0.325967 0.592926 -1.25907e-19)
(-0.299023 0.385716 -4.43694e-19)
(0.795649 -0.106628 0)
(1.27926 -0.371641 2.28905e-20)
(-0.322517 -0.362063 0)
(1.01501 0.0205955 2.82525e-19)
(-0.0379825 -0.623706 2.72132e-20)
(0.53889 -0.421002 3.17332e-19)
(-1.0437 -0.29851 6.06419e-19)
(-1.42837 0.129021 0)
(0.347511 0.685127 1.58063e-19)
(1.01709 0.0173408 -8.50097e-21)
(-0.227552 -0.0911722 0)
(1.00129 -0.0108065 -4.4113e-20)
(0.855588 -0.724707 -2.13459e-19)
(1.28506 -0.696492 0)
(0.934492 -0.258461 1.60496e-19)
(0.208282 0.650791 3.44646e-19)
(0.0064663 0.00881324 0)
(-0.0988656 -0.687499 -7.8201e-21)
(0.723484 -0.633177 -3.30704e-19)
(0.974513 -0.0318897 -2.02747e-19)
(-0.0506961 -0.628022 4.73396e-19)
(-0.161336 -0.443086 1.74454e-19)
(-0.329031 -0.573187 0)
(0.957863 0.479029 0)
(-0.45082 -0.596907 2.89588e-19)
(2.13105 0.231799 -2.41817e-19)
(1.07593 0.895564 1.0503e-20)
(1.06611 0.220174 -9.30811e-20)
(1.12511 0.00935786 -1.6808e-19)
(1.0697 -0.0580006 -5.76514e-20)
(-0.00367319 -0.681404 -4.38424e-19)
(1.82394 -0.0271325 4.6301e-19)
(0.730461 0.027201 1.50344e-19)
(1.82135 -0.027923 1.36354e-19)
(1.03207 -0.187928 0)
(0.111012 0.430604 3.34344e-19)
(1.10285 0.0296782 -3.83135e-19)
(1.74969 0.6257 -3.72626e-20)
(0.739849 -0.453962 -1.28089e-19)
(-0.0700578 -0.0155122 2.3648e-19)
(0.792687 -0.696888 2.82629e-19)
(1.23712 0.202048 5.07757e-20)
(1.00374 -0.00547315 1.9551e-19)
(0.212609 -0.721446 -2.00178e-19)
(1.04411 0.0129304 0)
(1.3099 0.130447 -1.3482e-19)
(-0.00161361 0.00596451 0)
(1.02516 0.00877678 -1.15055e-19)
(-1.14766 -0.378396 -3.9686e-19)
(1.70196 0.322361 -6.05899e-21)
(-0.515235 -0.299295 1.727e-19)
(1.62389 0.0453003 -4.19346e-20)
(1.01101 -0.0202185 4.03399e-20)
(1.31905 -0.0966057 0)
(1.44018 -0.609204 -7.0938e-20)
(1.03564 0.0301135 -1.18691e-19)
(1.45033 0.793021 9.11949e-21)
(1.38499 -0.0419889 0)
(1.04068 -0.0419093 4.55828e-22)
(0.0264166 -0.010362 0)
(1.38624 0.0321142 0)
(-0.519024 -0.694242 0)
(1.23705 0.439346 0)
(1.90268 0.281414 7.3944e-20)
(0.740688 0.618702 3.02846e-19)
(0.291483 -0.293289 -1.90674e-19)
(-0.213258 -0.692831 -4.22268e-19)
(0.00105064 -0.0177349 0)
(1.30854 -0.385796 5.27578e-20)
(1.35318 0.519271 0)
(1.46509 0.290289 0)
(-0.696669 -0.465227 1.63806e-19)
(0.807353 0.712079 8.9367e-20)
(1.70442 -0.0305998 0)
(-0.406024 -0.585604 9.69087e-20)
(0.904269 0.219377 1.47073e-19)
(1.21832 -0.240838 -3.17386e-20)
(1.2454 0.927996 2.12135e-20)
(0.912803 -0.821264 -1.67381e-20)
(0.40331 -0.0638684 -3.6082e-20)
(0.793674 0.716 9.004e-20)
(1.18179 0.926748 0)
(1.71143 -0.427059 9.45113e-20)
(1.45171 0.908507 0)
(1.19042 -0.202137 9.13003e-21)
(0.975706 0.0998863 2.43561e-19)
(1.01035 -0.00329148 0)
(0.197732 0.497112 2.14931e-19)
(0.87935 -0.159176 3.74679e-20)
(0.628768 -0.405488 0)
(0.668243 -0.377924 1.70491e-19)
(1.24406 0.55737 -2.18158e-20)
(0.475953 0.450564 2.14476e-19)
(-0.345757 0.482056 5.25254e-20)
(0.132339 0.0326631 1.27658e-19)
(0.795155 0.0583721 0)
(1.31425 -0.893767 -2.0573e-20)
(1.04983 -0.0457976 3.08852e-19)
(1.51022 0.322178 1.87295e-19)
(-0.448676 -0.631192 8.41276e-20)
(-1.09154 -0.309104 0)
(1.18939 -0.234398 -8.20436e-20)
(0.00894148 0.00656153 -2.03392e-19)
(0.361995 0.41578 -5.61522e-20)
(-0.132559 0.0327294 -5.2111e-22)
(-0.210661 0.0910847 3.87367e-19)
(1.08505 0.0333271 -6.44806e-22)
(2.35248 -0.00244168 4.43849e-19)
(1.20025 0.460426 -1.96928e-19)
(0.973518 -0.0247947 0)
(1.83593 -0.0198643 3.04988e-19)
(1.81211 0.157926 1.31286e-19)
(0.904878 -0.762077 1.0218e-19)
(1.14595 -0.965049 -6.64116e-21)
(0.479232 0.445957 1.42276e-19)
(1.7374 0.745143 0)
(1.7698 0.580577 6.90161e-20)
(0.00699202 -0.00158076 -4.145e-19)
(0.884591 0.770236 0)
(1.06846 -0.0990285 0)
(0.292634 -0.292343 -3.74692e-21)
(0.332439 0.315138 0)
(-1.35457 -0.159571 -5.50385e-19)
(-0.432089 0.655731 -1.58351e-19)
(1.73458 -0.414501 0)
(1.30684 0.0369146 4.76055e-20)
(-0.727952 0.0748149 3.24973e-19)
(0.532019 -0.505803 -3.62352e-19)
(1.89133 -0.0756691 -5.22801e-20)
(0.609025 -0.553477 0)
(1.05043 0.112779 0)
(1.36694 -0.223276 0)
(1.1133 0.23918 -1.70351e-19)
(1.30569 0.106207 2.37897e-19)
(-1.17519 0.216982 0)
(0.857642 -0.0563613 0)
(1.69925 -0.105072 1.88737e-20)
(-0.106029 0.270375 1.33105e-19)
(2.23406 -0.299534 -2.71166e-19)
(1.05599 -0.505872 2.13943e-19)
(1.70023 -0.102972 -2.71918e-19)
(-1.23772 0.0893723 -2.63713e-19)
(1.93537 0.0483608 -2.58705e-19)
(1.00274 -0.026394 3.18794e-19)
(1.52916 0.606693 0)
(-0.440596 0.723819 4.20697e-20)
(0.995265 -0.82318 1.18664e-19)
(0.852936 -0.0104317 3.78441e-20)
(0.63286 -0.428904 0)
(1.89176 -0.536578 1.06992e-20)
(1.20749 -0.178768 1.05302e-19)
(1.20034 -0.288076 0)
(0.602949 -0.560409 3.23417e-19)
(0.551268 -0.0488758 -4.11594e-20)
(2.2069 -0.394991 5.37909e-19)
(-0.156906 0.427322 -2.76331e-19)
(1.34148 0.622139 8.27717e-20)
(1.14932 0.403366 2.60665e-21)
(0.901447 0.380498 1.72212e-19)
(2.00441 0.313557 -2.40192e-19)
(-0.01976 -0.733793 -8.07302e-21)
(1.06084 -0.199533 0)
(-0.154874 -0.1004 3.91227e-19)
(1.08088 -0.939677 0)
(1.05948 -0.655978 1.56672e-20)
(1.53773 0.158282 -7.76999e-19)
(1.08294 -0.012175 -1.39424e-21)
(-0.823117 -0.278225 -5.19417e-19)
(0.99063 0.489199 1.29104e-19)
(0.285322 0.450353 4.82644e-20)
(0.727098 -0.0358238 0)
(1.08148 -0.215634 0)
(0.964937 0.175902 1.2996e-20)
(0.747343 -0.0176371 0)
(1.35334 -0.191342 -1.08356e-19)
(-1.85294 -0.0644732 7.21195e-19)
(1.92451 0.494173 7.73258e-20)
(1.05653 -0.0221887 0)
(0.550708 -0.34474 8.37428e-20)
(1.02685 0.0284997 1.51974e-19)
(1.11289 0.973451 -9.15817e-20)
(-0.45992 0.630317 0)
(1.10514 -0.481936 3.5712e-19)
(1.00131 -0.13224 -2.14549e-22)
(1.0902 -0.497043 -1.55723e-19)
(2.35883 0.162723 2.55088e-19)
(1.29808 0.795302 0)
(0.877053 0.0259289 0)
(-0.54101 -0.636164 -2.14086e-19)
(0.0165232 -0.00627826 1.97335e-19)
(0.945529 0.370884 -1.56756e-19)
(0.399502 -0.599743 -1.79457e-19)
(0.649987 0.419823 1.91416e-19)
(0.9841 -0.0367075 0)
(0.534423 -0.497483 0)
(1.14983 0.0131444 1.38076e-21)
(1.22251 -0.508096 -6.91291e-20)
(0.633311 0.0201171 1.42806e-20)
(0.729903 -0.149047 9.49972e-20)
(-0.0555426 0.140839 -3.52647e-19)
(1.57767 -0.0296533 3.66522e-19)
(0.660118 0.615589 0)
(1.28273 0.699563 0)
(1.58467 0.242187 0)
(-0.505449 -0.492232 -2.16841e-19)
(1.27198 0.567795 2.72095e-19)
(1.92181 0.138047 5.10087e-20)
(0.990366 -0.00306991 0)
(1.0666 0.00502437 0)
(2.02345 -0.0914143 -3.64861e-19)
(1.09101 0.726556 1.01739e-19)
(0.999546 0.00677253 -1.51868e-19)
(1.48996 0.473363 0)
(-0.33284 0.629293 0)
(1.24266 0.31586 1.99438e-19)
(1.0287 0.532378 -9.36184e-20)
(1.05676 0.0271898 0)
(2.01342 0.520432 0)
(2.00639 0.676642 -4.11568e-19)
(-0.103267 0.671005 -6.19071e-21)
(1.00013 0.00716453 0)
(0.70981 0.483726 -2.58553e-20)
(0.926498 -0.816851 0)
(1.01151 0.0193221 3.52186e-20)
(1.14901 -0.0856796 3.66606e-20)
(0.901522 -0.311423 2.37236e-19)
(1.14708 0.0164618 -2.74222e-20)
(2.1531 -0.101178 4.07586e-19)
(0.927815 0.132208 5.21027e-20)
(0.74876 -0.0350099 0)
(1.00486 0.0146688 0)
(-0.853453 -0.453896 0)
(0.665046 0.636176 -1.34441e-19)
(-0.0267501 0.0759257 2.3782e-19)
(1.16739 0.348192 -3.22249e-19)
(-0.744208 0.48259 0)
(0.829763 0.647009 1.25775e-19)
(0.998854 -0.325708 0)
(1.00304 0.00696071 8.90753e-20)
(0.806192 0.629363 6.08862e-20)
(1.03563 0.405609 1.86194e-19)
(1.71173 -0.0319291 0)
(2.15433 0.148313 -1.09082e-19)
(0.818525 -0.10575 -2.86818e-19)
(-1.25449 -0.165462 -7.19843e-19)
(1.28409 0.720984 0)
(0.872627 0.242605 1.36262e-19)
(2.1168 -0.0891994 0)
(0.776522 0.530438 2.77434e-19)
(-1.75241 -0.109104 2.82496e-19)
(-0.06011 0.152726 0)
(0.590395 0.56241 -5.30825e-20)
(1.02259 -0.644264 -1.10194e-19)
(0.477542 -0.23919 -1.00654e-19)
(1.01369 -0.015281 0)
(-0.463572 0.283033 -3.44625e-19)
(0.635484 -0.567119 6.42124e-20)
(0.900441 0.292198 0)
(1.43192 -0.561829 3.93494e-20)
(0.984745 0.836868 1.60506e-20)
(1.16969 -0.0329251 -2.81674e-20)
(0.175274 -0.206562 -2.70634e-19)
(0.228665 -0.0190646 -4.5692e-19)
(-0.0657879 -0.187222 1.06542e-20)
(0.816872 0.368018 1.90276e-19)
(-0.34202 0.724286 -7.20804e-21)
(1.40921 -0.649875 3.33909e-21)
(1.01 0.00276378 -2.6323e-19)
(-0.633561 -0.420678 0)
(1.03705 0.02765 -3.08489e-19)
(2.12782 0.455363 1.99702e-19)
(0.888676 0.692111 2.05239e-19)
(1.08743 -0.0782431 1.21507e-19)
(0.996857 -0.0200381 1.21865e-19)
(1.08334 -0.0252452 1.29841e-21)
(-0.413052 -0.496566 -1.87737e-22)
(1.71549 -0.862644 1.48996e-20)
(1.12172 -0.115895 -5.36259e-20)
(0.867233 0.0608808 6.09781e-20)
(0.907898 -0.280566 7.0371e-20)
(0.301799 0.0533352 0)
(0.964091 0.73567 0)
(0.780033 0.435304 -7.25851e-20)
(2.03939 0.199832 -4.55323e-20)
(-1.35062 -0.199821 2.64954e-19)
(1.02613 -0.543522 -3.83866e-19)
(0.614578 -0.531863 3.11215e-19)
(1.45659 0.204928 -2.08266e-19)
(0.36282 -0.59605 2.04541e-20)
(1.12384 0.0230271 0)
(0.757783 0.114994 -5.37475e-21)
(1.12266 -0.0990168 -1.81296e-20)
(1.04349 0.762368 0)
(1.16339 -0.130726 0)
(0.685092 -0.216286 0)
(-0.169461 -0.344146 -6.89793e-20)
(-0.163571 0.152598 0)
(1.45221 0.804202 1.239e-19)
(1.21383 0.185237 4.55574e-21)
(-0.724849 0.360297 1.41226e-19)
(1.15092 0.0784645 1.26976e-20)
(1.83194 0.471288 -1.26437e-19)
(2.09494 -0.308095 -4.22074e-20)
(-0.178369 -0.00526792 -2.75657e-19)
(-0.147158 -0.67866 5.82668e-21)
(0.668087 0.0922195 0)
(0.694222 -0.0358362 0)
(0.998904 -0.0015923 3.33063e-22)
(-0.563299 -0.469643 0)
(1.51377 0.0263764 -1.34358e-19)
(0.688064 -0.0336056 0)
(1.04654 0.00130532 9.71961e-20)
(1.002 0.0147615 -3.45258e-20)
(1.59324 -0.234561 2.2301e-19)
(1.06147 -0.0137795 -7.03921e-22)
(0.95151 -0.180423 -4.23305e-20)
(1.0312 -0.0250489 2.82802e-19)
(0.668415 -0.607936 1.43893e-19)
(0.0117415 -0.456476 -9.58723e-20)
(0.937868 -0.0605272 1.65034e-20)
(0.01512 0.00656616 0)
(1.13147 0.795952 0)
(1.02632 0.00556838 0)
(0.994585 -0.770481 -7.39337e-20)
(1.02837 -0.881427 7.15074e-21)
(0.920065 -0.114526 -5.78587e-21)
(0.107545 0.777161 -6.51066e-19)
(1.13601 0.0327764 3.23632e-21)
(0.583212 -0.377578 -5.11861e-19)
(0.966299 0.0824767 -5.30503e-20)
(1.13948 -0.000183368 -1.67495e-20)
(2.04879 -0.317191 1.3577e-19)
(0.623391 -0.0795184 -3.1784e-20)
(-0.336538 -0.579742 -1.45027e-19)
(1.12095 0.555042 1.35899e-19)
(-0.138067 -0.328952 0)
(0.332574 -0.606366 5.05905e-19)
(-0.044067 -0.0671752 6.08565e-23)
(1.04036 -0.0349693 2.54013e-19)
(1.0168 -0.00109356 -6.53566e-21)
(1.09234 -0.0131368 -7.02958e-20)
(1.07485 -0.0314754 2.09422e-21)
(1.62566 0.304304 1.67934e-20)
(0.397717 -0.372512 -2.53026e-19)
(0.985151 -0.0807375 8.64183e-21)
(1.03448 0.000249673 -1.86523e-19)
(0.883909 -0.103274 -1.69827e-20)
(1.06952 -0.0364227 0)
(1.11775 0.593679 -2.52923e-19)
(1.00516 -0.00059894 7.29275e-20)
(0.675775 0.60729 1.98034e-19)
(1.1088 0.064912 -1.00205e-22)
(1.05877 -0.00803834 -2.28699e-20)
(1.10962 0.0190536 6.50232e-22)
(2.30887 -0.19411 2.22569e-20)
(0.346541 -0.0156902 0)
(1.05269 -0.037469 0)
(1.06933 -0.0335618 4.46985e-19)
(0.999679 -0.00878828 0)
(-0.00987427 -0.037585 0)
(0.945261 -0.571567 0)
(1.00024 0.000457428 -4.23354e-19)
(1.15174 -0.684837 5.56591e-20)
(1.02032 -0.00560092 8.83422e-21)
(1.34918 0.958148 -1.11841e-21)
(1.53427 1.00832 -1.58582e-19)
(1.12532 0.0327901 -5.4481e-21)
(1.63162 0.59209 1.82096e-19)
(0.664977 0.148236 0)
(0.106503 0.688672 0)
(2.14204 0.0382629 5.47448e-19)
(1.15669 -0.332794 0)
(0.999826 -0.00452758 -1.31118e-19)
(1.00552 0.00112105 2.54767e-19)
(1.39814 0.142912 -4.76145e-20)
(0.00701419 -0.125868 3.0143e-19)
(0.979913 0.00617428 1.37588e-19)
(0.75262 -0.037513 6.02205e-21)
(0.763596 0.041443 -3.29109e-21)
(1.0757 -0.0272395 1.65574e-23)
(0.90397 0.015968 -1.38439e-19)
(1.00278 0.00127345 1.64567e-19)
(0.999136 0.00130152 9.71386e-21)
(0.784483 -0.00723174 0)
(0.72912 -0.0192915 0)
(0.728164 -0.0267811 7.79309e-22)
(0.714339 -0.0306556 0)
(0.333311 -0.0104604 0)
(0.516546 0.0182825 0)
(0.625613 0.0068128 6.87868e-22)
(0.789673 0.0144156 -5.73588e-22)
(1.06077 0.0117647 0)
(1.07482 0.00129292 1.14286e-21)
(1.06759 -0.0118729 0)
(0.653309 -0.00905217 0)
(0.549188 -0.0103394 0)
(0.47042 -0.0174864 4.7486e-21)
(0.242585 0.000676412 7.10016e-20)
(0.812391 0.0218024 0)
(0.810064 0.024505 0)
(0.950242 0.0168844 -1.70951e-19)
(0.837271 0.0100044 3.21265e-19)
(1.00544 -0.00154702 0)
(0.999305 -0.00285627 3.03472e-19)
(0.99976 -0.000694586 -3.51774e-22)
(0.813969 0.032824 2.71121e-19)
(0.997734 -0.010028 -1.58204e-19)
(0.79541 -0.016188 0)
(0.572683 0.00880745 3.29406e-21)
(1.0044 0.000354207 -1.53585e-19)
(1.00189 0.00466755 -2.63226e-19)
(1.06973 -0.0148539 0)
(0.995504 0.00110765 0)
(0.99824 -0.00100647 0)
(1.08536 0.0720194 2.73639e-21)
(1.13712 0.000535552 4.96881e-21)
(0.941236 -0.101925 0)
(-0.541093 0.539324 2.61885e-19)
(-0.277396 0.464658 -2.06366e-19)
(1.02455 -0.0132365 -2.03598e-19)
(-0.379518 -0.764657 -1.44862e-19)
(1.01893 0.00922493 -1.64062e-19)
(1.17811 -0.200809 -6.52057e-20)
(0.797134 -0.47166 2.37741e-19)
(-0.0254256 -0.0547776 -1.00052e-19)
(1.0226 0.0169719 0)
(1.0634 0.00200599 -4.37499e-20)
(0.861369 0.0222186 0)
(-0.0207856 0.0650813 3.48114e-19)
(1.13911 -0.252094 0)
(-0.615294 -0.540164 -3.70451e-19)
(0.69658 -0.0626218 -1.04712e-20)
(1.67051 0.687844 1.0958e-19)
(-0.0400119 -0.0616387 0)
(1.07264 -0.0279631 1.37624e-19)
(1.12153 0.0227485 6.25977e-22)
(0.922629 -0.00499925 2.19581e-19)
(1.01564 -0.0116093 -1.38893e-19)
(1.68576 0.867464 9.39227e-20)
(0.52443 0.494767 0)
(0.452603 0.412326 1.62554e-19)
(1.03573 0.0702435 -1.70688e-21)
(1.14254 0.131339 1.41524e-19)
(1.08045 -0.712669 0)
(1.0161 -0.00176508 0)
(1.00189 -0.0201718 -3.19591e-19)
(1.0103 0.0158955 -3.11771e-19)
(-0.103017 -0.33188 0)
(1.22928 0.823803 -6.64596e-20)
(1.08843 0.0540172 1.0668e-22)
(1.02224 0.00384587 1.19857e-19)
(1.00725 0.0197141 -1.50636e-19)
(-0.757615 -0.425584 -3.65166e-20)
(1.10903 0.00927624 -1.04798e-20)
(1.02418 -0.0133734 5.11778e-19)
(1.0648 0.0552824 0)
(1.875 0.659042 -1.09461e-19)
(1.01568 -0.00882517 -1.59272e-19)
(1.85208 0.164631 -1.23994e-19)
(1.05616 0.0108288 -3.65767e-22)
(1.00884 0.00547065 3.19548e-20)
(2.09175 -0.217083 -3.36872e-19)
(1.01832 0.0142898 1.54704e-19)
(1.1403 -0.0404492 2.06708e-21)
(1.02455 0.00103367 0)
(0.935195 0.150503 3.81894e-20)
(-0.909124 0.383328 6.09021e-21)
(0.988421 0.0224005 1.53876e-19)
(1.0282 0.0260401 -6.26028e-22)
(1.09889 0.0361461 -9.90955e-22)
(1.25687 0.315242 2.71255e-19)
(1.0009 0.017003 1.05612e-19)
(1.0211 -0.0126776 8.18094e-23)
(1.74986 0.238976 4.00821e-21)
(1.78948 0.949216 -1.33453e-19)
(0.767343 -0.689482 4.20051e-20)
(0.446896 -0.315579 -2.49895e-19)
(1.01215 -0.0109272 0)
(1.02515 0.00107235 3.8586e-20)
(1.01312 -0.0100267 8.07187e-20)
(1.11949 -0.0214772 1.09261e-21)
(1.01881 0.0115042 -1.61169e-19)
(1.03712 -0.0270063 1.83514e-19)
(1.00389 -0.00630154 -1.51273e-19)
(1.00635 0.0082632 -5.10308e-22)
(1.01838 0.00809052 -1.73096e-22)
(1.02392 0.00949218 1.54036e-19)
(0.903588 0.0874582 3.97634e-19)
(1.52956 0.598675 0)
(0.847444 0.205629 3.10696e-19)
(1.00656 -0.00156423 0)
(1.01943 -0.0203958 -4.46622e-20)
(1.54326 0.446699 -2.19027e-20)
(1.62679 0.0854933 0)
(1.44025 -0.40087 -5.51063e-20)
(1.34998 0.789664 -1.77293e-20)
(0.825632 -0.0181459 0)
(2.10993 0.0242697 0)
(0.949417 0.787043 -3.04235e-20)
(1.07907 -0.00772391 -1.39298e-21)
(1.01113 -0.000238319 -1.62141e-19)
(1.11189 -0.568094 -4.36773e-20)
(1.0937 0.0197785 -2.29698e-21)
(1.19101 -0.000390334 0)
(1.109 0.0718462 0)
(1.31713 0.445068 0)
(0.299509 0.551898 1.38862e-19)
(1.13113 -0.0380811 7.9189e-21)
(0.301526 0.311101 0)
(0.0258183 0.589081 -4.36601e-19)
(1.70894 0.973117 -1.37994e-19)
(1.01307 -0.00697595 -3.17225e-19)
(1.10401 -0.0175806 2.10095e-21)
(1.02476 0.0209329 2.09929e-19)
(0.743395 -0.0422264 0)
(-0.0805561 -0.268653 -3.07303e-20)
(0.618191 0.445488 -2.69063e-19)
(1.44301 0.552954 2.78463e-20)
(0.255034 0.615882 0)
(0.839097 0.0338999 5.65289e-20)
(0.521019 0.499888 3.98287e-20)
(1.19196 0.88649 -1.6529e-20)
(-0.0178865 0.00287338 1.50293e-19)
(1.01884 0.0236538 0)
(1.15629 -0.0439901 6.25054e-21)
(1.00445 0.00238079 1.19038e-19)
(2.37686 -0.0616335 0)
(1.02138 0.00762507 1.9974e-19)
(0.436822 -0.603836 -2.37147e-19)
(1.01539 0.0119819 -1.23391e-19)
(1.11073 -0.0821922 0)
(1.4468 -0.487051 2.32071e-22)
(1.00152 0.00251657 -8.31716e-20)
(0.987409 -0.0289232 2.19669e-19)
(1.09171 0.109087 -2.84068e-21)
(1.15709 -0.0469736 -1.14567e-20)
(-0.170747 -0.0528695 3.94147e-19)
(2.06513 0.303871 2.70504e-19)
(1.18195 0.0079356 1.35343e-20)
(0.819118 0.0125829 -3.00323e-19)
(0.830082 0.0334279 0)
(1.16701 -0.0103808 9.22541e-21)
(1.01527 -0.0183495 -2.39675e-20)
(0.969469 0.0267577 0)
(1.04904 0.00613928 -1.5175e-19)
(1.14045 -0.00340995 -2.77931e-20)
(-1.63338 -0.0669391 3.27976e-19)
(2.13307 -0.578648 0)
(-0.895509 -0.283265 -6.56466e-19)
(1.50594 -0.346802 0)
(1.04127 -0.0155582 4.46872e-20)
(1.04546 -0.0343376 -1.60345e-23)
(1.00406 -0.000100679 1.28892e-19)
(-1.09991 -0.108338 5.77768e-19)
(1.01987 0.00557848 0)
(0.983281 0.00316747 -3.12362e-19)
(1.01553 0.00928083 1.63786e-19)
(1.04028 0.011257 0)
(1.0269 -0.00376982 4.76877e-22)
(0.968324 -0.00134516 -1.40998e-19)
(-0.243996 -0.781232 4.75e-19)