/*--------------------------------*- C++ -*----------------------------------*\
| =========                 |                                                 |
| \\      /  F ield         | OpenFOAM: The Open Source CFD Toolbox           |
|  \\    /   O peration     | Version:  2306                                  |
|   \\  /    A nd           | Website:  www.openfoam.com                      |
|    \\/     M anipulation  |                                                 |
\*---------------------------------------------------------------------------*/
FoamFile
{
    version     2.0;
    format      ascii;
    arch        "LSB;label=32;scalar=64";
    class       surfaceScalarField;
    location    "22.5";
    object      phi;
}
// * * * * * * * * * * * * * * * * * * * * * * * * * * * * * * * * * * * * * //

dimensions      [0 3 -1 0 0 0 0];

oriented        oriented;

internalField   nonuniform List<scalar> 
3181
(
-1.022
0.395367
0.626635
-0.377599
0.355869
0.0217301
0.508412
-0.349094
-0.159318
0.115632
-0.192568
0.0769366
-0.0590958
0.0695768
-0.010481
0.531119
1.20995
-1.74107
0.143314
-0.137216
-0.00609803
0.0328344
0.00187969
-0.0347141
0.550751
-0.707149
0.156399
-0.0757892
0.130561
-0.054772
-0.0106008
-0.053621
0.0642218
0.113618
0.0489897
-0.162608
-0.0098612
-0.0231974
0.0330586
-1.09682
0.152841
0.943976
-0.318719
0.677296
-0.358577
-1.12356
0.641412
0.482146
0.0838644
-0.931105
0.847241
-0.141128
0.0258292
0.115299
-1.40648
-0.1701
0.0041784
0.0548725
-0.0590509
0.0479713
-0.0927975
0.0448262
-0.0563314
0.0533091
0.00302224
1.06273
-1.03972
-0.023013
0.0185795
0.0329531
-0.0515326
-0.956241
0.329444
0.626797
-0.106145
0.221776
0.303291
-0.253236
-0.050055
0.0284724
0.0597631
-0.0882356
-0.422831
0.348586
0.0742451
-0.0340829
-0.0212509
0.0226999
-0.00144905
-0.0397779
-0.916463
0.0460769
-0.045957
-0.000119869
0.274379
1.50377
-1.77814
-0.0478181
0.042652
0.00516615
0.18609
0.282032
-0.468121
1.89573
-1.62135
0.0757223
-0.027751
1.57684
-0.855552
-0.721284
-0.72633
1.25745
-0.0652159
0.0553547
-0.0480414
-0.00828993
-0.395825
0.0771057
-0.141569
0.0935273
-0.644728
0.126398
0.51833
-0.14142
0.0656306
-0.162635
0.166643
-0.00400811
-0.263295
-0.0747946
0.338089
0.335561
1.08875
-1.42431
0.0448377
0.0702504
-0.115088
-0.0170725
-0.104427
0.110849
-0.00642202
0.502706
0.17459
-0.0949398
0.149708
-0.0547681
0.0866962
-0.0406193
-0.165167
0.190328
-0.0251612
0.158312
0.0538815
-0.212194
0.104511
-0.110221
0.00570969
1.20823
0.368607
-0.841821
-0.180181
-0.0610442
-1.65939
1.72043
0.562716
0.239219
-0.801935
-0.455936
-0.212488
0.668424
-1.11459
0.388264
-0.279958
0.842675
-0.31432
-0.100492
0.414812
-0.212283
-0.210548
-0.185024
0.170626
0.0143976
0.148747
0.278864
-0.42761
-0.129431
0.680182
-0.0162902
0.0491247
-2.09914
2.0381
0.175853
0.127438
-0.170584
-0.110209
0.280792
-0.26809
0.365078
-0.0969876
-0.0768102
0.0850797
-0.00826951
-1.76358
-0.919576
0.0109645
0.908611
-0.0396928
-0.00812533
-1.12185
0.805753
0.316092
0.210353
-0.226668
0.0163158
-0.881572
-0.233022
1.10154
-0.948702
-0.735894
1.14496
-0.200984
1.06176
0.176677
-0.171764
-0.00491345
1.73846
-0.528508
1.22319
-1.22319
-0.00795332
-0.000128988
0.00808231
-0.204114
-0.0526135
0.256727
0.0838438
-0.0623376
-0.0215063
-0.452596
0.822437
-0.369841
-0.0291643
-0.222545
0.251709
-1.08243
0.042707
0.356027
0.0580995
-0.414126
0.130813
-0.877486
1.1167
0.0623159
0.0280712
-0.0903872
-0.0176625
-0.147505
0.0194066
-0.164673
0.145267
-0.100001
0.119408
0.122705
-1.00019
0.321096
-0.773692
0.923453
-0.839588
-0.00404896
0.113838
-0.109789
0.0890919
0.0540034
-0.143095
-1.36748
-0.073444
1.44092
-0.235226
0.398375
-0.163149
-1.03164
0.482219
0.549419
-0.482893
-0.638952
0.106627
-0.061789
-0.14755
0.14217
0.00537955
-0.0791083
-0.0175298
0.0966382
-0.501851
-0.205299
-0.0445161
0.0170839
0.0274323
-1.07413
-0.336427
1.41056
1.62466
-0.535905
-0.0114314
0.00347812
0.0260719
0.149781
-0.205843
0.391933
0.0228388
0.0326149
-0.0554537
0.143875
0.0708496
-0.214725
0.258591
-0.255642
-0.00294912
-0.594284
-0.529273
-1.2588
0.184672
-0.040253
0.102569
-0.0991148
0.176822
-0.0777067
0.117463
0.0239666
0.119347
-0.0561309
0.0649902
-0.00885936
-0.0908062
-0.0197907
0.110597
0.0714599
-0.0714599
-0.179104
0.20307
0.110351
0.0930892
0.100828
0.0895001
-1.21293
1.0835
-1.52766
0.0774623
1.4502
0.0165181
-0.0142028
-0.00231531
-0.0276878
-0.0537604
0.0814482
0.525203
-0.0239825
-0.50122
-0.0167445
0.0171554
-0.00041091
-0.193487
0.0143834
0.164809
0.657628
-0.358433
0.523242
-0.178967
-1.18851
-0.0663949
0.00729917
0.472819
-0.295009
-0.177811
0.102707
-0.0878004
-0.0149068
0.0466459
-0.309941
0.0229322
-0.942508
0.0481092
-0.147224
-0.276728
-0.389115
0.0817373
1.41449
-0.952157
-0.462329
1.09785
0.316636
0.0645225
0.273567
0.0170202
-0.000502077
-0.14375
0.175077
-0.0313278
-0.250555
-0.594539
0.845093
-0.345435
0.331984
1.12571
-1.29581
0.132198
0.0328414
-0.0542466
0.0214052
-1.94671
0.275959
1.67075
-0.194964
-1.75175
-0.315666
0.671692
-0.908173
-0.0157469
0.00494161
-0.2755
0.270559
1.44627
-1.5816
0.135328
-0.0763305
0.00993557
0.579336
-0.82989
-0.0901298
-0.215131
0.305261
-0.301394
-0.125141
0.426535
0.165039
-1.00833
-0.0740942
-0.00735912
-0.0516918
-0.573891
0.361403
-0.254873
0.0191885
0.235684
-0.0502382
-0.0260923
0.00456282
-0.00456282
-0.125104
0.137508
-0.0124045
-0.242693
-1.28497
0.0382007
0.015859
-0.0540597
-0.150101
0.0867546
0.0633464
-0.228809
0.0437851
1.37388
-0.322859
-1.05103
-0.180984
0.43568
-0.254695
0.00275116
-0.00254136
-0.000209799
-0.657293
-0.374344
-0.192776
-0.00473592
0.197512
-0.166101
0.314848
-0.10668
0.104937
0.00174353
0.0790806
0.0179821
-0.0970628
-0.111214
0.116013
-0.00479906
-0.655256
1.20182
-0.546568
-0.212383
-0.0494191
0.261802
-0.685099
0.661655
0.0234449
-0.00238913
0.0353422
0.031334
-0.0318711
0.000537086
-0.00073292
-0.0507997
1.0997
0.524963
0.172328
-0.893498
0.72117
0.0100543
1.89675
-1.9068
0.372327
0.551684
0.671502
0.0705996
0.211525
-0.0676494
-0.074696
-0.0297313
0.228179
0.164729
-0.0756369
0.734158
-0.404714
0.0590404
0.197687
0.0557388
-0.173299
0.11756
-0.758604
-0.138832
0.897436
-0.00815211
0.00815211
-0.050006
-0.277364
0.559396
0.0125487
-0.224932
-0.0569951
0.0828243
0.0329116
-0.0731646
0.141977
-0.152578
-0.345889
0.316725
0.0483822
0.0324593
-0.0808415
0.370091
-0.321102
0.68816
-0.540075
-0.148085
-0.200196
0.264719
0.181434
-0.476443
-0.203283
0.59865
0.159869
-0.0317791
0.0317791
-0.401641
0.260326
0.141315
0.371241
0.0271342
-0.0163014
0.0187435
-0.00244209
-0.0870169
-0.0252519
-0.0192642
-0.0506607
0.192638
-0.187092
0.249875
-0.062783
0.136378
0.0283505
-0.384133
0.130897
0.199167
-0.0627889
-0.0478995
-0.0587805
-0.0396485
0.0427015
-0.00305299
0.14206
-0.100965
-0.0410947
-0.0277175
0.40818
-0.380462
-0.074365
0.0580748
0.109372
-0.113894
0.0045219
0.0244326
0.366015
0.322145
-0.0751241
-0.00375051
0.0788746
-0.0722952
0.0100922
0.0622029
-0.096753
0.0965401
-0.719872
0.623332
-0.0270152
-1.44549
-0.512513
1.958
0.36132
1.25784
-1.61916
0.0793497
-0.262281
0.00663969
0.288404
0.256408
-0.544812
-0.210421
0.26616
0.135812
-0.871711
0.735899
-0.00174495
-0.0705502
-0.0238045
0.0164454
-0.98428
0.441479
0.542801
0.952157
-0.829452
-1.66921
1.59577
-1.44627
1.52373
0.0377686
-0.0925368
0.00868227
0.0226517
0.00947621
0.780572
-0.64476
0.116398
-0.0682883
0.41127
0.73369
-0.083088
-1.66657
1.67662
-0.633815
-0.579112
-0.242209
-0.402518
-0.0190103
-0.160395
0.207041
-0.57301
-0.360921
0.179936
0.751147
-0.225945
-0.882276
-0.786934
0.751664
0.105219
-0.106964
0.27253
0.0358378
-0.0358378
0.668991
0.150556
-0.819547
-0.227095
0.896086
0.359538
-0.743861
0.384322
0.118872
-0.0257825
0.00703811
0.00557359
-0.0126117
-1.65939
-0.854874
0.318969
1.02326
0.350623
-0.0333893
-0.129245
-0.228888
0.731595
-0.204575
-0.0502972
-0.00278067
-0.0740295
-0.0569946
0.110998
0.384103
-0.257705
-0.812781
-0.295808
-0.111658
-0.00756227
0.11922
-0.866946
1.41863
-0.146674
0.129171
0.0175023
0.0200833
-0.00306309
-0.0703443
0.0396185
0.0307257
0.00873069
0.406082
0.0715692
0.031138
0.0129016
0.0120084
-0.02491
-0.0173133
-0.175463
-0.737304
0.381015
0.356289
0.805482
-1.97632
1.17084
0.143263
-0.165374
0.0221109
-0.00444812
0.111075
0.0729274
-1.29611
-0.0673304
-0.00301382
-0.0934119
0.0316229
0.149991
-0.355834
-1.80096
0.613874
1.18708
0.0338378
0.0893965
0.0526634
-0.758604
0.10584
-0.761096
0.0845028
-0.0448843
0.0452996
-0.6398
-0.0452999
0.0629694
0.136198
0.54453
0.0286801
-0.456291
0.117973
0.358904
-0.300804
-0.109744
0.0189379
0.2216
0.841468
-1.06307
0.104863
-0.707364
0.602502
-0.923544
0.784712
-1.6
0.108923
1.49108
-0.00456788
0.0049978
-0.000429918
0.177978
-0.479372
0.2227
-0.130671
-0.0920289
0.0458059
-0.0357136
-0.0218571
-0.0898006
-0.00358929
0.023516
-0.0242489
0.0201377
0.0864076
-0.106545
0.720859
0.00576204
-0.00583861
7.65691e-05
0.0696251
-0.0115503
0.863012
0.0470188
-0.0370833
-0.388287
-0.466587
0.108976
0.00989582
0.00733286
0.0820636
-1.49108
1.29611
0.218619
-0.115541
-0.103078
-0.261646
0.0898819
0.120288
-0.125201
-0.00127803
0.0863577
-0.0148648
-1.79478
-0.00617424
-0.0495904
0.0697282
0.741325
-0.25918
-0.124741
-0.0253601
0.352758
0.00419694
-0.0204984
-0.00737035
0.0788302
0.143127
0.221951
0.157123
-0.342346
0.185224
0.105922
0.551707
-0.031921
-0.109499
0.90938
-0.255593
-0.653787
-1.6
-0.540152
1.34563
1.89573
-0.0270848
0.250503
-0.223418
0.393905
-0.0753916
-0.318513
0.111327
-0.992899
-0.0782995
0.0794948
-0.00119536
0.126061
-0.143108
0.0170472
0.498779
-0.86854
0.369761
0.0397325
0.662735
-0.702467
-0.0426753
-0.104874
-0.0183255
-0.0567986
-0.016888
-0.384753
-0.00530241
0.00073453
-0.0136118
0.0499614
-0.0363496
0.0315755
-0.175325
0.00209641
0.0179869
0.0169858
0.0968525
-0.0278871
-0.00398397
0.201507
-0.424052
-0.218656
1.47649
0.00608263
0.00206948
-0.98952
-0.0188136
0.15322
-0.069015
-0.040729
-0.2159
0.125771
0.600715
-0.815497
0.214781
0.0655456
0.0434303
-0.937992
-0.0107101
-0.00586441
-0.649489
0.746029
-0.0170074
0.176876
-0.0421401
-0.70172
0.186352
-0.43222
0.245868
-0.00884824
0.0414631
0.000371607
-0.000573087
0.000201481
-0.0393706
-0.0718431
-0.01987
-0.127635
0.737017
-0.632155
-0.0888757
0.0468984
-0.115098
0.321166
-0.164043
0.187291
1.16073
-0.46862
-0.692108
-0.125189
0.144377
-0.509867
-0.227437
-0.550615
0.591671
-0.577289
-0.0143816
-0.0737431
-0.0151326
-1.66657
0.55648
-0.55648
-1.91802
1.91802
0.780572
0.0482192
-0.120804
0.0725851
-0.898108
-0.0914116
0.651056
-0.376195
-0.274861
0.153737
-0.231443
-0.0101923
-0.00123912
-0.9131
-0.0870904
-0.93312
0.213247
0.0423966
-0.0499588
0.697209
-0.102514
-0.594695
1.4617
0.434028
-0.00198927
0.00236088
-0.961005
0.333278
-0.873353
-0.0936406
-0.610726
0.704367
-0.0288412
-0.879773
-0.701826
0.220567
-0.814852
-0.897436
1.33708
-0.43964
-0.134204
0.271335
-0.137132
-0.0333447
0.730554
-0.109218
-0.998467
0.998467
-0.862399
0.523482
0.338917
0.00135461
0.00440743
0.0574876
-0.44749
0.876527
-0.0707734
-0.0896085
-0.0330572
0.0665721
0.00200104
0.000750116
1.9704
-1.86148
-0.35485
0.433931
-0.654375
1.04094
-0.386564
-0.0199206
-0.0474098
0.129203
-0.0583534
0.338609
0.00352643
-0.0267238
0.35827
0.0499098
0.0444292
-0.256236
0.211807
0.134042
0.0326004
0.101515
0.187692
1.84532
0.19278
-0.0174069
0.605701
-0.588295
-1.22753
1.50349
0.280621
-0.187094
0.0738641
-0.765502
0.691638
0.0308123
0.117791
-0.46368
-0.0742823
0.128286
-0.0540039
0.122598
-0.19688
-0.461974
-0.111917
-0.0759125
0.0792652
-0.00335279
-0.00224177
-0.0256453
0.00540044
-0.0460197
0.64476
-0.602502
-0.0422585
-0.282298
0.294846
0.881201
0.669987
-0.276083
-0.0102419
0.0261009
-0.379493
0.164362
0.165227
-0.566235
0.401007
-0.000791016
0.000217929
0.385324
-0.132817
-0.252507
0.00876285
-0.0151598
0.00639693
-0.0277765
0.0199404
0.0078361
-1.41484
0.886337
-0.0848522
-1.36064
-0.205566
-0.829452
1.52373
1.59577
-0.186154
-0.166459
0.11704
-0.0668608
0.0729682
-0.00610746
-0.388564
0.94111
-0.552546
0.563765
0.087291
-0.000115898
-0.000675117
0.125948
-0.644931
0.0330572
-0.0540909
0.00450047
-0.318134
-0.0613584
-0.0470723
0.079984
-0.218673
0.588765
1.09785
-0.279169
-0.0582976
0.00109608
0.0572015
2.00287
-0.407108
-0.058433
-0.0517876
-0.993626
0.164174
0.361824
-0.196785
-0.484037
-0.138806
0.622843
0.836465
-0.376158
-0.460307
0.0701237
0.530592
-1.67662
0.0172349
-0.00676981
-0.0322824
0.0390523
0.150403
1.74634
-0.162108
0.169146
0.257377
2.12091
-0.597178
-0.672805
0.0467604
0.626045
0.394328
0.00915704
-0.355453
0.522259
0.791862
0.248967
0.073011
-0.0203475
-0.941467
0.24949
0.691977
1.17366
0.0537887
-0.0408871
-0.0527231
-0.366834
0.114019
-0.32444
0.569068
0.59166
-0.0722569
-0.00148617
0.28836
-0.315445
-0.0206407
0.0182516
0.106667
-0.141704
0.0350374
-0.289822
0.302771
-0.0129497
0.256843
-0.725463
-1.25025
0.0424999
1.20775
0.134422
-0.178775
0.0443525
0.281857
0.0393086
-0.237692
0.343532
-0.666372
0.666372
1.72043
1.4617
-0.707364
0.320573
0.471289
-0.144215
0.28553
0.948861
-0.385096
0.0097369
-0.881126
0.871389
0.123019
0.0075423
0.0253445
-0.541424
0.303732
0.0690655
-0.164718
-0.115628
0.280346
0.120433
-0.49737
0.332652
-1.09824
-0.295863
-0.656635
-0.023334
-0.00544299
-0.000395614
-0.228327
0.0491045
0.0701155
0.0327488
-0.153432
0.120683
-0.520118
-0.342281
-0.0053915
0.0651546
-0.4971
0.290756
0.206344
-0.549858
0.372048
-0.0917035
0.124163
0.227579
-0.00272609
-0.0210784
-0.78135
0.458491
0.0360957
0.0732762
-0.148621
0.0335228
0.21354
0.00915934
-0.437146
1.74368
0.454342
0.0642779
0.865514
-0.79165
0.808868
-0.45611
-0.630061
0.182571
0.156717
-0.797399
0.774341
0.0230581
1.1546
-0.585535
-0.216159
-0.138691
-0.0769388
0.0146013
0.951244
-0.839686
-0.111558
-0.191798
0.116161
0.0265446
0.115625
0.87715
0.154909
-0.18525
0.0303415
-0.317567
-0.043354
-0.11725
-0.379849
0.0875072
1.35342
1.48162
-0.0199201
0.164564
0.548937
-0.713501
0.18972
0.052496
-0.0106209
0.00789482
-0.522258
-0.107803
0.046668
-0.0969062
-0.194769
0.144109
-0.518049
0.263354
-0.992597
-0.509368
-0.294148
-0.670998
1.48263
-0.0324274
-0.293155
-0.382825
0.0646903
0.352816
0.311186
0.0470836
1.25546
-0.756676
-0.198394
0.135605
-0.0775388
-0.347984
0.425522
-0.015275
0.00850524
0.0513155
-0.0595161
-0.230305
-0.110903
0.697541
-0.424857
-0.272684
-0.136468
0.127905
-0.0923812
-0.0355237
0.245333
0.0658537
-0.104268
-1.51489
-0.0998239
0.145123
0.485048
-0.330139
0.0131574
0.0490455
-0.0253679
0.0142197
0.0111482
0.00527523
-0.019478
-0.250705
0.077406
-0.0561775
-0.539591
0.405388
0.0247363
0.0693964
0.0650261
-0.697053
1.70114
-1.10948
0.0157224
-0.200261
0.184538
-0.144143
-0.530009
0.674153
0.0683158
-0.708115
-1.01807
-0.232185
-0.0218112
0.000227292
0.0215839
-0.237513
-0.591671
-0.166933
-0.131215
-0.941467
-0.239403
0.171753
-0.124044
-1.14964
-0.219949
0.315393
-0.0954438
0.255613
0.108128
0.442574
0.302096
-0.74467
0.0533875
0.0518318
0.904712
0.34383
-1.24854
-0.21786
0.322064
1.18142
-0.249913
0.18713
-0.571336
0.893399
-0.342874
0.178201
-0.0121567
0.0216329
-0.0220825
1.26501
-1.20073
0.748926
0.0875396
-1.56732
-0.227461
0.262053
0.686808
0.883065
0.0263149
-0.0190137
-1.48162
-0.656635
-0.712674
0.723638
-0.0792244
-0.882276
0.662735
0.592874
-0.931098
0.603757
-0.0024855
-0.794914
-0.31443
0.636653
-0.764794
0.128142
0.0772069
0.0506979
-0.328823
-0.277877
1.38961
-1.11173
-0.00168979
-0.0037532
-0.272104
0.221807
0.704968
0.21485
-0.200466
-0.173829
0.620712
-0.957139
0.0757305
-0.00314541
0.291365
0.720924
-1.01229
-1.08971
1.3392
0.396587
-0.105831
0.0702838
0.4141
-0.691977
-0.00165552
0.220968
-0.0350356
0.109173
0.0440476
0.00391156
-0.0211758
0.0172643
-1.02829
-0.0347805
0.309301
-0.807721
-0.743798
1.68253
-0.938728
0.381567
0.659372
-0.0465383
0.0496931
-0.00315478
-0.142494
0.763205
-0.718034
0.744681
0.557756
-1.30155
0.3242
-0.103232
-0.584418
-0.408179
-1.12874
1.4201
-0.0555492
-0.883612
-1.77136
-0.135442
0.4141
0.0503105
-0.858031
0.831407
-0.646552
-0.184855
-0.982142
0.397723
0.00409745
0.108226
-0.000335587
-0.107891
-0.971209
0.56303
-0.20768
0.911701
-0.922411
0.197958
-0.215271
-0.0985402
0.248531
0.927268
0.602057
-0.0998936
-1.32506
0.632949
0.875102
-0.626134
-0.55278
-0.518532
1.07131
0.44722
0.0177145
-0.0121409
-0.737248
0.702467
0.0591487
-0.201642
-0.671502
0.357004
0.314497
1.01897
0.663555
0.773993
-0.808076
-0.4934
-0.449108
-0.471883
-0.499326
0.804002
-0.804002
0.686937
-0.686937
-0.737248
-0.123982
0.123982
-0.357004
-0.985531
-0.285208
-0.527522
0.0646461
-0.0646461
0.0591487
-0.201642
0.773993
0.765369
-0.765369
0.808076
0.758838
-0.758838
0.5066
0.528117
0.481468
0.123795
-0.500674
-0.550892
1.07901
-0.672565
-1.71433
0.585587
0.217852
0.178734
-0.212457
-0.00826601
0.0552848
-0.88487
0.0904042
0.794465
-0.08708
0.0680697
-0.993525
0.588812
0.904842
-0.584268
-0.122992
0.00268249
-0.00476189
-0.81584
-0.0776577
-0.542801
-0.00765547
0.0241008
0.303766
-0.118712
0.0738277
0.183201
-0.0029165
-0.00874291
0.0116594
-0.812823
0.0677906
0.745032
0.628598
0.29867
-0.528472
0.421921
0.106551
0.916262
-0.74463
-0.171631
0.0851694
0.306764
-0.0142451
-0.0616674
-0.0644997
-0.0137998
0.809613
-1.67656
-0.860195
0.0950908
-0.745011
0.795801
-0.0507899
0.120603
-0.900126
0.779524
-0.803143
0.902327
-0.0991842
-0.0448985
0.0501737
0.0205518
-0.296052
0.303929
1.11617
-0.0916659
-0.793204
0.914701
-0.0899469
-0.824754
0.080552
-0.100473
0.84645
0.824596
-1.43714
0.479951
-0.392661
0.0997062
-0.89291
1.62135
0.296675
-0.79434
-0.000573285
1.01719
-0.896585
1.171
0.80942
-0.823313
0.0138927
-0.882347
-0.111179
-0.422596
0.0421336
-0.372228
0.587009
-0.784183
0.784183
-0.619364
-0.0838552
-0.86393
0.1193
-0.976008
0.882367
0.0764972
-0.207168
-0.0551525
0.0533172
0.011673
0.18654
0.830647
0.818472
0.77361
0.136724
-0.910334
-0.557524
0.736259
-0.783376
-0.103732
0.887109
0.165791
-0.883825
-0.67739
0.886851
-0.787145
-0.103939
0.461909
-0.0127117
-0.449198
-0.0593752
1.45621
-1.39683
0.452736
-0.475281
0.0225441
-0.887316
-0.828822
0.0838113
0.536169
0.2727
-1.96575
1.20563
-0.585854
0.585854
-0.742942
-0.582115
-0.0948584
0.39859
-0.907743
0.950243
0.783119
-0.196097
1.28023
-0.393895
1.02749
-1.05812
0.030633
-0.169395
-1.80693
0.0825314
0.251896
-0.350786
-0.41031
0.00819895
0.314755
-0.229586
0.781965
-0.881149
0.470769
0.26549
-0.146119
0.734931
0.588714
-0.588714
-0.0496953
0.0466322
0.115873
-0.0831243
1.29855
0.157659
0.0848935
-0.00128602
0.00321084
-0.00192482
-0.673068
0.692394
-0.0193259
0.1356
-0.958912
0.105351
-0.892496
-1.03904
1.31702
-0.277979
0.158277
0.873523
-1.40239
1.53799
-0.755772
0.608552
-0.653852
-0.670673
0.160806
0.068576
0.0269941
0.155243
-0.185558
0.254134
0.00286026
-0.091938
0.0658604
0.72994
0.689863
-0.0813113
0.0723603
0.790652
-0.386965
-0.0449456
0.431911
-0.460363
0.512921
0.436139
-0.931322
0.716211
0.215111
-0.685109
-0.129743
1.08124
-0.112019
-0.272734
-0.0343567
0.485899
0.514101
-0.771407
-0.109742
-0.271917
-0.493484
-0.408674
-0.304039
0.401573
0.598427
-0.0914871
0.0799368
-0.861354
-0.0593086
-0.594543
-0.148573
-0.240931
0.389504
-0.0136784
-0.00118642
0.117512
0.0751257
-0.128413
-0.122292
0.762345
-0.646975
0.719335
0.540785
-0.726343
-0.15382
0.40607
-0.25225
-0.74484
-0.187264
0.932104
-0.233586
0.222695
-0.0250075
-0.0424565
0.0163641
0.00499877
0.721611
-0.135757
0.114314
0.113265
-0.735306
0.0622388
1.11077
0.162196
-0.707714
0.559629
0.0478042
-0.283172
1.01686
-0.00368885
0.191209
0.0661679
-0.00304343
-0.0493141
-0.0645677
-0.0159446
1.12672
0.439449
-0.629134
0.189685
0.846156
-0.0224304
0.00363934
0.0187911
0.133235
-0.0049573
-0.000345112
0.209151
-0.102484
0.0155808
-0.923324
0.870792
-0.431343
0.00609972
0.27012
-0.223064
-1.02221
1.26664
-0.244427
-0.778592
0.830866
-0.0522731
0.460482
-0.0445033
-0.298371
-0.0791072
1.2826
-0.463697
-0.0647751
0.272022
0.443889
0.185635
-0.629525
0.39198
0.0326267
0.659767
-0.572373
0.570683
0.00168978
1.45654
-1.10373
-0.030118
0.0375042
-0.00738619
0.700037
-0.00927843
-0.0828321
0.0185842
1.29248
1.03034
-0.56986
0.067121
-0.155121
-0.0236542
0.0149939
0.0824494
-0.0974433
0.00789311
-0.00398155
0.907091
-0.563261
0.123503
0.213416
-0.0246643
-0.0820708
0.233009
0.0943508
0.00635344
0.0660539
0.765898
0.390027
-0.456576
0.0665487
-0.357704
0.512844
-0.155139
0.643601
0.116191
-0.0482574
0.00189774
0.0463596
-0.460003
0.122208
-1.18033
-0.00926571
0.76093
0.72403
0.255811
0.544979
-0.873801
0.809392
0.159725
0.0275663
-0.897453
0.102253
-0.272181
-0.162735
-0.167264
0.697104
0.0687933
0.0141877
0.192638
-0.237142
-0.281308
0.165131
0.0173083
-0.110106
0.421823
-0.0585715
0.483774
-0.0663289
0.13732
-0.118516
-0.239189
-0.146512
-0.195648
-0.0343695
-0.108846
0.00739939
-0.000247855
-0.00715153
-1.57857
0.474844
-0.00536613
0.885448
-0.224839
-0.621928
0.651771
-0.0298429
0.366616
0.759343
0.123315
-0.375566
0.0821439
-0.180684
0.638505
0.120838
0.678401
0.740229
-0.272397
0.752348
0.260224
0.866495
-0.591606
0.350903
0.240703
-0.308028
-0.0711148
0.0397872
0.0688778
-0.049672
1.1758
0.735155
0.0742368
0.631194
0.2139
-0.877512
-0.0822332
-0.679516
0.678942
-0.0272223
-0.565414
0.416841
0.863297
0.671132
0.100877
-0.03642
-0.144414
-0.319266
0.976513
0.724627
0.702529
0.0179739
0.9797
-0.113205
0.616016
0.794543
-0.0814901
0.604135
-0.731775
0.923124
-0.191349
-0.413697
-0.177909
-0.0450249
-0.188358
-0.153589
0.811182
0.0156514
-0.00364301
0.626422
0.218529
0.3411
0.611824
-0.13125
0.226166
0.756825
0.261623
-1.01845
0.276794
-0.923346
0.314835
-1.42432
-0.169262
0.757822
-0.58856
-0.673995
-0.0803676
0.0379111
-0.0561521
-1.32582
0.0117605
-0.0371284
0.537499
-0.0675134
-0.152713
0.220226
-0.0295923
-0.57301
0.192254
-0.00104518
-1.56623
-0.00711225
0.00419574
0.132669
-0.0548643
-0.599644
0.0272705
0.568312
0.294985
1.16663
0.791366
-0.23538
-0.387981
0.62336
0.145451
-0.619147
0.619147
-0.214784
-0.948431
1.16322
0.0314341
-0.156623
0.675472
-0.10716
-0.217207
-0.361928
0.0891941
0.665035
0.68023
-0.105198
0.184902
-0.103165
-0.396323
0.483047
0.087636
0.0687767
0.00694556
-1.82685
0.0512666
-0.070029
0.693638
0.306362
0.0512666
0.693638
0.145451
-0.115682
0.145451
-0.696481
0.696481
0.303519
-0.0136198
0.203772
-0.07816
0.234602
0.0852923
-0.488556
0.638602
-0.0267785
0.649077
-0.50621
-0.142867
-0.0501857
0.0471305
0.00305516
-0.00954317
0.00825716
-0.323907
0.0178585
-0.0381601
-0.435308
-0.365166
0.136839
0.0398191
0.823504
-0.274566
-0.357015
0.421705
-0.00318895
-0.110299
-0.0039277
0.689471
0.071459
0.467596
-0.0242435
-0.00066645
0.00199993
0.083857
0.554207
-0.478386
-0.0758206
2.22839
0.557291
0.0244086
0.917736
0.0118869
-0.0656473
0.111221
0.255927
0.107351
1.15544
-0.398619
0.00567042
-0.0290044
0.709579
-0.138327
0.0197121
-0.0197121
0.0225566
-0.0225566
-0.0164771
0.0164771
0.00608263
0.366336
0.462246
-0.0819123
-0.697222
0.471278
0.181565
0.0275863
-0.0849742
-0.483567
0.658121
0.112999
-0.798108
-0.924135
0.222414
0.0777582
0.0212556
-0.00131514
-0.00450922
0.00450922
0.0760063
-0.00473651
0.00473651
0.700904
0.10207
-0.0179374
-0.00630616
0.00627376
-0.0645714
-0.0210206
0.0210206
-0.0119535
0.0119535
-0.0237401
0.0237401
-0.00380468
0.00380468
0.0952605
-0.299312
-0.078303
0.218696
-0.00381311
0.00381311
-0.376298
0.501827
-0.125529
0.486038
-0.214703
-0.440671
0.0836563
0.558981
-0.213377
0.0825085
0.569262
0.565416
-0.00205078
0.00205078
0.169226
0.0265897
-0.0265897
-0.00364812
0.00364812
0.771979
-1.21772
0.0367875
-0.249776
0.116959
0.000784666
-0.000784666
0.0141794
-0.0141794
0.0193319
-0.0193319
0.0215747
-0.0215747
-0.0249219
0.0249219
0.0369066
-0.0369066
0.494205
-0.0335196
0.0335196
-0.000439552
0.000439552
0.0254393
-0.0254393
-0.00721459
0.00721459
0.00246169
-0.00246169
0.00208182
-0.0277851
0.0277851
0.399172
0.0234174
-0.0414285
0.0414285
0.0066775
-0.0066775
0.0169698
-0.0169698
0.0352631
-0.0352631
0.0243156
-0.0243156
0.00103252
-0.00103252
-0.00398241
0.00398241
-0.452555
-0.192703
-0.0106615
0.0106615
-9.63326e-06
9.63327e-06
-0.0400086
0.0400086
-0.0265533
0.0265533
0.0021871
-0.0021871
-0.419966
0.682019
0.246252
-0.0335866
0.0335866
-0.0153339
-0.0149087
0.0149087
0.000351309
-0.000351309
0.0354392
-0.0354392
-0.221696
0.249262
0.00505275
-0.00505275
-0.0211093
0.0211093
-0.487432
0.0423085
0.462252
-0.0297295
0.0297295
-0.437569
0.031721
0.0179721
0.0171046
-1.58443
-0.0384645
0.0384645
-0.20773
0.149158
-0.0388595
0.000561108
-0.000561108
-0.00922697
0.0540532
0.264927
-0.322238
-0.268602
0.59084
0.182561
-0.0061284
0.0061284
-0.119727
0.41395
-0.294223
0.756412
-0.384886
-0.371526
-0.474637
-0.657538
0.260385
0.16132
-0.146339
-0.314025
-0.574524
0.000478369
0.190177
-1.1865
0.0180561
-0.0180561
0.000486107
-0.000486107
0.0323222
-0.0323222
0.0248742
-0.0248742
-0.00154595
0.00154595
0.000268178
-0.000268178
-0.142887
-0.0837818
0.165498
-0.28849
0.00174124
-0.00174124
-0.0427327
0.0427327
-0.0421932
0.0421932
0.185956
-0.0941827
-0.0917734
0.0106383
0.304118
-0.528957
-0.00194107
0.00194107
-0.0156124
0.0156124
-0.101411
0.231037
0.0293477
6.66959e-05
-6.66959e-05
0.0751377
0.01441
0.946309
-0.487905
-0.0883255
0.576231
-0.621253
0.174045
-0.546273
-0.0366347
0.0366347
-0.676614
0.26895
0.0518222
-0.0518222
-0.667028
0.392168
0.255313
0.118356
-0.00154255
0.00154255
-0.853737
-0.00114694
0.00114694
0.321422
0.409132
0.0518117
-0.0560177
0.0560177
-0.000369365
0.000369365
-0.0443075
0.0443075
-0.0511079
0.0511079
-0.00122351
0.00122351
-0.0564874
0.0564874
-0.00142565
0.00142565
-0.0477518
0.0477518
-0.00934526
-0.0428676
0.0428676
0.00234107
-0.00234107
0.0503854
-0.0503854
-0.00204608
0.00204608
0.0452218
-0.0452218
-0.0319761
-0.00379238
0.00379238
-0.00544488
0.00544488
-0.0428817
0.0788302
-0.0118418
0.0118418
0.0054274
-0.0054274
-0.0621344
0.0621344
0.30701
-0.0196779
0.0196779
-0.0541659
0.0541659
-0.00761407
0.00761407
-0.0703801
0.0703801
-0.0129473
0.0129473
-0.0842501
0.0842501
-0.0228491
0.0228491
-0.0892033
0.0892033
-0.699389
0.325682
-0.539351
0.509508
-0.879773
0.067121
-0.547959
0.380694
-0.107633
-0.0288347
0.00379958
-0.00379958
0.0994925
-0.707124
0.0475732
-0.0406277
-1.31443
1.74845
1.29971
0.245107
-0.0161408
0.00580275
-0.38256
-0.589316
-0.0318933
0.393115
-1.18647
-0.0245738
0.0245738
-0.737908
0.0172748
-0.0172748
-0.00317604
0.00317604
0.332382
-0.414327
-0.00221208
0.00221208
0.0180418
0.0137373
0.597808
0.267395
-0.00590384
-0.0121871
-0.00682662
-0.104342
0.505549
-0.401207
0.146051
-0.0635199
0.00494748
0.988659
0.00288081
0.0454247
-0.410254
0.452388
-0.49858
-0.986965
-0.201548
-0.0758061
0.0188115
-0.128979
-0.346301
0.0191533
-0.0065177
-0.00981778
0.795489
-0.540783
-0.0432888
0.0605971
-0.0384252
0.103543
0.100229
0.417777
0.243877
-0.160026
0.203295
0.0248771
-0.00689496
-1.31042
0.0195669
0.103542
-0.256254
-0.0178658
-1.46331
-0.0721246
0.269035
-0.353745
0.403655
0.197809
-0.868807
0.043161
-0.0562276
-0.044245
-0.352802
0.459354
-0.036007
-0.0306671
0.066674
-0.0287921
0.0287921
0.171717
-0.4478
0.0122968
0.0744578
-0.0851229
0.0579006
-0.0608595
-0.00489814
0.0657577
-0.0293945
-0.157877
0.0308354
-0.122803
-0.284518
-0.347134
0.631653
0.016531
0.0629638
0.149877
-0.0355627
-0.0370556
0.0725899
-0.162578
0.319295
-0.00739303
0.0261841
-0.0204052
0.170282
0.00346437
0.267094
0.00269232
-0.00269232
-0.366882
0.982898
0.0951947
-0.177428
-0.0239271
-0.00491413
0.989814
0.548175
0.012747
-0.0173098
-0.535322
-0.00402869
-0.0117746
0.0986425
-0.699177
0.314081
-0.0542477
0.37168
-0.656199
0.217406
0.498804
-0.0943105
0.0943105
-0.000335588
-1.24171
0.489132
0.752578
-0.219194
0.163042
0.293706
-0.284971
-0.440492
-0.117384
-0.0337463
0.0424285
0.929366
0.185499
-0.0846221
-0.070036
-0.640617
-0.660938
-0.0563202
-0.255083
0.777342
0.564341
-0.260223
-0.249655
0.519776
-0.113983
0.364486
-0.265603
0.0694529
-0.459197
0.333668
0.11679
-0.11679
0.0922345
-0.0518986
-0.0403359
0.00157341
-0.00193516
0.0142197
-0.243436
-0.216567
0.219392
-0.18551
-0.0338813
0.533464
-1.10044
0.250652
-0.717239
0.6881
-0.112452
-0.176038
-0.0312805
-0.0796224
-0.493686
0.0583782
-0.295522
0.000931827
-0.0178658
0.391252
-0.00522853
0.00049262
-8.42707e-06
0.0168123
-0.0109563
-0.00585594
-0.0995395
-0.0189457
-0.173098
0.192044
-0.117241
-0.341957
0.0180418
0.348794
0.00156839
-0.384683
0.0905348
0.0028496
0.0270008
-0.108913
-0.0128425
0.0128425
-0.00139721
0.00222586
-0.00888588
0.000164997
-0.0545941
0.000554175
-0.00118177
0.237031
-0.111261
-0.000687702
0.000687702
0.0714528
0.50563
0.00129205
-0.280381
0.550694
1.16902
-0.470043
0.325238
-0.440201
-0.126043
0.13834
0.219034
-0.221298
-0.00286542
0.00623189
-0.00123312
-0.00358779
-0.175911
-0.366616
0.837894
0.302052
-0.444939
0.203034
-0.00164348
0.119875
0.0384021
0.000729374
0.000214856
0.00601704
0.0947241
0.00141988
-0.000465409
0.732322
-0.659732
-0.247844
0.200615
0.913966
0.00036094
0.00107034
-0.0388595
-0.00541391
0.81762
-0.432373
0.520009
-0.563513
0.904788
-0.419722
0.562448
-0.181754
0.710382
0.00108619
0.00317121
0.0180844
-0.115418
0.137716
-0.23371
0.0088987
0.00279464
0.0685918
-0.055078
-0.0135139
0.00107564
0.0222239
0.0117581
-0.033982
-0.0973039
0.0028925
0.000318338
0.00165337
0.489964
-0.436402
-0.0013574
0.000246036
1.17091
-0.68178
0.375919
-0.00614232
-7.49999e-05
0.136815
-0.0133119
-0.0463553
-0.103901
-0.0134255
-0.0037287
0.129844
0.0462377
-0.00243728
0.402422
0.000806374
-0.000817667
0.000817667
-0.000703072
-0.011484
0.000195294
-0.321749
-0.00387024
0.0753058
-0.107521
0.0808051
0.175249
-0.0652
0.00019983
0.00165251
0.455742
3.3963e-06
-0.00337903
-0.0416458
-0.00211429
0.000505216
-0.00320835
0.0881018
-0.710099
0.46934
-0.835956
-0.115265
-0.000436061
-0.0604154
0.012519
-0.00432002
0.582811
-0.0144732
0.0864416
-0.00419556
-0.00143676
-0.555776
-0.00344424
-0.000202144
-0.0145674
0.893159
-0.501179
-0.00263363
-0.00062043
-0.00611672
-0.0017463
0.0748492
-0.0211618
0.0211618
-0.0328204
0.0350462
-0.00218667
-0.00824567
0.0361938
-0.0357012
-0.171137
0.100022
-0.00533322
-0.01387
0.0382712
-0.0179055
0.0655376
-0.0467261
-0.62541
0.57462
0.0237379
-0.00162782
0.289921
-0.152601
-0.0657748
-0.669186