/*--------------------------------*- C++ -*----------------------------------*\
| =========                 |                                                 |
| \\      /  F ield         | OpenFOAM: The Open Source CFD Toolbox           |
|  \\    /   O peration     | Version:  2306                                  |
|   \\  /    A nd           | Website:  www.openfoam.com                      |
|    \\/     M anipulation  |                                                 |
\*---------------------------------------------------------------------------*/
FoamFile
{
    version     2.0;
    format      ascii;
    arch        "LSB;label=32;scalar=64";
    class       surfaceScalarField;
    location    "21.7";
    object      phi;
}
// * * * * * * * * * * * * * * * * * * * * * * * * * * * * * * * * * * * * * //

dimensions      [0 3 -1 0 0 0 0];

oriented        oriented;

internalField   nonuniform List<scalar> 
3181
(
-1.03093
0.400519
0.630412
-0.380507
0.358909
0.021598
0.512925
-0.35199
-0.160934
0.117801
-0.195596
0.0777954
-0.0530891
0.0694131
-0.016324
0.541633
1.14689
-1.68853
0.144883
-0.138711
-0.0061711
0.0482291
0.00187806
-0.0501071
0.566276
-0.716769
0.150493
-0.0755533
0.132733
-0.0571799
-0.010485
-0.0528106
0.0632956
0.111743
0.0505997
-0.162343
-0.0104697
-0.0357624
0.0462322
-1.09697
0.152241
0.944726
-0.322193
0.682942
-0.360749
-1.12316
0.639896
0.483266
0.0843727
-0.931644
0.847272
-0.143529
0.0365626
0.106967
-1.30398
-0.227843
0.00428456
0.0499217
-0.0542063
0.0442469
-0.0904621
0.0462152
-0.0551215
0.050569
0.00455248
1.06335
-1.03975
-0.0236013
0.0167202
0.0341058
-0.050826
-0.956593
0.329012
0.627581
-0.10682
0.224621
0.304644
-0.250123
-0.0545213
0.0288507
0.0604783
-0.0893291
-0.418253
0.344423
0.0738301
-0.033619
-0.0187176
0.0193126
-0.000594972
-0.0391725
-0.917421
0.0392723
-0.04248
0.00320775
0.228877
1.53144
-1.76031
-0.0479837
0.0449436
0.00304013
0.184809
0.278564
-0.463372
1.84177
-1.6129
0.0743905
-0.0301436
1.55319
-0.838489
-0.714705
-0.662008
1.20364
-0.0850904
0.0746206
-0.0495545
-0.00556691
-0.399014
0.0768205
-0.136658
0.0871034
-0.640686
0.126265
0.514422
-0.143929
0.0683758
-0.164255
0.168327
-0.00407263
-0.266031
-0.0752248
0.341256
0.3327
1.09863
-1.43133
0.0398402
0.0915905
-0.131431
-0.0144331
-0.102947
0.109269
-0.00632189
0.508579
0.174363
-0.0952373
0.14658
-0.0513429
0.0867362
-0.0474639
-0.167208
0.192765
-0.0255566
0.16001
0.0539514
-0.213962
0.105881
-0.111649
0.00576752
1.20078
0.352418
-0.847536
-0.183395
-0.0484207
-1.69442
1.74284
0.559494
0.236624
-0.796118
-0.452615
-0.208955
0.66157
-1.0621
0.400091
-0.276779
0.836274
-0.317664
-0.100808
0.418473
-0.210467
-0.207786
-0.187054
0.169116
0.0179382
0.143993
0.280814
-0.424807
-0.127245
0.693521
-0.0167987
0.0650278
-2.1207
2.07228
0.180024
0.12462
-0.17356
-0.110408
0.283967
-0.268168
0.361757
-0.0935889
-0.0781591
0.0863667
-0.00820753
-1.788
-0.919544
0.0112964
0.908248
-0.0454169
-0.00256681
-1.10809
0.795503
0.312592
0.271195
-0.241645
-0.0295501
-0.8435
-0.2186
1.10269
-0.950452
-0.729394
1.14589
-0.201166
1.06352
0.17332
-0.172405
-0.00091505
1.68633
-0.539437
1.15334
-1.15334
-0.00783664
-3.87404e-05
0.00787538
-0.207074
-0.0526084
0.259682
0.0764839
-0.0572627
-0.0192212
-0.451958
0.825644
-0.373687
-0.0252525
-0.227673
0.252925
-1.08308
0.0433359
0.351466
0.0583416
-0.409807
0.132418
-0.871512
1.10814
0.0547351
0.0475928
-0.102328
-0.0175471
-0.149661
-0.0452316
-0.148267
0.193499
-0.136375
0.0911438
0.121484
-0.992996
0.324701
-0.776659
0.923566
-0.839193
-0.0030805
0.111119
-0.108038
0.0870842
0.0533034
-0.140388
-1.38836
-0.0734955
1.46185
-0.239108
0.402353
-0.163245
-1.02798
0.575236
0.452747
-0.476737
-0.631358
0.107641
-0.0678004
-0.14908
0.143651
0.00542914
-0.0785945
-0.0161897
0.0947842
-0.502065
-0.214704
-0.0591261
0.0268747
0.0322514
-1.1051
-0.29771
1.40281
1.61849
-0.519855
-0.0110484
0.00321171
0.0304116
0.149613
-0.203342
0.388151
0.00837621
0.0635343
-0.0719105
0.14187
0.0699182
-0.211788
0.258267
-0.247922
-0.0103449
-0.594439
-0.528723
-1.24695
0.141856
-0.0476105
0.102346
-0.10138
0.179209
-0.0778289
0.114738
0.0242664
0.120616
-0.0564083
0.0667211
-0.0103128
-0.0923547
-0.0204075
0.112762
0.0721938
-0.0721938
-0.180936
0.205203
0.13482
0.0999667
0.102248
0.0905174
-1.23313
1.10588
-1.52439
0.0853525
1.43903
0.0207035
-0.0173149
-0.00338866
-0.0273188
-0.0529943
0.080313
0.531065
-0.0252783
-0.505786
-0.0253343
0.0261413
-0.000807076
-0.19565
0.014714
0.163418
0.662226
-0.361945
0.525363
-0.185172
-1.20319
-0.0760653
0.0229762
0.477306
-0.298706
-0.1786
0.0957333
-0.081564
-0.0141693
0.0469496
-0.312981
0.0231623
-0.942707
0.0484637
-0.149844
-0.28038
-0.392889
0.0780832
1.40341
-0.944188
-0.459221
1.09018
0.313232
0.0649678
0.276288
0.0216539
-0.000950325
-0.134588
0.17431
-0.039722
-0.251545
-0.592079
0.843625
-0.349516
0.38235
1.09136
-1.3192
0.128463
0.0355095
-0.0565902
0.0210807
-1.93549
0.319887
1.6156
-0.220144
-1.71534
-0.313524
0.66499
-0.908482
-0.0163868
0.00442509
-0.272272
0.267847
1.43455
-1.56734
0.132786
-0.0759119
-0.000153448
0.577063
-0.828609
-0.0816798
-0.24519
0.32687
-0.298973
-0.122707
0.421679
0.163973
-1.00836
-0.0747218
-0.0053455
-0.0488608
-0.567332
0.358377
-0.251846
0.0191023
0.232743
-0.0356073
-0.0403046
0.00436863
-0.00436863
-0.123189
0.135347
-0.0121585
-0.250824
-1.27356
0.0512706
0.0229637
-0.0742343
-0.152599
0.0826987
0.0699001
-0.226293
0.0392388
1.37025
-0.343329
-1.02693
-0.185218
0.440075
-0.254857
0.00378459
-0.00342664
-0.000357944
-0.555214
-0.472769
-0.190792
-0.00458785
0.19538
-0.16867
0.312663
-0.105088
0.103369
0.00171807
0.0776206
0.0186904
-0.096311
-0.119834
0.131408
-0.0115741
-0.808094
1.20672
-0.398628
-0.214261
-0.0499454
0.264207
-0.688358
0.661488
0.0268707
-0.00178182
0.0358877
0.0268333
-0.0270266
0.000193344
-0.00021884
-0.0506072
1.08045
0.538038
0.173055
-0.89154
0.718485
0.0214423
1.91202
-1.93346
0.376498
0.548292
0.605048
0.0679857
0.208785
-0.0669147
-0.073616
-0.0293312
0.231359
0.162108
-0.0750242
0.734711
-0.405699
0.0594781
0.200204
0.0535019
-0.170143
0.116641
-0.769456
-0.139029
0.908485
-0.0121728
0.0121728
-0.0455605
-0.275661
0.554225
0.0128367
-0.227098
-0.042879
0.0794415
0.028882
-0.0764925
0.139851
-0.150336
-0.34595
0.320698
0.0479257
0.0399737
-0.0878995
0.372922
-0.322323
0.790876
-0.643264
-0.147611
-0.202225
0.267193
0.182705
-0.481411
-0.204711
0.60523
0.161726
-0.0322092
0.0322092
-0.430297
0.279933
0.150364
0.375777
0.026576
-0.0209359
0.0248255
-0.00388953
-0.0838379
-0.0256733
-0.0334528
-0.050076
0.189927
-0.184593
0.246768
-0.0621747
0.133959
0.0281491
-0.386526
0.136403
0.196197
-0.0622378
-0.04721
-0.0578775
-0.053972
0.0533911
0.000580944
0.143661
-0.102073
-0.0415884
-0.0246858
0.404664
-0.379978
-0.0935799
0.0767812
0.107775
-0.112233
0.0044575
0.0241915
0.412218
0.378658
-0.0837974
-0.00958227
0.0933796
-0.0846106
-0.00291334
0.087524
-0.0950395
0.0964997
-0.71972
0.62322
-0.0338198
-1.47804
-0.511053
1.9891
0.385574
1.26152
-1.64709
0.0803246
-0.267506
0.0195838
0.284621
0.254733
-0.539354
-0.208979
0.262481
0.136917
-0.878081
0.741164
0.00852726
-0.0931379
-0.0198059
0.0144604
-0.986534
0.442336
0.544198
0.944188
-0.822704
-1.69188
1.61839
-1.43455
1.51991
0.0384401
-0.0897831
0.00835577
0.0184775
0.0110558
0.786113
-0.649196
0.118296
-0.069832
0.412253
0.733638
-0.0793517
-1.68399
1.70543
-0.640371
-0.592758
-0.241218
-0.399469
-0.0189593
-0.162112
0.209062
-0.574281
-0.365751
0.180533
0.757877
-0.226812
-0.892684
-0.799196
0.750119
0.131264
-0.122737
0.276831
0.0364086
-0.0364086
0.669598
0.149892
-0.81949
-0.226833
0.896431
0.401345
-0.833587
0.432242
0.130174
-0.0302073
0.00745966
0.00506407
-0.0125237
-1.69442
-0.898065
0.378211
1.03463
0.335623
-0.033685
-0.13057
-0.229393
0.737972
-0.20194
-0.0499055
-0.00286761
-0.0752915
-0.0558233
0.109127
0.381475
-0.25521
-0.825544
-0.292854
-0.114975
-0.0149824
0.129958
-0.8134
1.36169
-0.151465
0.131194
0.0202713
0.0228261
-0.00117221
-0.0840259
0.0401418
0.043884
0.00850208
0.40997
0.0682156
0.0275177
0.0111905
0.00898199
-0.0201725
-0.0173709
-0.173421
-0.732768
0.377976
0.354792
0.76928
-1.89981
1.13053
0.141469
-0.163356
0.0218877
-0.00651672
0.114157
0.0990893
-1.25243
-0.0879266
0.00390073
-0.0963261
0.0285256
0.148795
-0.352138
-1.76786
0.637082
1.13077
0.0309234
0.090413
0.0532481
-0.769456
-0.0235133
-0.784581
0.100709
-0.060567
0.0448279
-0.639541
-0.0488174
0.0621992
0.133998
0.651508
0.0332298
-0.458036
0.119368
0.355759
-0.297418
-0.112144
0.0197894
0.222483
0.84033
-1.06281
0.104733
-0.710067
0.605334
-0.931539
0.79251
-1.60429
0.131721
1.47257
-0.00655487
0.00720677
-0.000651895
0.175174
-0.474147
0.221158
-0.130036
-0.0911225
0.0449832
-0.0478965
-0.0237225
-0.091253
-0.00780419
0.0235851
-0.0238039
0.0203495
0.0835851
-0.103935
0.786919
0.00394141
-0.00397784
3.64226e-05
0.0847377
-0.00795654
0.862379
0.0451504
-0.0453038
-0.422234
-0.475831
0.119918
0.0102559
0.00748141
0.0829316
-1.47257
1.25243
0.224714
-0.134064
-0.0906495
-0.258313
0.0859071
0.119927
-0.120842
-0.00133179
0.0876985
-0.0234562
-1.73332
-0.0345345
-0.0475226
0.0678721
0.741226
-0.25796
-0.132344
-0.0202546
0.348046
0.00740786
-0.0283438
-0.00742833
0.0796221
0.143985
0.217772
0.156459
-0.338531
0.182072
0.106372
0.555855
-0.0345632
-0.109366
0.921376
-0.261631
-0.659745
-1.60429
-0.517992
1.28727
1.84177
-0.0360672
0.271351
-0.235284
0.389044
-0.0726657
-0.316379
0.10483
-0.94833
-0.0766073
0.077691
-0.00108373
0.104015
-0.126069
0.0220537
0.510364
-0.890416
0.380052
0.0401846
0.661048
-0.701233
-0.0430902
-0.10599
-0.0132572
-0.0705402
-0.00839237
-0.421904
-0.00778259
0.00122772
0.010774
0.0333747
-0.0441487
0.0397059
-0.174294
0.00169257
0.0211335
0.018472
0.0926466
-0.0235573
-0.0034693
0.199583
-0.427256
-0.265649
1.52717
0.0109319
0.00124096
-0.98957
-0.0187906
0.150588
-0.0701258
-0.0420184
-0.23423
0.15255
0.65186
-0.822858
0.170998
0.0719103
0.0480078
-0.937823
-0.0126294
-0.00866449
-0.649724
0.746224
-0.0172955
0.179021
-0.101336
-0.732251
0.185124
-0.435574
0.25045
0.00349344
0.0600408
0.000415942
-0.000577008
0.000161066
-0.0399405
-0.0798933
-0.0202579
-0.129403
0.739391
-0.634658
-0.106395
0.0607989
-0.111759
0.317461
-0.161002
0.184992
1.20359
-0.45891
-0.744682
-0.123561
0.142663
-0.507948
-0.22482
-0.55338
0.598787
-0.581402
-0.0173854
-0.0821306
-0.0242645
-1.68399
0.552003
-0.552003
-1.93226
1.93226
0.786113
0.0691235
-0.181764
0.11264
-0.898089
-0.0914813
0.645169
-0.37182
-0.273348
0.15693
-0.234759
-0.00994995
-0.0010984
-0.907155
-0.0858411
-0.932949
0.21323
0.0437583
-0.0587407
0.697693
-0.104578
-0.593114
1.38898
0.452797
-0.00178948
0.00220543
-0.961424
0.247622
-0.890887
-0.0924033
-0.604644
0.697047
-0.0334775
-0.871952
-0.69539
0.22006
-0.814499
-0.908485
1.35132
-0.442836
-0.134848
0.273559
-0.138712
-0.031052
0.728745
-0.107613
-1.0086
1.0086
-0.900228
0.524303
0.375925
0.000861503
0.00307991
0.0668891
-0.444773
0.861529
-0.066026
-0.0881371
-0.033541
0.0853187
0.00280841
0.000976171
1.98099
-1.84927
-0.351824
0.429444
-0.648914
1.0316
-0.382684
-0.0418319
-0.0460947
0.127447
-0.0575285
0.34272
0.00494262
-0.040705
0.356987
0.0476763
0.04408
-0.253355
0.209275
0.135393
0.0329338
0.100128
0.185549
1.84457
0.227715
0.0851544
0.589566
-0.674721
-1.22575
1.54564
0.273076
-0.185972
0.0747697
-0.765799
0.691029
0.154278
0.121613
-0.467563
-0.0743146
0.130055
-0.0557402
0.125656
-0.199971
-0.457403
-0.109929
-0.0746948
0.0779877
-0.00329288
-0.00061272
-0.0229446
1.77679e-05
-0.0474817
0.649196
-0.605334
-0.0438623
-0.28479
0.297627
0.880515
0.662709
-0.273665
-0.0162889
0.0392526
-0.414401
0.169211
0.169486
-0.572219
0.402733
-0.000754754
0.000177746
0.310109
-0.0457205
-0.264388
0.00811418
-0.0144826
0.00636847
-0.0271108
0.0193051
0.00780564
-1.42234
0.882899
-0.0953209
-1.38272
-0.20267
-0.822704
1.51991
1.61839
-0.188169
-0.16806
0.118115
-0.0658292
0.0718442
-0.00601508
-0.318954
0.959118
-0.640164
0.557584
0.087585
0.000260078
-0.00101483
0.124319
-0.609869
0.033541
-0.0520801
0.00455756
-0.35513
-0.0592716
-0.0459055
0.0747875
-0.217933
0.590855
1.09018
-0.275899
-0.0591299
0.0011814
0.0579485
2.02758
-0.409199
-0.0591669
-0.0524818
-0.985908
0.163204
0.357138
-0.193165
-0.48177
-0.136758
0.618528
0.831572
-0.372895
-0.458677
0.0759794
0.575881
-1.70543
0.0110167
-0.00537905
-0.0275296
0.0329086
0.135032
1.77698
-0.163099
0.170559
0.269588
2.12886
-0.60895
-0.675098
0.0498985
0.6252
0.389329
0.00601958
-0.353296
0.528484
0.799897
0.301418
0.0738427
-0.0205946
-0.875921
0.235157
0.640764
1.16966
0.0467508
-0.0355603
-0.0514305
-0.36418
0.111413
-0.320392
0.648491
0.555102
-0.0884417
0.0063111
0.304405
-0.340472
-0.0203866
0.0186047
0.107698
-0.143043
0.0353456
-0.292565
0.305972
-0.013407
0.300317
-0.759228
-1.23414
0.0236432
1.21049
0.133756
-0.202322
0.0685656
0.278046
0.039415
-0.342004
0.318491
-0.663312
0.663312
1.74284
1.38898
-0.710067
0.326092
0.473806
-0.165782
0.316145
0.940193
-0.382609
0.00863617
-0.878573
0.869937
0.125866
0.00686719
0.0254776
-0.580909
0.238904
0.0611365
-0.165094
-0.117715
0.282809
0.138543
-0.502051
0.336958
-1.08931
-0.292993
-0.654675
-0.0303503
-0.00378986
-0.000187977
-0.227118
0.0541221
0.0758358
0.0331467
-0.150808
0.117661
-0.518649
-0.381579
-0.00545877
0.0659371
-0.580385
0.384311
0.196074
-0.554867
0.376267
-0.0836511
0.123625
0.229995
-0.00162696
-0.018179
-0.743663
0.400334
0.0355551
0.07222
-0.15606
0.0443008
0.211743
0.00941514
-0.433905
1.71469
0.444867
0.00865762
0.865716
-0.790946
0.801635
-0.453589
-0.625314
0.180541
0.15534
-0.796351
0.771813
0.0245382
1.16985
-0.521363
-0.214977
-0.136847
-0.0710948
0.0138321
0.952334
-0.839706
-0.112627
-0.188646
0.113621
0.0268485
0.116802
0.877612
0.238437
-0.290966
0.052529
-0.319954
-0.0457966
-0.0815825
-0.498802
0.0879365
1.37392
1.39391
-0.0049372
0.165868
0.550398
-0.716266
0.192805
0.0517406
-0.00769066
0.00606371
-0.519154
-0.10616
0.0589596
-0.0945668
-0.192023
0.141947
-0.522322
0.267465
-0.992631
-0.500718
-0.292075
-0.608843
1.48247
-0.0434362
-0.290853
-0.411912
0.0567829
0.284397
0.307844
0.049143
1.28618
-0.775816
-0.195332
0.133094
-0.0813564
-0.403429
0.484786
-0.0116925
0.00631349
0.0505588
-0.0594596
-0.233105
-0.113588
0.697326
-0.423148
-0.274178
-0.106485
0.129851
-0.0937014
-0.03615
0.24413
0.0637147
-0.133838
-1.51325
-0.0984874
0.143315
0.59658
-0.358143
0.022562
0.064962
-0.0242587
0.0157157
0.00854295
0.00873828
-0.0260532
-0.247436
0.0772932
-0.0530383
-0.544478
0.409631
0.0222277
0.0848738
0.0488827
-0.696658
1.72681
-1.17171
0.0156371
-0.19759
0.181953
-0.142149
-0.53205
0.674199
0.0703104
-0.709851
-1.02167
-0.212468
-0.0359623
0.000640475
0.0353218
-0.239003
-0.598788
-0.170668
-0.13483
-0.875921
-0.236336
0.169421
-0.190609
-1.14078
-0.259733
0.360228
-0.100495
0.258061
0.110088
0.441835
0.277997
-0.719832
0.0721606
0.0591033
0.892834
0.370279
-1.26311
-0.219074
0.372737
1.1729
-0.246866
0.184691
-0.602488
0.975224
-0.320296
0.172029
-0.0183655
0.0294213
-0.0220968
1.24693
-1.23827
0.74395
0.0876214
-1.53035
-0.202973
0.259942
0.680251
0.8916
0.0297762
-0.0189966
-1.39391
-0.654675
-0.712209
0.723505
-0.0711858
-0.892684
0.661048
0.597242
-0.931188
0.593833
-0.00392388
-0.792427
-0.313961
0.637014
-0.766601
0.129587
0.0782434
0.0516081
-0.239378
-0.256064
1.34025
-1.08419
-0.00140065
-0.00238921
-0.268959
0.219053
0.707325
0.217194
-0.202479
-0.175489
0.635624
-0.933334
0.0562314
0.0564088
0.279376
0.805762
-1.08514
-1.05201
1.28716
0.510537
-0.126226
0.0660565
0.3847
-0.640764
-0.00387497
0.219009
-0.0429163
0.114165
0.0364221
0.00323719
-0.022203
0.0189658
-1.02761
-0.0352021
0.311564
-0.807552
-0.740842
1.68901
-0.948172
0.379779
0.651819
-0.0473928
0.0506259
-0.00323313
-0.129354
0.764978
-0.716702
0.730385
0.577875
-1.31872
0.320397
-0.101387
-0.583982
-0.408649
-1.14726
1.42664
-0.056796
-0.882497
-1.77833
-0.155124
0.3847
0.0501473
-0.857699
0.83156
-0.646679
-0.184881
-0.98197
0.397988
0.00450098
0.109148
-0.000502227
-0.108646
-0.97126
0.562611
-0.210184
0.911034
-0.923663
0.195616
-0.212987
-0.0972691
0.246065
1.00184
0.52969
-0.0977822
-1.36824
0.623557
0.961679
-0.660261
-0.552951
-0.518274
1.07123
0.447049
0.0172605
-0.0121965
-0.736435
0.701233
0.0523971
-0.181751
-0.605048
0.289461
0.315587
1.02836
0.660651
0.775446
-0.809065
-0.493282
-0.449425
-0.471504
-0.499756
0.803783
-0.803783
0.686287
-0.686287
-0.736435
-0.0708611
0.0708611
-0.289461
-0.903281
-0.303333
-0.530842
0.0434855
-0.0434855
0.0523971
-0.181751
0.775446
0.76573
-0.76573
0.809065
0.759043
-0.759043
0.506718
0.528496
0.481726
0.0958826
-0.500244
-0.550575
1.07907
-0.682478
-1.70391
0.556652
0.231071
0.279466
-0.202949
-0.0120115
0.0571619
-0.884527
0.0909311
0.793596
-0.101382
0.0824227
-0.993622
0.587923
0.913936
-0.587844
-0.12345
0.0038181
-0.00638731
-0.813141
-0.0783998
-0.544198
-0.00551371
0.0199741
0.359191
-0.13312
0.0725534
0.182404
-0.00115975
-0.00956548
0.0107252
-0.812801
0.0673852
0.745416
0.70804
0.293796
-0.530014
0.419466
0.110548
0.916471
-0.744202
-0.172269
0.0848999
0.303251
-0.0140872
-0.0606075
-0.0626365
-0.0139708
0.811078
-1.62448
-0.854665
0.0957872
-0.743275
0.795766
-0.0524918
0.121194
-0.900087
0.778893
-0.802706
0.902393
-0.0996872
-0.0538667
0.062605
0.0206116
-0.292883
0.298096
1.12854
-0.0922103
-0.792317
0.915333
-0.091001
-0.824332
0.0748985
-0.11673
0.939111
0.824261
-1.39043
0.476149
-0.388564
0.100577
-0.892894
1.6129
0.319367
-0.793965
0.00153792
1.01731
-0.896115
1.19382
0.817076
-0.784992
-0.0320834
-0.880766
-0.112856
-0.419694
0.0397159
-0.398915
0.569913
-0.78452
0.78452
-0.615577
-0.0838125
-0.863647
0.119445
-0.965052
0.872648
0.0750185
-0.205054
-0.0557799
0.0551942
0.0115269
0.187188
0.830121
0.81858
0.773449
0.137552
-0.911001
-0.51488
0.794346
-0.783367
-0.103786
0.887153
0.168583
-0.885285
-0.676459
0.886738
-0.786162
-0.105083
0.461524
-0.015887
-0.445637
-0.0405377
1.42266
-1.38212
0.411655
-0.478835
0.0671806
-0.88845
-0.830062
0.0867876
0.530605
0.27103
-1.98311
1.20639
-0.582013
0.582013
-0.775127
-0.593113
-0.100212
0.339117
-0.962105
0.985749
0.782952
-0.198602
1.2993
-0.4164
1.00575
-1.06745
0.0617058
-0.147361
-1.75245
0.0903823
0.302196
-0.390442
-0.394139
0.0255471
0.311925
-0.227025
0.781286
-0.880973
0.459299
0.335047
-0.148191
0.736115
0.584912
-0.584912
-0.0572409
0.0560687
0.114064
-0.0809169
1.26038
0.16228
0.108049
-0.0012135
0.00300702
-0.00179351
-0.671718
0.692962
-0.0212436
0.166009
-0.951001
0.107164
-0.893326
-1.03808
1.33347
-0.295392
0.168287
0.873883
-1.33433
1.50034
-0.755774
0.606472
-0.65529
-0.666151
0.158203
0.0547451
0.0267968
0.146824
-0.21603
0.270775
0.00289936
-0.158309
0.0672702
0.728496
0.691232
-0.08476
0.0728046
0.789574
-0.282941
-0.0308829
0.313824
-0.493269
0.520039
0.488197
-0.938896
0.722579
0.216316
-0.685369
-0.12913
1.10218
-0.124167
-0.297737
-0.0364659
0.485901
0.514099
-0.771031
-0.109942
-0.300361
-0.437179
-0.4197
-0.311301
0.401764
0.598236
-0.105162
0.0972054
-0.862032
-0.0624361
-0.592854
-0.149035
-0.243601
0.392636
-0.0211755
-0.00228068
0.115827
0.0741002
-0.128147
-0.119289
0.761027
-0.645715
0.718519
0.470266
-0.686295
-0.187325
0.254769
-0.0674444
-0.744329
-0.189904
0.934232
-0.23591
0.225034
-0.0248298
-0.0490906
0.00878603
0.00777579
0.716517
-0.134504
0.117472
0.112523
-0.73493
0.0632117
1.10618
0.112465
-0.746557
0.598945
-0.051325
-0.284621
1.01826
-0.00439064
0.200979
0.0686087
-0.00437697
-0.0465182
-0.0789783
6.0612e-05
1.10611
0.450137
-0.589006
0.138869
0.847815
-0.0220059
0.00305264
0.0189533
0.131464
-0.00722681
-0.000555782
0.21097
-0.103273
0.0199045
-0.98201
0.907363
-0.457226
0.00637245
0.273487
-0.334237
-0.992784
1.2499
-0.257116
-0.778899
0.832759
-0.0538595
0.513224
0.00314342
-0.32344
-0.0762625
1.26044
-0.461295
-0.0687187
0.273931
0.447086
0.188271
-0.635357
0.39769
0.0351069
0.657855
-0.57282
0.56767
0.00514997
1.44763
-1.16324
-0.0252885
0.0316794
-0.00639093
0.699623
-0.00914758
-0.0828221
0.0187588
1.30817
0.955797
-0.442573
0.0616989
-0.155408
-0.0469143
0.0247682
0.0747428
-0.099511
0.00799824
-0.00476106
0.98736
-0.617081
0.147996
0.215887
-0.0249284
-0.0846515
0.229892
0.0955114
0.00641021
0.0726672
0.766894
0.29922
-0.355536
0.0563165
-0.100341
0.457109
-0.356768
0.642855
0.115916
-0.049632
-0.00272439
0.0523564
-0.527597
0.0862138
-1.15367
-0.00752647
0.757645
0.721384
0.209366
0.61701
-0.856389
0.811438
0.16653
0.0184619
-0.892582
0.0926643
-0.271872
-0.129546
-0.167981
0.696421
0.0704722
0.0139667
0.195097
-0.191953
-0.319004
0.164513
0.0202121
-0.110674
0.421502
-0.0580249
0.557169
-0.0678003
0.146187
-0.0682248
-0.0321158
-0.14796
-0.227137
-0.0385705
-0.109103
0.0111163
-0.000471112
-0.0106452
-1.58139
0.418158
-0.00643379
0.873521
-0.22522
-0.620659
0.647595
-0.026936
0.401879
0.759633
0.27069
-0.338134
0.0814041
-0.178673
0.636764
0.122869
0.632743
0.728949
-0.269058
0.745207
0.237861
0.868254
-0.594853
0.350706
0.244147
-0.186536
-0.0709844
0.0400951
0.0673954
-0.0489371
1.15734
0.736983
0.0744547
0.628186
0.215439
-0.876124
-0.0817109
-0.677549
0.679086
-0.0263241
-0.570275
0.42124
0.86657
0.671871
0.124065
-0.0203921
-0.149155
-0.318408
1.0517
0.675107
0.595978
0.0147297
0.938216
-0.0699625
0.660475
0.742331
-0.0803241
0.600082
-0.733235
0.924427
-0.191192
-0.413368
-0.181485
-0.0394578
-0.196895
-0.164555
0.794253
0.0118123
-0.00283033
0.626803
0.195657
0.403288
0.609435
-0.131595
0.229937
0.747663
0.259526
-1.00719
0.276867
-0.923546
0.280096
-1.45181
-0.173054
0.760831
-0.587777
-0.67212
-0.0812859
0.0321952
-0.0556429
-1.2856
0.0145771
-0.0388358
0.573868
-0.0652131
-0.178842
0.244055
-0.034493
-0.574281
0.197557
0.00342198
-1.52948
-0.00544024
0.00428049
0.153405
-0.054383
-0.596674
0.0238541
0.56871
0.297859
1.16085
0.828249
-0.239287
-0.387144
0.626431
0.176151
-0.618902
0.618902
-0.213191
-0.939777
1.15297
0.0310682
-0.154629
0.678501
-0.109791
-0.217909
-0.427573
0.129837
0.682416
0.67965
-0.0977778
0.181748
-0.103665
-0.422766
0.483798
0.0838717
0.0654945
0.00889598
-1.75739
0.0627954
-0.0965691
0.693741
0.306259
0.0627954
0.693741
0.110802
-0.131941
0.110802
-0.696383
0.696383
0.303617
-0.0137672
0.202952
-0.0774448
0.225594
0.08395
-0.484035
0.639564
-0.0301287
0.652655
-0.505447
-0.147208
-0.0522046
0.0498116
0.002393
-0.0092614
0.0080479
-0.202131
0.0180628
-0.0582218
-0.435581
-0.361531
0.134413
0.0409706
0.82585
-0.275452
-0.363416
0.420199
-0.0010695
-0.125411
-0.0047319
0.687003
0.0706421
0.554809
-0.0194024
-0.000770148
0.00693224
0.083916
0.556718
-0.477197
-0.0795214
2.20654
0.554804
-0.0450196
0.910385
0.011705
-0.0646993
0.109655
0.235266
0.116854
1.14315
-0.395484
0.010281
-0.0406313
0.711972
-0.174566
0.0203258
-0.0203258
0.0219937
-0.0219937
-0.0166179
0.0166179
0.0109319
0.366862
0.461937
-0.0697986
-0.703262
0.47645
0.183244
0.0277258
-0.0842677
-0.484207
0.684456
0.112283
-0.797652
-0.93734
0.205089
0.0823612
0.0206004
-0.00129526
-0.00888706
0.00888706
0.0913439
-0.00952753
0.00952753
0.700991
0.0989263
-0.0142409
-0.00516145
0.00635973
-0.0654896
-0.0213772
0.0213772
-0.0101384
0.0101384
-0.0233817
0.0233817
-0.00768654
0.00768654
0.102633
-0.297816
-0.0794248
0.219972
-0.00751042
0.00751042
-0.375233
0.50438
-0.129147
0.490455
-0.216895
-0.416921
0.053505
0.559954
-0.216061
0.0800054
0.56759
0.5663
-0.00391241
0.00391241
0.231369
0.0261457
-0.0261457
-0.00700016
0.00700016
0.767008
-1.19248
0.0362791
-0.166472
0.120751
0.0016494
-0.0016494
0.012627
-0.012627
0.0190658
-0.0190658
0.0219956
-0.0219956
-0.0245572
0.0245572
0.0363723
-0.0363723
0.491235
-0.0330325
0.0330325
-0.00109362
0.00109362
0.0250809
-0.0250809
-0.00541229
0.00541229
0.00471948
-0.00471948
-0.00654304
-0.0272294
0.0272294
0.399302
0.0227392
-0.0408298
0.0408298
0.00521894
-0.00521894
0.0185347
-0.0185347
0.0347505
-0.0347505
0.0246277
-0.0246277
0.00212052
-0.00212052
-0.00260687
0.00260687
-0.522711
-0.196204
-0.00868824
0.00868824
-0.000441723
0.000441723
-0.0394338
0.0394338
-0.0268575
0.0268575
0.0011883
-0.0011883
-0.415145
0.675087
0.24738
-0.0331119
0.0331119
-0.0250505
-0.0140227
0.0140227
0.00011714
-0.00011714
0.0358619
-0.0358619
-0.233394
0.251856
0.00348484
-0.00348484
-0.0215998
0.0215998
-0.491809
0.0429301
0.366353
-0.0300944
0.0300944
-0.440008
0.0323614
0.0182645
-0.00227341
-1.52807
-0.0379146
0.0379146
-0.204723
0.146698
-0.03926
0.000475089
-0.000475089
-0.00586219
0.0520774
0.264485
-0.322507
-0.272625
0.595133
0.185972
-0.00441582
0.00441582
-0.124433
0.424539
-0.300106
0.762169
-0.389709
-0.37246
-0.47034
-0.658781
0.250703
0.169496
-0.152992
-0.340277
-0.573721
0.00536411
0.18995
-1.1882
0.0174362
-0.0174362
0.00051375
-0.00051375
0.0318582
-0.0318582
0.0251527
-0.0251527
-0.000842487
0.000842487
0.000336007
-0.000336007
-0.124337
-0.117309
0.168983
-0.292433
0.000919394
-0.000919394
-0.0432156
0.0432156
-0.0416029
0.0416029
0.210295
-0.0893056
-0.12099
0.00702811
0.308077
-0.533298
-0.00102198
0.00102198
-0.0187517
0.0187517
-0.0985614
0.227752
0.022951
0.000174941
-0.000174941
0.0856313
0.0137457
0.964719
-0.486753
-0.0857523
0.572505
-0.624404
0.110241
-0.509156
-0.0370445
0.0370445
-0.677505
0.271259
0.0511522
-0.0511522
-0.660359
0.38701
0.257935
0.119906
-0.000906337
0.000906337
-0.844549
-0.000718358
0.000718358
0.319086
0.409659
0.045653
-0.0553098
0.0553098
-0.00023697
0.00023697
-0.043697
0.043697
-0.0516708
0.0516708
-0.000754781
0.000754781
-0.0570999
0.0570999
-0.000992389
0.000992389
-0.0471078
0.0471078
-0.00691437
-0.0433327
0.0433327
0.00214559
-0.00214559
0.049718
-0.049718
-0.00171067
0.00171067
0.0457474
-0.0457474
-0.0405882
-0.00356731
0.00356731
-0.00529818
0.00529818
-0.0464864
0.0796221
-0.0116666
0.0116666
0.00535351
-0.00535351
-0.0613711
0.0613711
0.305741
-0.0194723
0.0194723
-0.0546938
0.0546938
-0.00760058
0.00760058
-0.0695565
0.0695565
-0.013026
0.013026
-0.0833216
0.0833216
-0.0226128
0.0226128
-0.0900393
0.0900393
-0.696462
0.338707
-0.535632
0.508696
-0.871952
0.0902107
-0.552701
0.384721
-0.117111
0.0106255
0.00369055
-0.00369055
0.125998
-0.712216
0.0462857
-0.0373897
-1.2618
1.7146
1.25816
0.246853
-0.0256813
0.0023702
-0.386027
-0.585314
-0.0408459
0.392377
-1.18205
-0.0232306
0.0232306
-0.743268
0.0181087
-0.0181087
-0.00195633
0.00195633
0.330062
-0.418004
-0.00210685
0.00210685
0.018268
0.0139412
0.597534
0.301866
-0.00620876
-0.0114817
-0.00751484
-0.102328
0.501738
-0.399409
0.148224
-0.0578418
0.00696688
0.954508
-0.00281037
0.0482741
-0.409153
0.448869
-0.494905
-1.001
-0.202182
-0.0743694
0.0185461
-0.139693
-0.339142
0.0281156
-0.00579444
-0.0093959
0.792027
-0.544497
-0.041327
0.0615391
-0.0376275
0.10531
0.0976419
0.420146
0.241341
-0.160644
0.204842
0.0254189
-0.00672849
-1.32011
0.0174385
0.105417
-0.284259
-0.018144
-1.48022
-0.0716286
0.266915
-0.352468
0.400145
0.227541
-0.836384
0.0454831
-0.0453005
-0.0714299
-0.350687
0.461235
-0.0578919
-0.0216556
0.0795475
-0.0283737
0.0283737
0.169462
-0.443127
-0.00179361
0.0844923
-0.0832383
0.0569142
-0.0620614
-0.0053477
0.0674091
-0.0295264
-0.156521
0.0548876
-0.119766
-0.285418
-0.350997
0.636415
0.0159463
0.0617447
0.150627
-0.0331548
-0.0504632
0.0705464
-0.160182
0.315522
-0.00675266
0.025706
-0.0226624
0.173289
0.00371229
0.264134
0.00156571
-0.00156571
-0.342212
1.00269
0.0929673
-0.174678
-0.0349654
0.00148789
0.9043
0.596043
0.0182983
-0.0226669
-0.534525
-0.0011072
0.0259671
0.0964004
-0.692751
0.310142
-0.0543634
0.375736
-0.661154
0.219693
0.502887
-0.093377
0.093377
-0.000502228
-1.2065
0.519875
0.68662
-0.216222
0.160579
0.298119
-0.284846
-0.474382
-0.129408
-0.0296607
0.0380165
0.929473
0.200563
-0.0764981
-0.0695237
-0.621108
-0.697609
-0.0651761
-0.25584
0.784324
0.568906
-0.260829
-0.245459
0.518946
-0.111687
0.383038
-0.265833
0.0825083
-0.461216
0.332069
0.117765
-0.117765
0.103192
-0.0755713
-0.027621
0.00204481
-0.00190206
0.0157157
-0.291993
-0.235604
0.22276
-0.185867
-0.0368929
0.536678
-1.09087
0.26167
-0.737502
0.690236
-0.115469
-0.176964
-0.0340923
-0.0794959
-0.490827
0.0552458
-0.292053
0.00184099
-0.018144
0.386943
-0.00523566
0.00191679
0.000176119
0.0162135
-0.0112983
-0.00491523
-0.10246
-0.0190396
-0.171226
0.190265
-0.120591
-0.340625
0.018268
0.347685
0.00259518
-0.380941
0.0888657
0.00276395
0.0355625
-0.105361
-0.0125346
0.0125346
-0.00127401
0.00248864
-0.00900448
0.000510255
-0.056621
0.000618441
-0.00117554
0.262975
-0.110425
-0.000565643
0.000565643
0.0894406
0.508632
0.00145013
-0.282023
0.538186
1.15534
-0.471279
0.329299
-0.439659
-0.154749
0.152956
0.222718
-0.224572
-0.000453424
0.00996244
-0.00218664
-0.00707938
-0.176435
-0.369086
0.845537
0.299247
-0.423584
0.231415
-0.00162178
0.129973
0.038314
0.00139574
0.000394757
0.00956768
0.126658
0.00139601
-0.000395803
0.728069
-0.657522
-0.246528
0.174256
0.94474
0.000558864
0.000877965
-0.03926
-0.00546669
0.817717
-0.432406
0.516277
-0.533748
0.904495
-0.443242
0.567076
-0.182355
0.70615
0.000996458
0.00314053
0.0174599
-0.113066
0.138526
-0.23612
0.00911948
0.00332214
0.0672919
-0.0534246
-0.0138674
0.000930983
0.021179
0.0212416
-0.0424206
-0.0970915
0.00267834
0.000328673
0.00157995
0.485655
-0.433513
0.000216962
0.00016632
1.16064
-0.640765
0.379271
-0.00605632
3.86607e-05
0.159201
-0.0112042
-0.044698
-0.107939
-0.0146877
-0.00368833
0.126227
0.0451268
-0.00221706
0.406432
0.000650536
-0.00172576
0.00172576
0.000573056
-0.0120548
7.69033e-05
-0.321779
-0.0038165
0.0742567
-0.1074
0.0673165
0.133657
-0.0653012
0.000102588
0.00173087
0.45998
-6.38475e-05
-0.00333333
-0.0361245
-0.00209412
0.000377406
-0.0026374
0.110686
-0.710317
0.474526
-0.843612
-0.11139
-0.000411912
-0.230111
0.0189246
0.00662254
0.589697
-0.0146263
0.0773844
-0.00415763
-0.00143419
-0.554637
-0.00341083
-0.000237607
-0.0236365
0.900294
-0.502605
-0.00261017
-0.000718281
-0.00606124
-0.00185664
0.0748964
-0.0213987
0.0213987
-0.0301725
0.0326611
-0.00224707
-0.00818547
0.0397861
-0.0378693
-0.168369
0.097385
-0.00542537
-0.0137651
0.0394988
-0.0174552
0.064424
-0.0458779
-0.625346
0.572854
0.019474
-0.00166296
0.291202
-0.145015
-0.0671818
-0.674165
-0.0717198