/*--------------------------------*- C++ -*----------------------------------*\
| =========                 |                                                 |
| \\      /  F ield         | OpenFOAM: The Open Source CFD Toolbox           |
|  \\    /   O peration     | Version:  2306                                  |
|   \\  /    A nd           | Website:  www.openfoam.com                      |
|    \\/     M anipulation  |                                                 |
\*---------------------------------------------------------------------------*/
FoamFile
{
    version     2.0;
    format      ascii;
    arch        "LSB;label=32;scalar=64";
    class       surfaceScalarField;
    location    "30.3";
    object      phi;
}
// * * * * * * * * * * * * * * * * * * * * * * * * * * * * * * * * * * * * * //

dimensions      [0 3 -1 0 0 0 0];

oriented        oriented;

internalField   nonuniform List<scalar> 
3181
(
-1.02863
0.397188
0.631439
-0.39054
0.366265
0.0242754
0.522377
-0.359415
-0.162962
0.119697
-0.19882
0.0791228
-0.0120306
0.0342788
-0.0222482
0.95551
0.662439
-1.61795
0.148729
-0.142397
-0.00633167
0.0220401
0.00547145
-0.0275115
0.575366
-0.797264
0.221898
-0.0757773
0.135417
-0.0596399
-0.0103687
-0.0515894
0.0619581
0.132799
0.0447
-0.177499
-0.0160454
-0.0126042
0.0286496
-1.10188
0.152503
0.949372
-0.325193
0.699449
-0.374256
-1.12197
0.638455
0.483517
0.0849009
-0.930975
0.846075
-0.163052
0.224126
-0.0610745
-0.483441
-0.653995
0.007724
0.045421
-0.0531449
0.0407949
-0.0883575
0.0475625
-0.0669311
0.0637109
0.00322019
1.06793
-1.04292
-0.0250034
0.0334155
0.0307082
-0.0641238
-0.958528
0.328693
0.629835
-0.108224
0.227921
0.306312
-0.248421
-0.0578911
0.029622
0.0624163
-0.0920382
-0.414211
0.341472
0.0727393
-0.0339478
-0.0222932
0.0238584
-0.00156523
-0.0386101
-0.919918
0.0350653
-0.0528918
0.0178265
0.203966
1.14966
-1.35363
-0.0535372
0.0532223
0.000314978
0.180441
0.27816
-0.458601
1.51582
-1.31185
0.0729305
-0.0321356
1.54427
-0.814966
-0.729302
-0.564117
1.51963
-0.0412859
0.0252405
-0.058878
-0.00805302
-0.411006
0.0858132
-0.137687
0.0788089
-0.636555
0.126851
0.509703
-0.146643
0.0708655
-0.169002
0.173264
-0.00426161
-0.269578
-0.077209
0.346787
0.271576
1.21894
-1.49052
0.0411997
0.161992
-0.203192
-0.0145692
-0.100655
0.106765
-0.00611046
0.510023
0.189426
-0.0950585
0.143557
-0.0484985
0.092266
-0.0572007
-0.17021
0.196332
-0.0261222
0.163054
0.0582721
-0.221326
0.108812
-0.114749
0.00593628
1.23782
0.306445
-0.84441
-0.184217
-0.0420779
-1.76876
1.81083
0.554849
0.23406
-0.788909
-0.448424
-0.208349
0.656774
-1.55958
0.995466
-0.275006
0.829855
-0.321604
-0.103944
0.425549
-0.20839
-0.205821
-0.188547
0.168129
0.0204173
0.139648
0.282167
-0.421815
-0.270186
0.845552
-0.018879
0.040919
-2.21068
2.1686
0.183486
0.122827
-0.176218
-0.111604
0.287822
-0.268429
0.358858
-0.0904289
-0.0804281
0.0888114
-0.00838321
-1.9391
-0.919575
0.00964894
0.909926
-0.0426676
-0.0108696
-1.08424
0.80007
0.284171
0.391644
-0.174202
-0.217442
-1.51866
-0.0409209
1.10217
-0.949665
-0.72343
1.15102
-0.201648
1.06356
0.170471
-0.172655
0.00218415
1.17621
-0.513766
1.32579
-1.32579
-0.00729777
-0.00211705
0.00941482
-0.210097
-0.0534214
0.263518
0.0451708
-0.0501886
0.00501777
-0.45598
0.833175
-0.377194
-0.0229142
-0.23172
0.254634
-1.08621
0.0432909
0.349656
0.0558928
-0.405549
0.131837
-0.868398
1.10246
0.0265315
0.113754
-0.140286
-0.0178238
-0.152386
-0.446641
0.070306
0.376335
-0.135848
-0.310792
0.120806
-0.989204
0.323898
-0.779878
0.925628
-0.840727
0.0434064
0.0605712
-0.103978
0.0852895
0.0524384
-0.137728
-1.33306
-0.139352
1.47242
-0.242426
0.40744
-0.165014
-0.931034
0.486241
0.444792
-0.476469
-0.607773
0.085831
-0.0446312
-0.153042
0.147406
0.005636
-0.077758
-0.0151365
0.0928945
-0.587087
-0.210176
0.0029972
0.00844888
-0.0114461
-1.14349
-0.600716
1.74421
1.80978
-0.590842
-0.0201203
0.0128225
0.0335313
0.149954
-0.202287
0.382728
-0.0257961
0.226369
-0.200573
0.139956
0.0688709
-0.208827
0.0200164
0.272584
-0.2926
-0.594833
-0.527139
-1.41258
0.269086
-0.0383449
0.0648764
-0.103483
0.182075
-0.0785926
-0.143035
0.0247123
0.124017
-0.0570756
0.0687644
-0.0116888
-0.0944012
-0.021107
0.115508
0.0750785
-0.0750785
-0.184363
0.209076
0.255795
0.136196
0.103902
0.0924298
-1.25884
0.988653
-1.57306
0.107977
1.46509
0.0299805
-0.027337
-0.00264354
-0.0268214
-0.0516239
0.0784453
0.531231
-0.0176216
-0.51361
-0.0238686
0.0237675
0.000101034
-0.199076
0.0147125
0.164975
0.668199
-0.362023
0.526998
-0.117309
-1.21575
-0.0980506
0.08602
0.483518
-0.301145
-0.182373
0.0325568
-0.032741
0.000184211
0.0482419
-0.31782
0.0235694
-0.943145
0.0492388
-0.152722
-0.284442
-0.398813
0.075412
1.39937
-0.942337
-0.457028
1.09368
0.30569
0.0669166
0.27987
0.026471
0.00350948
0.0819609
0.0819643
-0.163925
-0.251183
-0.589508
0.840691
-0.35403
0.692765
0.195124
-0.849119
0.166214
0.0337174
-0.0323674
-0.00135006
-2.10205
0.277037
1.82501
-0.206884
-1.89517
-0.308191
0.657847
-0.907406
-0.0167444
0.00510658
-0.269727
0.26462
1.46956
-1.58977
0.12021
-0.0475915
-0.0504591
0.573649
-0.824832
0.310923
-0.342679
0.0317559
-0.296941
-0.121107
0.418048
0.199932
-1.01105
-0.0751635
0.000130666
-0.0532756
-0.562129
0.35378
-0.248794
0.0186893
0.230105
0.0800248
-0.127616
-0.0235616
0.0235616
-0.120967
0.132777
-0.0118106
-0.293251
-1.27981
0.00757173
0.0182355
-0.0258072
0.0197765
-0.09333
0.0735535
-0.224276
0.0357292
1.45163
-0.433403
-1.01823
-0.187834
0.445187
-0.257352
0.0169962
-0.016753
-0.000243164
-0.620715
-0.310318
-0.187123
-0.00481988
0.191942
-0.170333
0.309981
-0.102536
0.100844
0.00169197
0.0771608
0.0103244
-0.0874852
-0.0945617
0.083771
0.0107907
-0.286249
0.82878
-0.542531
-0.219267
-0.0506919
0.269959
-0.690985
0.662884
0.028101
-0.00779456
0.0385028
-0.00234371
0.00297089
-0.000627183
-0.0234957
-0.0406281
1.14773
0.66205
0.172159
-0.888636
0.716477
0.0284295
2.06093
-2.08936
0.379574
0.42034
0.90545
0.0657991
0.206211
-0.0662556
-0.0718331
-0.0288216
0.234401
0.159614
-0.0743241
0.736232
-0.407539
0.0605306
0.202988
0.0520258
-0.168113
0.116087
-0.763273
-0.132066
0.895339
0.00722071
-0.00722071
-0.00948531
-0.269011
0.547172
0.0119345
-0.231202
0.213493
0.0106329
0.00494782
-0.0432927
0.137605
-0.147973
-0.347208
0.324293
0.0133105
0.0794363
-0.0927468
0.385113
-0.340413
0.0865749
-0.245975
0.1594
-0.205767
0.272684
0.186115
-0.487261
-0.204365
0.601553
0.164432
-0.0336359
0.0336359
0.100565
0.19241
-0.292975
0.380192
0.0272486
-0.0251615
0.0271229
-0.00196141
-0.0894375
0.0336526
-0.0306554
-0.0496424
0.187247
-0.182305
0.243829
-0.0615239
0.131696
0.0279174
-0.388784
0.140362
0.193474
-0.0617774
-0.0462851
-0.0562513
-0.0278132
0.0380532
-0.01024
0.147292
-0.104448
-0.0428444
-0.0213527
0.400167
-0.378814
-0.0515703
0.0326913
0.105272
-0.10962
0.00434792
0.0239065
0.0330399
0.0535349
-0.0679187
0.0118858
0.0560328
-0.0696729
0.0475836
0.0220893
-0.0930491
0.0976196
-0.720338
0.622719
-0.0337142
-1.42618
-0.319144
1.74532
0.528046
1.23997
-1.76802
0.0826903
0.00423378
0.26835
0.28201
0.252266
-0.534276
-0.207824
0.25985
0.139656
-0.877325
0.737669
-0.0373268
-0.0323461
-0.0168252
0.0169559
-0.987755
0.444147
0.543608
0.942337
-0.821531
-1.61121
1.47185
-1.46956
1.57754
0.0388734
-0.0873719
0.000724207
-0.00306792
0.0131058
0.79092
-0.651264
0.120728
-0.0714897
0.413935
0.737085
-0.0542656
-1.75108
1.77951
-0.688699
-0.57014
-0.240821
-0.395734
-0.0263297
-0.164924
0.213166
-0.57382
-0.370189
0.182355
0.770023
-0.238792
-0.849911
-0.761296
0.745809
0.0536963
-0.0910231
0.280173
0.0379934
-0.0379934
0.67069
0.1487
-0.81939
-0.225003
0.895692
0.603662
-1.14751
0.543851
0.134973
0.00122306
0.00581843
0.0076578
-0.0134762
-1.76876
-1.08284
0.491996
1.05459
0.397036
-0.0347086
-0.134294
-0.246047
0.75607
-0.199631
-0.0491638
-0.00295459
-0.0774736
-0.0544503
0.106889
0.379244
-0.252392
-0.806008
-0.289782
-0.0986727
0.0241397
0.074533
-1.22908
1.64942
-0.11603
0.0657821
0.0502476
0.0380641
-0.0115931
-0.0126388
-0.0167445
0.0293833
0.0103249
0.415224
0.0182241
0.0143327
-0.0030905
0.00425124
-0.00116074
-0.0163115
-0.170811
-0.728689
0.375475
0.353214
1.27505
-1.95184
0.676787
0.13948
-0.160824
0.0213445
0.0174949
0.068336
-0.0408357
-1.28495
-0.0376959
0.0250571
-0.062015
0.0173838
0.145066
-0.347352
-1.74073
0.774695
0.966035
0.0356855
0.0925402
0.0547519
-0.763273
0.677187
-0.963437
0.0467045
-0.063449
0.0441979
-0.640504
-0.0504812
0.0614813
0.131992
0.208065
0.0370415
-0.458857
0.122052
0.350703
-0.29481
-0.114905
0.0205036
0.221405
0.837894
-1.0593
0.104754
-0.711126
0.606372
-0.933659
0.801592
-1.66222
0.170387
1.49184
-0.0151715
0.0155183
-0.000346771
0.172543
-0.469484
0.209969
-0.122692
-0.0872772
0.0571118
-0.00952822
-0.0843789
-0.0142937
-0.0163409
0.0138839
-0.0373796
0.0203149
0.0808973
-0.101212
1.13171
0.00360191
-0.00365018
4.82638e-05
0.051359
-0.0186677
0.85986
0.0132958
-0.0637548
-0.489673
-0.593166
0.0793738
0.0555989
0.00754733
0.0849929
-1.49184
1.28495
0.0250168
-0.285458
0.260441
-0.255281
0.0826265
0.119507
-0.117323
-0.0014029
0.0902143
-0.0183971
-1.37419
-0.366538
-0.0451764
0.0654912
0.740099
-0.256583
-0.125376
0.145153
0.348583
-0.00213872
-0.0230227
-0.00782838
0.0829069
0.144607
0.21425
0.155942
-0.335079
0.179137
0.106741
0.561458
-0.0369322
-0.109711
0.911558
-0.243546
-0.668013
-1.66222
-0.183731
1.45878
1.51582
-0.220394
0.30295
-0.0825558
0.369833
-0.0779668
-0.291866
-0.292921
-1.22574
-0.0743241
0.0752967
-0.000972622
-0.209534
0.0292136
0.18032
0.375523
-0.991116
0.615593
0.0397941
0.661625
-0.701419
-0.0441512
-0.108891
-0.0314106
-0.0365081
0.29649
-0.195925
-0.0130987
-0.00207282
0.196613
-0.0690603
-0.127553
0.11245
-0.0304892
0.00810389
0.0299603
-0.0534854
0.114057
0.00285776
0.000113129
0.198584
-0.430305
-0.269101
1.50907
0.00158236
-0.00880307
-0.992792
-0.0182595
-0.00241469
-0.0715843
-0.0433205
0.0783504
0.232573
0.64252
-0.674535
0.0320148
0.0888058
-0.00943199
-0.936722
-0.0129434
-0.0190569
-0.648866
0.746485
-0.017604
0.182036
-0.256188
-0.891325
0.185711
-0.440164
0.254453
0.0495352
0.176834
0.0104751
-0.0109664
0.000491324
-0.0514883
-0.0430734
-0.0206522
-0.131734
0.740188
-0.635433
-0.0637567
0.0359144
-0.00357956
0.314771
-0.158828
-0.138908
1.08523
-0.115776
-0.969451
-0.121734
0.140423
-0.50613
-0.222559
-0.553427
0.60186
-0.586555
-0.0153046
-0.06525
0.00149336
-1.75108
0.553411
-0.553411
-1.62272
1.62272
0.79092
-0.620728
0.161885
0.458843
-0.899892
-0.0928996
0.637124
-0.371945
-0.265179
0.159754
-0.238346
-0.0134293
-0.00669094
-0.90455
-0.0846538
-0.932916
0.212577
0.0505346
-0.026395
0.696135
-0.104998
-0.591137
1.28105
0.234766
-0.00149833
0.0119734
-0.961725
0.188293
-0.434268
-0.0821446
-0.612621
0.694766
0.0173117
-0.882172
-0.707599
0.21914
-0.813972
-0.895339
1.32245
-0.427111
-0.139423
0.278486
-0.139063
-0.0300827
0.726218
-0.107899
-0.966089
0.966089
-0.941533
0.844922
0.0966113
0.000713155
0.00288876
0.0129904
-0.441421
0.841162
-0.0410913
-0.0864921
-0.0350388
0.0411191
0.00756494
0.00943122
2.16427
-1.99388
-0.335708
0.412869
-0.64543
1.02598
-0.380545
-0.0623235
0.0246275
0.125187
-0.0563156
0.356361
0.00564559
-0.0182498
0.355381
0.0447857
0.0430864
-0.250029
0.206942
0.139104
0.0341601
0.0983651
0.182566
1.93898
0.229618
0.196955
0.142376
-0.339331
-1.17625
1.45329
0.228382
-0.149573
0.0766443
-0.767077
0.690433
-0.423774
0.124921
-0.472129
-0.0748467
0.132218
-0.0573713
0.128424
-0.203271
-0.453128
-0.109001
-0.0726564
0.0758089
-0.00315254
0.00306275
-0.000204986
-0.0427417
-0.014459
0.651264
-0.606372
-0.0448918
-0.290195
0.302129
0.877688
0.626042
-0.256208
-0.00196335
0.0201988
-0.0861349
-0.256544
0.168223
-0.575047
0.406823
-0.0102015
-0.000764887
-0.303115
0.145014
0.158101
0.00613586
-0.0122047
0.00606887
-0.024603
0.0167119
0.00789106
-0.566891
0.0531245
-0.160908
-1.26527
-0.200862
-0.821531
1.57754
1.47185
-0.191529
-0.172758
0.122066
-0.0639983
0.0697307
-0.00573244
-0.0195237
0.576342
-0.556818
0.560099
0.0770256
0.000420174
-0.0106217
0.122272
-0.637883
0.0350388
-0.0496307
0.00445431
-0.434792
0.348657
-0.0105579
0.0155058
-0.23698
0.622093
1.09368
0.300724
-0.0610621
0.00126871
0.0597934
1.78363
-0.311774
-0.0606367
-0.0541121
-0.984326
0.162794
0.415737
-0.215806
-0.478805
-0.134654
0.613459
0.829258
-0.37152
-0.457738
0.184456
0.458064
-1.77951
0.0107503
0.00367789
-0.0230602
0.0193823
0.132584
1.92835
-0.173043
0.178862
-0.10019
2.22056
-0.643026
-0.676168
0.050102
0.626066
0.388835
0.00286134
-0.351742
0.523976
0.799662
0.332816
0.0761213
-0.0213694
-1.45784
-0.0150259
1.47286
1.18717
0.0180425
-0.021133
-0.0517689
-0.361733
0.109003
-0.316827
0.759872
0.325354
-0.0483625
-0.0168876
0.193152
-0.413546
-0.0239649
0.0161704
0.110732
-0.147774
0.0370421
-0.296988
0.310242
-0.0132534
0.42721
-0.542985
-1.67568
0.825948
0.849734
-0.0244929
-0.0955432
0.120036
0.27537
0.0394005
-0.0569045
0.734092
-0.664711
0.664711
1.81083
1.28105
-0.711126
0.321658
0.478004
-0.352613
0.0596376
0.930756
-0.370657
0.00949949
-0.876347
0.866847
0.128956
0.00646159
0.0257357
0.114798
-0.171702
0.00395958
-0.16773
-0.11851
0.286239
0.148611
-0.508612
0.340882
-1.10822
-0.289703
-0.655211
0.00357613
-0.00365638
6.20295e-06
-0.226076
-0.0219353
0.0964684
0.0332307
-0.148323
0.115092
-0.915071
-0.0264623
-0.00571076
0.068127
0.379123
-0.114289
-0.264834
-0.562783
0.38041
-0.123172
0.202608
0.232116
0.0027935
-0.0196187
-0.790698
0.357296
0.0347778
0.0704945
-0.0824337
0.0788541
0.201968
0.00800117
-0.430915
1.78418
0.469486
0.257174
0.866851
-0.790207
0.797893
-0.449309
-0.619765
0.178344
0.154263
-0.79282
0.768864
0.0239558
0.931386
-0.171513
-0.201648
-0.134061
-0.0290082
-0.0211804
0.951619
-0.838474
-0.113145
-0.185844
0.11152
0.0273095
0.120097
0.876456
0.0230958
-0.894855
0.871759
-0.322972
-0.047217
0.713492
-0.334368
0.187116
1.2853
1.64157
-0.360519
0.167519
0.552049
-0.719568
-0.253702
0.0504495
-0.00351124
0.00630474
-0.515446
-0.104319
0.153475
-0.0734499
-0.189642
0.139999
-0.5284
0.271047
-0.99208
0.142362
-0.290347
-0.534903
1.53513
-0.0700401
-0.289942
-0.109375
-0.325417
0.237011
0.304184
0.0511966
1.25955
-0.884025
-0.192838
0.131061
-0.394932
0.052645
0.342287
-0.00201308
0.00569096
0.0492549
-0.0606602
-0.236328
-0.116716
0.697985
-0.422766
-0.275218
0.297564
0.132631
-0.0956009
-0.03703
0.242762
0.0614223
-0.0937093
-1.67431
-0.0969098
0.141108
0.317739
-0.294643
-0.0253665
0.0474558
-0.0231271
0.0177085
0.00541862
-0.00228693
-0.0250501
-0.245316
0.0772031
-0.0153572
-0.552655
0.413232
0.0218169
0.124566
-0.149059
-0.694506
1.42404
-1.09869
0.0156232
-0.195311
0.179688
-0.141868
-0.535438
0.677306
0.0714188
-0.711923
-0.668045
-1.00764
-0.0142805
0.00213837
0.0121421
-0.247952
-0.60186
-0.161413
-0.137261
-1.45784
-0.233718
0.167462
-0.160753
-1.1596
-0.338331
0.144237
0.194094
0.261682
0.112345
0.4611
0.211274
-0.672374
-0.011654
0.0653502
0.929101
0.112744
-1.04185
-0.219552
0.335454
1.11784
-0.244249
0.182725
-0.302962
0.638415
0.446808
-0.376502
-0.0135122
0.0266181
-0.0142559
0.719585
-0.462411
0.741756
0.0875022
-1.61104
0.236846
0.2433
0.687456
0.909513
0.00204481
-0.0184671
-1.64157
-0.655211
-0.712893
0.722542
0.0421323
-0.849911
0.661625
0.598319
-0.931373
0.733631
-0.00321905
-0.789601
-0.315243
0.638535
-0.769631
0.131096
0.0800201
0.0526108
-0.226203
-0.13967
2.09882
-1.95915
-0.00203382
-0.00162256
-0.266075
0.216911
0.709954
0.220276
-0.205563
-0.180586
1.1426
-1.74331
0.392583
0.0662601
0.307648
0.132239
-0.439887
-1.73733
1.72231
0.0174427
-0.131732
0.103505
1.3332
-1.47286
0.00113807
0.217186
-0.035635
0.0765932
-0.0790079
0.00712844
-0.0399469
0.0328184
-1.02404
-0.0352599
0.313465
-0.804899
-1.20729
1.25542
-0.0481262
0.377119
0.648857
-0.0490092
0.0524422
-0.00343299
-0.339274
1.48187
-0.719529
1.46094
-0.0746175
-1.13267
0.317392
-0.100206
-0.584728
-0.407352
-0.722885
1.03053
-0.0559681
-0.879566
-1.89542
-0.193941
1.3332
0.0504778
-0.855377
0.830502
-0.645411
-0.185091
-0.981777
0.397049
0.0156688
0.114771
0.000147418
-0.114918
-0.971655
0.564303
-0.212698
0.912743
-0.925687
0.193732
-0.210044
-0.0966127
0.241678
-0.132596
0.374567
-0.0483787
-1.36557
0.396124
1.24582
-0.913005
-0.553162
-0.518044
1.07121
0.446838
0.018028
-0.0103702
-0.736679
0.701419
0.711549
-1.05082
-0.90545
0.776634
0.128816
1.45027
-0.194848
0.775468
-0.809416
-0.493218
-0.449927
-0.471476
-0.500179
0.803739
-0.803739
0.686201
-0.686201
-0.736679
-0.735713
0.735713
-0.776634
-0.840216
-1.12604
0.417187
-0.544168
0.544168
0.711549
-1.05082
0.775468
0.766125
-0.766125
0.809416
0.758649
-0.758649
0.506782
0.528524
0.481956
0.16738
-0.499821
-0.550073
1.0786
-0.857955
-1.56019
0.837307
0.220998
-0.203555
-0.282373
-0.0144244
0.0277202
-0.885586
0.092855
0.792731
-0.0611505
0.0348208
-0.995668
0.58813
0.907906
-0.586248
-0.124688
0.0128747
-0.00717421
-0.810879
-0.0777572
-0.543608
-0.00394334
0.0208992
0.94286
-0.0596292
-0.00381989
0.175227
-0.00234832
-0.00728833
0.00963665
-0.811263
0.0675525
0.743711
-0.190022
0.0574267
-0.530136
0.416804
0.113331
0.916141
-0.742833
-0.173308
0.0807793
0.301949
-0.0138395
-0.0588169
-0.0603712
-0.0139529
0.631091
-1.86017
-0.850324
0.0975438
-0.743434
0.795366
-0.051932
0.122023
-0.900067
0.778044
-0.8032
0.904423
-0.101223
-0.0434563
0.0411694
0.0199235
-0.28965
0.521069
0.509464
-0.0943431
-0.791243
0.916346
-0.0917182
-0.824627
-0.0313583
-0.0309651
0.0309756
0.821798
-1.09688
0.463563
-0.386538
0.10163
-0.892872
1.31185
0.310869
-0.791
0.00139902
1.01721
-0.895186
1.17577
0.55744
-0.660031
0.102591
-0.881331
-0.114337
-0.416033
0.0372188
-0.586458
0.618473
-0.784385
0.784385
-0.610565
-0.0852695
-0.863649
0.120816
-0.954547
0.872402
0.0767494
-0.199442
-0.0574044
0.0571755
0.0115889
0.188407
0.828802
0.819153
0.772056
0.138826
-0.910883
-0.847006
0.643451
-0.78289
-0.105615
0.888505
0.168776
-0.888305
-0.675242
0.887285
-0.785655
-0.106533
0.460114
-0.0188791
-0.441235
-0.530417
1.17569
-0.645277
-0.0949431
0.106861
-0.0119178
-0.889423
-0.829582
0.0861487
0.532881
0.265012
-2.08759
0.189167
-0.583469
0.583469
-0.940404
-0.425171
0.229884
-0.401586
-0.381686
1.20763
0.78167
-0.201022
0.247719
-0.194595
0.459235
-0.556036
0.0968013
-0.617852
-1.33399
0.0353203
-0.289566
-0.242701
-0.720735
0.229856
0.305371
-0.224592
0.781177
-0.8824
1.1467
-0.503253
-0.148087
0.736217
0.586954
-0.586954
-0.0523615
0.0407684
0.11216
-0.0789289
0.469604
0.706091
0.167402
0.0037691
0.00817139
-0.0119405
-0.670669
0.693015
-0.0223458
-0.134546
-0.525485
0.108246
-0.893901
-1.08743
1.42594
-0.338504
0.0546578
0.874525
-1.33192
1.19738
-0.755075
0.605345
-0.655826
-0.66316
0.15703
-0.0662498
0.0267064
0.11186
0.336677
-0.402927
0.00348499
-0.0291411
0.0673909
0.727975
0.69115
-0.0858049
0.0733954
0.786464
1.00843
-0.281424
-0.727002
-0.504307
0.51909
0.217496
-0.940969
0.719554
0.221415
-0.685617
-0.128355
0.770304
-0.406912
0.210987
-0.0368518
0.486078
0.513922
-0.770623
-0.111776
-0.67941
-0.870597
0.0876508
-0.435826
0.400624
0.599376
-0.0688691
0.0502014
-0.862342
-0.0633252
-0.592501
-0.157976
-0.243955
0.401931
-0.0171089
-0.00128817
0.114214
0.0730327
-0.128133
-0.117183
0.760187
-0.644784
0.718179
-0.190689
0.527366
-0.817736
-0.0853608
0.903097
-0.746429
-0.189296
0.935725
-0.240476
0.228309
-0.0253211
-0.0715406
-0.0560758
0.0102553
0.718104
-0.134636
0.119821
0.112295
-0.735267
0.064598
0.419052
-0.432068
0.314361
-0.154961
-0.644288
-0.284764
1.02185
-0.00453542
0.146291
-0.246481
-0.0132435
-0.00749519
-0.0404884
0.558502
-0.139451
0.685666
-0.616756
-0.0689098
0.846336
-0.0331334
-0.00322776
0.0363612
0.129838
-0.0131953
9.65563e-05
0.217729
-0.106997
0.601399
-0.983085
0.931212
-0.245546
0.00641335
0.292565
-0.702117
-0.972451
1.26871
-0.296254
-0.778794
0.833789
-0.0549947
0.210477
0.405353
0.0414556
-0.0740647
1.02811
-0.459485
-0.0706509
0.27542
0.450575
0.187165
-0.63774
0.406287
0.0362886
0.656726
-0.572771
0.566508
0.00626295
0.940437
-0.703426
-0.00379526
0.00305639
0.000738871
0.698249
-0.00949215
-0.0825236
0.0192391
1.37735
0.58279
-0.372313
0.035719
0.0839983
-0.179541
0.155173
-0.0815406
-0.0736324
0.0232174
-0.016089
0.456516
-0.343772
0.0848144
0.218817
-0.0257082
-0.0858572
0.227234
0.0953156
0.00274145
0.057376
0.765639
0.13957
0.188023
-0.327593
0.509354
0.158371
-0.667725
0.644493
0.116178
-0.0184291
-0.0355832
0.0540124
-0.354267
-0.118492
-0.437544
-0.00696011
0.752769
0.719962
0.478026
-0.0463746
-0.179829
0.813269
0.0605634
-0.199472
-0.888653
0.0713149
-0.273947
0.267987
-0.173081
0.69428
0.071359
0.0134795
0.639511
-0.234158
0.0103262
0.164693
0.0229417
-0.111299
0.422341
-0.0576495
0.0402589
-0.0701162
0.177242
-0.0480053
0.557359
-0.150987
0.149838
-0.0420523
-0.109922
0.0151567
0.000161714
-0.0153184
-1.20321
0.499788
-0.00729209
0.892102
-0.228439
-0.617942
0.644577
-0.0266351
0.499473
0.758878
0.924839
-0.0217423
0.0792196
-0.175832
0.634694
0.124184
1.09693
0.552494
-0.27111
0.734674
-0.0350054
-0.104445
-0.597365
0.351602
0.245763
0.679293
-0.0707524
0.0414822
0.0657608
-0.0476621
1.16778
0.736811
0.0764575
0.624902
0.215789
-0.873152
-0.0813177
-0.676495
0.677894
-0.0255683
-0.580724
0.422748
0.867907
0.670983
0.112806
0.0992091
-0.153306
-0.318823
0.828647
0.595396
0.089461
-0.000236367
-0.387132
0.282687
0.402043
1.34217
-0.078989
-0.408874
-0.738001
0.928798
-0.190798
-0.414138
-0.183227
-0.00361105
-0.145564
-0.195331
0.767546
0.00313474
0.0011165
0.626643
0.350026
-0.504987
0.607658
-0.132406
0.231665
0.76234
0.247815
-1.01015
0.277349
-0.92276
0.151282
-1.24997
-0.174083
0.764496
-0.590413
-0.67055
-0.0241425
-0.047398
-0.0553116
-1.3898
0.0175887
-0.0407159
0.842022
0.20616
-0.184352
-0.0218077
-0.0481601
-0.57382
-0.0807836
0.227075
-1.26313
-0.00562248
0.00327415
-0.282852
-0.05403
-0.595664
0.0228937
0.568283
0.299624
0.891474
0.853846
-0.239882
-0.387302
0.627184
-0.355149
-0.618648
0.618648
-0.234995
-0.935271
1.17027
0.0304832
-0.152217
0.679814
-0.111531
-0.221901
0.0375063
0.173481
0.081596
1.26692
0.0166296
0.179089
-0.103677
-0.74769
0.483368
0.08314
0.0623388
0.0105917
-1.69451
-0.562706
-0.297877
0.693191
0.306809
-0.562706
0.693191
-0.256562
0.0516081
-0.256562
-0.696363
0.696363
0.303637
-0.014197
-0.0184445
-0.0767867
0.213923
0.0695591
-0.472758
0.638637
-0.0309792
0.654021
-0.505731
-0.148289
-0.0546302
0.0528513
0.00177891
-0.0184914
0.0222605
-0.0948291
0.0187169
-0.0909875
-0.434912
-0.357667
0.131591
0.0416846
0.826231
-0.274182
-0.492522
0.167105
-0.00998663
-0.179548
-0.00574226
0.683328
0.069441
-0.301614
-0.00183809
0.00067735
-0.00754188
0.0852989
0.559186
-0.478235
-0.0809512
1.74506
0.552832
-0.58378
0.91
0.0113481
-0.062972
0.107811
-0.278549
0.0750342
1.13865
-0.376306
0.00969677
-0.00612064
0.332267
-0.315794
0.0215456
-0.0215456
0.0208026
-0.0208026
-0.00214486
0.00214486
0.00158236
0.365704
0.460998
0.0817232
-0.71375
0.474958
0.188228
0.0295004
-0.0833499
-0.483287
0.808746
0.111666
-0.797283
-1.18828
0.296954
0.0268741
0.0198709
-0.00315894
-0.00413487
0.00413487
0.383575
-0.00627324
0.00627324
0.700447
0.0965657
-0.00296692
0.00112883
0.00662571
-0.0676878
-0.0224392
0.0224392
0.00101345
-0.00101345
-0.0223274
0.0223274
-0.00641818
0.00641818
0.0771217
-0.296245
-0.0812889
0.22045
-0.00735215
0.00735215
-0.375959
0.507899
-0.13194
0.497361
-0.218875
-0.212807
-0.279715
0.559095
0.0808929
0.0791587
0.565419
0.565216
-0.0068886
0.0068886
-0.260158
0.02495
-0.02495
-0.00807574
0.00807574
0.762487
-1.06284
0.0341654
-0.317177
0.462191
0.00558253
-0.00558253
-0.000284046
0.000284046
0.0182997
-0.0182997
0.0231307
-0.0231307
-0.0234875
0.0234875
0.035064
-0.035064
0.488444
-0.0317792
0.0317792
-0.00567909
0.00567909
0.0240322
-0.0240322
0.00220738
-0.00220738
0.00678757
-0.00678757
-0.105683
-0.0259226
0.0259226
0.526228
0.0340484
-0.0394119
0.0394119
-0.00158019
0.00158019
0.00541576
-0.00541576
0.0334712
-0.0334712
0.025758
-0.025758
0.00542082
-0.00542082
0.00185419
-0.00185419
0.163619
-0.222652
0.00169332
-0.00169332
-0.00533232
0.00533232
-0.0380733
0.0380733
-0.0280277
0.0280277
-0.000841674
0.000841674
-0.419897
0.663196
0.264675
-0.0319629
0.0319629
-0.0159709
-0.000528916
0.000528916
-0.00496355
0.00496355
0.0373756
-0.0373756
-0.0572779
-0.142194
-0.00215578
0.00215578
-0.0227725
0.0227725
-0.490394
0.0440186
0.144757
-0.0314393
0.0314393
-0.443248
0.033455
0.0189872
-0.50671
-1.10433
-0.0366786
0.0366786
-0.202342
0.144693
-0.0409185
-0.00472039
0.00472039
-0.00240608
0.0499686
0.265161
-0.324602
-0.275267
0.599869
0.189075
0.00229052
-0.00229052
-0.0469539
-0.0758232
0.122777
0.766783
-0.389541
-0.377241
-0.466052
-0.661543
-0.191906
0.359011
-0.405666
-0.0986405
-0.57484
-0.0111921
0.191736
-0.804083
0.0163483
-0.0163483
-0.0035299
0.0035299
0.0307884
-0.0307884
0.0262301
-0.0262301
-0.000190592
0.000190592
-0.00276501
0.00276501
-0.00525635
-0.168946
0.171675
-0.296363
-0.000100217
0.000100217
-0.044947
0.044947
-0.0402786
0.0402786
0.0329664
0.146443
-0.17941
0.00515661
0.311228
-0.539667
0.00048931
-0.00048931
-0.0131545
0.0131545
-0.0977411
0.136753
-0.328659
-0.00325634
0.00325634
0.0609921
0.0158054
0.973525
-0.485246
-0.0840453
0.569291
-0.626524
-0.0754062
-0.511052
-0.0386154
0.0386154
-0.678358
0.276161
0.0495361
-0.0495361
-0.653847
0.388668
0.261649
0.118313
-0.000515703
0.000515703
-0.842767
-0.000521904
0.000521904
0.317642
0.408576
0.0354491
-0.0535202
0.0535202
-0.00328927
0.00328927
-0.0423222
0.0423222
-0.0537411
0.0537411
-0.000570168
0.000570168
-0.0593771
0.0593771
-0.0007058
0.0007058
-0.0456444
0.0456444
-0.00597717
-0.0451801
0.0451801
0.00476972
-0.00476972
0.0481734
-0.0481734
-0.00115829
0.00115829
0.0475995
-0.0475995
-0.31098
-0.0027342
0.0027342
-0.00443034
0.00443034
-0.0526543
0.0829069
-0.0104992
0.0104992
0.00465256
-0.00465256
-0.0593195
0.0593195
0.297378
-0.0183903
0.0183903
-0.0571987
0.0571987
-0.00732339
0.00732339
-0.0671608
0.0671608
-0.0133288
0.0133288
-0.0803066
0.0803066
-0.0217871
0.0217871
-0.0942408
0.0942408
-0.693294
0.102466
-0.533993
0.507358
-0.882172
-0.075992
-0.561798
0.388717
0.21309
0.0844736
0.00349683
-0.00349683
0.222587
-0.714143
0.0446047
-0.034013
-1.1749
1.40966
0.521396
0.253407
-0.00458369
-0.0209579
-0.391877
-0.582987
-0.0745049
0.393361
-1.21217
-0.0213742
0.0213742
-0.746494
0.0194874
-0.0194874
0.00154063
-0.00154063
0.314777
-0.291743
-0.00265267
0.00265267
0.0191323
0.0145036
0.598423
-0.203021
-0.0217191
-0.0107011
-0.00776605
-0.0997453
0.497956
-0.398211
0.0442153
-0.00889497
0.00734339
0.930202
0.0126296
0.0508061
-0.407985
0.445204
-0.49203
-0.97968
-0.236073
-0.0725439
0.0180936
0.00673905
0.100122
-0.000354195
-0.00502597
0.00671078
0.789403
-0.549214
-0.0396602
0.0626019
-0.0370415
0.0180013
-0.0364458
0.42202
0.240864
-0.167491
0.212504
0.0136296
-0.0033052
-0.785103
8.94645e-05
-0.177102
-0.00725021
-0.0190062
-1.20234
-0.0712816
0.265447
-0.351205
0.39599
0.281965
-0.816868
0.0465046
0.0588456
-0.0898107
-0.349753
0.463084
-0.0579851
0.0519572
0.00602786
-0.0271847
0.0271847
0.179571
-0.43578
-0.140805
0.0474754
-0.0811949
0.0556266
-0.0636371
-0.00573025
0.0693674
-0.0419781
-0.15362
0.116965
0.0715206
-0.289154
-0.35333
0.642484
0.0154214
0.0598753
0.151593
-0.0317728
-0.158498
0.0691924
-0.158363
0.312626
0.00781274
0.0285484
-0.0244204
0.176014
0.00310154
0.261519
-0.00123631
0.00123631
-0.73418
1.13622
0.0913215
-0.172639
-0.0314945
0.0488062
1.24953
-0.0521527
0.0412784
-0.0177168
-0.53343
-0.00056238
0.0977024
0.0939992
-0.686046
0.315389
-0.0572854
0.376652
-0.665806
0.209634
0.50992
-0.0895712
0.0895712
0.000147418
-0.959964
-0.211335
1.1713
-0.213882
0.15857
-0.208514
0.0690841
-0.612069
-0.0488552
-0.00273588
0.00346008
0.930007
0.262294
-0.149488
-0.0691891
-1.10976
-0.0229147
-0.0477002
-0.26873
0.792706
0.575231
-0.264003
-0.28403
0.576596
0.074455
0.228495
-0.268619
0.0537487
-0.463846
0.331906
0.123741
-0.123741
-0.000860502
-0.0821651
0.0830256
-0.0025525
0.00883115
0.0177085
0.00515601
-0.359423
0.225843
-0.187033
-0.0388108
0.540678
-1.08391
0.303343
-0.896509
0.692985
-0.117737
-0.178626
-0.0369794
-0.0797361
-0.488524
0.0536122
-0.289171
-0.000144934
-0.0190062
0.382121
-0.00512001
0.0032709
-0.000933963
0.0139009
-0.0100465
-0.00385436
-0.102572
-0.0170864
-0.167607
0.184693
-0.122777
-0.341069
0.0191323
0.346732
0.00161594
-0.377155
0.086808
0.00262257
0.176209
-0.0944856
-0.0124547
0.0124547
-0.00122687
0.000729404
-0.00934795
-0.00072359
0.0204627
0.000691471
-0.00116014
0.0986486
0.133924
-0.00270649
0.00270649
0.0462068
0.510924
0.000679866
-0.291003
0.498094
1.14931
-0.47253
0.33125
-0.438418
-0.124636
-0.0161698
0.225435
-0.227659
0.0281239
0.0131369
-0.00288164
-0.00901384
-0.181387
-0.379654
0.854612
0.345576
-0.350832
0.0454852
-0.00159281
0.0645545
-0.00989663
0.00081296
0.00141385
0.0117231
0.218703
0.00133856
-0.000358147
0.72396
-0.654767
-0.245564
0.182476
0.570157
0.000368769
-0.000301595
-0.0409185
-0.00568135
0.817559
-0.430907
0.514047
-1.16847
0.906185
-0.384218
0.576335
-0.187619
0.700961
8.31482e-05
0.00339684
0.016474
-0.121003
0.1398
0.027501
0.00882288
-0.000626328
0.0657736
-0.0518079
-0.0139657
-0.000134742
-0.0310894
0.0695268
-0.0384374
-0.0906376
0.00875417
-0.000582774
0.00206322
0.477175
-0.43147
0.00773879
-0.000352364
1.05576
-1.2671
0.385243
-0.00589018
0.00119048
0.153964
-0.0691494
-0.0431219
-0.111342
-0.0159556
-0.00359998
0.123557
0.0127699
-0.0020582
0.408844
-0.000313559
-0.00400697
0.00400697
0.000409856
-0.0111109
-0.000290811
-0.32378
-0.00369719
0.0725551
-0.107377
0.287606
0.173007
-0.0654583
-0.000389091
0.00169614
0.461096
-0.000325111
0.000123044
-0.0037341
-0.00204362
-0.00039464
0.0953434
0.0720583
-0.710183
0.469522
-0.849177
0.236875
-3.29337e-05
-0.449021
0.132968
0.0968873
0.585882
-0.0151257
-0.0983348
-0.00398411
-0.0013627
-0.554174
-0.00332221
-0.000135632
-0.0071362
0.94358
-0.537292
-0.00252894
-0.000452486
-0.00579927
-0.00157592
0.0679077
-0.0223169
0.0223169
-0.00180878
0.00253818
-0.00267083
-0.00784137
0.0218283
-0.0185574
-0.166189
0.0954361
-0.00600542
-0.0131458
0.0411625
-0.0169173
0.0625141
-0.0444205
-0.623679