/*--------------------------------*- C++ -*----------------------------------*\
| =========                 |                                                 |
| \\      /  F ield         | OpenFOAM: The Open Source CFD Toolbox           |
|  \\    /   O peration     | Version:  2306                                  |
|   \\  /    A nd           | Website:  www.openfoam.com                      |
|    \\/     M anipulation  |                                                 |
\*---------------------------------------------------------------------------*/
FoamFile
{
    version     2.0;
    format      ascii;
    arch        "LSB;label=32;scalar=64";
    class       volScalarField;
    location    "12";
    object      p;
}
// * * * * * * * * * * * * * * * * * * * * * * * * * * * * * * * * * * * * * //

dimensions      [0 2 -2 0 0 0 0];

internalField   nonuniform List<scalar> 
2186
(
0.67973
-0.438694
-0.136895
0.977793
-1.03561
-0.0105325
0.58099
-1.12939
-1.12599
1.226
0.939367
-1.02816
-1.15457
0.915684
-0.66264
0.919261
0.943785
-1.57285
-0.00210343
-0.975688
1.31318
-0.941071
0.926219
-1.114
0.91447
0.952539
1.13945
0.806288
0.470182
0.917979
-0.959971
0.914814
-0.903574
-1.00243
-1.03438
-0.0184184
-0.865139
1.30103
-1.02069
-0.0123974
-1.1775
-0.932541
-0.774053
-1.03069
0.792245
1.20815
0.252319
0.419936
-1.28609
-1.27575
-0.965751
0.781148
-0.768258
1.23194
-0.889058
0.856
-0.824011
0.883535
-1.16465
0.714908
-0.657843
0.514789
0.429016
-0.0165169
0.447798
0.360716
0.548071
1.20358
1.09948
-1.16531
-1.13601
-0.734718
1.17435
0.907625
1.08597
1.06479
-0.990384
0.938069
-1.03989
-0.936936
-2.01225
-0.0275819
0.908767
0.498411
0.904732
0.9097
1.20768
-0.00346675
-0.171357
-1.04478
0.857813
-0.979649
0.833911
1.07629
0.924087
0.294709
-0.260187
0.467729
-1.18838
0.897472
-2.36025
-2.30578
0.532298
0.84288
0.944953
-1.02485
1.11798
-0.865927
0.840683
-1.45602
-0.873179
-1.16644
0.446535
1.22779
-1.0682
-1.04507
-0.102601
-1.24374
-1.047
1.17666
-0.153834
-1.49827
0.74023
-1.83705
0.924512
-0.106594
-1.1209
1.0554
-1.63434
0.561883
1.30033
1.15069
0.142022
0.553682
-2.08203
-1.32293
0.826987
-1.1323
-0.830138
-1.0683
0.68234
-0.305242
-1.10296
0.605548
0.823434
0.856512
-0.79551
-1.06489
0.510471
-1.0141
-1.03564
0.482869
0.941238
1.09479
0.953677
0.430381
1.2023
0.310184
0.207026
0.32473
-1.06947
-1.59111
0.893784
0.897061
-0.000515252
0.00547194
-0.960091
-1.0003
-0.23059
-0.30624
0.234402
0.903005
0.944788
1.02067
0.301476
-0.521668
-1.01948
0.894618
-1.90819
0.747615
-0.993017
0.930931
-0.963656
0.424588
0.406472
-1.06746
-0.83569
1.03625
-0.772143
-1.15978
-1.26244
1.17224
-1.83247
0.88665
-1.0645
-1.24678
-0.0460617
1.09204
0.969452
-0.955029
-1.29771
-0.632168
-0.0150603
0.946859
-1.0423
-1.01223
-1.0442
-0.964216
0.86017
-1.17637
0.420565
-0.175891
1.2151
0.711878
0.810949
0.859035
1.08962
0.917317
0.805477
1.00474
0.281772
-0.949866
-0.942838
-0.030662
0.0919836
-1.58497
-1.09335
0.937135
1.04838
-1.00818
-0.973975
-1.626
0.2746
0.556267
0.688765
0.80678
1.0321
-2.01901
0.793705
-1.08087
-1.2698
-1.02981
0.896197
0.611164
1.05661
1.09525
1.01489
0.991884
-1.11416
0.73358
1.02485
-1.16418
0.882214
0.659768
-1.91618
-1.04642
-0.99216
1.0579
0.942634
-1.19382
-1.28491
-0.326315
0.864854
-1.99301
0.636539
0.973094
0.767654
-1.08617
-0.963237
0.891791
0.516342
-0.779945
-0.769687
1.25742
-1.01809
-1.11465
0.751515
1.09879
0.905908
-1.15141
-1.04815
-0.98191
0.814234
-1.19461
0.451509
0.888897
0.933065
-0.300556
-0.638242
0.878536
-1.16953
0.83837
1.10943
0.936174
0.934823
-0.313001
-1.2621
-1.11209
-0.792009
-1.40574
-1.74143
0.284161
-0.658852
0.487338
1.08498
1.11438
0.815797
-0.836565
1.05751
-1.36775
-0.13487
-1.42868
-1.06853
-1.19626
0.25415
-1.04053
-0.99133
0.0367408
0.82998
-0.341963
0.256954
-1.14716
-0.270732
-1.16452
-1.128
1.13593
-0.145495
-0.14815
-0.959707
0.698033
0.436957
-0.648957
0.430822
-0.47054
-1.25527
0.541406
0.942529
0.976817
-0.868818
1.06841
0.799265
0.252373
1.16141
0.915508
0.848718
0.274545
-0.270225
-1.07569
0.762789
-1.05829
-1.01404
-1.448
-0.897571
-1.0501
1.27847
-0.298614
-0.963845
-1.17414
0.916047
-0.967416
-1.69343
-1.25664
0.669244
-0.281003
-1.7515
1.17088
1.23177
1.04101
-1.11208
-0.162922
1.29313
0.918623
-1.33179
0.327257
-1.09014
0.0773744
1.09258
0.885853
0.788199
1.22021
-0.622198
-0.304223
-0.369118
-0.749226
-1.66537
-0.928261
-0.0547966
1.22139
-1.71135
-1.39777
0.906908
0.491072
-1.05434
-2.16935
-1.08133
-1.46479
-1.58008
-1.05895
-1.02129
-1.00325
1.10838
-0.230774
-0.982546
0.931912
-1.54616
1.18001
-1.831
-1.80884
-1.28637
0.914537
-1.00114
0.941456
0.758231
-0.444304
0.957875
-1.56482
-1.05667
-1.31862
0.925474
0.852347
-1.10234
-1.09558
-1.45849
0.88436
-1.76726
-1.74413
0.388883
0.854283
0.789732
0.611477
-1.13149
-1.05535
0.734155
-0.965533
0.71595
-1.55133
0.937439
-0.169492
1.04674
-1.04834
0.763335
0.599544
0.948641
-1.32578
0.91261
-0.608362
-1.05451
0.920031
-1.26464
-0.0106065
-0.962668
-0.337908
0.922067
-0.0102898
0.192093
0.921224
0.115297
-0.263863
-0.0158305
-0.964523
0.13899
-1.24025
0.591031
-0.898764
0.975288
1.04965
-1.13993
-1.06461
-0.336472
-0.946894
0.295963
-1.18753
0.725645
-0.161506
-1.1435
1.01134
-0.30392
0.249251
0.202852
-0.268707
0.686841
0.220676
-0.629791
-1.23035
-0.129143
-0.834759
0.933301
-1.51725
1.02538
1.14548
1.13188
0.537183
1.07528
-1.0103
-0.863798
0.805211
0.122801
0.908084
-0.921844
-1.13723
-1.9965
0.702735
-1.05759
-1.76662
-0.96917
-1.01236
0.00317042
-1.14734
0.625143
0.605074
-0.889635
-0.929765
0.660431
-0.0192021
1.04388
-1.59211
-0.311044
-1.05954
0.648948
-0.189816
1.0894
1.30796
-1.99095
-1.05076
-0.940768
0.144454
-2.20656
0.952513
-0.950246
0.907906
0.656456
-1.05301
0.773145
0.737457
-1.83436
0.78825
-0.928321
-0.968571
-1.22286
-1.0118
-0.986287
-1.85098
-1.00518
0.919873
0.0887115
-1.10602
0.499317
1.06684
1.13169
-0.452586
0.667307
-0.121897
0.6879
-0.328387
-1.46411
-0.985979
0.378041
0.708128
0.969318
-1.63963
-1.15406
-1.58745
-1.05572
-0.208627
0.641017
-1.93237
0.00231845
-1.53708
0.84287
-0.72636
0.868383
-0.487601
-0.505254
0.861995
0.569134
-1.95852
-0.306552
0.879345
1.21283
0.938956
-0.679685
-1.66411
0.709672
-0.407437
0.695116
-0.816101
0.324861
0.877504
-1.15518
-0.963622
0.927032
-1.37165
1.15433
-0.0357704
0.789368
0.0573948
0.528762
-0.864566
1.15441
-0.965482
-2.00867
0.861775
0.403411
0.378377
-1.43976
-0.963153
-0.975858
0.682887
-0.236316
-1.05932
-0.891495
0.935427
0.26715
-1.53399
0.639234
0.792315
0.899824
-1.76815
-0.882843
-0.983718
0.932492
1.08633
0.399955
0.929393
0.148389
0.972019
0.104829
-0.966006
-0.396492
0.833684
0.884961
-1.91878
0.746441
-0.973085
0.704672
-1.15038
0.904361
0.866127
0.93354
-1.61623
0.825618
-1.98955
-1.0063
1.08621
-1.99171
-1.30193
1.02929
-1.36244
1.01451
-2.03818
-0.981497
0.949608
0.692207
1.28125
0.918198
-1.96877
1.00003
0.997696
-0.469006
0.523828
0.0933022
-0.949481
1.4137
-1.08076
1.04647
-1.0482
0.206587
0.918715
-1.56877
0.905648
-1.44123
0.825128
0.862556
0.932547
0.0012651
-1.09949
-0.702304
0.486835
0.572426
0.984217
-0.306223
0.724848
-1.77462
-0.580569
-1.84203
0.74503
1.06415
-1.31626
-1.18084
-0.0589789
1.15553
-0.0822535
0.627703
-0.0252717
-2.46703
-1.10844
-0.960063
-0.761707
0.708772
-1.353
-0.209418
-0.442279
-0.666686
-0.988279
-1.42607
-0.309038
0.886404
0.937143
-1.47456
-0.551207
0.901987
0.847921
0.935963
-2.15074
0.89835
0.973995
0.912883
0.976224
-0.932839
-0.29273
-0.965596
0.508
0.918851
0.618632
0.062219
-0.143755
-1.698
0.00191693
1.18037
-0.356338
0.0588461
-0.787711
-0.31731
-1.13153
0.68289
-1.00266
-1.57983
-1.05342
0.918554
0.919585
0.929394
-0.00537762
0.211089
1.15709
-0.104029
0.913738
-0.21754
-0.0115634
0.657587
0.934966
1.00084
-0.0219001
0.894026
0.891816
-1.28915
-0.253696
0.92753
0.939741
0.938028
-1.06309
-1.09367
0.938637
0.520172
0.919099
0.0901382
-0.249656
0.0321709
-1.54154
-0.359199
-1.05576
-1.55932
-0.0672201
0.942143
0.948406
0.660996
-1.06184
0.91783
-0.117416
-0.0959392
-0.00172633
0.917607
0.942421
0.939883
0.951377
0.927476
0.922167
0.91259
-0.281439
-0.13927
-0.0186651
-0.039647
-0.00307954
0.00116953
-0.000741985
-0.017715
-0.0713833
-0.152726
-0.328227
0.910767
0.93156
0.926088
0.94846
0.945993
0.938885
0.941427
0.920219
0.925484
-0.0485768
-0.060017
0.939004
0.937718
-0.00240902
0.941886
0.93899
-0.0510377
0.0291762
-0.191563
-0.948362
-1.09042
0.921653
-1.24668
0.917839
0.545414
0.994964
-1.07595
0.919557
0.859495
0.8646
-0.961502
0.0180331
-1.31918
-0.220489
-0.166528
-0.957131
0.934467
0.0159821
1.01053
0.926641
-0.299255
1.09253
1.24376
-0.130561
0.787395
0.577312
0.917641
0.935248
0.928367
-1.0741
0.372128
-0.0121454
0.924613
0.934367
-1.28243
0.0207151
0.926145
-0.0230127
-0.468038
0.924749
-1.00887
0.906458
0.937256
-1.09728
0.93171
0.0334977
0.92221
0.998668
-1.7509
0.937101
0.943555
0.00339168
0.589093
0.923374
0.928766
0.021281
-0.872636
0.631227
1.27444
0.933
0.924714
0.929771
0.0223035
0.924176
0.910199
0.930677
0.925243
0.927689
0.923637
1.02996
-0.487886
-2.11729
0.926171
0.919906
0.167099
-0.959846
-0.429076
-0.495345
0.792948
-1.55103
-0.424435
0.00426021
0.92223
0.640318
0.0074955
0.000443064
-0.0847482
-0.433915
-1.15355
0.0113661
-0.257389
-1.80931
-0.457728
0.929542
0.0115146
0.915289
0.840137
-1.05802
1.16674
-0.362378
-1.46576
0.665807
1.05185
0.346247
-1.05034
0.92048
0.0117893
0.928592
-1.29618
0.927587
-1.49004
0.919876
-0.0308129
-0.491658
0.930066
0.945682
0.865029
0.046826
-1.04407
-0.966774
0.111605
0.942403
0.824934
0.0557989
0.920126
0.964335
0.912018
0.257958
-2.00972
-0.759176
-1.98268
0.231479
0.927714
-0.0115087
0.923856
-2.25171
0.920886
0.959597
0.931681
-0.00175124
-0.00199392
0.958461
-1.23009
0.933283
0.93831
-0.0804959
-1.12636
0.856942
1.06097
0.91734
0.914923
0.168214
0.405491
0.89008
0.325408
0.932561
0.76122
-1.03117
-1.10626
0.769239
1.1689
0.921494
0.25461
-0.340708
0.143339
-1.43811
-0.181562
0.904872
-1.04252
0.906423
-1.69282
-1.06846
-1.03019
0.348328
-1.21222
-0.213825
0.410489
0.918382
-1.05129
0.827897
-1.08434
-0.261884
0.197981
0.00923443
0.149844
0.894312
0.134033
-0.882622
0.29182
-1.35337
0.90878
0.13252
0.00673753
-2.30481
1.00611
-0.262126
-1.07953
0.990069
0.905541
0.896615
0.389403
-0.996939
0.927634
0.952932
-1.0236
-0.999966
0.91706
0.712058
1.17606
0.937379
-0.734587
-0.169758
-1.06232
-1.60009
-1.20636
-1.05689
0.0024673
-1.27808
0.716334
-0.109844
0.92956
1.13456
0.917867
-1.04906
-1.29406
0.920546
-0.525635
0.141206
0.900157
-0.405806
-0.886292
-2.15964
0.0319189
0.871476
0.844684
-0.842493
0.753888
0.590756
-0.889001
0.905328
-1.82661
0.733634
-0.929489
0.903838
-0.927623
0.332429
0.921224
1.01687
-2.19346
-1.91547
0.753941
1.2951
0.940696
0.940884
-0.381372
1.16797
-0.946036
0.189887
-0.912791
0.385093
-2.00361
1.03355
1.08054
-1.09063
-1.04364
0.917913
-1.07806
0.766951
0.950779
0.888289
-2.08162
0.920775
-0.00655302
0.949164
-0.00707313
0.216591
-0.246597
0.924873
-0.0979274
-0.592782
-0.0628545
0.922713
0.253731
1.11542
0.175403
1.2483
0.909426
-1.19592
0.900975
-0.980796
0.896824
0.896876
0.107468
-0.0187138
1.05036
0.910492
1.14942
0.877945
-0.00413374
0.880234
0.908878
0.787531
0.928999
-1.08956
-1.20977
-0.641618
1.02211
-1.24464
0.147516
-0.970519
-1.27476
0.0100802
-0.064687
0.789238
0.122672
0.87559
0.930806
-1.01083
-1.33062
-1.21299
-1.416
-1.34042
-0.978745
0.926409
-1.5388
0.938484
1.15735
0.979223
-0.316962
0.94349
0.856336
-1.35405
0.881715
0.904926
-1.04978
0.905309
0.8666
-0.0482912
-1.24116
1.38317
-1.33399
-1.55567
-1.27392
0.150184
0.898999
-1.55305
-0.482814
-0.95543
1.06137
0.0408646
0.778059
0.937205
0.904132
-1.28954
0.889798
-1.99494
0.934484
0.948297
-0.544343
0.938618
0.420155
0.908634
0.622852
-2.3948
0.00297294
0.00265325
0.0235431
1.16541
-0.0502475
0.952681
1.31789
-0.480279
-0.00686156
0.986165
-0.00751912
0.984056
-0.00736471
-0.00947101
0.985098
0.989559
0.340273
-1.70299
0.686918
-0.864689
-1.16893
-0.792188
0.944901
0.918906
1.35003
-1.05164
-0.244376
0.659253
-1.34397
1.00068
0.917078
0.912372
0.914224
0.87841
-2.01641
-1.05973
-1.61028
0.737351
0.847843
-2.05786
-0.984844
-1.08886
0.936955
0.955675
-1.01929
-1.95943
0.959071
-0.680058
0.118866
0.698804
0.850014
-0.351404
-1.36539
-0.347093
-1.11764
-0.87605
-1.97795
-0.996597
1.30065
1.2895
-0.883653
-1.02097
0.935907
0.913749
-1.21821
-0.154099
-0.446674
0.577939
1.02095
-1.56148
0.931224
-0.622742
-1.33425
-1.26253
-1.47906
-1.05095
0.902753
-1.07914
-1.64705
1.28743
-1.10849
0.929806
1.15553
-0.987486
0.967512
1.17751
-1.00118
1.17239
-1.12858
-1.35887
0.949302
0.115449
0.936863
0.931315
-1.13372
0.981879
0.0580801
-1.83171
0.965708
0.955211
-0.98948
-1.71947
0.871823
0.921494
-1.11388
-2.31763
1.21154
-1.13094
0.837334
-0.0600812
0.86409
-1.02546
-1.71316
-1.08979
-0.976076
1.02369
0.955683
1.21603
1.13675
0.908788
0.985093
0.995414
-1.08289
1.06443
1.06829
-1.0153
-1.12843
-1.12969
1.25142
-1.11251
-1.31348
0.0869347
0.868394
-1.02336
-0.816457
0.952235
0.944318
-1.09752
-0.998489
-1.26539
0.0123982
-2.30281
-1.01278
-1.07624
0.821215
0.816624
-0.982581
-0.547752
-0.956623
0.77194
-1.13059
-0.939907
-1.07081
0.868731
-1.96919
-1.00484
1.25708
0.812442
0.307284
1.12203
0.247003
0.904435
0.936797
1.04591
1.13519
-0.219377
0.612652
0.939951
0.183118
-1.06547
1.35027
0.882561
0.830534
0.9867
-1.0123
-2.10416
0.774698
0.731794
0.886216
-2.11768
-1.9065
0.910226
-1.06463
0.744081
-0.0541784
1.34011
-1.06133
0.667266
0.661336
-0.970768
-1.05736
-1.78207
0.984476
-0.974317
-1.05453
0.622916
0.549448
-1.58112
0.993911
0.757394
-0.97759
-0.704541
0.882104
-2.161
-1.05379
-1.23295
-0.960506
-1.00819
0.908088
0.934273
-1.60096
0.541651
0.929582
1.27004
0.193291
0.221976
-0.04896
0.80757
-0.536258
-0.96798
-0.98171
-0.693429
-0.965361
0.919194
-0.969506
0.11216
-1.05078
0.481356
0.491879
-0.961335
0.55885
-1.84697
0.418716
-0.957745
0.406345
-0.969082
0.312263
-1.04604
0.322458
-0.953731
0.742745
-2.02087
-0.954172
-0.960791
-1.04877
0.939643
0.00871271
-0.991879
-1.05311
-0.0206516
0.0299607
-0.962388
-1.05795
-1.03713
-0.199875
-1.0694
-0.183394
-1.10193
-0.388701
-1.11591
-0.371227
0.818387
-0.0836568
-2.09792
0.907872
-0.192489
-0.158329
0.366252
0.892107
-2.10352
-1.80491
-1.0474
-1.81036
0.813909
1.3435
-0.688741
-0.153984
-0.0629767
-1.09387
-0.504712
-0.450629
0.899751
-0.927567
0.878011
-1.68586
1.40819
0.373522
1.35003
-0.993002
1.11684
-0.63435
0.936556
-1.07539
-1.04401
1.0009
0.917187
-2.43643
-1.05186
-0.962807
0.900933
-1.17788
0.909604
-1.43398
-1.17438
-1.09125
1.23243
0.966826
1.03727
0.943885
0.939563
-0.0710869
-0.672257
1.13619
-2.19794
-1.01796
1.34051
-1.00834
0.840405
0.876092
1.29769
1.35503
-1.06051
-1.7279
0.961613
0.142432
-0.54185
-0.909118
-0.676475
-1.67681
-0.993173
0.474378
-1.67141
1.12802
-1.16712
0.975969
1.0622
0.966827
-1.83901
-1.02502
-1.30176
1.01274
-1.10841
1.10492
-0.809227
-1.26037
1.16814
1.23299
-1.04374
0.0201071
0.866114
-1.56032
-1.31989
0.57724
1.20256
1.1477
-1.34091
0.808507
0.775439
-1.04669
1.16002
0.215334
-0.986508
-0.576717
-0.0690088
-0.082718
1.04647
-0.949099
0.193144
-0.0308753
0.0558036
-0.797512
-1.03855
0.917198
-2.29385
0.951052
-0.176011
0.00218261
0.607431
0.170449
-1.03669
-0.70176
-1.26633
-0.312587
-0.00544961
-1.63221
0.864912
-2.14657
-1.9525
0.940219
-1.42293
-1.02608
0.937277
-1.0859
0.901207
-0.0255393
-1.07353
-0.426638
0.706755
-0.884294
-1.84016
0.808339
-1.13682
0.997663
-0.665039
-1.22416
-1.05499
-1.04768
1.41625
-2.1211
1.04886
-0.00685892
0.883136
1.11468
0.637028
0.950109
1.08995
-0.269081
-1.74995
0.891992
1.01732
1.28624
-1.09596
0.975492
0.600952
-1.12264
0.707397
1.13539
-0.671001
1.27065
0.0657748
-0.849496
0.755293
-1.13242
-0.958081
0.860366
-0.561081
0.982126
0.979805
0.888811
-0.914172
0.834965
1.19152
-1.3291
-0.427617
-2.16975
-1.29577
-1.20711
-1.05407
1.28038
0.669336
-0.992086
0.832493
-1.13449
-1.03567
1.19787
1.15545
-2.28644
-1.7609
-1.04747
-1.11126
0.897802
-1.00911
-0.0141597
-0.943386
-0.56826
0.989463
-1.12439
1.31515
0.973366
0.798761
0.951252
1.2313
-1.35686
-1.13466
0.939558
1.0678
-0.748653
0.930959
-1.93515
-1.08827
-1.10094
1.01448
1.04383
-1.09597
-1.05482
0.462453
-0.16871
-1.65177
0.909336
0.890907
-1.72845
0.931384
0.974488
-1.50973
-1.0188
-0.959516
-1.08136
-1.1008
1.2385
-0.129452
0.84387
-1.02625
1.23645
0.806562
0.794541
0.874339
-1.92521
-0.846075
-1.07517
0.452223
-1.00447
0.840803
0.210671
-0.740907
0.792829
0.926837
0.963749
0.934712
-0.00453573
0.96361
-0.00426932
0.32629
0.729669
-0.677218
-1.01705
-1.05703
-0.793935
0.935876
0.88953
0.935175
-1.93604
-0.89422
-1.06965
-0.890741
0.931204
1.21497
0.945729
-1.01128
-0.905805
-1.49626
-0.645736
-1.04961
-1.04796
-0.305132
0.921092
-0.77425
-0.981304
-0.0109843
-0.184147
0.644389
-1.49062
-1.06451
-1.26298
0.866678
1.3552
0.00316474
1.02699
1.4109
0.582661
1.13377
-1.03957
-0.0719535
1.3252
-1.05964
0.221674
-0.997788
-1.10857
-0.956526
-0.973216
0.90148
0.651221
1.12114
1.0831
-1.82741e-05
0.698355
-0.0518179
-0.00391148
-1.05524
1.03555
0.646196
0.939912
0.956834
-0.0123207
-0.0125069
0.95446
-1.11846
-1.05206
-0.977278
-0.965818
0.500847
-0.969829
0.882403
0.587334
-1.05921
1.15698
-1.00854
-0.428057
0.905142
-0.875595
-1.10548
-2.09782
0.517569
-0.986365
-1.5167
0.83948
0.948703
-0.10798
-0.0556254
-2.23862
-1.05156
-0.00885071
-1.8807
-0.294772
0.519265
-1.35899
-0.967022
1.19124
0.17226
0.275211
-0.96378
-1.11712
0.925693
0.967157
0.445789
0.453642
-0.959679
-1.07342
-0.848422
0.367796
0.361521
-0.955571
0.767519
0.0535513
-0.950402
1.36792
-0.95344
-1.8555
-1.10158
-0.910387
0.762913
-0.971201
-0.992191
-1.05866
-0.0794884
-1.01128
-0.0923932
-0.881666
-0.0850989
1.10511
-1.06979
-0.263248
-1.08617
-0.272829
1.26642
1.32227
1.15774
0.930489
1.13455
-0.805829
0.91686
-1.00792
0.964184
-1.04867
-1.02346
1.1883
-1.20454
0.388024
-2.03472
1.32459
-0.160757
1.26038
0.5158
0.697044
-0.991094
-0.994194
-1.04465
-1.38818
1.23513
1.12166
0.915336
0.540402
0.920563
0.787556
0.733028
-0.958005
-1.10478
0.146693
0.0136542
0.70712
0.934703
-0.118579
-0.99295
-0.952496
-1.64973
-1.0448
-1.49334
1.2701
0.95272
0.929091
-0.00474433
-0.0085891
0.951359
-0.7235
-1.0529
-2.12528
-1.11725
0.695932
-0.976337
-0.960508
-0.405744
0.930375
-2.01324
-1.09951
0.920477
0.527395
0.631826
0.919023
-1.04881
0.78678
1.10922
0.757906
-1.04524
0.912909
0.271855
0.367155
-1.15026
-0.970607
1.36804
0.156017
-1.44976
-0.0727846
0.824501
0.891572
-1.05747
-1.70739
-0.0415053
-1.08359
-0.98842
-1.00174
-0.0441364
0.913617
-1.30669
0.913633
1.1996
1.0133
0.913886
1.00872
1.07028
0.921932
-1.68906
-0.752829
-0.519648
-1.1282
-0.989263
-0.959599
1.07268
0.972751
-1.128
0.883935
-0.81678
0.287381
-0.95622
-0.370454
0.444516
-1.4216
0.911151
0.821979
-1.70567
-0.491953
1.25993
-1.88307
-0.215321
-1.21322
-1.01199
-0.93206
0.965823
0.685452
1.01576
-1.45075
-0.626299
-1.02701
-0.473137
-1.13085
-1.4021
-1.53419
-2.21488
0.827787
-0.834548
1.38052
-1.20404
-0.674275
-1.0857
-0.959526
0.847586
-1.10664
-1.39494
-1.0315
-0.46207
1.11702
1.1424
-2.13829
-0.894723
0.736443
-1.06848
-0.962234
1.0261
-1.66098
-1.92677
-1.40638
0.662089
-0.535102
-1.12997
0.915017
-0.109429
-1.18807
0.926631
-0.881194
-1.72202
-1.36464
-1.03625
-0.191491
-1.13313
1.23878
-1.06152
0.0620129
-1.05
0.704274
-0.859762
-1.04985
0.557003
0.67483
0.978056
0.879917
1.10178
-0.974537
0.762312
0.45751
-1.42047
0.85356
-0.484801
-0.920118
-2.14043
1.10051
1.08616
-1.00778
-0.990487
-1.43737
0.932081
-0.942217
-0.0531325
-1.42471
-0.964991
1.20401
0.932529
-0.992798
-0.925985
-1.00444
-0.982602
0.826746
-1.05355
0.897573
0.133185
0.617459
0.748562
-0.939269
-1.03481
0.857416
-0.962826
-0.0252371
1.2031
-1.07158
-0.977394
0.73126
-1.41927
-0.965537
-0.30401
-1.10087
1.277
-0.726289
0.0355946
-0.996497
1.22972
-0.999235
-0.91643
0.552089
-1.33898
-1.04819
1.25922
0.582393
0.927898
-0.984089
1.1534
-0.300078
-0.940412
-1.00246
-1.01597
-1.00528
1.18553
0.483291
-1.09435
-1.00192
-1.12251
1.04892
-0.811461
1.20514
-1.04883
0.634514
-0.974915
0.276448
0.445825
0.411108
0.329034
0.0924222
-0.862852
0.928362
-1.00702
-0.802149
-1.2504
0.180304
1.24649
-0.427245
-0.977572
-1.04401
-0.977785
0.169129
-1.20054
-0.972853
0.762975
0.089351
-0.983484
1.31299
-1.12731
-1.82037
1.28218
-0.979169
0.0539453
-0.837439
-0.957701
-0.97071
1.28689
-0.952607
1.19933
-0.968414
-1.00063
1.09621
-0.359914
-0.909358
0.473297
-1.09377
-0.080572
-0.527256
-0.972331
0.720415
-1.20942
-0.972238
-0.959623
-0.95874
-1.05711
0.758915
-0.253881
-0.595808
-0.988098
1.22722
-0.963911
-0.950247
-0.944478
-0.264714
-1.09125
-0.941584
-0.985954
-0.222733
1.16828
-1.0184
-1.04693
-1.4658
-0.852871
-0.335041
-1.06318
1.31498
1.2466
0.320323
-1.117
-1.05366
0.234381
-1.05546
1.32603
0.112788
0.994
0.609163
1.20976
-0.00620378
-1.10023
-1.17632
-0.159375
-1.01279
-0.159336
-0.209538
-0.967458
1.2223
-0.42983
0.124423
-0.559757
-1.04588
-1.16695
)
;

boundaryField
{
    frontback
    {
        type            empty;
    }
    Top
    {
        type            zeroGradient;
    }
    outlet
    {
        type            fixedValue;
        value           uniform 0;
    }
    bottom
    {
        type            zeroGradient;
    }
    Inlet
    {
        type            zeroGradient;
    }
    rectangle
    {
        type            zeroGradient;
    }
}


// ************************************************************************* //
