/*--------------------------------*- C++ -*----------------------------------*\
| =========                 |                                                 |
| \\      /  F ield         | OpenFOAM: The Open Source CFD Toolbox           |
|  \\    /   O peration     | Version:  2306                                  |
|   \\  /    A nd           | Website:  www.openfoam.com                      |
|    \\/     M anipulation  |                                                 |
\*---------------------------------------------------------------------------*/
FoamFile
{
    version     2.0;
    format      ascii;
    arch        "LSB;label=32;scalar=64";
    class       surfaceScalarField;
    location    "12";
    object      phi;
}
// * * * * * * * * * * * * * * * * * * * * * * * * * * * * * * * * * * * * * //

dimensions      [0 3 -1 0 0 0 0];

oriented        oriented;

internalField   nonuniform List<scalar> 
3181
(
-1.02513
0.398327
0.626806
-0.386467
0.363386
0.0230815
0.518668
-0.35647
-0.162197
0.119029
-0.197309
0.0782798
-0.106003
0.1245
-0.0184971
0.80575
0.410931
-1.21668
0.146946
-0.140708
-0.00623779
0.0902884
-0.000384437
-0.089904
0.582599
-0.761507
0.178907
-0.0749784
0.134434
-0.0594556
-0.0104586
-0.0522549
0.0627135
0.125842
0.0459127
-0.171755
-0.00309255
-0.0745912
0.0776838
-1.08896
0.153679
0.935281
-0.323881
0.691981
-0.3681
-1.12465
0.637415
0.487234
0.0836484
-0.935732
0.852083
-0.394431
0.29649
0.0979404
-0.608884
-0.482334
-0.00284065
0.0721779
-0.0693372
0.0403593
-0.0878978
0.0475384
-0.0782129
0.0659384
0.0122744
1.05403
-1.03129
-0.0227406
0.0194056
0.0331509
-0.0525565
-0.956424
0.327897
0.628528
-0.106614
0.225643
0.304382
-0.247008
-0.057374
0.0292319
0.0614958
-0.0907277
-0.413457
0.341925
0.0715325
-0.0349323
-0.0104817
0.0127032
-0.00222157
-0.0363118
-0.920113
0.112868
-0.0757216
-0.0371462
0.0496312
1.3993
-1.44893
-0.0401466
0.0384945
0.00165208
0.179087
0.279382
-0.45847
1.41405
-1.36442
0.0728289
-0.0324696
1.60119
-0.841903
-0.759292
-0.203878
1.00963
-0.141422
0.138329
-0.0777874
-0.000425472
-0.405948
0.0820668
-0.158112
0.0803242
-0.634882
0.125059
0.509823
-0.145265
0.0702865
-0.167035
0.171217
-0.00418165
-0.267622
-0.0768801
0.344502
-0.186022
1.53312
-1.3471
0.0910741
0.187995
-0.279069
-0.0133223
-0.101807
0.108062
-0.00625497
0.508646
0.183336
-0.0957991
0.14347
-0.0476711
0.0859337
0.0269341
-0.168636
0.194492
-0.0258564
0.161727
0.0564904
-0.218217
0.107405
-0.113261
0.00585562
1.29414
0.307054
-0.840665
-0.184467
0.213905
-1.38232
1.16841
0.552819
0.233284
-0.786103
-0.44602
-0.21043
0.656449
-0.879577
0.675699
-0.278637
0.831456
-0.319205
-0.103387
0.422592
-0.207019
-0.206438
-0.187491
0.167263
0.0202286
0.140414
0.281043
-0.421457
-0.182816
0.765415
-0.0117019
0.10199
-1.59859
1.8125
0.182173
0.122208
-0.17386
-0.11031
0.28417
-0.269565
0.361258
-0.0916926
-0.0797105
0.0877979
-0.00808745
-1.78462
-0.918479
0.00973437
0.908744
-0.0464724
0.00632583
-1.08522
0.822895
0.262323
0.589677
-0.374444
-0.215233
-0.94379
0.0642125
1.10987
-0.956195
-0.724657
1.13694
-0.20166
1.07356
0.17037
-0.173136
0.00276606
1.20624
-0.79531
0.507465
-0.507465
-0.00792943
0.000231697
0.00769773
-0.208178
-0.0528356
0.261014
0.153248
-0.10248
-0.0507688
-0.445357
0.817921
-0.372564
-0.0211692
-0.229863
0.251032
-1.07577
0.0444801
0.350867
0.0542444
-0.405111
0.1322
-0.851439
1.08472
0.116985
0.0825529
-0.199538
-0.0174648
-0.151171
-0.508373
0.28214
0.226233
-0.330665
-0.177708
0.114434
-0.965873
0.326189
-0.771546
0.915631
-0.831983
-0.0319099
0.253076
-0.221166
0.0849458
0.0531051
-0.138051
-1.36837
-0.102703
1.47107
-0.238629
0.404241
-0.165612
-1.05856
0.424743
0.633819
-0.48339
-0.601827
0.20741
-0.116336
-0.151336
0.145769
0.00556673
-0.0784602
-0.0146108
0.093071
-0.539727
-0.22178
-0.136389
0.0570755
0.0793131
-1.06951
0.103702
0.965811
1.69929
-0.166169
-0.0102137
0.00228427
0.0332351
0.148938
-0.203028
0.382115
0.0262849
0.228047
-0.254331
0.14133
0.0691817
-0.210512
0.381707
0.0184877
-0.400195
-0.596292
-0.528357
-0.849447
-0.220065
-0.0728481
0.189833
-0.103075
0.180314
-0.0772396
-0.0127234
0.0244229
0.122523
-0.056701
0.068525
-0.011824
-0.0937018
-0.0211339
0.114836
0.0739218
-0.0739218
-0.182838
0.207261
0.259012
0.21428
0.103006
0.0914865
-1.24922
1.0664
-1.55901
0.0883362
1.47068
0.0233608
-0.0185418
-0.00481898
-0.026884
-0.0522752
0.0791592
0.529907
-0.021233
-0.508674
-0.0436496
0.0458032
-0.00215359
-0.197293
0.014455
0.160284
0.657637
-0.368808
0.529092
-0.154759
-1.21361
-0.136157
0.0301532
0.481494
-0.299285
-0.182209
0.18982
-0.159708
-0.0301115
0.0478984
-0.31552
0.0229212
-0.9414
0.0485064
-0.151581
-0.280474
-0.396085
0.0745711
1.4118
-0.964963
-0.44684
1.10894
0.302863
0.066268
0.278234
0.0251032
-0.00174243
-0.131686
0.169339
-0.0376527
-0.252005
-0.589572
0.841577
-0.348939
0.597357
0.72414
-1.20647
0.145247
0.0259131
-0.0572444
0.0313313
-1.19096
0.204429
0.986529
-0.17693
-1.01403
-0.305487
0.656354
-0.91281
-0.0169943
0.00647612
-0.270651
0.264174
1.49099
-1.61408
0.123089
-0.152769
0.0166126
0.571185
-0.82319
0.257121
-0.485853
0.228732
-0.29737
-0.120792
0.418162
0.171161
-1.00161
-0.0741567
-0.0198362
-0.0495011
-0.562225
0.351795
-0.249628
0.0181121
0.231516
-0.0618563
-0.0909128
0.0424154
-0.0424154
-0.122112
0.133953
-0.0118405
-0.275981
-1.28303
0.107673
0.0330988
-0.140772
-0.20596
0.0383058
0.167654
-0.223669
0.0361775
1.66148
-0.366259
-1.29522
-0.186551
0.445277
-0.258727
0.00419716
-0.00370832
-0.000488838
-0.654132
-0.404429
-0.186811
-0.00505901
0.19187
-0.171161
0.311575
-0.10393
0.10222
0.00170977
0.0760857
0.0103694
-0.0864551
-0.148597
0.196847
-0.0482505
-0.326481
0.730614
-0.404132
-0.217236
-0.0503939
0.26763
-0.684621
0.652574
0.0320471
-0.00268159
0.0358325
0.0556778
-0.0562938
0.000615948
0.00286343
-0.05542
0.677412
1.02188
0.166738
-0.886064
0.719326
-0.0895824
2.00284
-1.91325
0.378107
0.0994036
0.408061
0.06501
0.207479
-0.0661484
-0.0728098
-0.0289977
0.231334
0.160372
-0.0754264
0.733384
-0.405487
0.0599696
0.201044
0.0506755
-0.167681
0.117005
-0.789267
-0.135913
0.92518
-0.051665
0.051665
-0.107631
-0.266459
0.545842
0.0122648
-0.229501
0.129357
0.167133
0.0579412
-0.130789
0.138768
-0.149226
-0.341257
0.320088
0.0539811
0.0452026
-0.0991837
0.37858
-0.332667
0.4359
0.0188906
-0.454791
-0.204166
0.270434
0.185615
-0.4849
-0.213921
0.612248
0.162975
-0.0330123
0.0330123
-0.260034
0.544223
-0.28419
0.376569
0.0276719
-0.0264457
0.0335058
-0.00706012
-0.196516
-0.0785998
-0.0577888
-0.0499689
0.188737
-0.183854
0.244983
-0.0611294
0.131861
0.0285113
-0.387026
0.140019
0.194466
-0.0626053
-0.0468633
-0.0570665
-0.0906981
0.0738458
0.0168523
0.145553
-0.10333
-0.0422231
-0.0225438
0.402549
-0.380005
-0.144185
0.132483
0.106688
-0.111074
0.00438622
0.023625
0.553
-0.1171
-0.0903834
-0.022422
0.112805
-0.103936
-0.0199475
0.123884
-0.093601
0.0928845
-0.718173
0.625289
-0.0337489
-1.49103
-0.398233
1.88927
0.658671
0.907693
-1.56636
0.081549
-0.345579
0.364066
0.284832
0.250611
-0.535444
-0.20891
0.259585
0.147446
-0.881959
0.734513
0.0565952
-0.160531
-0.0273879
0.0075517
-0.987696
0.447802
0.539893
0.964963
-0.850528
-1.65512
1.55242
-1.49099
1.57933
0.0392639
-0.086935
0.0174008
0.038277
0.0112922
0.794249
-0.646802
0.119812
-0.0713053
0.409675
0.727265
-0.169385
-1.68685
1.59727
-0.663687
-0.585529
-0.239051
-0.39583
-0.00585526
-0.163523
0.211421
-0.57802
-0.366708
0.180157
0.761961
-0.232054
-0.875727
-0.779394
0.737922
0.22116
-0.164565
0.279665
0.0374153
-0.0374153
0.670544
0.149237
-0.819782
-0.224236
0.894781
0.393154
-1.20628
0.813129
0.271555
-0.0572756
0.00633347
0.00687071
-0.0132042
-1.38232
-1.18134
1.01517
0.91693
0.74455
-0.0343134
-0.132722
-0.239024
0.74767
-0.201116
-0.0485117
-0.00298122
-0.0767293
-0.0546307
0.107736
0.379915
-0.254856
-0.818446
-0.292109
-0.124981
-0.0753038
0.200285
-0.738261
0.837665
-0.164461
0.164093
0.000368024
0.0207395
0.00436368
-0.154247
0.0873118
0.066935
0.00981214
0.41278
0.136491
0.0533287
0.0278244
0.0134616
-0.0412859
-0.0156572
-0.171154
-0.726934
0.374961
0.351973
0.416078
-1.30139
0.885315
0.140148
-0.161353
0.021205
-0.0152504
0.222661
-0.101908
-0.405557
-0.147011
-0.00723591
-0.173652
0.0573156
0.144186
-0.347214
-1.34351
0.737375
0.606131
0.0456169
0.0914804
0.0540727
-0.789267
-0.105442
-0.22104
0.15623
-0.0689185
0.0438671
-0.6327
-0.0519215
0.0621367
0.13233
0.0764816
0.0369532
-0.458411
0.120718
0.34933
-0.295085
-0.114339
0.0206377
0.220409
0.840198
-1.06061
0.108607
-0.708711
0.600105
-0.934026
0.798113
-0.850446
0.267959
0.582486
-0.00863271
0.00952433
-0.00089162
0.174051
-0.471421
0.208775
-0.121925
-0.0868499
0.0479943
-0.0679418
0.0119428
-0.136924
-0.00924961
0.0250725
-0.0222091
0.0206322
0.0805454
-0.101178
1.05183
-0.000935227
0.0013782
-0.000442976
0.120325
0.0121572
0.857824
0.0827463
-0.0661336
-0.156042
-1.0253
0.257536
0.0140194
0.00740708
0.0840734
-0.582486
0.405557
0.188961
-0.210079
0.0211175
-0.25606
0.0829241
0.119405
-0.116639
-0.00142174
0.0892197
-0.0440341
-1.09555
-0.247954
-0.0450162
0.0656484
0.739631
-0.252397
-0.309819
0.103859
0.350962
0.0176546
-0.0441003
-0.00766144
0.0815833
0.145288
0.21597
0.157063
-0.336743
0.17968
0.106153
0.551484
-0.0366906
-0.108574
0.915149
-0.252432
-0.662717
-0.850446
-0.429981
0.846059
1.41405
-0.159601
0.43279
-0.273188
0.362196
-0.0728129
-0.289383
-0.346309
-0.59748
-0.0747486
0.0756457
-0.000897086
0.00305646
-0.215407
0.212351
0.451909
-0.952434
0.500525
0.0347714
0.668151
-0.702922
-0.0437379
-0.107598
0.00938552
-0.0997689
0.331171
-0.591205
-0.0111375
0.00250481
0.121918
0.0489702
-0.170888
0.0295837
-0.16127
0.000109031
0.0206305
0.103678
0.149398
-0.0487742
-0.00751957
0.196374
-0.426237
-0.371585
1.27928
0.0368311
0.014834
-0.981678
-0.0199315
0.181282
-0.0710352
-0.0433042
-0.0394314
0.296553
0.662027
-0.957165
0.295138
0.174788
0.0827475
-0.943513
-0.0126813
-0.00326328
-0.64973
0.742614
-0.0173884
0.180364
0.0091368
-1.21542
0.182905
-0.440574
0.257669
0.00905208
0.218995
0.000109447
-0.000142917
3.34706e-05
-0.0271694
-0.121427
-0.0205563
-0.130615
0.747273
-0.638666
-0.151146
0.0915004
-0.134877
0.314871
-0.157808
0.151308
1.21623
-0.232299
-0.983936
-0.122583
0.140695
-0.503422
-0.223511
-0.55577
0.605761
-0.580327
-0.0254333
-0.094655
-0.0564907
-1.68685
0.570418
-0.570418
-1.74414
1.74414
0.794249
0.162423
-0.309383
0.146961
-0.888684
-0.092994
0.633804
-0.371941
-0.261863
0.158034
-0.235273
-0.00975389
-0.000459814
-0.88306
-0.0828127
-0.932167
0.213994
0.0310746
-0.106378
0.697227
-0.106946
-0.590281
0.952859
0.461191
-0.0010569
0.00116634
-0.966254
0.532422
-0.513531
-0.0711209
-0.612155
0.683276
-0.0878494
-0.898198
-0.715883
0.219305
-0.815598
-0.92518
1.35786
-0.432678
-0.137203
0.275773
-0.138571
-0.0312095
0.728437
-0.10914
-0.999365
0.999365
-0.983238
0.393666
0.589572
0.00139446
-0.00232969
0.122481
-0.439824
0.849889
-0.0269945
-0.0870896
-0.0344341
0.137178
0.00332473
0.000872423
1.38561
-1.11765
-0.332655
0.408741
-0.637883
1.02228
-0.384396
-0.0596349
-0.087376
0.126238
-0.0570566
0.358492
0.00627005
-0.0808613
0.356798
0.0457504
0.0425868
-0.250423
0.207837
0.137554
0.0336629
0.0993543
0.182735
1.21273
0.599768
0.109105
0.876734
-0.985839
-0.976917
1.18135
0.210033
-0.129708
0.0757114
-0.769136
0.693425
0.271528
0.12824
-0.469497
-0.073723
0.130944
-0.0572206
0.127168
-0.200891
-0.452306
-0.109919
-0.0736144
0.076795
-0.00318056
-0.00288644
-0.0458877
0.0274076
-0.000473494
0.646802
-0.600105
-0.0466976
-0.288046
0.300311
0.87497
0.613099
-0.250902
-0.0406627
0.0737616
-0.278931
-0.206922
0.173403
-0.572587
0.399184
-0.000191109
4.81928e-05
0.0747129
0.141636
-0.216349
0.00359488
-0.01015
0.00655509
-0.0242722
0.0161555
0.00811669
-1.13095
0.335636
-0.161466
-1.32957
-0.201694
-0.850528
1.57933
1.55242
-0.189886
-0.170825
0.120431
-0.0649545
0.070798
-0.00584354
-0.143022
1.07143
-0.928412
0.558755
0.0750491
0.000873822
-0.00106493
0.122979
-0.112073
0.0344341
-0.0495647
0.00454855
-0.731403
0.452472
-0.0842536
0.142195
-0.230425
0.609004
1.10894
-0.0144072
-0.0602132
0.00129221
0.058921
1.90561
-0.353191
-0.0599113
-0.0533497
-1.00916
0.158635
0.381739
-0.210578
-0.470198
-0.13591
0.606107
0.810432
-0.364245
-0.446187
-0.111562
0.773589
-1.59727
0.214955
-0.0156038
-0.045518
0.0611218
0.433174
1.56966
-0.168828
0.175161
0.144028
2.18706
-0.607737
-0.672942
0.0488262
0.624116
0.389895
0.0161811
-0.350073
0.522937
0.800209
0.302361
0.0750739
-0.0210012
-0.403584
0.138468
0.265115
1.3501
0.0962869
-0.0684625
-0.0533158
-0.361393
0.108729
-0.317639
0.928386
0.287849
-0.137677
0.0430217
0.299758
-0.459359
-0.0205607
0.0178791
0.109502
-0.145832
0.0363301
-0.294658
0.307524
-0.0128659
0.55611
-0.788408
-1.03988
0.0259753
1.01391
0.118151
-0.227431
0.10928
0.2749
0.0399709
-0.238343
0.132902
-0.669639
0.669639
1.16841
0.952859
-0.708711
0.334081
0.466128
-0.639148
0.354958
0.924371
-0.365616
0.0090995
-0.876265
0.867166
0.128256
0.00617818
0.0269465
-0.977135
0.738791
0.132414
-0.169338
-0.116838
0.286176
0.317965
-0.51036
0.341022
-1.11788
-0.288609
-0.66054
-0.0738368
0.0013096
6.86074e-05
-0.228014
0.134252
0.0660325
0.0342478
-0.14858
0.114332
-0.467136
-0.516103
-0.00558763
0.0670834
-1.19615
0.539563
0.656588
-0.562928
0.380719
-0.0989406
0.144143
0.229609
-0.00729637
-0.0200915
-1.05153
0.685275
0.0352717
0.0714162
-0.17319
0.0383127
0.201092
0.00768246
-0.438745
0.88462
0.500212
-0.100401
0.865422
-0.789711
0.798022
-0.44706
-0.620329
0.180505
0.154108
-0.791646
0.767424
0.0242224
1.19523
-0.266849
-0.199131
-0.133524
-0.144241
0.0417615
0.95673
-0.844005
-0.112725
-0.186232
0.110805
0.027058
0.118711
0.882574
0.836331
-0.818935
-0.0173962
-0.319865
-0.0468426
-0.613481
-0.58267
0.136554
1.33452
0.833564
0.119295
0.168818
0.555156
-0.723974
0.0186531
0.0510059
-0.0102133
0.00291691
-0.513526
-0.106804
0.149916
-0.211772
-0.190544
0.140576
-0.532329
0.273602
-0.993372
-0.452406
-0.291741
-0.792523
1.53866
-0.0679878
-0.286219
-0.326513
-0.40489
0.0855961
0.305859
0.0509395
1.30662
-0.85471
-0.193198
0.130593
-0.53453
-0.271921
0.806452
-0.0210882
0.00548441
0.0499651
-0.061007
-0.233651
-0.116157
0.697918
-0.420919
-0.276999
0.148659
0.13151
-0.0947299
-0.0367804
0.243901
0.0619583
-0.413043
-1.15332
-0.0977883
0.141655
0.965234
-0.128903
0.0177102
0.106173
-0.0229727
0.0176747
0.00529805
0.0174689
-0.0360106
-0.245979
0.0782981
-0.102393
-0.548096
0.410893
0.0249759
0.0964853
0.0216655
-0.696518
1.557
-1.26915
0.0155015
-0.196167
0.180666
-0.144805
-0.525488
0.670293
0.0751567
-0.707856
-0.987327
-0.0525558
-0.0803982
-0.00163229
0.0820304
-0.244221
-0.605761
-0.183506
-0.13696
-0.403584
-0.234667
0.168518
-0.377693
-1.15994
-0.619776
0.419723
0.200053
0.259731
0.111724
0.540684
0.209714
-0.750397
0.160637
0.0605231
0.894724
0.0160872
-0.910811
-0.219883
0.152259
1.02909
-0.244984
0.183855
-0.785014
0.937273
0.315743
-0.0336039
-0.0326852
0.0439774
-0.00687451
1.15957
-1.25997
0.724426
0.0860063
-1.11512
0.0195655
0.239844
0.684527
0.900721
0.0144279
-0.0206773
-0.833564
-0.66054
-0.712392
0.722126
-0.0767047
-0.875727
0.668151
0.602468
-0.936999
0.911508
-0.00243518
-0.789211
-0.312334
0.637026
-0.767667
0.130641
0.0791754
0.0523349
-0.43705
0.0108832
0.847399
-0.858282
0.00140193
-9.2335e-05
-0.266538
0.218026
0.712183
0.218466
-0.204011
-0.178487
0.762748
-0.659046
0.188036
-0.0410755
0.670271
0.53675
-1.20702
-0.700248
0.838716
1.22005
-0.680492
0.0822745
0.275999
-0.265115
-0.0122202
0.216468
-0.0511894
0.0925448
0.088737
0.0010942
-0.0173497
0.0162555
-1.02593
-0.0346808
0.312465
-0.806622
-0.391328
1.21383
-0.822505
0.372637
0.649643
-0.0485025
0.0519061
-0.0034036
0.0855547
0.677193
-0.718841
0.735326
0.597845
-0.989173
0.316938
-0.10047
-0.585302
-0.40807
-0.428009
1.09828
-0.0557659
-0.878701
-1.8901
-0.0231518
0.275999
0.0556759
-0.862297
0.837094
-0.651856
-0.185238
-0.982355
0.397053
0.00343376
0.112337
-2.60615e-05
-0.112311
-0.968762
0.560692
-0.21047
0.910396
-0.923078
0.194419
-0.210076
-0.0970547
0.241241
1.19334
0.266822
-0.207147
-1.43303
0.44909
1.18393
-0.881569
-0.553705
-0.518754
1.07246
0.446295
0.0186587
-0.011788
-0.737603
0.702922
0.437833
-0.352279
-0.408061
0.459537
-0.0514757
0.618689
0.595143
0.77968
-0.814613
-0.492089
-0.44931
-0.469871
-0.498891
0.800422
-0.800422
0.681927
-0.681927
-0.737603
-0.523749
0.523749
-0.459537
-0.469036
-0.39009
-0.474618
-0.607568
0.607568
0.437833
-0.352279
0.77968
0.770132
-0.770132
0.814613
0.763117
-0.763117
0.507911
0.530129
0.481246
-0.169735
-0.501109
-0.55069
1.08082
-0.471961
-1.15936
0.73135
0.64945
0.570605
0.0762802
-0.0131721
0.0959184
-0.886281
0.0918044
0.794477
-0.146154
0.140299
-0.993382
0.587895
0.920896
-0.586815
-0.12244
0.00470535
-0.00971634
-0.8114
-0.0746637
-0.539893
-0.00576113
0.0133128
0.398916
-0.180171
0.111253
0.173901
0.00548773
-0.011302
0.00581429
-0.81739
0.0667438
0.750646
0.517742
0.675596
-0.527889
0.413682
0.114207
0.91486
-0.742506
-0.172354
0.0795899
0.302525
-0.0141348
-0.0594796
-0.0604177
-0.0143309
0.264636
-1.0029
-0.834443
0.0970543
-0.748922
0.798066
-0.0491446
0.124971
-0.901134
0.776163
-0.801609
0.901134
-0.0995248
-0.0657008
0.0831696
0.0189078
-0.289558
0.64293
0.45535
-0.0936364
-0.792645
0.914335
-0.0905063
-0.823828
0.107186
-0.166821
1.16719
0.821223
-0.57375
0.462138
-0.387089
0.102423
-0.895068
1.36442
0.379726
-0.787448
-0.00176275
1.01682
-0.891852
1.20295
1.18144
-0.656123
-0.525319
-0.882813
-0.11057
-0.416637
0.0366316
-0.492259
0.787397
-0.790064
0.790064
-0.605598
-0.0836803
-0.862139
0.119634
-0.952506
0.881385
0.0768641
-0.198789
-0.0566351
0.0570886
0.0114364
0.184729
0.832093
0.817454
0.775434
0.135361
-0.910795
-0.571542
1.14215
-0.785919
-0.10661
0.892529
0.16437
-0.883211
-0.67741
0.883167
-0.780744
-0.105624
0.46327
-0.0207209
-0.442549
0.0561284
1.27171
-1.32784
0.0884326
-0.382958
0.294526
-0.891542
-0.833548
0.0846262
0.535956
0.262066
-1.5307
1.2157
-0.597952
0.597952
-0.908387
-0.524639
-0.115797
0.854588
-0.935843
0.961818
0.776556
-0.198724
1.00926
-0.67362
0.796024
-1.15779
0.361769
0.0232171
-1.32461
0.278466
0.6099
-0.23744
0.0164002
0.221403
0.304174
-0.224584
0.782284
-0.881809
0.639488
0.502658
-0.149345
0.73724
0.594976
-0.594976
-0.0612499
0.0656136
0.112816
-0.0785683
1.22812
0.0435922
0.301742
-0.00143203
0.0023146
-0.000882574
-0.66538
0.690086
-0.0247067
0.501136
-1.15726
0.109258
-0.890002
-1.109
1.38989
-0.280891
0.226797
0.868361
-0.747835
1.24897
-0.754641
0.601825
-0.653746
-0.660347
0.156925
-0.361236
0.0273568
0.0905973
-1.05872
0.697481
-0.00297667
-1.20581
0.0689028
0.729163
0.685707
-0.0838821
0.0742561
0.783568
-0.497016
1.12181
-0.624794
-0.861044
0.517245
0.441437
-0.929794
0.715022
0.214772
-0.684216
-0.131382
0.991511
-0.413012
-0.178193
-0.0390706
0.485872
0.514128
-0.771028
-0.110782
-0.540592
-0.48203
-0.51955
-0.482662
0.4049
0.5951
-0.145132
0.15729
-0.861534
-0.0594342
-0.594312
-0.152819
-0.243626
0.396445
-0.038664
-0.00537003
0.115143
0.0735935
-0.129256
-0.116723
0.757791
-0.640648
0.714904
-0.249972
-0.808745
0.746989
-0.175566
-0.571423
-0.74438
-0.192418
0.936798
-0.238479
0.226399
-0.0253547
-0.113367
0.0224542
0.0131181
0.735023
-0.137071
0.118465
0.111144
-0.734615
0.0692357
1.0999
-0.50833
0.0346173
-0.489408
0.617148
-0.293286
1.02055
-0.00388006
0.420773
-0.276744
-0.00545075
-0.08714
-0.13349
0.0168893
1.08301
-0.0214013
0.375799
-0.354398
0.842417
-0.0179076
0.00325283
0.0146547
0.130645
-0.0101693
-0.000968186
0.214935
-0.105433
0.197218
-1.13306
0.0974549
-0.118856
0.00761081
0.282798
0.200233
-1.04808
1.3497
-0.301623
-0.780275
0.838057
-0.0577816
0.113855
0.117595
0.198149
-0.0737381
1.24501
-0.455486
-0.0724029
0.276172
0.440234
0.196636
-0.63687
0.398426
0.0358763
0.65421
-0.570491
0.56689
0.0036006
1.30757
-1.22197
-0.0512043
0.0654136
-0.0142093
0.693072
-0.00952208
-0.0835701
0.0197043
1.27718
0.378048
-0.264193
0.121241
-0.0887558
-0.138675
0.138492
0.0894482
-0.227941
0.00540179
-0.00430758
0.824457
-0.80837
0.22667
0.216877
-0.0254009
-0.0837402
0.228212
0.0989829
0.00679606
0.0904687
0.761975
0.269684
0.497182
-0.766866
0.861977
0.0300789
-0.892056
0.645639
0.123638
-0.0999471
0.0129305
0.0870166
-0.684933
-0.153295
-1.0045
-0.00414568
0.742068
0.716349
0.0475977
-0.19345
-0.2436
0.810009
0.127113
0.0241958
-0.884931
0.176805
-0.27466
-0.158832
-0.169988
0.689225
0.0727505
0.0137315
0.751358
-0.633763
-0.167304
0.164605
0.0229226
-0.11082
0.422729
-0.0582149
-0.0260843
-0.0696363
0.161853
0.420019
0.441958
-0.149331
0.595315
-0.0447286
-0.108105
0.0172295
-0.000968286
-0.0162612
-1.42038
0.198404
-0.00545217
0.930926
-0.230695
-0.618213
0.639739
-0.0215261
0.277745
0.75846
-0.594197
0.0227747
0.0788656
-0.17592
0.638375
0.120085
0.648956
0.188709
-0.271244
0.733382
0.0959055
0.987107
-0.600428
0.351972
0.248456
-0.713054
-0.0718995
0.0409328
0.0659346
-0.0483606
1.22615
0.738807
0.0712014
0.622359
0.219218
-0.87109
-0.0823925
-0.680585
0.678822
-0.0252348
-0.572752
0.419933
0.869448
0.674252
0.166696
-0.0194689
-0.154901
-0.314596
1.15356
0.403444
-0.324319
0.0410303
0.939265
0.0478421
0.739049
0.226762
-0.0798675
0.96204
-0.730607
0.924489
-0.193882
-0.420495
-0.179933
-0.0813159
-0.187019
-0.178072
0.847738
0.0196574
-0.00619587
0.623001
-0.0289282
-0.46048
0.614817
-0.130605
0.230221
0.764231
0.239963
-1.00419
0.275845
-0.9277
0.0889541
-1.3581
-0.173461
0.771137
-0.597675
-0.672296
-0.165472
0.052105
-0.0555917
-0.920059
0.0177022
-0.040675
0.986246
0.17196
-0.420712
0.248752
-0.0236723
-0.57802
0.137859
0.282914
-1.30462
0.00195955
0.00352818
-0.588512
-0.0540011
-0.596139
0.0256484
0.569521
0.299927
0.980253
0.909014
-0.23907
-0.398573
0.637643
0.134835
-0.615183
0.615183
-0.239854
-0.924491
1.16434
0.0304321
-0.153015
0.68753
-0.118009
-0.221906
-0.340686
0.162493
0.571727
0.539289
-0.382564
0.179262
-0.104691
-0.636871
0.485836
0.0810537
0.0619137
0.0109153
-1.20532
-0.456662
-0.260757
0.697936
0.302064
-0.456662
0.697936
-0.459357
-0.255122
-0.459357
-0.694825
0.694825
0.305175
-0.0140103
0.215849
-0.0764656
0.209559
0.165385
-0.470375
0.641679
-0.0268616
0.659566
-0.514068
-0.145497
-0.0544984
0.0528166
0.00168181
-0.00759772
0.00616569
-0.0913302
0.0184388
-0.0729849
-0.437358
-0.36092
0.132907
0.0343189
0.832548
-0.277393
-0.640356
0.235466
0.0032808
-0.139604
-0.00370264
0.671698
0.0703707
0.0177358
-0.0386791
-0.00260686
0.0257996
0.0849159
0.556333
-0.480724
-0.0756085
1.80275
0.557797
-0.757729
0.908593
0.0114614
-0.0637366
0.108865
0.145811
0.149565
1.14048
-0.376244
0.0160945
-0.0899313
0.644542
-0.916561
0.021352
-0.021352
0.0209399
-0.0209399
-0.0311297
0.0311297
0.0368311
0.368427
0.460241
-0.0732796
-0.703579
0.471525
0.186179
0.0287556
-0.0826829
-0.487278
0.800283
0.111651
-0.795867
-1.09156
-0.123859
0.125893
0.0198016
-0.00364613
-0.0265828
0.0265828
0.275644
-0.0249505
0.0249505
0.700711
0.0956916
-0.0272794
-0.0113997
0.00649516
-0.0667084
-0.0221118
0.0221118
-0.0207042
0.0207042
-0.0226769
0.0226769
-0.0186945
0.0186945
0.126261
-0.298962
-0.0804676
0.217371
-0.0168333
0.0168333
-0.3764
0.506601
-0.130201
0.493823
-0.21805
-0.331646
-0.30871
0.561398
-0.118487
0.0764978
0.563241
0.568827
-0.00708066
0.00708066
0.215885
0.0252735
-0.0252735
-0.0146043
0.0146043
0.748195
-0.9679
0.0352312
-0.28852
0.430156
0.00284637
-0.00284637
0.0255369
-0.0255369
0.0186562
-0.0186562
0.0228331
-0.0228331
-0.0238916
0.0238916
0.035702
-0.035702
0.488995
-0.0323878
0.0323878
-0.00187818
0.00187818
0.0244998
-0.0244998
-0.0109637
0.0109637
0.00923425
-0.00923425
-0.0760238
-0.0261706
0.0261706
0.0696847
0.00483394
-0.0400882
0.0400882
0.0103477
-0.0103477
0.0304883
-0.0304883
0.0340975
-0.0340975
0.0252384
-0.0252384
0.00381466
-0.00381466
-0.00420928
0.00420928
-0.493572
-0.124801
-0.0178673
0.0178673
-0.000986561
0.000986561
-0.0386946
0.0386946
-0.0274865
0.0274865
0.00080614
-0.00080614
-0.419136
0.65898
0.257228
-0.0324397
0.0324397
-0.0508842
-0.027705
0.027705
-0.000241156
0.000241156
0.0366653
-0.0366653
-0.159545
0.18374
0.00627814
-0.00627814
-0.0225179
0.0225179
-0.489559
0.0435303
-0.64219
-0.0308097
0.0308097
-0.44112
0.033199
0.0187071
-0.0403983
-1.07472
-0.0370572
0.0370572
-0.202721
0.144506
-0.0402589
0.000247682
-0.000247682
-0.00220429
0.0497427
0.268835
-0.325601
-0.28182
0.607422
0.192005
-0.00855918
0.00855918
-0.273027
0.43618
-0.163153
0.762961
-0.395944
-0.367017
-0.468197
-0.659405
-0.158559
0.394025
-0.455751
-0.405292
-0.570746
0.0219197
0.190374
-1.25245
0.0163913
-0.0163913
0.000440195
-0.000440195
0.0311704
-0.0311704
0.025758
-0.025758
0.000526828
-0.000526828
0.000392
-0.000392
-0.048341
-0.326103
0.168782
-0.291222
-0.000250861
0.000250861
-0.0441968
0.0441968
-0.0406167
0.0406167
0.225875
0.0513613
-0.277237
0.00171704
0.313748
-0.544443
-0.000247741
0.000247741
-0.0232678
0.0232678
-0.0971061
0.0410637
-0.199623
0.000358534
-0.000358534
0.109039
0.0122778
0.981326
-0.489496
-0.0832906
0.572787
-0.626221
0.100484
-0.592743
-0.037959
0.037959
-0.678052
0.274209
0.0496323
-0.0496323
-0.65196
0.390097
0.259006
0.119165
0.000796939
-0.000796939
-0.841681
0.000728333
-0.000728333
0.318751
0.409686
0.0866473
-0.05355
0.05355
7.47603e-05
-7.47602e-05
-0.0426059
0.0426059
-0.0528841
0.0528841
0.00117131
-0.00117131
-0.0584509
0.0584509
0.00126889
-0.00126889
-0.0458733
0.0458733
-0.0043592
-0.0444406
0.0444406
0.00178003
-0.00178003
0.0483386
-0.0483386
0.000554121
-0.000554121
0.0467592
-0.0467592
-0.140891
-0.00172975
0.00172975
-0.00411218
0.00411218
-0.0431916
0.0815833
-0.0106673
0.0106673
0.00545187
-0.00545187
-0.0592684
0.0592684
0.296438
-0.018784
0.018784
-0.0561823
0.0561823
-0.00774145
0.00774145
-0.0670121
0.0670121
-0.0132302
0.0132302
-0.0800373
0.0800373
-0.0219262
0.0219262
-0.0925124
0.0925124
-0.677518
0.187103
-0.53513
0.513604
-0.898198
-0.118277
-0.557707
0.387718
0.0632262
0.0854331
0.00367743
-0.00367743
0.380292
-0.721545
0.0446293
-0.033714
-0.84761
1.3088
1.20461
0.250198
-0.0643036
-0.0194667
-0.389333
-0.586603
-0.0774929
0.399001
-1.31837
-0.0213268
0.0213268
-0.73739
0.0193565
-0.0193565
-0.00267758
0.00267758
0.314246
-0.348243
-0.00201172
0.00201172
0.0187432
0.0142691
0.594174
0.128889
-0.00434489
-0.00965151
-0.0110258
-0.101427
0.501972
-0.400545
0.267353
0.011113
0.00652663
1.06881
-0.0286375
0.0506241
-0.413134
0.449765
-0.496424
-0.990241
-0.223368
-0.0730204
0.0183897
-0.328964
-0.0539938
0.0719095
-0.00493544
-0.0230005
0.78672
-0.556481
-0.0394313
0.0623539
-0.0367962
0.0239326
0.191917
0.415208
0.237366
-0.161859
0.209261
0.0105735
-0.00020418
-1.25702
0.0381342
-0.142446
-0.278267
-0.0187082
-1.35998
-0.072128
0.266909
-0.354639
0.400389
0.24956
-1.04208
0.0448636
-0.046072
-0.120749
-0.347291
0.461498
-0.106468
-0.0386964
0.145165
-0.0276803
0.0276803
0.182701
-0.433603
-0.121935
0.16024
-0.081354
0.0561191
-0.0632668
-0.0058277
0.0690945
-0.0240887
-0.152794
0.13712
-0.124082
-0.282503
-0.356385
0.638888
0.0152476
0.060398
0.149618
-0.0311527
-0.147546
0.0706775
-0.158101
0.312209
-0.0111425
0.0257973
-0.0241492
0.173767
0.00223979
0.261935
0.00173979
-0.00173979
-0.0403224
0.779371
0.0904111
-0.172804
-0.0673942
-0.0204552
0.469984
0.778987
-0.000920405
-0.041495
-0.537969
0.00283939
0.114481
0.0951268
-0.686534
0.320918
-0.0561593
0.379093
-0.661596
0.214818
0.500204
-0.0891438
0.0891438
-2.60607e-05
-1.07988
0.595216
0.484668
-0.214227
0.158635
0.0462117
-0.107215
-0.681193
-0.14969
-0.0587615
0.0761623
0.929119
0.26326
-0.0965637
-0.0697211
-0.263268
-0.725904
-0.0778492
-0.262851
0.785788
0.578291
-0.264542
-0.260589
0.543388
0.027241
0.405549
-0.270841
0.10854
-0.459896
0.329695
0.121268
-0.121268
0.15254
-0.15414
0.00159956
0.0102483
-0.0035882
0.0176747
-0.316637
-0.368297
0.221976
-0.183128
-0.0388488
0.543976
-1.09213
-0.0030063
-1.02229
0.698928
-0.116088
-0.175134
-0.0369166
-0.0792401
-0.487553
0.0501959
-0.289121
0.00625601
-0.0187082
0.381038
-0.00523073
-0.000641435
0.0018612
0.0125324
-0.013112
0.000579618
-0.101253
-0.0166563
-0.167333
0.18399
-0.120296
-0.3396
0.0187432
0.349276
0.00342472
-0.380023
0.0882819
0.00259662
0.17077
-0.244049
-0.0125052
0.0125052
-0.00116581
0.00483269
-0.00917878
0.00222901
-0.106091
0.000721367
-0.00121466
0.257162
0.0393905
-0.000281661
0.000281661
0.13434
0.517292
0.00283692
-0.283645
0.471882
1.14488
-0.467587
0.336581
-0.446228
-0.300113
0.178179
0.231642
-0.224193
-0.0241882
0.0170733
-0.00395521
-0.00628884
-0.176988
-0.372402
0.843927
0.495968
-0.544309
0.237846
-0.00160447
0.249256
-0.022459
0.0021681
0.000689202
0.0163841
0.170256
0.00139359
-0.000315278
0.720327
-0.649649
-0.247116
0.121446
0.955135
0.000745404
0.00206886
-0.0402589
-0.00557132
0.819303
-0.438173
0.519227
-0.742787
0.897165
-0.737784
0.56841
-0.180692
0.692114
0.0024045
0.00314226
0.0166593
-0.119358
0.139408
-0.245786
0.00895665
0.00369904
0.0661063
-0.0516036
-0.0145027
0.00228104
0.0619502
0.0242938
-0.086244
-0.0893369
0.00195818
0.000356427
0.00149836
0.476426
-0.435334
-0.00722054
0.0005584
0.875061
-0.279845
0.382398
-0.00588682
0.00019251
0.268794
-0.0421245
-0.0428793
-0.111424
-0.0160287
-0.00355956
0.123521
0.0834333
-0.00199556
0.406551
0.0015317
-0.00312545
0.00312545
0.00729771
-0.0169492
0.000275967
-0.324838
-0.00378878
0.0732724
-0.105597
0.148211
0.0670877
-0.0651819
0.000498601
0.00238243
0.4619
0.000270112
-0.0079317
-0.0733842
-0.00198919
0.000933648
0.0672422
0.2345
-0.713706
0.465479
-0.837881
-0.0129301
-0.00028377
-0.721799
0.1298
0.0916029
0.581076
-0.0149252
0.0240388
-0.00391768
-0.00129373
-0.557967
-0.00326738
9.75777e-05
-0.0540553
0.916673
-0.518247
-0.00246525
-0.000714764
-0.0057184
-0.00228387
0.0675683
-0.0218989
0.0218989
-0.0579779
0.0628106
-0.00228958
-0.00774367
0.0618051
-0.0624465
-0.166405
0.0945056
-0.00548879
-0.0130253
0.0409927
-0.0169012
0.0632684
-0.0448788
-0.628739
0.579594
0.0406815
-0.00177444
0.318344
-0.15649
-0.068915
-0.670251
-0.0737127
-0.115931
-0.0949037
0.0929146
0.688411
0.000937793
0.0228904
-0.0208216
0.334595
0.0601962
-0.142437
0.0822408
-0.0707135
-0.614988
0.845222
-0.532991