/*--------------------------------*- C++ -*----------------------------------*\
| =========                 |                                                 |
| \\      /  F ield         | OpenFOAM: The Open Source CFD Toolbox           |
|  \\    /   O peration     | Version:  2306                                  |
|   \\  /    A nd           | Website:  www.openfoam.com                      |
|    \\/     M anipulation  |                                                 |
\*---------------------------------------------------------------------------*/
FoamFile
{
    version     2.0;
    format      ascii;
    arch        "LSB;label=32;scalar=64";
    class       volVectorField;
    location    "12";
    object      U;
}
// * * * * * * * * * * * * * * * * * * * * * * * * * * * * * * * * * * * * * //

dimensions      [0 1 -1 0 0 0 0];

internalField   nonuniform List<vector> 
2186
(
(1.31521 -0.0632524 1.64291e-19)
(1.61201 -0.94102 -1.1774e-19)
(1.458 -0.917406 -1.32734e-21)
(0.738981 -0.5828 -1.16196e-19)
(-0.580788 0.612974 -2.17351e-19)
(1.06421 0.108577 0)
(0.724402 -0.668862 0)
(-0.32578 -0.545375 1.35489e-19)
(1.4782 -0.265823 2.13373e-19)
(0.55298 -0.31247 -2.35203e-21)
(0.684142 0.617709 0)
(0.815258 -0.270782 -1.52536e-19)
(-0.399813 -0.644503 -5.52875e-20)
(1.1826 0.0276567 -2.90823e-19)
(1.79757 -0.686306 -1.23167e-19)
(1.01832 -0.00377618 1.37289e-19)
(0.99223 0.0145483 0)
(-0.819501 0.423716 0)
(1.09375 0.0362388 0)
(-0.0629309 0.272865 -7.84223e-20)
(0.483307 0.0899257 -9.55342e-20)
(-0.232526 0.173598 1.06841e-19)
(1.16479 0.0257603 2.41182e-19)
(-0.205875 0.00469421 4.97633e-21)
(1.02904 0.00464071 -1.8892e-19)
(0.787974 -0.556944 0)
(0.758735 -0.0306226 1.17768e-19)
(0.612637 -0.592099 -1.30007e-19)
(1.20857 0.718505 0)
(0.965943 0.0211061 -2.58997e-19)
(-0.0107118 0.054267 0)
(1.03071 -0.0152395 8.92342e-21)
(0.00692281 0.351495 0)
(2.32903 0.231666 2.04301e-19)
(-0.10171 -0.139654 3.29174e-21)
(1.53411 0.783798 1.44707e-20)
(1.70571 0.153421 1.21786e-19)
(0.510087 0.137088 -2.83914e-19)
(1.94725 0.295132 -4.35178e-19)
(1.04087 0.0886538 1.94134e-21)
(-0.446545 -0.685307 0)
(-0.198506 0.149203 0)
(1.87358 -0.881773 1.0164e-19)
(-0.426876 0.204882 0)
(1.10602 0.285094 1.18299e-19)
(0.595734 -0.2935 2.32459e-19)
(0.922815 -0.786533 0)
(1.18816 -0.788897 7.19328e-20)
(2.24054 -0.541274 0)
(-0.416071 0.682965 2.48112e-19)
(0.00301678 0.120507 1.15965e-19)
(0.634324 0.586486 6.05021e-20)
(2.06181 -0.766944 1.30408e-19)
(0.595716 0.268697 -2.26954e-19)
(-0.24116 0.213167 3.97454e-20)
(0.764158 -0.651131 0)
(1.66048 -0.966812 1.83415e-20)
(0.582631 -0.54308 0)
(2.40042 0.232106 1.38122e-19)
(1.12475 -0.168674 -2.66279e-19)
(1.52725 -0.109987 1.2209e-19)
(1.35265 0.307768 -1.25591e-19)
(1.34408 0.54314 0)
(0.997319 0.0941391 -2.1269e-21)
(1.3624 0.392622 -6.92388e-20)
(1.25242 -0.731725 -9.30549e-20)
(1.16821 0.667725 3.76239e-20)
(0.676401 0.0707134 -4.5761e-19)
(0.819078 0.056391 0)
(2.07637 -0.221943 -7.66113e-20)
(-0.303842 -0.608439 -1.57293e-19)
(1.77599 -0.484572 -1.11275e-19)
(0.723261 -0.0383461 -2.01363e-19)
(0.87044 -0.514246 0)
(0.830816 0.184084 -7.35763e-20)
(0.549767 -0.511657 -2.39293e-19)
(2.1938 -0.368837 0)
(1.00392 0.00757961 2.84206e-19)
(-0.0857261 -0.223442 0)
(2.00519 0.440005 0)
(0.908656 0.363395 1.62781e-19)
(0.890967 0.0986668 -6.28007e-21)
(1.03765 0.0063733 3.13638e-20)
(1.32279 0.432003 1.83838e-20)
(0.967835 0.0264086 3.29003e-19)
(1.04014 0.0284459 -7.79582e-21)
(0.668542 0.173809 -2.73082e-19)
(1.10656 0.0772677 -6.53621e-23)
(0.317413 -0.0310834 0)
(-0.0646403 -0.0300065 1.1043e-19)
(0.859671 -0.62145 -1.25679e-19)
(-0.0943971 0.56819 -2.18874e-21)
(1.11634 -0.0777809 1.88976e-19)
(0.812399 -0.183457 0)
(0.985357 0.0192434 3.15202e-20)
(1.3622 0.652812 0)
(1.6233 -0.955799 0)
(1.30096 0.221361 0)
(-0.560715 0.680069 0)
(0.791866 -0.666589 2.26681e-19)
(0.739296 0.0323876 -4.80145e-19)
(0.895975 0.262022 3.14916e-19)
(1.52078 0.190748 0)
(1.11185 -0.0971541 -1.7276e-19)
(1.09053 0.0219331 1.40961e-19)
(0.00796644 0.661162 1.53063e-19)
(0.641279 0.504737 0)
(2.19566 -0.174522 -1.51306e-19)
(0.964655 -0.473323 6.31133e-20)
(-1.32337 0.274238 2.02703e-19)
(1.74088 0.311991 1.41922e-19)
(-0.307645 0.795257 -3.45949e-19)
(0.81843 -0.743581 0)
(0.567166 0.344497 1.37497e-19)
(1.64495 -0.26839 -6.13657e-19)
(-0.586385 -0.492346 -5.2381e-19)
(1.0613 -0.0863708 3.42e-20)
(1.90893 -0.642595 0)
(-0.0867785 -0.0293697 -3.30902e-19)
(0.706383 -0.0736717 6.37799e-20)
(1.55591 0.886912 0)
(-0.306766 0.655097 -3.84131e-19)
(0.891742 0.768865 -2.06532e-19)
(-1.05438 0.430492 5.32702e-19)
(1.03148 -0.0229818 0)
(1.09958 -0.037951 -4.30878e-20)
(-0.484616 0.751015 0)
(0.696556 -0.496046 -8.53293e-20)
(-0.984015 0.408545 -2.86186e-19)
(0.790998 -0.721501 0)
(0.437252 -0.279457 3.42032e-19)
(0.543532 -0.45971 2.26332e-19)
(0.413826 -0.374666 0)
(0.985614 -0.782549 -8.59897e-20)
(0.948873 0.183212 0)
(-0.147992 0.746855 -1.94629e-19)
(0.812143 -0.698587 1.0633e-19)
(2.39625 -0.26089 3.37393e-19)
(2.25455 0.140375 0)
(-0.0598944 -0.151603 0)
(0.688161 0.640825 -2.50034e-19)
(1.77559 -0.628219 2.6797e-20)
(-0.201177 -0.286476 0)
(0.985908 -0.807199 -9.62399e-21)
(1.11673 -0.107025 0)
(1.1008 -0.127524 3.01847e-19)
(2.10507 -0.188255 -1.48906e-19)
(-0.613475 0.572043 0)
(1.22708 -0.554342 -3.72846e-20)
(-0.200382 0.408067 -4.96223e-20)
(-0.309724 0.715644 0)
(1.0966 -0.813975 1.23126e-20)
(1.00739 0.00163342 -4.74856e-19)
(0.65126 -0.482426 -8.44905e-21)
(0.812553 -0.514227 0)
(1.20298 -0.729089 -6.13919e-20)
(0.657718 0.233004 2.12626e-19)
(1.24473 0.0984115 0)
(1.51429 0.103208 -1.02297e-19)
(1.20058 -0.856405 -1.10306e-19)
(-0.0503298 -0.128454 -1.23421e-19)
(-0.0351487 -0.498635 -2.49128e-19)
(1.07292 0.00462265 1.76978e-19)
(0.912545 -0.459765 -7.93674e-20)
(1.09657 0.0685836 6.05153e-23)
(1.14067 0.0326466 -1.63018e-21)
(0.719576 -0.100321 1.35793e-19)
(-0.210869 -0.013751 -2.98603e-19)
(1.15705 -0.233693 0)
(1.27423 -0.376772 4.86746e-20)
(1.44257 0.658322 7.42395e-20)
(0.807881 -0.614729 -1.65343e-19)
(0.999005 0.0127043 9.73648e-21)
(0.720374 -0.532901 2.34606e-19)
(1.30144 0.808534 7.38077e-20)
(1.89212 0.0512338 2.91804e-20)
(-0.674022 0.421559 0)
(1.07716 0.0555073 -1.83092e-19)
(-0.919365 -0.0138139 -3.56156e-19)
(1.07422 0.493923 6.00763e-20)
(0.0576425 -0.0898591 1.80409e-19)
(1.13068 0.0306351 -3.36822e-20)
(-0.158024 0.265085 -1.89711e-19)
(1.29225 0.590824 -4.79535e-20)
(1.13845 0.89265 0)
(-0.722343 0.38236 -1.12122e-19)
(-0.276864 -0.19472 0)
(0.658391 0.564563 -2.20291e-19)
(2.07022 0.228123 -3.05928e-20)
(-0.520503 -0.663698 1.88662e-19)
(-1.03216 0.0633437 -7.82748e-19)
(0.722626 0.074436 2.00835e-19)
(2.16598 -0.17477 -6.71674e-20)
(0.987685 -0.347604 -2.34591e-20)
(-0.0117287 -0.0278623 0)
(-0.913361 -0.205516 2.57532e-19)
(1.32271 0.973447 1.92237e-20)
(0.843052 0.0755813 -1.08873e-19)
(0.560087 0.525591 1.52351e-19)
(0.420919 0.191 0)
(-0.078609 -0.637626 -2.75046e-19)
(-0.454075 -0.0357455 1.06229e-19)
(1.29827 -0.959487 5.35335e-23)
(0.976046 -0.0381695 -1.47457e-19)
(-0.162716 -0.130241 7.01888e-21)
(-0.270995 0.347338 1.76241e-19)
(-0.314233 -0.110577 -2.14651e-19)
(1.90328 -0.615003 0)
(1.11904 0.0505063 -2.44647e-19)
(2.19972 -0.0858731 2.36494e-19)
(1.27905 -0.619751 6.0958e-20)
(0.569944 0.0470157 9.68516e-21)
(0.594142 0.32379 0)
(0.947074 0.756815 -1.20534e-20)
(0.687914 0.63439 1.39672e-19)
(0.894376 -0.560609 1.13682e-19)
(0.688269 0.498738 0)
(1.01836 0.00516304 6.30512e-21)
(0.882212 -0.663424 1.61779e-19)
(0.840166 0.418703 -3.61532e-19)
(1.25278 -0.10676 0)
(-0.26609 -0.277013 -3.40666e-19)
(0.0284008 0.524201 -1.16721e-19)
(1.58238 0.73173 0)
(1.35172 -0.940732 -4.58156e-23)
(-0.837308 0.461705 0)
(-0.548941 0.744591 1.38481e-19)
(0.741224 0.656949 -7.61761e-20)
(0.846111 -0.223279 0)
(-0.207873 -0.139634 0)
(1.59217 -0.457929 0)
(-0.513966 -0.545125 5.09201e-19)
(1.21481 -0.885799 7.26955e-20)
(1.18308 -0.601971 4.14063e-20)
(1.06528 -0.16895 -1.18672e-19)
(0.879371 -0.693594 -1.26703e-19)
(0.187195 -0.191224 0)
(-1.28446 0.360633 0)
(1.00407 -0.507762 1.29464e-19)
(-0.121932 -0.257263 0)
(-0.442735 0.657203 0)
(-0.560323 -0.47391 4.45508e-19)
(0.796791 0.674712 6.60964e-20)
(1.0146 0.800654 0)
(0.700619 0.552971 -6.74267e-20)
(0.828345 -0.0442216 -1.79707e-19)
(0.748875 0.561008 -1.79462e-19)
(0.595821 0.553994 -1.31173e-19)
(-0.241889 -0.601802 3.47296e-21)
(0.720901 -0.646166 0)
(0.904564 0.17806 -2.55346e-19)
(-0.357508 -0.682982 7.26477e-20)
(0.607524 0.563925 2.90704e-19)
(0.960057 0.803636 0)
(-0.747894 -0.326757 4.81424e-19)
(-0.039537 -0.456562 3.73183e-19)
(0.0389175 -0.396424 -1.91773e-19)
(0.668459 0.571389 -1.17311e-20)
(0.969826 -0.00588537 4.56738e-20)
(-0.462811 -0.695629 0)
(2.29107 0.033273 -3.41611e-19)
(1.53549 -0.617074 -1.17056e-19)
(0.65336 -0.604878 -5.76391e-20)
(-0.616933 0.370028 1.96095e-20)
(1.19352 0.470284 1.28855e-19)
(0.887677 0.410233 0)
(1.03126 -0.178907 1.43511e-19)
(0.168912 -0.600426 -1.10289e-20)
(-0.0696499 0.144785 4.40153e-19)
(0.926512 0.0187291 -4.04317e-20)
(1.13747 0.126463 0)
(1.90944 -0.0641221 -3.45352e-19)
(1.94825 0.0740298 0)
(0.545317 0.24978 -3.74964e-19)
(-0.278986 0.406338 0)
(-0.277865 -0.544856 3.08327e-19)
(0.728192 0.0903962 0)
(0.62159 -0.516899 -1.45144e-19)
(1.12047 0.0135051 1.6083e-19)
(-0.628086 0.554529 5.23311e-20)
(2.00132 -0.107165 -6.14713e-21)
(2.09448 -0.272043 -1.55599e-19)
(1.11105 0.232802 -1.66459e-19)
(-0.380604 -0.715949 -1.44916e-19)
(1.0773 -0.85203 0)
(0.805855 0.0160663 -1.17133e-19)
(0.92409 -0.376233 -2.26147e-19)
(1.71615 -0.57186 -1.08327e-20)
(1.73074 0.0229964 3.2723e-19)
(1.07361 -0.00271698 2.9421e-19)
(0.15814 -0.552181 -1.93533e-19)
(1.00527 -0.437964 -9.49079e-20)
(0.197403 -0.190248 2.05766e-19)
(1.00913 -0.00967608 0)
(1.00169 -0.00437708 0)
(1.24098 -0.728374 3.11074e-20)
(-0.041027 0.751704 -1.30285e-19)
(0.185086 -0.117784 -1.59679e-19)
(1.62722 -0.167351 2.24992e-20)
(1.33078 -0.537122 0)
(2.15388 -0.16745 -1.58091e-19)
(0.94545 -0.822517 -4.45636e-20)
(1.79129 -0.558243 -9.84872e-20)
(1.10523 0.843224 0)
(0.47369 -0.456258 0)
(0.608645 0.518188 -1.41689e-19)
(1.10082 0.287454 -3.04284e-19)
(2.25565 -0.261913 5.07747e-22)
(0.869547 0.162342 1.09981e-19)
(0.0725248 -0.548133 -5.92693e-19)
(0.938722 0.0544444 -1.96987e-20)
(-0.191824 -0.531863 0)
(-0.0612816 -0.151817 0)
(-0.59517 -0.634371 0)
(1.34194 -0.724164 -3.76321e-20)
(-0.329155 0.730435 -2.67072e-19)
(-0.118501 0.273395 0)
(1.28393 0.97608 -9.55693e-21)
(1.10909 0.15285 -3.18423e-19)
(1.51445 0.452201 -4.09673e-20)
(1.07684 0.92291 4.16287e-20)
(-0.255478 0.822917 1.7842e-19)
(0.603597 0.0520929 0)
(-0.597635 -0.569392 -3.97008e-19)
(-0.394548 0.825881 3.32451e-19)
(0.774978 0.0319722 1.47428e-19)
(1.52673 0.951612 4.87528e-20)
(1.27848 0.176616 -1.83875e-20)
(-0.158434 0.542798 -3.04732e-21)
(0.746796 -0.681026 -2.68499e-20)
(1.17346 0.00940727 0)
(1.73355 -0.00875551 0)
(1.07076 0.038857 0)
(-0.626155 0.247331 -1.26712e-19)
(-0.495065 -0.639082 1.48408e-19)
(1.04776 0.849514 0)
(0.990279 -0.00593879 3.97079e-19)
(0.771441 0.605129 -1.79024e-19)
(-1.18874 0.0577691 -1.5539e-19)
(0.862335 0.0164676 -3.27227e-20)
(0.715738 -0.65268 -1.64056e-19)
(1.37939 0.714663 -1.38596e-20)
(0.564492 -0.453887 -2.36375e-19)
(1.11089 0.00358222 -3.55447e-19)
(0.829466 0.044334 3.40369e-20)
(1.53305 -0.179793 3.12562e-20)
(0.828826 -0.116069 -4.22956e-20)
(-0.0387843 -0.062999 -1.68449e-23)
(1.0813 0.472345 -2.0114e-19)
(1.30727 0.613666 9.81186e-20)
(-0.0622891 -0.406207 0)
(0.0524403 -0.505991 2.21257e-19)
(-0.367377 -0.384946 1.42587e-19)
(-0.201578 -0.0609328 -1.53223e-19)
(0.476504 0.312545 0)
(1.33622 -0.695613 0)
(0.0130444 -0.00608937 -1.60514e-19)
(-0.28764 -0.723939 -8.34844e-20)
(1.04448 -0.0336282 1.40802e-19)
(-0.601753 0.457942 -5.02234e-20)
(1.6681 -0.594164 -5.43353e-19)
(0.0063094 0.778 0)
(0.834523 -0.739148 -2.15693e-19)
(0.61582 -0.0301763 8.12443e-20)
(-0.372907 -0.317686 2.28985e-19)
(0.720436 0.160342 2.65796e-19)
(0.622159 0.134706 8.67246e-20)
(0.502471 -0.476242 1.60484e-19)
(-0.225123 -0.361782 -1.64249e-19)
(1.2853 0.209106 0)
(0.393484 0.343368 -1.58939e-19)
(1.02571 -0.0219796 -2.24081e-19)
(-1.11174 0.06445 3.04487e-19)
(1.41746 0.495823 -6.35184e-20)
(-0.148603 -0.339785 -6.13181e-20)
(0.688267 -0.628417 -7.70177e-21)
(0.821472 0.189972 -1.64299e-19)
(0.98093 0.425304 1.74698e-20)
(1.13853 -0.13842 2.58593e-20)
(0.605451 -0.230261 -2.43859e-19)
(1.99997 -0.365707 -2.10718e-19)
(0.915912 -0.206685 0)
(1.11858 0.418335 -3.78246e-20)
(1.59818 0.18883 -2.00095e-20)
(1.03248 -0.280049 1.64084e-19)
(0.919077 0.355246 -2.17922e-19)
(0.962475 0.116182 1.1764e-20)
(0.420142 0.387989 -2.04601e-19)
(-0.276965 0.270824 3.42295e-19)
(1.9391 -0.178398 0)
(0.942104 0.0105196 0)
(0.87464 -0.773402 3.89864e-20)
(-0.0285046 -0.563274 -4.0808e-19)
(-1.00489 0.252982 -3.81298e-19)
(-0.0592211 -0.106402 -2.63137e-19)
(-0.577939 0.584848 -2.19371e-19)
(-0.26731 -0.492564 0)
(-0.044745 -0.103202 4.65655e-20)
(0.333078 0.627772 -1.16283e-19)
(-0.306128 0.39837 -4.03538e-19)
(0.798239 -0.113032 0)
(1.37133 -0.529388 4.31062e-20)
(-0.333703 -0.393294 0)
(1.00455 0.0288808 2.85651e-19)
(-0.0329214 -0.536934 3.02664e-20)
(0.540672 -0.425914 3.16787e-19)
(-0.929696 -0.0755214 5.90663e-19)
(-1.59116 -0.193751 0)
(0.317335 0.695346 1.49816e-19)
(1.00492 0.024087 -8.55781e-21)
(-0.202811 -0.0960517 0)
(1.00254 -0.0026264 -4.45563e-20)
(0.86091 -0.726231 -2.1162e-19)
(1.30511 -0.786935 0)
(0.938998 -0.277955 1.60662e-19)
(0.158239 0.601265 3.20817e-19)
(-0.00201822 0.000519098 0)
(-0.14133 -0.567714 -8.05217e-21)
(0.726023 -0.634388 -3.2913e-19)
(0.973871 -0.0267794 -2.01737e-19)
(-0.0420998 -0.642515 5.13091e-19)
(-0.198264 -0.493621 1.88033e-19)
(-0.238483 -0.550048 0)
(0.9584 0.472116 0)
(-0.282803 -0.534436 2.83486e-19)
(1.96546 0.118027 -2.39422e-19)
(1.07368 0.899874 1.15646e-20)
(1.06885 0.215481 -9.48925e-20)
(1.14521 -0.00916817 -1.64737e-19)
(1.02933 -0.0793709 -5.57726e-20)
(-0.0227543 -0.670881 -4.74955e-19)
(1.91111 0.000853628 5.14756e-19)
(0.711202 0.0229185 1.54346e-19)
(1.89117 -0.0501496 1.51191e-19)
(1.02645 -0.128419 0)
(0.112648 0.431006 4.17238e-19)
(1.11237 0.0227536 -3.87126e-19)
(1.74224 0.628114 -2.83039e-20)
(0.736935 -0.454003 -1.27818e-19)
(-0.066672 -0.0221454 2.47453e-19)
(0.798114 -0.699527 2.8042e-19)
(1.22885 0.196281 5.32726e-20)
(1.00131 -0.00900408 1.97521e-19)
(0.141364 -0.59415 -2.1491e-19)
(1.02838 0.0170683 0)
(1.41349 0.158851 -1.73638e-19)
(-0.0112723 -0.00373727 0)
(1.0203 0.0175533 -1.15987e-19)
(-1.23601 -0.437141 -5.41698e-19)
(1.70149 0.332549 2.84374e-22)
(-0.522389 -0.395196 1.83406e-19)
(1.6361 0.0337695 -3.81883e-20)
(1.02051 -0.0170662 4.0733e-20)
(1.34014 -0.0814669 0)
(1.44068 -0.608204 -6.48464e-20)
(1.01996 0.0353391 -1.20456e-19)
(1.43611 0.795099 -2.2451e-21)
(1.36773 -0.0546022 0)
(0.975758 -0.0999147 -1.64642e-21)
(0.0142261 -0.00676737 0)
(1.36913 0.046944 0)
(-0.470571 -0.669501 0)
(1.24126 0.451472 0)
(1.88832 0.311983 6.97674e-20)
(0.745899 0.618855 3.13419e-19)
(0.292344 -0.294176 -1.89978e-19)
(-0.250187 -0.671305 -4.56176e-19)
(-0.0113736 -0.0285979 0)
(1.37483 -0.496821 6.34365e-20)
(1.32233 0.519116 0)
(1.46066 0.302038 0)
(-0.649234 -0.548305 1.76747e-19)
(0.811874 0.719685 9.39653e-20)
(1.68882 -0.0163974 0)
(-0.4229 -0.58648 1.05499e-19)
(0.912206 0.225098 1.49879e-19)
(1.36098 -0.389627 -4.41329e-20)
(1.23994 0.932272 2.46031e-20)
(0.922386 -0.82992 -1.52769e-20)
(0.537027 -0.142636 -4.2469e-20)
(0.797727 0.722803 9.50111e-20)
(1.17619 0.928871 0)
(1.90793 -0.422041 1.2359e-19)
(1.28971 0.81483 0)
(1.28771 -0.347592 1.78301e-20)
(0.937129 0.108454 2.2074e-19)
(1.00572 -0.00416861 0)
(0.295329 0.280048 3.4768e-19)
(0.880308 -0.176954 3.7588e-20)
(0.628096 -0.408599 0)
(0.665971 -0.380448 1.70398e-19)
(1.23652 0.563152 -2.32436e-20)
(0.478954 0.451317 2.21039e-19)
(-0.354434 0.500609 4.7667e-20)
(0.119227 0.0604555 1.15794e-19)
(0.769907 0.0621174 0)
(1.32475 -0.901076 -1.5346e-20)
(1.04408 -0.0380937 3.12413e-19)
(1.48518 0.327771 1.72698e-19)
(-0.458395 -0.627249 9.18738e-20)
(-1.04681 -0.0386753 0)
(1.20474 -0.24478 -8.15289e-20)
(-3.63369e-05 -0.00156437 -2.1406e-19)
(0.224354 0.275387 -5.08088e-20)
(-0.130801 0.0359617 -5.28232e-22)
(-0.207561 0.0904047 3.55193e-19)
(1.15768 0.0721742 -5.48838e-22)
(2.35521 -0.0237495 4.57474e-19)
(1.19327 0.468934 -2.07793e-19)
(0.93711 -0.0289326 0)
(1.88332 -0.0512744 3.21197e-19)
(1.83923 0.126906 1.40795e-19)
(0.911828 -0.764885 1.01043e-19)
(1.15652 -0.974776 -3.38678e-21)
(0.483614 0.448897 1.47048e-19)
(1.60833 0.551955 0)
(1.75404 0.585134 6.02929e-20)
(-0.00366166 -0.011472 -4.36491e-19)
(0.887575 0.777487 0)
(1.13554 0.0408309 0)
(0.293576 -0.293431 -3.78737e-21)
(0.325304 0.303483 0)
(-1.38678 0.175012 -5.2876e-19)
(-0.444803 0.686436 -1.45226e-19)
(1.7348 -0.418727 0)
(1.29978 0.0591416 6.63733e-20)
(-0.814533 0.273859 3.20155e-19)
(0.533982 -0.507275 -3.60667e-19)
(1.93673 -0.0923635 -5.69643e-20)
(0.611614 -0.555128 0)
(1.04961 0.116013 0)
(1.36068 -0.227494 0)
(1.10421 0.233247 -1.75429e-19)
(1.31507 0.110092 2.45734e-19)
(-1.23314 -0.151174 0)
(0.851743 -0.0648749 0)
(1.83388 -0.118138 1.60543e-20)
(-0.117838 0.284462 1.21965e-19)
(2.3538 -0.25828 -3.14035e-19)
(1.06676 -0.508877 2.24138e-19)
(1.82874 -0.0820715 -3.22675e-19)
(-1.27506 0.357618 -2.36278e-19)
(1.98777 0.0782697 -2.73158e-19)
(1.01289 -0.0198373 3.21587e-19)
(1.51455 0.612069 0)
(-0.458442 0.75216 3.83731e-20)
(1.00452 -0.828797 1.16365e-19)
(0.855458 -0.0160068 3.82484e-20)
(0.632831 -0.432119 0)
(1.89166 -0.540221 1.15697e-20)
(1.1978 -0.202598 1.04272e-19)
(1.33028 -0.448468 0)
(0.608156 -0.564361 3.20061e-19)
(0.488439 0.0395293 -5.63345e-20)
(2.33063 -0.317864 6.06289e-19)
(-0.168893 0.441381 -2.53553e-19)
(1.32954 0.626655 9.20024e-20)
(1.15176 0.413576 2.71908e-21)
(0.908277 0.373323 1.76707e-19)
(1.96773 0.25166 -2.51765e-19)
(-0.053298 -0.675341 -7.76513e-21)
(0.990498 -0.177858 0)
(-0.152006 -0.0917065 4.08102e-19)
(1.09089 -0.949127 0)
(1.06301 -0.648784 1.54753e-20)
(1.33405 0.0405261 -7.44566e-19)
(1.13422 -0.053668 -4.35296e-22)
(-0.639689 -0.317894 -5.37103e-19)
(0.990516 0.483292 1.33809e-19)
(0.0827643 0.323112 1.40244e-19)
(0.713374 -0.0408811 0)
(1.2965 -0.193909 0)
(1.19187 0.156266 1.75682e-20)
(0.753561 -0.0135338 0)
(1.34496 -0.224556 -1.07294e-19)
(-1.76106 0.35664 6.92821e-19)
(1.92617 0.498646 6.45206e-20)
(1.05715 -0.0318776 0)
(0.551729 -0.349585 8.35324e-20)
(1.01595 0.0240619 1.53321e-19)
(0.992976 0.83927 -1.61086e-19)
(-0.509461 0.52262 0)
(1.1159 -0.474511 3.52325e-19)
(1.17399 -0.111338 -2.84256e-22)
(1.11213 -0.496752 -1.53654e-19)
(2.38091 0.196397 2.46425e-19)
(1.28457 0.797188 0)
(0.869878 0.0195381 0)
(-0.527395 -0.643589 -2.32649e-19)
(0.0107827 -0.00469306 1.80579e-19)
(0.957419 0.37 -1.61295e-19)
(0.330972 -0.470049 -1.90117e-19)
(0.650849 0.405911 1.95866e-19)
(0.917813 -0.120744 0)
(0.538144 -0.500164 0)
(1.25302 -0.0123517 1.72363e-21)
(1.24008 -0.51099 -6.73546e-20)
(0.62131 0.0105272 1.51273e-20)
(0.72755 -0.15265 9.54366e-20)
(-0.0683163 0.149517 -3.22997e-19)
(1.53018 0.0357799 3.79025e-19)
(0.66682 0.622476 0)
(1.26795 0.702199 0)
(1.59158 0.25746 0)
(-0.373371 -0.500609 -2.23901e-19)
(1.24331 0.561129 2.48888e-19)
(1.96603 0.104592 5.55723e-20)
(0.96866 0.00141423 0)
(1.16168 -0.128934 0)
(2.09754 -0.0970262 -4.01486e-19)
(0.949741 0.65211 1.83414e-19)
(1.00635 0.00280844 -1.53484e-19)
(1.49352 0.482404 0)
(-0.422398 0.543492 0)
(1.24697 0.329883 2.09019e-19)
(1.02347 0.527538 -9.73759e-20)
(1.06575 0.0275702 0)
(1.85318 0.301918 0)
(1.97488 0.679744 -3.77623e-19)
(-0.122306 0.695017 -7.01602e-21)
(0.999064 0.0138682 0)
(0.712486 0.471203 -2.65763e-20)
(0.935807 -0.824623 0)
(1.01074 0.0132325 3.56144e-20)
(1.11857 -0.217185 5.16315e-20)
(0.898945 -0.320982 2.37134e-19)
(1.19702 -0.0248473 -3.93095e-20)
(2.16699 -0.130688 4.29661e-19)
(1.04924 0.16694 6.9275e-20)
(0.755292 -0.0242774 0)
(1.01335 0.00847362 0)
(-0.673843 -0.294138 0)
(0.669864 0.642582 -1.40791e-19)
(-0.0339474 0.0782711 2.17929e-19)
(1.16674 0.354171 -3.37043e-19)
(-0.788476 0.33461 0)
(0.833681 0.64616 1.30413e-19)
(1.02213 -0.337552 0)
(1.00718 -0.00626422 8.96322e-20)
(0.471017 0.253273 6.16758e-20)
(1.04127 0.410191 1.93331e-19)
(1.63178 0.0668936 0)
(2.18596 0.176176 -1.12013e-19)
(0.821397 -0.111216 -2.88827e-19)
(-1.34774 0.161087 -6.76297e-19)
(1.28734 0.443117 0)
(0.884976 0.247831 1.39061e-19)
(2.07918 -0.108353 0)
(0.779866 0.520128 2.86147e-19)
(-1.79179 0.314413 2.77874e-19)
(-0.0641492 0.157794 0)
(0.59673 0.567478 -5.50877e-20)
(1.0253 -0.636094 -1.08676e-19)
(0.479147 -0.246433 -1.00725e-19)
(1.01912 -0.0158306 0)
(-0.573804 0.376983 -3.18173e-19)
(0.637222 -0.568736 6.39709e-20)
(0.910679 0.293257 0)
(1.53078 -0.649382 6.72206e-20)
(0.985352 0.843221 1.70514e-20)
(1.15939 -0.168469 -3.76125e-20)
(0.223643 -0.265467 -2.90837e-19)
(0.231214 -0.0369772 -4.58928e-19)
(-0.0901885 -0.230807 1.13644e-20)
(0.820936 0.355846 1.95255e-19)
(-0.352698 0.76246 -6.64485e-21)
(1.40954 -0.649318 3.31557e-21)
(1.0252 0.0148592 -2.65563e-19)
(-0.479682 -0.455247 0)
(1.03463 0.0339455 -3.12546e-19)
(2.14639 0.350414 2.09323e-19)
(0.891423 0.694233 2.13917e-19)
(1.10457 -0.0593051 1.20959e-19)
(0.99359 -0.0316075 1.23077e-19)
(1.158 -0.0629499 3.56822e-22)
(-0.423333 -0.503525 -1.73802e-22)
(1.72777 -0.871136 1.51711e-20)
(1.14365 -0.141298 -5.1199e-20)
(0.80447 0.0329323 5.83557e-20)
(0.904888 -0.293874 7.04703e-20)
(0.410969 0.116155 0)
(0.965082 0.73987 0)
(0.7836 0.279099 -7.35267e-20)
(2.06485 0.199504 -4.43523e-20)
(-1.3108 0.15101 2.53907e-19)
(1.02974 -0.533082 -3.80465e-19)
(0.615935 -0.534307 3.1026e-19)
(1.40306 0.255614 -2.06738e-19)
(0.374325 -0.548401 2.18386e-20)
(1.21514 -0.139387 0)
(0.755202 0.117384 -5.44477e-21)
(1.2544 -0.233442 -3.70148e-20)
(1.04143 0.767375 0)
(1.19505 -0.287399 0)
(0.748028 -0.00825322 0)
(-0.202235 -0.388977 -7.46429e-20)
(-0.163858 0.161795 0)
(1.57104 0.781874 2.22357e-19)
(1.20906 0.183643 4.73089e-21)
(-0.836598 -0.126953 1.93851e-19)
(1.31804 0.304403 2.30324e-20)
(1.81833 0.477232 -1.1279e-19)
(2.12211 -0.322462 -4.49277e-20)
(-0.1764 0.000707925 -2.52307e-19)
(-0.143048 -0.577961 6.00048e-21)
(0.743879 0.116382 0)
(0.693194 -0.0375392 0)
(0.997548 0.00125857 8.54677e-23)
(-0.414212 -0.494136 0)
(1.50143 0.00188018 -1.51575e-19)
(0.691592 -0.0340615 0)
(1.05243 0.0135049 9.66459e-20)
(0.999246 0.0147822 -3.48496e-20)
(1.47105 -0.097448 2.33867e-19)
(1.06592 -0.0122301 -7.13096e-22)
(0.949283 -0.199357 -4.24656e-20)
(1.02529 -0.0325317 2.84239e-19)
(0.670458 -0.609566 1.43265e-19)
(-0.255053 -0.407363 -1.72571e-19)
(0.945761 0.0763302 3.66054e-20)
(0.00891908 0.0069291 0)
(1.12581 0.800796 0)
(1.02893 -0.00842465 0)
(1.00217 -0.771915 -7.28055e-20)
(1.03865 -0.890396 3.64691e-21)
(0.782251 -0.130528 -2.22113e-20)
(-0.0250487 0.098732 -8.16974e-19)
(1.20037 -0.0400682 2.20232e-21)
(0.584355 -0.382627 -5.11424e-19)
(1.00021 0.288169 -7.32566e-20)
(1.24773 0.00738181 -1.96514e-20)
(2.06039 -0.330989 1.44677e-19)
(0.474594 -0.0688961 -5.2631e-20)
(-0.364393 -0.583039 -1.5782e-19)
(1.11296 0.555317 1.42844e-19)
(-0.0835039 -0.341869 0)
(0.251453 -0.500775 4.98988e-19)
(-0.0524369 -0.0827398 1.51901e-22)
(1.04576 -0.0427481 2.56365e-19)
(1.02123 0.00330589 -6.57795e-21)
(1.09219 -0.00952542 -7.09998e-20)
(1.09067 -0.0840964 -1.42811e-21)
(1.62735 0.321358 2.29996e-20)
(0.399692 -0.37502 -2.52404e-19)
(0.848788 -0.129045 3.63693e-20)
(1.02911 0.00672898 -1.87442e-19)
(0.803109 -0.0256464 -3.76693e-20)
(1.06328 -0.120775 0)
(1.10866 0.595034 -2.66339e-19)
(1.00464 -0.00404751 7.33143e-20)
(0.68146 0.608636 2.04618e-19)
(1.16028 0.0416302 3.20641e-22)
(1.06849 -0.00776164 -2.32e-20)
(1.11509 0.0125871 6.58707e-22)
(2.3975 -0.140292 2.41168e-20)
(0.140589 0.00696386 0)
(1.0635 -0.035716 0)
(1.06533 -0.0315403 4.50827e-19)
(1.00258 -0.00100116 0)
(-0.0260599 -0.0535307 0)
(0.954526 -0.576934 0)
(0.996445 -0.000636232 -4.2615e-19)
(1.15662 -0.678849 5.42387e-20)
(1.0284 -0.00330583 8.89328e-21)
(1.34117 0.961105 -5.32041e-21)
(1.52179 1.00787 -1.27713e-19)
(1.21348 0.0281541 -3.56188e-21)
(1.63518 0.405803 2.06294e-19)
(0.909426 0.198344 0)
(0.0817087 0.721284 0)
(2.12875 0.0124739 5.35316e-19)
(1.21495 -0.496986 0)
(1.00041 -0.00538679 -1.32245e-19)
(1.00744 -0.00109661 2.56693e-19)
(1.40683 0.140576 -4.9956e-20)
(0.00799914 -0.123064 3.15359e-19)
(0.975561 3.00399e-05 1.39004e-19)
(0.592953 -0.0705266 2.38172e-20)
(0.602808 0.0684884 -1.24891e-20)
(1.09338 -0.0750619 -1.63311e-23)
(0.916876 0.0224328 -1.39653e-19)
(1.00022 0.00342033 1.65702e-19)
(0.99894 -0.00178394 9.79097e-21)
(0.785041 -0.00987033 0)
(0.723861 -0.0273985 0)
(0.725265 -0.0268639 6.19646e-22)
(0.703569 -0.0258713 0)
(0.262157 -0.0342439 0)
(0.323919 0.0115172 0)
(0.518391 0.0108053 7.19105e-21)
(0.677606 0.0478027 -4.90467e-21)
(1.06729 0.0473913 0)
(1.11592 0.0084319 1.05296e-21)
(1.09408 -0.0451678 0)
(0.556338 -0.00988872 0)
(0.385839 -0.0273143 0)
(0.246774 -0.0164869 8.42443e-21)
(0.159199 0.0311267 1.06237e-19)
(0.797285 0.0209677 0)
(0.807946 0.0257598 0)
(0.951094 0.0209228 -1.72277e-19)
(0.832261 0.00655266 3.23496e-19)
(1.00549 -0.000275472 0)
(1.00041 -0.000740339 3.0592e-19)
(0.999285 -0.000835578 -2.50072e-22)
(0.810149 0.0192105 2.73363e-19)
(0.992556 -0.000560099 -1.59651e-19)
(0.689265 -0.0492639 0)
(0.410391 0.0240157 1.25008e-20)
(1.00272 0.0018178 -1.54693e-19)
(0.999187 -0.00252288 -2.65349e-19)
(1.0675 -0.0532464 0)
(1.00038 0.00365463 0)
(0.998415 0.00018441 0)
(1.12321 -0.00598548 1.0492e-20)
(1.26847 0.00395783 4.43867e-21)
(0.825487 -0.0642418 0)
(-0.566787 0.500476 2.36237e-19)
(-0.402881 0.654017 -3.3774e-19)
(1.02227 -0.0140166 -2.0551e-19)
(-0.362921 -0.687929 -1.51991e-19)
(1.01773 0.00309462 -1.64847e-19)
(1.1611 -0.229465 -6.3739e-20)
(0.791279 -0.468121 2.37055e-19)
(-0.0394125 -0.0710383 -1.06294e-19)
(1.02334 0.00882032 0)
(1.0688 -0.00627907 -4.43331e-20)
(0.866379 0.0243465 0)
(-0.0342628 0.0672477 3.18432e-19)
(1.18868 -0.431903 0)
(-0.511808 -0.568309 -3.91733e-19)
(0.522266 -0.0804079 -3.0696e-20)
(1.65315 0.690846 8.68303e-20)
(-0.0467172 -0.0456943 0)
(1.06892 -0.0391606 1.39274e-19)
(1.21918 0.0419289 5.25253e-22)
(0.922008 -0.0116319 2.21538e-19)
(1.01314 -0.00610408 -1.40148e-19)
(1.66956 0.86973 8.14957e-20)
(0.527442 0.494332 0)
(0.448716 0.401999 1.6579e-19)
(1.065 0.00144579 -3.43442e-21)
(1.13186 0.127668 1.45741e-19)
(1.08604 -0.707745 0)
(1.03004 0.00904185 0)
(1.00196 -0.0182752 -3.23388e-19)
(1.01557 0.0172954 -3.14428e-19)
(-0.129614 -0.393156 0)
(1.22039 0.828399 -7.5345e-20)
(1.14668 0.0758705 -3.4135e-22)
(1.01477 0.00686897 1.20965e-19)
(1.00705 0.0128442 -1.52079e-19)
(-0.671819 -0.51319 -3.87936e-20)
(1.21662 0.0312422 -9.72766e-21)
(1.01133 -0.017596 5.16588e-19)
(1.08169 0.109187 0)
(1.85566 0.66242 -9.56257e-20)
(1.01952 -0.0108193 -1.60853e-19)
(1.9162 0.151899 -1.37419e-19)
(1.05403 0.0102129 -3.70451e-22)
(1.00567 -0.0165918 3.22402e-20)
(2.08463 -0.231807 -3.52653e-19)
(1.01559 0.00746131 1.5613e-19)
(1.25834 0.00117016 4.01112e-21)
(1.01723 0.0085437 0)
(0.936998 0.152114 3.89337e-20)
(-1.32375 0.0142732 5.93909e-21)
(0.990917 0.0204843 1.5543e-19)
(1.03621 0.020744 -5.08104e-22)
(1.17053 0.0775045 -2.72443e-22)
(1.25097 0.318019 2.88469e-19)
(1.00289 0.0129573 1.06456e-19)
(1.01355 -0.0107142 3.45136e-22)
(1.75014 0.25601 -1.88129e-22)
(1.75958 0.941551 -1.23229e-19)
(0.774228 -0.694229 4.1506e-20)
(0.449672 -0.322816 -2.49837e-19)
(1.00463 -0.00653422 0)
(1.01768 0.00861671 3.88158e-20)
(1.01168 -0.00160958 8.18197e-20)
(1.23965 -0.0259996 2.09373e-21)
(1.02168 0.00345325 -1.6223e-19)
(1.02737 -0.017866 1.84906e-19)
(1.01162 -0.00570216 -1.53035e-19)
(1.00981 0.00318188 -5.56416e-22)
(1.0147 0.00331469 -4.46717e-22)
(1.01798 0.0183184 1.55339e-19)
(0.907838 0.0847397 4.03547e-19)
(1.69045 0.675696 0)
(0.728477 0.116933 2.83029e-19)
(1.01379 -0.00551195 0)
(1.02611 -0.0183105 -4.50128e-20)
(1.54395 0.461159 -3.04008e-20)
(1.73082 0.0698906 0)
(1.61399 -0.412633 -6.62594e-20)
(1.38406 0.7384 -3.41116e-20)
(0.801051 -0.0122077 0)
(2.01801 -0.0123347 0)
(0.829149 0.597179 -9.88776e-20)
(1.14976 -0.0107624 -1.32556e-21)
(1.01203 -0.00263515 -1.63587e-19)
(1.12039 -0.559485 -4.30554e-20)
(1.17243 0.0468381 -2.19659e-21)
(1.31947 0.257701 0)
(1.16217 -0.0585631 0)
(1.52444 0.514979 0)
(0.290756 0.577679 1.32856e-19)
(1.27081 -0.030726 3.55284e-21)
(0.088219 0.210339 0)
(-0.0900847 0.58696 -4.00974e-19)
(1.69326 0.972256 -1.19741e-19)
(1.00468 -0.0028298 -3.20013e-19)
(1.22466 -0.031596 1.63272e-21)
(1.0231 0.00702444 2.10935e-19)
(0.718127 -0.0417242 0)
(-0.0973374 -0.320763 -3.24552e-20)
(0.618323 0.432622 -2.75478e-19)
(1.64045 0.690157 6.6151e-20)
(0.218918 0.629833 0)
(0.786587 0.101984 5.46825e-20)
(0.525247 0.501899 4.11117e-20)
(1.18705 0.892311 -1.91703e-20)
(-0.022919 -0.00712282 1.57585e-19)
(1.01519 0.00937701 0)
(1.28665 0.0674078 4.24498e-21)
(1.00528 -0.00377155 1.20153e-19)
(2.4287 0.00472676 0)
(1.0163 0.00896189 2.01421e-19)
(0.331979 -0.511616 -2.34748e-19)
(1.00992 0.0113241 -1.24427e-19)
(1.21195 -0.0388427 0)
(1.57468 -0.500947 3.07464e-22)
(1.00734 0.00504395 -8.37599e-20)
(0.988717 -0.025871 2.21629e-19)
(1.08678 0.0972231 -2.64785e-21)
(1.25749 0.127185 -1.50445e-20)
(-0.15655 -0.0551514 4.12009e-19)
(2.04884 0.33513 2.5957e-19)
(1.20225 0.184287 1.80904e-20)
(0.818792 0.0206185 -3.03032e-19)
(0.813226 0.031014 0)
(1.2841 0.0387189 1.21653e-20)
(1.02637 -0.0105987 -2.42106e-20)
(0.967457 0.0288902 0)
(1.04407 -0.000626519 -1.53494e-19)
(1.03329 -0.0379977 -4.5965e-20)
(-1.56061 0.0735467 2.94798e-19)
(2.13889 -0.587448 0)
(-0.823913 -0.289527 -8.46081e-19)
(1.49305 -0.352525 0)
(1.03856 -0.0171514 4.51471e-20)
(1.02432 -0.0821292 2.20314e-22)
(1.01547 -0.00157811 1.29742e-19)
(-1.06182 0.158602 6.19461e-19)
(1.0224 0.00291032 0)
(0.98529 0.00536478 -3.14991e-19)
(1.01107 0.00821615 1.65294e-19)
(1.02182 0.0432908 0)
(1.00216 -0.0428497 -5.60521e-22)
(0.970755 -0.00031678 -1.42186e-19)
(-0.265173 -0.683146 5.06507e-19)