/*--------------------------------*- C++ -*----------------------------------*\
| =========                 |                                                 |
| \\      /  F ield         | OpenFOAM: The Open Source CFD Toolbox           |
|  \\    /   O peration     | Version:  2306                                  |
|   \\  /    A nd           | Website:  www.openfoam.com                      |
|    \\/     M anipulation  |                                                 |
\*---------------------------------------------------------------------------*/
FoamFile
{
    version     2.0;
    format      ascii;
    arch        "LSB;label=32;scalar=64";
    class       volScalarField;
    location    "16";
    object      p;
}
// * * * * * * * * * * * * * * * * * * * * * * * * * * * * * * * * * * * * * //

dimensions      [0 2 -2 0 0 0 0];

internalField   nonuniform List<scalar> 
2186
(
0.779379
-0.370122
-0.0627297
1.06735
-0.856091
-0.05827
0.664328
-1.04719
-1.09025
1.32279
1.06617
-0.965027
-1.0494
1.02406
-0.599909
1.0318
1.055
-1.30808
0.000877604
-0.795997
1.42803
-0.772766
1.03479
-1.05235
1.02567
1.04201
1.24739
0.892105
0.609206
1.02602
-0.784351
1.02551
-0.725452
-1.15996
-0.970071
0.133261
-1.06223
1.41799
-0.769531
-0.0965278
-1.06137
-0.763744
-0.712194
-0.86624
0.915549
1.30644
0.331186
0.502801
-1.64946
-0.954037
-0.788645
0.912919
-0.708514
1.35214
-0.732781
0.942834
-0.761837
0.970671
-0.881555
0.817707
-0.963612
0.644596
0.568674
-0.095394
0.580709
0.443632
0.684499
1.31558
1.21081
-1.12969
-1.05365
-1.04141
1.28203
0.997914
1.20085
1.15489
-1.31152
1.04886
-0.974648
-0.711358
-1.67633
-0.15395
1.02046
0.631818
1.01305
1.0214
1.32401
-0.0316135
-0.168929
-0.987039
0.945648
-0.791587
0.933569
1.1792
1.03463
0.436545
-0.188292
0.596305
-0.927512
0.985094
-2.05298
-1.96704
0.653488
0.958868
1.05652
-0.777742
1.24242
-0.842235
0.931675
-1.67314
-0.678489
-0.888655
0.528301
1.35089
-1.03386
-0.936448
-0.181251
-1.7122
-0.988491
1.28325
0.00217894
-1.15157
0.872857
-1.55731
1.03631
-0.163347
-0.877337
1.14716
-1.37035
0.644859
1.39673
1.24215
0.220375
0.636736
-1.76322
-0.977259
0.913422
-1.11793
-0.711837
-1.00492
0.81716
-0.237911
-1.0296
0.689423
0.922524
0.963415
-0.76476
-0.876741
0.599429
-0.829157
-0.826978
0.566086
1.05218
1.18684
1.04435
0.513424
1.32143
0.440289
0.341648
0.406186
-1.00571
-1.36518
1.0072
0.988238
-0.0108453
-0.00207624
-0.89145
-0.933468
-0.239084
-0.258128
0.377298
0.991363
1.05561
1.11111
0.445508
-0.363708
-0.863587
1.00773
-1.652
0.877423
-0.927824
1.03992
-0.787599
0.563696
0.549563
-0.900678
-0.797786
1.16172
-0.614812
-1.0339
-1.04851
1.28429
-1.72551
0.982096
-1.0008
-1.55308
0.110235
1.2039
1.09584
-0.780418
-1.15831
-1.05736
0.0610396
1.05512
-0.986361
-0.836297
-0.981329
-1.45255
0.97462
-1.3355
0.506728
-0.226787
1.33716
0.845026
0.941589
0.947954
1.21392
1.02879
0.892222
1.12812
0.357124
-0.875086
-0.755822
0.119736
0.169554
-1.31986
-0.868102
1.06392
1.1496
-0.946264
-0.913521
-2.07817
0.354559
0.644538
0.7891
0.893124
1.12145
-1.7462
0.883535
-1.01744
-0.969399
-0.922394
1.02392
0.747304
1.18118
1.2019
1.13984
1.11789
-1.04391
0.818668
1.14129
-1.06861
1.01075
0.794555
-2.15889
-0.996249
-0.971075
1.18288
1.05317
-1.05892
-1.31707
-0.588151
0.95157
-1.68113
0.768428
1.09683
0.872632
-1.04075
-0.78726
1.00186
0.637396
-0.764056
-0.616312
1.37692
-0.837444
-1.04271
0.850977
1.19017
1.01441
-0.917587
-1.12169
-0.95481
0.936121
-1.07791
0.533527
0.999643
1.02811
-0.23425
-0.604
0.991415
-1.10622
0.932558
1.20029
1.0488
1.04641
-0.78545
-0.926781
-1.05452
-1.0931
-1.96735
-1.78171
0.363486
-0.599708
0.62751
1.1754
1.23925
0.940078
-0.798293
1.1718
-1.22399
-0.292558
-1.22107
-1.00395
-1.03988
0.335745
-0.826244
-0.811482
0.190363
0.95112
-0.371069
0.404669
-0.874411
-0.153819
-1.01299
-0.86847
1.24585
0.0115745
-0.0957298
-0.777688
0.782621
0.56376
-0.484774
0.518197
-0.900227
-1.07749
0.68023
1.05146
1.10263
-1.42308
1.17839
0.885163
0.396007
1.25364
1.02769
0.956702
0.346428
-0.349389
-1.01213
0.891455
-0.877953
-0.968742
-1.26138
-0.835997
-0.991364
1.4025
-0.624693
-0.787728
-1.07867
1.02747
-0.845929
-2.09957
-0.91168
0.75346
-0.181238
-1.49562
1.2863
1.34825
1.13064
-1.03528
-0.120923
1.41825
1.03143
-1.09774
0.468679
-1.02499
0.154844
1.20932
1.01103
0.888439
1.32105
-0.569935
-0.450088
-0.331792
-0.907615
-1.57035
-0.766318
-0.193413
1.34692
-1.41465
-1.37599
1.01884
0.573394
-1.00465
-1.83052
-1.01645
-1.17187
-1.3302
-0.995759
-0.756323
-0.830453
1.21275
-0.45009
-0.899455
1.0421
-1.34061
1.27267
-1.57114
-1.9316
-0.922772
1.0254
-0.935001
1.0518
0.843992
-1.05076
1.05695
-1.20066
-0.995652
-1.17131
1.01362
0.961906
-1.05207
-1.03201
-1.24312
1.01003
-1.50963
-1.81171
0.53289
0.973624
0.89183
0.706707
-1.06794
-1.09374
0.847494
-1.06361
0.817968
-1.72931
1.04757
-0.0172175
1.13965
-0.989802
0.848908
0.718663
1.05899
-1.19353
1.02579
-0.796045
-0.994359
1.02834
-1.81549
0.134512
-0.875923
-0.187247
1.03426
0.0619172
0.273865
1.03349
0.263463
-0.206109
-0.114055
-0.788192
0.215064
-1.08226
0.722376
-0.659739
1.10136
1.13914
-1.06255
-1.0018
-0.446289
-0.773327
0.438051
-1.02049
0.859109
-0.0988806
-1.04088
1.12963
-0.38019
0.396617
0.281376
-0.219034
0.821452
0.369223
-0.956485
-1.58322
-0.198565
-0.690013
1.04439
-1.76655
1.12748
1.23938
1.22705
0.672615
1.20065
-0.836854
-0.683326
0.914319
0.200985
1.01945
-0.759993
-1.02429
-1.7885
0.79965
-0.995822
-1.94947
-0.793714
-0.8335
0.00354262
-1.16918
0.757774
0.723628
-0.760269
-0.950392
0.744836
0.0565687
1.16943
-1.75014
-0.156587
-0.997656
0.784432
-0.172719
1.17965
1.43338
-1.82199
-0.849102
-0.883692
0.293321
-1.84635
1.04054
-0.983559
0.995433
0.777512
-0.993748
0.895116
0.855647
-1.94583
0.891032
-1.13615
-0.794441
-1.43827
-0.953579
-1.13366
-1.58601
-0.911802
1.02743
0.235208
-0.861784
0.581794
1.17447
1.22463
-0.390424
0.757274
-0.302223
0.77235
-0.191179
-1.64492
-0.802684
0.517956
0.837759
1.09219
-1.73621
-1.08426
-1.5093
-0.996931
-0.135622
0.726586
-1.98084
0.0226367
-1.25296
0.970114
-1.2023
0.982114
-0.78703
-0.670442
0.969779
0.657854
-1.70613
-0.152146
0.992804
1.30777
1.05026
-1.01586
-1.38496
0.800062
-0.649908
0.787462
-0.624339
0.467442
0.989644
-1.02237
-0.787924
1.05068
-1.25195
1.27707
-0.173682
0.87499
0.178441
0.618969
-0.812743
1.25946
-0.791553
-1.78341
0.990878
0.54413
0.512221
-1.20971
-0.78536
-1.04115
0.795934
-0.215753
-1.04332
-1.17391
1.04458
0.408525
-1.21362
0.766042
0.921144
1.01274
-1.83597
-0.709994
-0.790862
1.04106
1.21013
0.481012
1.03737
0.0882994
1.06818
0.182421
-0.947889
-0.508163
0.942499
0.991121
-1.65408
0.879428
-0.795957
0.830805
-0.939909
1.03156
0.963054
1.04504
-1.73547
0.952679
-1.66047
-0.865345
1.1921
-1.9219
-1.59998
1.14877
-1.34647
1.13907
-1.85002
-0.802837
1.07635
0.778592
1.37876
1.0265
-1.64634
1.08913
1.11799
-0.789404
0.663649
0.0744297
-0.926957
1.52108
-1.01543
1.16885
-0.834198
0.287803
1.02675
-1.29329
1.01842
-1.57508
0.954258
0.971246
1.04042
0.0196928
-0.993961
-0.638274
0.576005
0.659539
1.08228
-0.231455
0.857134
-1.86083
-0.431123
-1.6104
0.83515
1.1546
-0.955695
-1.12364
-0.110046
1.26859
-0.114618
0.762763
-0.0788877
-2.09152
-1.03681
-0.793545
-0.993114
0.826112
-1.80506
-0.185777
-0.285831
-0.617709
-0.81144
-1.23511
-0.296778
0.99844
1.04794
-1.22531
-0.505354
1.01239
0.956836
1.0464
-1.96827
1.0112
1.07466
1.02179
1.0649
-1.50979
-0.244745
-0.789138
0.646625
1.02762
0.703136
0.139211
-0.218968
-1.78996
0.0548558
1.27421
-0.210841
0.237049
-0.742708
-0.196364
-1.04264
0.814178
-0.953612
-1.39782
-0.989847
1.02941
1.02896
1.04018
-0.0428958
0.360443
1.24816
-0.231544
1.02351
-0.238012
-0.0817806
0.790235
1.04678
1.12662
-0.0347487
1.00654
1.00471
-1.363
-0.223774
1.04017
1.05218
1.04923
-1.00081
-1.03455
1.04866
0.60484
1.02999
0.241667
-0.0886729
0.104308
-1.6786
-0.441363
-0.79884
-1.63903
-0.286256
1.05433
1.05941
0.777757
-1.00316
1.0298
-0.252323
-0.274949
-0.0211776
1.0266
1.05312
1.04964
1.06252
1.04033
1.03388
1.02429
-0.137895
-0.273982
-0.0983244
-0.186139
-0.0174388
0.0108819
-0.00636863
-0.122357
-0.206087
-0.248084
-0.173145
1.02089
1.0417
1.03568
1.05926
1.05745
1.04924
1.05258
1.03123
1.03796
-0.182341
-0.231235
1.05029
1.04863
-0.0270715
1.051
1.04971
-0.0957118
0.116501
-0.258738
-0.831736
-1.54614
1.03282
-1.10523
1.02877
0.628186
1.08727
-1.0121
1.02916
0.975243
0.972145
-0.784897
-0.122257
-1.11428
-0.256063
-0.0130554
-0.781755
1.04611
0.06491
1.12065
1.03708
-0.139851
1.21776
1.36892
-0.213955
0.905134
0.662316
1.02871
1.0471
1.03863
-1.0162
0.514651
-0.0293318
1.0358
1.04428
-1.07208
0.0821495
1.03678
-0.0810415
-0.306334
1.03642
-1.12001
1.01775
1.04859
-1.08149
1.04082
0.143087
1.0322
1.11418
-2.01194
1.04644
1.05413
0.012227
0.716045
1.03276
1.03918
0.184294
-0.69741
0.715125
1.36938
1.0445
1.03486
1.04033
0.146833
1.03584
1.01929
1.04169
1.0358
1.03825
1.0338
1.14219
-0.66232
-2.14435
1.0369
1.03128
0.310455
-1.09336
-0.663629
-0.741334
0.906848
-1.58433
-0.623238
0.0045812
1.03271
0.729394
0.0298856
0.0528918
-0.13362
-0.547219
-0.820457
0.110651
-0.58519
-1.43239
-0.29398
1.0398
0.0683047
1.02667
0.954454
-0.999501
1.29007
-0.464104
-1.0856
0.763985
1.1774
0.490686
-0.991296
1.03224
0.104709
1.03886
-1.16133
1.03835
-1.34216
1.0305
0.0251615
-0.744692
1.04111
1.05495
0.983035
0.143874
-0.986336
-0.705285
0.250939
1.05155
0.938189
0.173577
1.03061
1.07398
1.02478
0.365858
-1.91148
-0.702326
-1.96289
0.308291
1.03806
-0.106736
1.03452
-1.95535
1.03246
1.07075
1.04224
-0.0302181
-0.0396814
1.06759
-1.10913
1.04424
1.0475
-0.00744594
-1.04168
0.986015
1.18225
1.02825
1.02582
0.322081
0.286295
1.0004
0.405803
1.04266
0.847519
-0.886379
-1.0338
0.883124
1.27265
1.03326
0.335464
-0.589487
0.382058
-2.07111
-0.425658
1.01423
-1.28514
1.01914
-1.43227
-1.00438
-0.846503
0.484911
-1.1315
-0.395361
-0.104224
1.02875
-0.989796
0.957294
-1.01956
-0.189474
0.167589
0.0168878
-0.253616
1.00543
0.210989
-0.818717
-0.0529006
-1.10285
1.01936
-0.372789
0.0222886
-2.12301
1.12732
-0.337532
-1.01678
1.10123
1.01679
1.00644
0.478006
-0.94006
1.03758
1.06569
-1.28432
-0.816749
1.02747
0.797236
1.29795
1.04965
-1.16738
-0.61161
-0.83354
-1.29895
-0.999401
-0.995577
-0.00709955
-1.19482
0.801925
-0.0353947
1.0383
1.25193
1.02912
-0.991477
-1.16537
1.03079
-1.06093
-0.26828
1.00907
-0.353754
-0.809286
-1.94483
0.040892
0.984827
0.959319
-1.07188
0.856907
0.725334
-1.56438
1.01364
-1.58236
0.850653
-0.702753
1.00244
-1.6912
0.41746
1.03188
1.1425
-2.1897
-1.71024
0.869353
1.40753
1.05224
1.06719
-0.899352
1.25919
-0.926948
-0.0962179
-0.851824
0.466164
-2.2244
1.14434
1.17546
-1.02551
-1.28934
1.029
-0.952023
0.861943
1.0619
1.0038
-2.05506
1.03267
-0.0257215
1.05926
-0.0470931
-0.0609633
-0.0852609
1.03569
-0.247049
-0.429855
-0.24536
1.02503
-0.058178
1.23843
0.25405
1.37188
1.03714
-0.94427
1.00964
-0.800412
1.00934
1.00712
-0.0155869
-0.307207
1.17419
1.02235
1.27364
0.991305
0.0702688
0.995032
1.01705
0.910616
1.04016
-1.0632
-0.95993
-1.12945
1.12448
-1.44368
-0.321792
-0.794367
-1.49187
-0.105955
-0.147044
0.920102
0.0934767
0.982819
1.0345
-0.822402
-1.30313
-1.04246
-1.43204
-1.01776
-0.802363
1.03786
-2.14596
1.04949
1.25475
1.08893
-0.162873
1.05623
0.971086
-1.45753
0.985968
1.01715
-0.899036
1.0162
0.994467
-0.150938
-1.21108
1.48872
-1.97578
-1.26917
-1.1118
0.228322
1.00733
-1.29592
-0.686502
-0.780907
1.17376
-0.492307
0.908395
1.05066
1.01191
-1.35431
0.994178
-2.31999
1.04622
1.06001
-0.388209
1.04998
0.563283
1.01768
0.715255
-2.0697
0.00464238
0.00679269
0.0634123
1.28553
-0.204352
1.06634
1.43768
-0.625132
-0.0283909
1.09682
-0.0426578
1.09411
-0.0298482
-0.0483133
1.09539
1.10006
0.420472
-1.50545
0.819938
-0.67805
-0.882954
-0.623187
1.05691
1.02406
1.44623
-0.99188
-0.679114
0.743395
-1.11866
1.11512
1.04031
1.01605
1.02481
0.985298
-2.03763
-0.99585
-1.33893
0.861701
0.962026
-2.2285
-0.809147
-1.02811
1.04721
1.06158
-1.21788
-1.74968
1.07075
-1.17725
0.259059
0.833148
0.97949
-0.237589
-1.15685
-0.191899
-0.996649
-0.714688
-2.03948
-1.65741
1.39282
1.41639
-0.811987
-0.928726
1.04753
1.02389
-0.996683
-0.084974
-0.377445
0.714098
1.13272
-1.52144
1.04117
-1.2031
-1.14649
-1.01422
-1.21889
-0.870994
1.01104
-0.974043
-1.63291
1.40891
-1.00178
1.04178
1.27667
-0.809525
1.05581
1.26833
-0.842543
1.29817
-1.02345
-1.17348
1.07049
0.105012
1.02495
1.04319
-1.03463
1.08662
0.136336
-1.96602
1.07886
1.04337
-0.930055
-1.44301
0.988363
1.03432
-1.03667
-2.10047
1.33757
-1.03964
0.953425
-0.0441374
0.965711
-0.959811
-1.91069
-1.02436
-0.838781
1.14994
1.06015
1.30718
1.2621
1.03671
1.09723
1.12113
-1.0188
1.19
1.15816
-0.834866
-1.04315
-0.951978
1.37774
-1.7424
-1.15502
0.123911
0.9973
-0.842175
-0.785955
1.07908
1.03227
-1.03004
-0.817407
-1.12377
0.0605043
-2.09143
-0.84198
-1.01282
0.951601
0.90254
-0.804456
-0.391801
-0.899195
0.904151
-1.04033
-0.830992
-1.00823
0.955639
-1.74359
-0.822551
1.34869
0.920979
0.388659
1.21327
0.213575
0.991685
1.04911
1.15107
1.22612
-0.236101
0.749761
1.06594
0.261495
-1.00312
1.46459
0.988198
0.93121
1.08919
-0.829368
-2.04055
0.873889
0.858695
0.994564
-2.09948
-1.92028
1.0196
-1.0082
0.843291
-0.0431824
1.46644
-0.999481
0.802476
0.745133
-0.79378
-0.996552
-1.4104
1.07813
-0.797069
-0.992169
0.706814
0.688796
-1.28392
1.10635
0.853839
-0.800298
-0.728973
0.999098
-2.1889
-0.993694
-1.11717
-0.784994
-1.01299
1.0251
1.04008
-1.89246
0.624215
1.03894
1.38746
0.27481
0.371483
0.102573
0.896019
-0.469787
-0.791214
-1.51964
-0.519124
-0.78846
1.03177
-0.788241
0.264665
-0.99126
0.622925
0.574112
-0.784942
0.643145
-1.94555
0.500121
-0.781659
0.550333
-0.793691
0.392052
-0.988024
0.468975
-0.778193
0.828282
-1.77897
-0.778805
-0.785375
-0.985821
1.05038
0.0851701
-0.815006
-0.995491
0.135233
0.17149
-0.782121
-0.996334
-0.858551
-0.126972
-1.0112
-0.0235024
-1.04362
-0.224403
-0.935997
-0.300261
0.935017
-0.289229
-1.97048
1.0232
-0.0373973
-0.215786
0.452664
1.00101
-1.75659
-1.92308
-0.989914
-1.54019
0.913446
1.46459
-0.89457
-0.187941
0.0115298
-0.98623
-0.345057
-0.384511
1.01662
-0.828787
0.983284
-1.55779
1.53225
0.454535
1.44358
-0.812688
1.20764
-0.472452
1.02968
-1.0803
-0.986575
1.08949
1.02642
-2.07401
-0.991737
-0.785631
1.02283
-0.823058
1.02231
-1.2189
-1.08938
-1.02521
1.34653
1.08326
1.12736
1.06036
1.04965
-0.0990459
-0.635321
1.26113
-2.19516
-0.922517
1.46551
-0.807076
0.954996
0.976607
1.40746
1.45608
-0.811728
-1.55406
1.06893
0.221739
-0.474781
-0.73819
-0.898399
-1.92473
-0.813913
0.552697
-1.38468
1.21884
-1.28681
1.10104
1.18109
1.08548
-1.50893
-0.979312
-1.07609
1.12201
-0.962033
1.22992
-0.64019
-1.05825
1.29269
1.32604
-0.980107
0.172651
0.974866
-1.26026
-1.08422
0.671516
1.32771
1.25038
-1.04203
0.924397
0.904848
-0.986161
1.26122
0.362525
-0.807909
-1.0003
-0.21145
-0.172307
1.16983
-0.864755
0.341575
-0.0166874
0.00311271
-0.774052
-0.978549
1.03089
-1.94261
1.06948
-0.0194622
0.0782662
0.701345
0.243665
-0.974608
-0.531355
-1.20876
-0.213305
0.000657329
-1.40597
0.992501
-1.98668
-1.93147
1.06062
-1.17162
-0.835966
1.04763
-1.05837
1.02785
-0.102726
-1.01886
-0.365662
0.803693
-0.841816
-1.74926
0.906113
-1.0652
1.10381
-0.598683
-1.02331
-0.954787
-0.988862
1.51326
-2.00597
1.14787
0.0329546
0.992114
1.22779
0.732145
1.05148
1.21503
-0.111732
-2.01689
1.00004
1.11272
1.38629
-0.988719
1.09
0.735948
-1.01536
0.795801
1.22571
-0.50275
1.39723
0.213336
-0.799913
0.842239
-1.02979
-0.782767
0.97161
-0.393721
1.08967
1.06792
1.00697
-0.82372
0.960905
1.31744
-1.08708
-0.274094
-2.04707
-1.11478
-1.01696
-0.992804
1.37226
0.754561
-0.843248
0.91875
-1.03842
-0.913403
1.28877
1.28096
-1.92265
-1.46353
-0.989023
-1.04742
1.00058
-0.843729
0.0589809
-0.741001
-0.412888
1.09764
-1.04168
1.44182
1.08734
0.897894
1.06672
1.35751
-1.11403
-1.04463
1.04018
1.16419
-0.748587
1.03887
-1.95686
-1.02287
-1.03035
1.14019
1.16972
-1.02886
-0.856998
0.551847
-0.101272
-1.26561
1.02218
1.01928
-1.43725
1.05873
1.10077
-1.37934
-0.838865
-0.835947
-1.0174
-1.03193
1.33284
-0.369296
0.973562
-0.84636
1.32781
0.920994
0.925952
0.998842
-2.02426
-1.05361
-1.01181
0.592027
-0.821693
0.927164
0.289018
-0.556727
0.918337
1.01443
1.07442
1.04957
-0.0387656
1.07352
-0.0547721
0.411875
0.851175
-0.512319
-0.833507
-0.876568
-0.623025
1.04594
0.976619
1.04585
-1.82222
-0.831128
-1.00701
-0.720629
1.04386
1.33883
1.05741
-0.827479
-0.83127
-1.21513
-0.479895
-0.990482
-0.989538
-0.146608
1.03566
-0.765218
-0.802628
-0.0277311
-0.11207
0.780449
-1.58643
-1.00304
-1.20384
0.990451
1.46466
0.0299492
1.1328
1.52664
0.720891
1.25319
-0.840153
-0.0464758
1.41795
-0.998874
0.303379
-0.816643
-1.03648
-0.780957
-0.795438
1.00216
0.735179
1.24626
1.20841
0.00558604
0.782991
0.0999468
-0.0254651
-0.994818
1.1433
0.782069
1.05232
1.06858
-0.109303
-0.0939933
1.06517
-1.21561
-0.992656
-0.798994
-0.789948
0.592416
-0.79258
0.991079
0.670664
-0.997315
1.24752
-0.822132
-0.263616
1.01509
-0.817052
-0.964693
-2.08135
0.657979
-0.807247
-1.13278
0.969225
1.06058
-0.1291
0.0121066
-2.22923
-0.992062
-0.448541
-1.5037
-0.231704
0.601618
-1.11096
-0.789763
1.31586
0.323175
0.423188
-0.786993
-1.0415
1.03536
1.05532
0.58856
0.535405
-0.783282
-0.967734
-0.798601
0.512979
0.442073
-0.779441
0.882909
0.207627
-0.775007
1.49271
-0.778227
-1.82625
-1.03167
-0.734628
0.847993
-0.795434
-0.83811
-1.0007
-0.00438276
-0.833426
0.0653329
-0.809153
-0.21075
1.2275
-0.890583
-0.191093
-1.02774
-0.110882
1.39206
1.4182
1.28274
1.04222
1.25966
-0.641116
1.02854
-0.828189
1.05299
-0.991245
-0.989166
1.27983
-1.18495
0.474114
-1.679
1.42699
-0.0118042
1.3621
0.656079
0.820173
-0.81162
-0.815643
-0.987109
-1.00144
1.3447
1.24314
1.02798
0.633198
1.02984
0.873023
0.866683
-0.782413
-1.04331
0.308087
0.0590125
0.841854
1.04549
-0.0439954
-0.806137
-0.77747
-1.5086
-0.987398
-1.78923
1.36272
1.06344
1.04053
-0.0885365
-0.0649451
1.06159
-0.93589
-0.992677
-2.1627
-1.00918
0.830573
-0.800168
-0.784487
-0.338165
1.04589
-1.82943
-1.03048
1.02986
0.609957
0.72309
1.03007
-0.990106
0.916384
1.2113
0.843271
-0.987267
1.02347
0.351133
0.512064
-0.976287
-0.794644
1.48614
0.228511
-1.14412
-0.00795658
0.952721
1.01331
-0.953297
-1.40627
-0.159849
-0.746727
-0.932266
-0.844491
-0.0893138
1.02561
-1.03193
1.02967
1.30153
1.10239
1.03335
1.13242
1.19297
1.03395
-1.38563
-0.689151
-0.352543
-1.06936
-0.952674
-0.784463
1.19262
1.09735
-1.03609
0.98523
-0.784741
0.0759369
-0.781073
-0.412882
0.534658
-1.33285
1.02264
0.952016
-1.34587
-0.422996
1.37225
-1.71177
-0.713829
-1.17335
-0.850606
-0.754475
1.07155
0.81777
1.11268
-1.18357
-0.827834
-0.970071
-0.310378
-1.0339
-1.4843
-1.28314
-2.12249
0.956113
-0.788392
1.47636
-1.02287
-0.618381
-1.02798
-0.783934
0.949488
-1.05161
-1.13466
-1.00506
-0.408117
1.24212
1.24129
-2.20332
-1.11012
0.867127
-1.01053
-0.928623
1.12519
-1.30797
-2.02452
-1.02016
0.795103
-0.477284
-1.02899
1.02603
0.0518142
-0.853033
1.04068
-0.815393
-1.45518
-1.10426
-0.854478
-0.128378
-1.02863
1.36313
-0.999243
0.133957
-0.992596
0.836218
-0.628059
-0.916439
0.695745
0.770367
1.08759
0.988617
1.22202
-0.796035
0.862951
0.548956
-1.16978
0.974817
-0.319042
-0.647442
-2.01367
1.19918
1.18641
-0.721165
-0.877858
-1.16542
1.05928
-0.84199
0.0892824
-1.36202
-0.791219
1.32744
1.05776
-0.813361
-0.825846
-0.813953
-0.804953
0.940224
-0.844914
1.02394
0.282197
0.754279
0.879042
-0.765045
-0.900261
0.984736
-0.787192
-0.0685165
1.31293
-1.00795
-0.802687
0.864802
-1.17399
-0.833006
-0.244281
-0.976246
1.38491
-0.673282
0.107491
-0.816366
1.32146
-0.82071
-0.822178
0.691092
-1.29392
-0.990762
1.36321
0.720471
1.01557
-0.837852
1.27867
-0.292919
-0.899811
-0.840089
-0.844718
-0.825587
1.31098
0.624671
-1.02908
-0.821758
-1.01612
1.16953
-0.781948
1.29696
-0.991047
0.758499
-0.798275
0.42416
0.588411
0.554626
0.475098
0.171027
-0.800437
1.05317
-0.839688
-0.629031
-1.20664
0.259268
1.33903
-0.371231
-0.839864
-0.839531
-0.800915
0.319859
-1.02002
-0.796402
0.848387
0.164699
-0.807056
1.40669
-1.02295
-1.57803
1.38797
-0.802725
0.207985
-0.795352
-0.782081
-0.793893
1.38056
-0.775984
1.30293
-0.792209
-0.878677
1.21716
-0.300546
-0.821438
0.614838
-0.97751
0.0767101
-0.472727
-0.796832
0.81697
-1.11937
-0.795367
-0.783976
-0.782966
-0.999306
0.857461
-0.0926335
-0.54971
-0.810337
1.33208
-0.906806
-0.829545
-0.769685
-0.194631
-0.910054
-0.767427
-0.8081
-0.156502
1.29343
-0.827313
-0.989242
-1.18667
-0.808451
-0.172379
-1.00532
1.42003
1.3549
0.466396
-0.949859
-0.99591
0.383143
-0.997692
1.43421
0.265068
1.08268
0.746155
1.30234
0.149549
-0.920831
-0.992091
-0.000478851
-0.840029
-0.000278285
-0.139204
-0.791071
1.32913
-0.376577
0.275888
-0.517199
-0.988777
-0.979944
)
;

boundaryField
{
    frontback
    {
        type            empty;
    }
    Top
    {
        type            zeroGradient;
    }
    outlet
    {
        type            fixedValue;
        value           uniform 0;
    }
    bottom
    {
        type            zeroGradient;
    }
    Inlet
    {
        type            zeroGradient;
    }
    rectangle
    {
        type            zeroGradient;
    }
}


// ************************************************************************* //
