/*--------------------------------*- C++ -*----------------------------------*\
| =========                 |                                                 |
| \\      /  F ield         | OpenFOAM: The Open Source CFD Toolbox           |
|  \\    /   O peration     | Version:  2306                                  |
|   \\  /    A nd           | Website:  www.openfoam.com                      |
|    \\/     M anipulation  |                                                 |
\*---------------------------------------------------------------------------*/
FoamFile
{
    version     2.0;
    format      ascii;
    arch        "LSB;label=32;scalar=64";
    class       surfaceScalarField;
    location    "16";
    object      phi;
}
// * * * * * * * * * * * * * * * * * * * * * * * * * * * * * * * * * * * * * //

dimensions      [0 3 -1 0 0 0 0];

oriented        oriented;

internalField   nonuniform List<scalar> 
3181
(
-1.04392
0.401701
0.64222
-0.391141
0.367872
0.0232686
0.525012
-0.360841
-0.164171
0.123365
-0.203014
0.0796495
-0.0662745
0.0879449
-0.0216704
0.834639
0.567192
-1.40183
0.149152
-0.142808
-0.00634403
0.0683306
0.00391895
-0.0722495
0.596847
-0.769456
0.172609
-0.0742903
0.138597
-0.064307
-0.010243
-0.0502756
0.0605186
0.124459
0.0484509
-0.17291
-0.0126212
-0.0533548
0.065976
-1.09243
0.149203
0.943228
-0.329099
0.702164
-0.373065
-1.12099
0.637804
0.483184
0.0831904
-0.933606
0.850416
-0.356397
0.298139
0.0582588
-0.728893
-0.517699
0.00356986
0.0490986
-0.0526685
0.0346542
-0.0848192
0.050165
-0.0741881
0.0614646
0.0127235
1.05983
-1.03472
-0.0251147
0.0182478
0.0349315
-0.0531793
-0.955517
0.326073
0.629445
-0.10759
0.230954
0.308917
-0.245566
-0.0633511
0.0298579
0.0625389
-0.0923968
-0.406243
0.334609
0.0716345
-0.0325994
-0.0117358
0.0112578
0.00047803
-0.0352519
-0.920266
0.0736633
-0.0628772
-0.0107861
0.129078
1.44982
-1.5789
-0.0446382
0.0485825
-0.00394426
0.177426
0.272757
-0.450182
1.57618
-1.4471
0.0709187
-0.0362645
1.53812
-0.795564
-0.742555
-0.190099
1.02474
-0.106917
0.0942953
-0.0771976
0.00300954
-0.411374
0.082275
-0.144508
0.06731
-0.630726
0.126964
0.503762
-0.150297
0.0760064
-0.169321
0.173577
-0.00425599
-0.271628
-0.0772408
0.348869
0.0337267
1.47759
-1.51131
0.0716417
0.198696
-0.270338
-0.00816595
-0.0984372
0.104422
-0.00598504
0.517928
0.184236
-0.0960034
0.139262
-0.0432585
0.095409
-0.0217457
-0.171917
0.198458
-0.0265403
0.16432
0.0568802
-0.2212
0.109564
-0.1155
0.00593579
1.27403
0.26409
-0.856987
-0.186934
0.12346
-1.67661
1.55315
0.549653
0.230603
-0.780255
-0.442442
-0.203939
0.646381
-0.756634
0.566536
-0.27164
0.821292
-0.324515
-0.103651
0.428165
-0.204718
-0.201525
-0.191975
0.167044
0.0249313
0.13187
0.285524
-0.417394
-0.174583
0.771429
-0.0219914
0.0903219
-1.94753
2.07099
0.189086
0.119831
-0.180831
-0.109826
0.290656
-0.270025
0.355135
-0.0851091
-0.0820234
0.0899224
-0.00789902
-1.9138
-0.918417
0.008976
0.909441
-0.0605134
0.0158751
-1.0538
0.796429
0.257369
0.572831
-0.313711
-0.25912
-0.855709
0.0990747
1.10539
-0.95619
-0.714081
1.14396
-0.200729
1.07014
0.166919
-0.175004
0.00808504
1.35226
-0.785072
0.520628
-0.520628
-0.00787892
-2.92992e-05
0.00790822
-0.213925
-0.0522265
0.266151
0.0985117
-0.071227
-0.0272847
-0.446751
0.835552
-0.388801
-0.0165513
-0.237962
0.254514
-1.07884
0.0441222
0.343579
0.0557723
-0.399351
0.133871
-0.850732
1.08133
0.0782052
0.101258
-0.179463
-0.0170299
-0.154887
-0.428395
0.0950976
0.333297
-0.223976
-0.204419
0.120315
-0.971047
0.33677
-0.783522
0.919822
-0.836632
-0.000591612
0.182635
-0.182044
0.0817716
0.0513286
-0.1331
-1.40126
-0.0991289
1.50039
-0.248609
0.411144
-0.162535
-1.26251
0.625309
0.637197
-0.468738
-0.58506
0.168032
-0.0963899
-0.153446
0.147805
0.00564146
-0.077225
-0.0127144
0.0899393
-0.53935
-0.230105
-0.0921002
0.0412147
0.0508855
-1.09935
-0.166074
1.26542
1.81412
-0.336537
-0.0111228
0.00324389
0.0391636
0.149922
-0.198161
0.375586
0.0112838
0.272458
-0.283742
0.136519
0.0673268
-0.203846
0.31979
0.0463137
-0.366104
-0.59407
-0.526919
-1.10022
0.000869385
-0.0632246
0.14143
-0.107694
0.184693
-0.0769998
-0.0366073
0.0248766
0.124275
-0.0571384
0.0718809
-0.0147425
-0.0964641
-0.0223246
0.118789
0.0750043
-0.0750043
-0.185407
0.210284
0.348855
0.20998
0.105454
0.0930035
-1.27731
1.10273
-1.5753
0.120948
1.45435
0.0337089
-0.027734
-0.00597492
-0.0262235
-0.0505486
0.0767721
0.539859
-0.0218831
-0.517975
-0.043087
0.0444322
-0.00134523
-0.200563
0.0151557
0.160691
0.674861
-0.370232
0.530923
-0.166747
-1.23451
-0.115431
0.0491568
0.48837
-0.306153
-0.182218
0.120831
-0.102594
-0.0182361
0.048245
-0.319873
0.0233598
-0.941777
0.0489543
-0.156648
-0.28842
-0.401755
0.070916
1.3864
-0.936204
-0.450196
1.08999
0.296405
0.0669524
0.281916
0.0349673
-0.00125842
-0.0968387
0.174
-0.0771614
-0.25696
-0.581399
0.838358
-0.358435
0.623372
0.841034
-1.35873
0.142707
0.0300627
-0.0554885
0.0254258
-1.49989
0.410267
1.08962
-0.300536
-1.19935
-0.304371
0.64795
-0.910247
-0.0183211
0.00461667
-0.264101
0.259485
1.46985
-1.5798
0.109948
-0.109816
-0.00561551
0.567793
-0.824752
0.17824
-0.432954
0.254714
-0.292148
-0.11884
0.410988
0.17277
-1.0043
-0.0745388
-0.00843753
-0.0442309
-0.553037
0.349098
-0.243454
0.0183862
0.225068
-0.0166887
-0.0931271
0.025187
-0.025187
-0.117699
0.129036
-0.0113372
-0.31033
-1.26497
0.0703548
0.0292515
-0.0996063
-0.147144
0.0127679
0.134377
-0.222173
0.0301976
1.60301
-0.483675
-1.11934
-0.196528
0.450953
-0.254426
0.00886449
-0.00819442
-0.000670076
-0.800846
-0.46166
-0.183449
-0.00471135
0.18816
-0.175446
0.307315
-0.100068
0.0984077
0.00166001
0.0752892
0.00995712
-0.0852463
-0.132043
0.145235
-0.0131922
-0.500378
1.10836
-0.607984
-0.219973
-0.0510039
0.270977
-0.694906
0.660698
0.0342083
-0.00249895
0.0374305
0.0268251
-0.0266073
-0.000217801
0.000296035
-0.0534753
0.851696
0.962426
0.174515
-0.884733
0.710219
-0.00328418
2.0837
-2.08041
0.38472
0.370128
0.1505
0.062037
0.201509
-0.0649904
-0.0702404
-0.0281967
0.23843
0.155346
-0.0735748
0.734891
-0.408818
0.0604205
0.20573
0.0499133
-0.16489
0.114977
-0.780999
-0.143641
0.92464
-0.0347085
0.0347085
-0.0634688
-0.265659
0.538416
0.0124132
-0.232386
0.170353
0.127785
0.033976
-0.0972007
0.133901
-0.144144
-0.345896
0.329345
0.0408114
0.0637021
-0.104514
0.385017
-0.336566
0.711541
-0.380152
-0.33139
-0.206912
0.273864
0.186643
-0.492795
-0.21411
0.615812
0.165875
-0.0337107
0.0337107
-0.259477
0.499505
-0.240028
0.385955
0.025189
-0.0339512
0.0406271
-0.00667588
-0.169079
-0.0477728
-0.0443274
-0.0487331
0.182634
-0.178061
0.238443
-0.0603818
0.127638
0.0277086
-0.392851
0.147286
0.188678
-0.06104
-0.0451972
-0.0548705
-0.0734865
0.0728591
0.000627314
0.147888
-0.104918
-0.04297
-0.0132203
0.39125
-0.37803
-0.115294
0.093303
0.102827
-0.107085
0.00425712
0.0234481
0.479252
0.232289
-0.0938082
-0.0235106
0.117319
-0.0943705
-0.0286804
0.123051
-0.0899902
0.0978782
-0.719988
0.62211
-0.0365618
-1.52219
-0.435473
1.95767
0.700757
1.02889
-1.72965
0.0830239
-0.311157
0.357471
0.276998
0.248613
-0.52561
-0.205249
0.255163
0.155108
-0.898516
0.743408
0.0261469
-0.120517
-0.014706
0.0062685
-0.98841
0.444722
0.543688
0.936204
-0.815889
-1.69146
1.59233
-1.46985
1.5908
0.040265
-0.0835236
0.0097857
0.0170394
0.0168355
0.810919
-0.655811
0.123187
-0.0742327
0.408059
0.735898
-0.130307
-1.78747
1.78418
-0.672787
-0.604522
-0.239821
-0.390906
-0.0209991
-0.165976
0.214221
-0.580351
-0.377279
0.180752
0.777269
-0.23741
-0.897065
-0.794394
0.742307
0.162255
-0.136108
0.288418
0.0383696
-0.0383696
0.670252
0.149458
-0.81971
-0.224968
0.89522
0.395353
-1.22528
0.829924
0.256813
-0.0468336
0.00705869
0.00600374
-0.0130624
-1.67661
-1.15619
0.819655
1.05916
0.543852
-0.0347648
-0.134556
-0.241744
0.759673
-0.195141
-0.0483129
-0.00313969
-0.0788837
-0.0523076
0.103636
0.374637
-0.247672
-0.839535
-0.283246
-0.122246
-0.0187801
0.141026
-0.616555
0.986683
-0.156213
0.130938
0.0252754
0.0316858
0.00328152
-0.101245
0.0499022
0.0513432
0.00975981
0.418406
0.0895211
0.0313094
0.0141464
0.00402245
-0.0181689
-0.0161011
-0.167347
-0.722777
0.370679
0.352098
0.57823
-1.57066
0.992425
0.136566
-0.157467
0.0209014
-0.0105524
0.178584
0.167659
-0.688288
-0.101914
0.000668594
-0.133833
0.0374433
0.142346
-0.340506
-1.60394
0.645972
0.95797
0.035043
0.0929956
0.0548927
-0.780999
0.0878739
-0.588252
0.114466
-0.0645642
0.0433019
-0.638139
-0.0567675
0.060305
0.128373
0.307515
0.0442226
-0.461616
0.122861
0.344745
-0.288972
-0.118904
0.0224395
0.221608
0.841226
-1.06283
0.104164
-0.713054
0.60889
-0.952409
0.808768
-1.26158
0.272754
0.988823
-0.0134168
0.0145071
-0.00109033
0.16902
-0.461168
0.205904
-0.120511
-0.0853932
0.0427028
-0.0713832
-0.0365746
-0.0856714
-0.00952146
0.0241289
-0.0238329
0.0209342
0.0759177
-0.0968519
1.09611
-0.00292216
0.00328889
-0.000366728
0.102955
-0.00965241
0.859412
0.0531484
-0.0587639
-0.329165
-0.827027
0.228387
0.0284266
0.00772243
0.0852732
-0.988823
0.688288
0.198723
-0.21202
0.0132979
-0.252404
0.0773994
0.119788
-0.111703
-0.00151916
0.0914416
-0.0391681
-1.46351
-0.140436
-0.0411862
0.0621204
0.738369
-0.255184
-0.256768
0.109624
0.34201
0.0105094
-0.0444606
-0.00779291
0.0827972
0.146783
0.208352
0.153531
-0.328716
0.175185
0.113579
0.561282
-0.0417997
-0.108497
0.937227
-0.261038
-0.676189
-1.26158
-0.439314
1.01754
1.57618
-0.118706
0.358955
-0.24025
0.356144
-0.0715121
-0.284632
-0.238958
-0.616752
-0.0713175
0.072043
-0.00072548
-0.0575439
-0.18713
0.244674
0.482387
-0.966092
0.483705
0.0395688
0.658077
-0.697645
-0.0443078
-0.109138
-0.0044789
-0.0893293
0.311686
-0.571162
-0.0149602
0.00154339
0.170933
0.00351156
-0.174444
0.0529561
-0.149795
0.000702265
0.0309835
0.0526264
0.130009
-0.0231115
-0.00349579
0.195544
-0.433506
-0.479937
1.50883
0.0260855
0.008623
-0.987082
-0.0172172
0.137425
-0.0730619
-0.0458417
-0.0834519
0.261692
0.875259
-1.05074
0.175483
0.184403
0.0439834
-0.942657
-0.0135328
-0.014677
-0.648089
0.745967
-0.0179431
0.183818
0.000174999
-1.22545
0.181266
-0.443712
0.262446
0.00509526
0.267363
0.00191692
-0.00199249
7.55699e-05
-0.0452666
-0.0867766
-0.0212607
-0.133627
0.746067
-0.641903
-0.124996
0.0833686
-0.103257
0.309036
-0.155506
0.121561
1.20336
-0.254111
-0.949252
-0.119108
0.137494
-0.50449
-0.218287
-0.561746
0.609615
-0.596808
-0.0128062
-0.091979
-0.0330174
-1.78747
0.545883
-0.545883
-1.81853
1.81853
0.810919
-0.109905
-0.140944
0.250849
-0.89388
-0.0932025
0.626286
-0.365462
-0.260824
0.165177
-0.242177
-0.00989356
-0.00122924
-0.888124
-0.0829224
-0.932676
0.212688
0.0452435
-0.0640236
0.699775
-0.113764
-0.586011
1.13879
0.437381
-0.000759852
0.00267677
-0.967772
0.425433
-0.805585
-0.0712743
-0.603178
0.674452
-0.0572943
-0.876667
-0.70313
0.217643
-0.811713
-0.92464
1.3721
-0.447461
-0.140036
0.280751
-0.140715
-0.0237095
0.723484
-0.105438
-1.01832
1.01832
-0.781766
0.338078
0.443688
0.000119291
-0.00304145
0.0779046
-0.437084
0.817296
-0.0208665
-0.0838387
-0.0352299
0.103583
0.00599778
0.00286671
1.67929
-1.40653
-0.327577
0.402866
-0.631139
1.00801
-0.376872
-0.0505572
-0.0513568
0.12239
-0.0550633
0.353782
0.00735309
-0.0607079
0.352653
0.038597
0.0422787
-0.244839
0.202561
0.139415
0.0341612
0.0961666
0.178845
1.53101
0.539982
0.107211
0.696834
-0.804044
-1.02732
1.43759
0.202016
-0.134706
0.0775748
-0.767762
0.690187
-0.00269406
0.130721
-0.476617
-0.0733845
0.134208
-0.0608238
0.133801
-0.207185
-0.4463
-0.106737
-0.070722
0.0737777
-0.00305567
0.00051783
-0.0236294
-0.010295
-0.0114507
0.655811
-0.60889
-0.0469211
-0.291676
0.304089
0.880795
0.603444
-0.247299
-0.0279043
0.0571559
-0.310148
-0.122806
0.17284
-0.581617
0.408777
-0.00183578
-0.000156709
0.0113148
0.125104
-0.136419
0.00372805
-0.00997371
0.00624565
-0.0234889
0.0155508
0.0079381
-1.26059
0.475514
-0.145407
-1.37679
-0.197687
-0.815889
1.5908
1.59233
-0.192841
-0.173101
0.122097
-0.0624404
0.0680596
-0.00561916
-0.180662
0.967249
-0.786587
0.550387
0.0758989
0.0016047
-0.00344048
0.119615
-0.454248
0.0352299
-0.0458492
0.00466301
-0.665687
0.355538
-0.0524678
0.0864438
-0.231074
0.616091
1.08999
0.000528089
-0.0615552
0.00146294
0.0600923
1.96394
-0.371607
-0.0610527
-0.0544473
-0.974474
0.158585
0.380664
-0.207894
-0.476046
-0.130859
0.606905
0.816839
-0.364947
-0.451892
0.0475979
0.827661
-1.78418
0.107578
-0.00704597
-0.0250108
0.0320568
0.277472
1.80623
-0.170967
0.178026
0.133401
2.255
-0.664207
-0.681314
0.0567038
0.62461
0.38229
0.00759664
-0.348629
0.535525
0.81506
0.481509
0.0762564
-0.0213637
-0.668924
0.22313
0.445794
1.33663
0.0522955
-0.0381491
-0.0502533
-0.356591
0.105566
-0.310816
0.84428
0.359083
-0.101632
0.00965258
0.298958
-0.417664
-0.0209221
0.0184232
0.110981
-0.147857
0.0368759
-0.298733
0.312833
-0.0140999
0.491928
-0.746039
-1.38104
0.119713
1.26133
0.104077
-0.202581
0.0985036
0.270162
0.0388741
-0.37648
0.464354
-0.660795
0.660795
1.55315
1.13879
-0.713054
0.330008
0.485053
-0.588917
0.348889
0.912204
-0.361816
0.00970971
-0.87675
0.86704
0.133886
0.00471155
0.0259428
-0.708191
0.331711
0.112809
-0.166344
-0.122466
0.28881
0.291568
-0.514738
0.348394
-1.10589
-0.284356
-0.651085
-0.048263
0.00295245
0.000336441
-0.223149
0.0666039
0.0744223
0.0340573
-0.144914
0.110857
-0.353397
-0.428369
-0.00569793
0.0682368
-0.959113
0.519282
0.439831
-0.56917
0.386952
-0.0913096
0.155012
0.234707
-0.00262334
-0.0120827
-0.963373
0.479698
0.0338925
0.068935
-0.154566
0.0513085
0.197894
0.00801012
-0.428591
1.25728
0.467537
-0.0113577
0.869425
-0.79185
0.786431
-0.44442
-0.613053
0.175969
0.151323
-0.793561
0.766626
0.0269345
1.12421
-0.279929
-0.196535
-0.131041
-0.0930935
0.0218665
0.955931
-0.843033
-0.112898
-0.181637
0.108062
0.0274553
0.120349
0.881392
0.596195
-0.804354
0.208158
-0.324842
-0.0524368
-0.23126
-0.727853
0.126036
1.37435
1.10824
0.0305559
0.169365
0.553175
-0.722541
0.0426935
0.0493589
-0.00273508
0.000111733
-0.510759
-0.102295
0.152927
-0.169616
-0.185235
0.136502
-0.533251
0.278825
-0.99273
-0.321606
-0.285983
-0.614518
1.55121
-0.0968542
-0.28622
-0.340134
-0.325553
0.163205
0.297497
0.0551567
1.33711
-0.85472
-0.188767
0.127727
-0.502503
-0.278736
0.781239
-0.00797866
0.000932688
0.0481321
-0.0595041
-0.239229
-0.121445
0.698563
-0.420352
-0.278211
0.170341
0.134828
-0.096967
-0.0378606
0.240383
0.0571133
-0.416044
-1.31361
-0.0947804
0.138082
0.922411
-0.326215
0.0163593
0.106692
-0.0209062
0.0205027
0.000403513
0.0144365
-0.0421705
-0.242062
0.0771722
-0.0651511
-0.558055
0.418018
0.0172489
0.0992462
0.00483101
-0.695163
1.61188
-1.25279
0.015516
-0.190981
0.175465
-0.1374
-0.53932
0.67672
0.0771701
-0.715309
-1.16361
-0.217435
-0.0596275
-0.000153934
0.0597815
-0.247054
-0.609615
-0.171384
-0.143576
-0.668924
-0.228615
0.163624
-0.310291
-1.15502
-0.54786
0.399523
0.148337
0.26349
0.115288
0.516137
0.152307
-0.668444
0.106067
0.0561882
0.876383
0.263644
-1.14003
-0.222206
0.395386
1.0422
-0.239048
0.178666
-0.717389
1.11278
0.161113
-0.0660154
-0.0297485
0.046584
-0.0100475
1.1271
-1.13846
0.729539
0.0873003
-1.33777
-0.125739
0.234413
0.677791
0.916505
0.0207218
-0.0197608
-1.10824
-0.651085
-0.712772
0.721748
-0.0553196
-0.897065
0.658077
0.608667
-0.936236
0.812995
-0.00521072
-0.78835
-0.312991
0.637201
-0.772906
0.135706
0.0808505
0.0539771
-0.498069
-0.224948
1.14714
-0.922197
0.00116752
0.00178493
-0.260551
0.212239
0.714371
0.222153
-0.206998
-0.180894
0.632154
-0.798228
0.212353
0.0384959
0.512502
0.732259
-1.24476
-0.824806
1.04794
1.00509
-0.485804
0.0769707
0.220847
-0.445794
-0.00627345
0.213301
-0.0618107
0.1096
0.027825
0.000461576
-0.0247968
0.0243352
-1.02675
-0.0360845
0.314539
-0.809107
-0.564007
1.48435
-0.920345
0.372424
0.635587
-0.0499724
0.0535199
-0.00354755
-0.00966684
0.641821
-0.716203
0.692897
0.618392
-1.1824
0.311456
-0.0981548
-0.585635
-0.407095
-0.757475
1.26998
-0.058126
-0.881961
-1.92469
-0.155722
0.220847
0.0494218
-0.858528
0.833716
-0.647285
-0.186431
-0.981612
0.395977
0.00670004
0.114087
-0.000318245
-0.113769
-0.970865
0.56377
-0.215113
0.91147
-0.925003
0.189755
-0.205856
-0.0946649
0.23701
1.17209
0.337622
-0.153617
-1.45185
0.502597
1.31735
-0.835842
-0.553092
-0.51873
1.07182
0.446908
0.0179796
-0.0119758
-0.73373
0.697645
0.105848
-0.115515
-0.1505
0.111325
0.039175
0.822857
0.661495
0.78108
-0.81368
-0.492289
-0.449487
-0.471206
-0.499658
0.803051
-0.803051
0.684308
-0.684308
-0.73373
-0.2104
0.2104
-0.111325
-0.468366
-0.501711
-0.502176
-0.197589
0.197589
0.105848
-0.115515
0.78108
0.769558
-0.769558
0.81368
0.760832
-0.760832
0.507711
0.528794
0.48127
-0.0917404
-0.500342
-0.550513
1.07931
-0.428751
-1.41928
0.661806
0.538629
0.466457
-0.105332
-0.0139935
0.0671419
-0.886049
0.0943478
0.791701
-0.11553
0.094531
-0.995414
0.586596
0.933013
-0.603005
-0.123243
0.00853218
-0.00879544
-0.808914
-0.0758188
-0.543688
-0.00132121
0.00758972
0.599962
-0.137842
0.073278
0.172954
0.00573085
-0.0123648
0.006634
-0.814686
0.0676881
0.746998
0.611605
0.560485
-0.532054
0.410905
0.121149
0.917984
-0.743581
-0.174402
0.0793747
0.296212
-0.0136461
-0.0570759
-0.0568994
-0.0144181
0.542898
-1.15945
-0.840994
0.0977199
-0.742423
0.796788
-0.0543646
0.121819
-0.898693
0.776874
-0.800825
0.903558
-0.102733
-0.0726527
0.0870891
0.0197717
-0.283873
0.569877
0.700101
-0.0965514
-0.789498
0.913723
-0.0901012
-0.823621
0.0675702
-0.118127
1.15023
0.821432
-0.831954
0.456191
-0.380292
0.103602
-0.8931
1.4471
0.371433
-0.789972
0.00162252
1.01724
-0.895426
1.22876
1.19544
-0.844251
-0.35119
-0.879976
-0.115438
-0.408194
0.0301645
-0.640848
0.816331
-0.786775
0.786775
-0.604286
-0.0863801
-0.863607
0.120025
-0.931992
0.860718
0.0749094
-0.19542
-0.0575349
0.0607789
0.0111021
0.188585
0.82866
0.817178
0.773075
0.13731
-0.910385
-0.698478
1.16494
-0.781449
-0.107322
0.888771
0.172098
-0.888301
-0.675021
0.888431
-0.784828
-0.107825
0.458692
-0.0268187
-0.431873
-0.0294082
1.35076
-1.32135
0.0982923
-0.308811
0.210519
-0.889275
-0.830201
0.0877783
0.525984
0.260447
-1.82258
1.09769
-0.579898
0.579898
-0.901634
-0.550215
-0.0878779
0.419589
-1.02419
1.1439
0.781109
-0.203985
1.12249
-0.646978
0.991963
-1.21611
0.224144
-0.0937701
-1.47689
0.23703
0.496962
-0.383166
-0.205086
0.249769
0.299575
-0.2202
0.780712
-0.883445
0.757172
0.407764
-0.15093
0.737526
0.584976
-0.584976
-0.0745557
0.0778372
0.109255
-0.0751976
1.21943
0.131332
0.311346
-0.000526925
0.00298065
-0.00245372
-0.66737
0.695018
-0.0276482
0.362339
-1.20659
0.108562
-0.893391
-1.10402
1.45715
-0.353137
0.176204
0.875457
-1.18298
1.54532
-0.75608
0.601463
-0.65823
-0.657627
0.153137
-0.214626
0.0273728
0.0747406
-0.703025
0.488399
0.00507758
-0.836994
0.0682966
0.728491
0.692785
-0.0913225
0.0752654
0.784147
0.00636972
0.579856
-0.586225
-0.842637
0.528599
0.52685
-0.96165
0.737831
0.223819
-0.684374
-0.127339
0.956471
-0.448016
-0.123146
-0.0385
0.485768
0.514232
-0.7701
-0.113345
-0.556371
-0.318683
-0.527719
-0.24886
0.402536
0.597464
-0.119991
0.110338
-0.860202
-0.0673536
-0.590877
-0.156544
-0.247506
0.40405
-0.035043
-0.00412508
0.111288
0.0713459
-0.128143
-0.113919
0.760019
-0.641676
0.716941
-0.0425846
-0.66044
0.0362149
-0.00229711
-0.0339178
-0.746014
-0.194813
0.940828
-0.241677
0.230121
-0.02439
-0.0942372
0.00111013
0.0146838
0.709516
-0.129618
0.124188
0.11052
-0.735243
0.0678738
1.00982
-0.348596
-0.101323
-0.230067
0.0364233
-0.287935
1.02383
-0.0058257
0.37153
-0.238128
-0.00945283
-0.0519499
-0.0908644
0.0574037
0.952412
0.237315
-0.211592
-0.0257227
0.847797
-0.020391
0.000834754
0.0195562
0.126804
-0.0140833
-0.000876844
0.217787
-0.106806
0.236241
-1.26043
0.430807
-0.193491
0.00699164
0.289354
-0.21389
-0.960159
1.30036
-0.340202
-0.782206
0.837889
-0.0556827
0.22572
0.244947
-0.0838337
-0.0704323
1.27683
-0.453773
-0.0782813
0.277819
0.459169
0.190781
-0.64995
0.408197
0.0417114
0.653306
-0.577131
0.565449
0.011682
1.30219
-1.13899
-0.0249276
0.0320863
-0.00715869
0.696867
-0.00902306
-0.0828769
0.0190307
1.39168
0.608401
-0.382681
0.0789687
-0.082141
-0.12044
0.144983
0.0391989
-0.184182
0.00876632
-0.00830474
1.0502
-0.78656
0.180489
0.221097
-0.0257599
-0.0906986
0.224182
0.0966926
0.00645067
0.0812118
0.765164
0.403388
0.114559
-0.517947
0.796348
0.169143
-0.965491
0.643075
0.121254
-0.0683218
7.6414e-05
0.0682453
-0.726753
-0.0656871
-1.15042
-0.00165743
0.743965
0.715296
0.163733
-0.0942637
-0.403806
0.815174
0.150859
-0.029298
-0.880483
0.119714
-0.270805
-0.195586
-0.173335
0.689431
0.0757329
0.0131891
0.600084
-0.355138
-0.192322
0.163633
0.0279127
-0.112732
0.423733
-0.0568626
0.000417744
-0.072297
0.171371
0.204392
0.591957
-0.152331
0.27092
-0.0507109
-0.108376
0.0207592
-0.000802845
-0.0199564
-1.44954
0.310552
-0.00675222
0.887001
-0.226321
-0.614284
0.63788
-0.0235961
0.457857
0.757305
0.0360256
-0.0699434
0.0777011
-0.172366
0.628026
0.129279
0.577577
0.409106
-0.266823
0.723013
0.121043
0.83137
-0.600014
0.348916
0.251097
-0.157466
-0.0707801
0.0414782
0.0632033
-0.046566
1.17718
0.736518
0.0786556
0.615941
0.222417
-0.874969
-0.0807049
-0.675009
0.676632
-0.0238453
-0.585255
0.428711
0.872224
0.669737
0.16288
0.0226203
-0.160084
-0.316533
1.11192
0.499958
0.14342
0.0199741
0.79607
0.0352992
0.684305
0.58112
-0.0770416
0.726127
-0.741301
0.930755
-0.189455
-0.410639
-0.189375
-0.0431637
-0.194663
-0.217016
0.780227
0.00664184
-0.00261939
0.629597
0.0786568
-0.308724
0.602383
-0.131179
0.239013
0.753113
0.236667
-0.98978
0.276583
-0.923868
0.147095
-1.39989
-0.18266
0.7725
-0.58984
-0.668228
-0.116723
0.0224855
-0.0544791
-1.07091
0.0230939
-0.0440001
0.898312
0.152384
-0.357867
0.205483
-0.0376255
-0.580351
0.104384
0.267146
-1.41512
0.0018763
0.00385455
-0.239261
-0.0531493
-0.594106
0.0169755
0.567018
0.305206
1.06038
0.897291
-0.248277
-0.383699
0.631976
-0.0378041
-0.61662
0.61662
-0.2433
-0.914458
1.15776
0.0298393
-0.148947
0.685751
-0.118734
-0.220776
-0.373472
0.250326
0.642188
0.759156
-0.194558
0.175765
-0.104849
-0.445138
0.485806
0.0796427
0.0565869
0.0143318
-1.44633
-0.214958
-0.243295
0.695487
0.304513
-0.214958
0.695487
-0.177957
-0.21446
-0.177957
-0.69584
0.69584
0.30416
-0.0142066
0.178684
-0.0754236
0.190565
0.13175
-0.463358
0.637874
-0.0354906
0.658916
-0.503092
-0.155824
-0.0585109
0.0580923
0.00041866
-0.00884122
0.0083143
-0.124701
0.0187215
-0.070272
-0.435013
-0.35034
0.127191
0.041932
0.831357
-0.278182
-0.608778
0.283226
0.00618674
-0.144964
-0.00699674
0.678121
0.0658436
0.194485
-0.0163251
-0.00184381
0.0107159
0.0858195
0.561578
-0.474021
-0.0875576
1.94978
0.546551
-0.517772
0.898408
0.0110934
-0.061642
0.105238
0.192739
0.124586
1.12403
-0.370915
0.013834
-0.062097
0.59022
-0.713359
0.0224841
-0.0224841
0.0198334
-0.0198334
-0.0172743
0.0172743
0.0260855
0.366534
0.459315
-0.0246329
-0.721087
0.483676
0.188698
0.0290889
-0.0818851
-0.482584
0.782664
0.111531
-0.795905
-1.14738
-0.0780727
0.0869609
0.018948
-0.00339728
-0.0195867
0.0195867
0.232448
-0.0194328
0.0194328
0.701321
0.0928882
-0.0111217
-0.00520334
0.00662752
-0.0681827
-0.0227248
0.0227248
-0.00962174
0.00962174
-0.0218696
0.0218696
-0.0154036
0.0154036
0.112236
-0.293227
-0.0823134
0.220198
-0.0147257
0.0147257
-0.372204
0.510572
-0.138368
0.501691
-0.220939
-0.338632
-0.270146
0.558233
-0.131666
0.075064
0.562816
0.566248
-0.00832421
0.00832421
0.110651
0.0243289
-0.0243289
-0.0137945
0.0137945
0.753185
-1.18211
0.0339055
-0.247198
0.372303
0.00437213
-0.00437213
0.0124633
-0.0124633
0.0179952
-0.0179952
0.0235729
-0.0235729
-0.0230351
0.0230351
0.0344104
-0.0344104
0.479952
-0.0311843
0.0311843
-0.00349528
0.00349528
0.0236144
-0.0236144
-0.00423056
0.00423056
0.00966944
-0.00966944
-0.0775238
-0.0250544
0.0250544
0.184953
0.0254597
-0.0386675
0.0386675
0.00444836
-0.00444836
0.0189282
-0.0189282
0.0328443
-0.0328443
0.0257364
-0.0257364
0.00517497
-0.00517497
-0.000893431
0.000893431
-0.503255
-0.262821
-0.00794416
0.00794416
-0.00240496
0.00240496
-0.0373621
0.0373621
-0.0279443
0.0279443
-0.000847774
0.000847774
-0.414012
0.648425
0.260301
-0.031377
0.031377
-0.0413164
-0.0142087
0.0142087
-0.0014843
0.0014843
0.0373172
-0.0373172
-0.209251
0.179953
0.00187243
-0.00187243
-0.0233973
0.0233973
-0.502481
0.044556
-0.378067
-0.0313815
0.0313815
-0.446304
0.0343277
0.0191923
-0.0212713
-1.3165
-0.0359418
0.0359418
-0.198312
0.141449
-0.0408431
-0.000814222
0.000814222
0.00388073
0.0462843
0.261744
-0.324559
-0.280184
0.604743
0.194039
-0.0029826
0.0029826
-0.201819
0.382236
-0.180417
0.772528
-0.39818
-0.374347
-0.458885
-0.662645
-0.0968362
0.380062
-0.477699
-0.364938
-0.573762
0.0125335
0.19091
-1.29086
0.0151704
-0.0151704
-0.000240456
0.000240456
0.0301873
-0.0301873
0.0261495
-0.0261495
0.00133537
-0.00133537
-8.37446e-05
8.37446e-05
0.0325803
-0.346291
0.177683
-0.300926
-0.0013192
0.0013192
-0.0448711
0.0448711
-0.0394662
0.0394662
0.191912
0.0349754
-0.226888
-0.00263165
0.319476
-0.545797
0.00110507
-0.00110507
-0.0171674
0.0171674
-0.0948107
0.0794196
-0.176256
-0.000159317
0.000159317
0.0971461
0.0142673
1.00274
-0.485385
-0.0795088
0.564894
-0.629845
0.0348453
-0.675693
-0.038527
0.038527
-0.681575
0.277691
0.0484908
-0.0484908
-0.642738
0.381914
0.263619
0.120818
0.00144017
-0.00144017
-0.82836
0.00110373
-0.00110373
0.311331
0.412154
0.0550171
-0.0523748
0.0523748
-0.000382369
0.000382369
-0.0414567
0.0414567
-0.0536642
0.0536642
0.00147046
-0.00147046
-0.0593057
0.0593057
0.00141565
-0.00141565
-0.0447035
0.0447035
-0.000153691
-0.0450991
0.0450991
0.00213378
-0.00213378
0.0471647
-0.0471647
0.000554773
-0.000554773
0.0475132
-0.0475132
-0.166557
-0.00169328
0.00169328
-0.00397506
0.00397506
-0.0543266
0.0827972
-0.0102207
0.0102207
0.00539612
-0.00539612
-0.0580301
0.0580301
0.29523
-0.0181588
0.0181588
-0.0570373
0.0570373
-0.00773826
0.00773826
-0.0657036
0.0657036
-0.0133807
0.0133807
-0.0785735
0.0785735
-0.0213663
0.0213663
-0.0939132
0.0939132
-0.687857
0.257256
-0.530747
0.507151
-0.876667
0.097825
-0.567606
0.394272
0.0195794
0.150762
0.00369423
-0.00369423
0.316071
-0.722739
0.0422871
-0.0279553
-1.02607
1.46345
1.25556
0.254185
-0.0457935
-0.0309968
-0.394948
-0.580196
-0.0672116
0.391436
-1.27506
-0.0187325
0.0187325
-0.761629
0.0209213
-0.0209213
-0.000130525
0.000130525
0.309001
-0.374043
-0.00210448
0.00210448
0.0191089
0.0146018
0.595637
0.184311
-0.00800647
-0.0100883
-0.00967254
-0.0948807
0.490714
-0.395833
0.210974
0.0260551
0.00840341
0.947224
-0.00448545
0.0553411
-0.40738
0.437544
-0.486889
-1.01246
-0.222054
-0.0700058
0.0176982
-0.249727
-0.0590835
0.0498377
-0.00356209
-0.0141248
0.78114
-0.550989
-0.0364569
0.0643696
-0.035417
0.065309
0.113375
0.424692
0.236006
-0.167237
0.211967
0.0115845
-0.0016274
-1.25139
0.0209646
-0.0987694
-0.259098
-0.0191773
-1.43181
-0.0705851
0.263508
-0.34951
0.388107
0.327835
-0.942352
0.0459356
-0.0230581
-0.0950693
-0.345682
0.46683
-0.0809289
-0.0147553
0.0956842
-0.02667
0.02667
0.179936
-0.427235
-0.109132
0.1219
-0.0777874
0.0539421
-0.0654904
-0.00674495
0.0722354
-0.0280495
-0.150751
0.109771
-0.0745577
-0.290142
-0.361732
0.651874
0.0142604
0.0577825
0.151492
-0.0273046
-0.165568
0.0653284
-0.155338
0.306661
-0.00585593
0.0254121
-0.0284477
0.17994
0.0032958
0.256189
-0.000385694
0.000385694
-0.196684
0.880988
0.0889226
-0.169628
-0.0525702
-0.00472405
0.840966
0.704357
0.00624035
-0.0314273
-0.533747
0.00300004
0.184839
0.0880338
-0.677144
0.315328
-0.0567514
0.384286
-0.674428
0.221078
0.516753
-0.0876632
0.0876632
-0.000318245
-1.33793
0.582083
0.755846
-0.209689
0.15521
0.0906991
-0.132509
-0.61353
-0.125592
-0.0321824
0.0419681
0.930304
0.257965
-0.095085
-0.0682397
-0.45262
-0.72978
-0.0767959
-0.267191
0.802716
0.582508
-0.263032
-0.259049
0.548403
-0.0221268
0.381082
-0.266971
0.0990973
-0.466471
0.328103
0.123002
-0.123002
0.103987
-0.11894
0.0149529
0.00649874
-0.00157926
0.0205027
-0.264029
-0.462723
0.230317
-0.185769
-0.0445484
0.542955
-1.07405
0.174682
-1.00171
0.696642
-0.123046
-0.177881
-0.0422998
-0.0791456
-0.483175
0.0481614
-0.28341
0.00402917
-0.0191773
0.374484
-0.005221
0.00165385
0.00067794
0.0122555
-0.0127087
0.000453236
-0.106802
-0.0168103
-0.164314
0.181124
-0.129337
-0.337135
0.0191089
0.346607
0.00306563
-0.370232
0.0842488
0.00245927
0.189606
-0.214239
-0.0120258
0.0120258
-0.000913251
0.00284152
-0.00937294
0.000931149
-0.0673255
0.000848077
-0.00116551
0.252106
0.0095862
-0.00058955
0.00058955
0.109813
0.512842
0.00167759
-0.292376
0.447934
1.12676
-0.475018
0.337772
-0.438727
-0.240458
0.131326
0.229964
-0.231422
-0.0109271
0.0189478
-0.00426403
-0.00925576
-0.180654
-0.381728
0.865405
0.502327
-0.469747
0.217301
-0.0015661
0.174941
0.00126386
0.00174545
0.0011148
0.017833
0.260268
0.00130547
-0.0001756
0.71685
-0.651522
-0.243041
0.102156
0.923711
0.000920659
0.000978996
-0.0408431
-0.00564501
0.818392
-0.432129
0.511772
-0.561978
0.901977
-0.463319
0.582399
-0.188128
0.694205
0.00124797
0.00320752
0.0157405
-0.118234
0.138453
-0.223946
0.00923327
0.00153703
0.063527
-0.0487852
-0.0147417
0.00111017
0.0361514
0.0304301
-0.0665815
-0.088874
0.00277347
0.000207179
0.00154423
0.469166
-0.429129
-0.00176078
0.000257295
1.13778
-0.555697
0.388056
-0.00575448
0.000573767
0.219149
-0.03866
-0.0401194
-0.118201
-0.0183289
-0.00352435
0.119333
0.0542614
-0.00156273
0.415163
0.000762905
-0.00406018
0.00406018
0.00607473
-0.016163
1.6164e-05
-0.321026
-0.00363491
0.0710176
-0.107212
0.0196318
-0.00455763
-0.0653448
0.000214137
0.00228178
0.47122
0.000104802
-0.00448869
-0.038675
-0.00199053
0.000462079
0.106466
0.204881
-0.711181
0.481631
-0.863359
0.0203361
-0.000223052
-0.705223
0.108359
0.14141
0.598213
-0.0151372
0.0123861
-0.00388399
-0.00132612
-0.552296
-0.00324684
-5.48099e-05
-0.0392948
0.931367
-0.523169
-0.00246119
-0.000860872
-0.00565522
-0.00224805
0.0668523
-0.0222464
0.0222464
-0.0316771
0.0345186
-0.00234214
-0.0076735
0.0440268
-0.042373
-0.163235
0.0924553
-0.00564241
-0.01287
0.0433498
-0.0160637
0.0607108
-0.0430126
-0.62444
0.570076
0.0182874
-0.0017019
0.32519
-0.153819
-0.0714489
-0.690608
-0.0777168
-0.120945
-0.0923276
0.0903371
0.687209
0.00051622
0.00872917
-0.00775017
0.31744
0.0573909