/*--------------------------------*- C++ -*----------------------------------*\
| =========                 |                                                 |
| \\      /  F ield         | OpenFOAM: The Open Source CFD Toolbox           |
|  \\    /   O peration     | Version:  2306                                  |
|   \\  /    A nd           | Website:  www.openfoam.com                      |
|    \\/     M anipulation  |                                                 |
\*---------------------------------------------------------------------------*/
FoamFile
{
    version     2.0;
    format      ascii;
    arch        "LSB;label=32;scalar=64";
    class       volVectorField;
    location    "16";
    object      U;
}
// * * * * * * * * * * * * * * * * * * * * * * * * * * * * * * * * * * * * * //

dimensions      [0 1 -1 0 0 0 0];

internalField   nonuniform List<vector> 
2186
(
(1.32686 -0.0705118 1.88099e-19)
(1.63151 -0.952844 -1.01531e-19)
(1.47603 -0.928196 3.04684e-22)
(0.754546 -0.601864 -1.26874e-19)
(-0.379741 0.518823 -1.77333e-19)
(1.23865 0.0162652 0)
(0.734855 -0.679016 0)
(-0.305245 -0.43241 1.25474e-19)
(1.46112 -0.28852 2.06531e-19)
(0.567695 -0.338614 -2.44028e-21)
(0.659739 0.594428 0)
(0.809686 -0.276858 -1.43852e-19)
(-0.346227 -0.467654 -5.03774e-20)
(1.1926 0.0215209 -3.25514e-19)
(1.82176 -0.698024 -1.08413e-19)
(1.01169 -0.00332176 1.54127e-19)
(0.986959 0.0131693 0)
(-0.69346 0.513301 0)
(1.24248 0.0361288 0)
(-0.0792136 0.209676 -6.40636e-20)
(0.483558 0.0614588 -1.04011e-19)
(-0.228503 0.149715 8.72851e-20)
(1.17815 0.024354 2.69511e-19)
(-0.207381 0.00915836 5.38705e-21)
(1.03196 0.00400648 -2.11842e-19)
(0.804469 -0.577022 0)
(0.766564 -0.0434046 1.29054e-19)
(0.622939 -0.602873 -1.43659e-19)
(1.18926 0.699277 0)
(0.964543 0.0220717 -2.89418e-19)
(-0.0285593 0.0352602 0)
(1.02583 -0.0151616 1.00106e-20)
(-0.0754797 0.229302 0)
(2.55827 0.164228 2.4042e-19)
(-0.0925403 -0.195956 3.66015e-21)
(1.51111 0.763212 5.5456e-20)
(1.85634 0.142049 1.48578e-19)
(0.5074 0.110913 -3.1e-19)
(1.87557 0.329722 -3.2587e-19)
(1.09102 0.0618464 1.27995e-20)
(-0.376835 -0.478906 0)
(-0.191862 0.117543 0)
(1.89852 -0.896954 9.61293e-20)
(-0.410643 0.149575 0)
(1.09938 0.273894 1.36465e-19)
(0.60904 -0.318946 2.515e-19)
(0.93557 -0.797386 0)
(1.20336 -0.800965 8.51354e-20)
(2.41225 -0.29662 0)
(-0.332771 0.674771 1.8448e-19)
(-0.0175019 0.0876484 9.46957e-20)
(0.613346 0.565964 7.1584e-20)
(2.09209 -0.782869 1.1964e-19)
(0.587288 0.251328 -2.49264e-19)
(-0.27391 0.0654727 3.26289e-20)
(0.778162 -0.666058 0)
(1.68202 -0.983047 1.86643e-20)
(0.593489 -0.554199 0)
(2.30227 0.291653 1.0474e-19)
(1.14697 -0.174516 -3.04589e-19)
(1.92033 -0.109531 1.73227e-19)
(1.34067 0.301124 -1.54703e-19)
(1.32611 0.52359 0)
(0.814709 0.117349 -1.40212e-20)
(1.3493 0.382493 -9.19091e-20)
(1.26918 -0.744979 -1.14179e-19)
(1.14924 0.650637 4.64172e-20)
(0.68115 0.0557768 -5.00445e-19)
(0.819405 0.0435048 0)
(2.13316 -0.250566 -7.48888e-20)
(-0.30285 -0.472365 -1.46713e-19)
(2.03076 -0.321419 -1.63235e-19)
(0.731048 -0.0545737 -2.19786e-19)
(0.887329 -0.537023 0)
(0.821468 0.163931 -8.11883e-20)
(0.562976 -0.526592 -2.59575e-19)
(2.57446 -0.272353 0)
(1.00579 0.00681562 3.17736e-19)
(-0.0767265 -0.290371 0)
(1.94018 0.418922 0)
(0.844263 0.474946 1.349e-19)
(0.827356 0.0782819 -2.60604e-20)
(1.03235 0.0037042 3.51459e-20)
(1.30652 0.418419 2.35396e-20)
(0.970222 0.0231762 3.68196e-19)
(1.0408 0.0256274 -8.74559e-21)
(0.665657 0.158754 -2.99656e-19)
(1.2325 0.00951265 -6.9032e-22)
(0.509626 -0.143175 0)
(-0.0656137 -0.0340248 1.04301e-19)
(0.875246 -0.639946 -1.38913e-19)
(-0.0901819 0.362255 -1.19713e-21)
(1.12382 -0.0864144 2.13206e-19)
(0.825729 -0.199065 0)
(0.975707 0.0235603 3.52695e-20)
(1.34724 0.637045 0)
(1.64363 -0.967586 0)
(1.29022 0.221663 0)
(-0.409854 0.634704 0)
(0.807314 -0.683745 2.48805e-19)
(0.51791 0.286756 -4.27384e-19)
(0.78123 0.350191 2.66573e-19)
(1.53597 0.199135 0)
(1.15211 -0.114696 -1.94905e-19)
(1.11223 0.02499 1.57422e-19)
(-0.0614071 0.518199 1.14952e-19)
(0.619418 0.484904 0)
(2.23398 -0.196996 -1.4926e-19)
(0.978322 -0.498741 6.97033e-20)
(-1.58186 0.150862 2.21557e-19)
(1.69768 0.314398 1.13339e-19)
(-0.23667 0.668494 -2.64474e-19)
(0.82968 -0.754071 0)
(0.551393 0.324938 1.5143e-19)
(1.67421 -0.285595 -5.93779e-19)
(-0.416993 -0.308743 -4.6731e-19)
(1.28698 0.255404 5.58764e-20)
(2.01766 -0.446618 0)
(-0.0868817 -0.0364325 -3.12424e-19)
(0.715937 -0.089892 6.94274e-20)
(1.53082 0.86526 0)
(-0.264375 0.751046 -2.9488e-19)
(0.864953 0.7426 -2.41734e-19)
(-0.951559 0.446963 4.52283e-19)
(1.03017 -0.0232601 0)
(1.3893 0.267117 -7.0408e-20)
(-0.319826 0.60879 0)
(0.712363 -0.517136 -9.28398e-20)
(-0.839484 0.449084 -2.40707e-19)
(0.802233 -0.732168 0)
(0.453383 -0.311007 3.67691e-19)
(0.559757 -0.480473 2.44532e-19)
(0.419692 -0.379943 0)
(0.999389 -0.795183 -9.9753e-20)
(0.809375 0.389518 0)
(-0.131877 0.773975 -1.44733e-19)
(0.826432 -0.713838 1.17597e-19)
(2.46473 -0.285649 3.31648e-19)
(2.27371 0.186006 0)
(-0.102932 -0.207347 0)
(0.667444 0.620084 -2.99265e-19)
(1.80668 -0.639379 1.92831e-20)
(-0.204519 -0.262326 0)
(1.00014 -0.820983 -1.10198e-20)
(1.15717 -0.107613 0)
(1.10007 -0.131382 3.3873e-19)
(2.1601 -0.199377 -1.4393e-19)
(-0.417653 0.519057 0)
(1.24271 -0.566579 -4.3463e-20)
(-0.26243 0.31466 -4.07283e-20)
(-0.191278 0.459627 0)
(1.11007 -0.827586 1.24424e-20)
(1.0058 0.00500788 -5.30825e-19)
(0.667438 -0.503945 -9.16698e-21)
(0.830222 -0.536685 0)
(1.21808 -0.743273 -7.22802e-20)
(0.650053 0.219227 2.33569e-19)
(1.22474 0.107581 0)
(1.47968 0.102981 -1.87981e-19)
(1.21478 -0.869141 -1.40818e-19)
(-0.0866271 -0.181857 -1.15941e-19)
(-0.178137 -0.440341 -2.14906e-19)
(1.0654 -0.000479677 1.99208e-19)
(0.931576 -0.485169 -8.76518e-20)
(1.2353 -0.00142516 6.39134e-22)
(1.31128 0.00241525 -2.99772e-21)
(0.715706 -0.0958812 1.27447e-19)
(-0.193493 -0.0386522 -2.78728e-19)
(1.43201 -0.449622 0)
(1.42064 -0.530386 5.10096e-20)
(1.42627 0.640185 1.12348e-19)
(0.823687 -0.633108 -1.81495e-19)
(0.995361 0.00825267 1.08813e-20)
(0.736831 -0.552668 2.55186e-19)
(1.27783 0.785511 1.05158e-19)
(1.85242 0.110984 2.11774e-20)
(-0.467009 0.432897 0)
(1.0797 0.0491848 -2.06434e-19)
(-0.805635 -0.184828 -3.06491e-19)
(1.05446 0.48377 7.00834e-20)
(0.0418913 -0.0876782 1.68427e-19)
(1.14888 0.0275043 -3.76102e-20)
(-0.153401 0.166575 -1.55128e-19)
(1.27729 0.577292 -6.49504e-20)
(1.1121 0.866671 0)
(-0.523575 0.423551 -9.56543e-20)
(-0.18045 -0.10815 0)
(0.634648 0.543289 -2.47469e-19)
(2.03865 0.262861 -2.37817e-20)
(-0.395121 -0.449116 1.67698e-19)
(-0.819618 0.153047 -6.47407e-19)
(0.727193 0.057636 2.19745e-19)
(2.13528 0.0991437 -6.60779e-20)
(0.994462 -0.367304 -2.59047e-20)
(-0.0333845 -0.0564036 0)
(-1.05166 -0.0581142 3.63647e-19)
(1.29786 0.951451 -7.82894e-21)
(0.836525 0.0573713 -1.19955e-19)
(0.539427 0.505778 1.71908e-19)
(0.416377 0.19115 0)
(-0.182565 -0.45106 -2.47348e-19)
(-0.61986 -0.169247 2.07385e-19)
(1.3148 -0.971046 1.74235e-22)
(0.988189 -0.0425762 -1.64742e-19)
(-0.176489 -0.132457 7.56165e-21)
(-0.121545 0.164972 1.46068e-19)
(-0.306291 -0.123541 -2.0223e-19)
(1.9991 -0.455075 0)
(1.12772 0.0430488 -2.77227e-19)
(2.29871 0.128835 2.73448e-19)
(1.29593 -0.633813 7.42445e-20)
(0.300709 -0.111733 1.65213e-20)
(0.581303 0.305676 0)
(0.921104 0.731611 -1.42571e-20)
(0.665513 0.611809 1.6218e-19)
(0.911233 -0.582477 1.25789e-19)
(0.667865 0.482409 0)
(1.01924 0.00107023 7.06301e-21)
(0.897569 -0.680931 1.78829e-19)
(0.826973 0.412492 -4.0535e-19)
(1.25086 -0.115423 0)
(-0.1847 -0.179772 -3.14497e-19)
(-0.0382401 0.345178 -9.42866e-20)
(1.56296 0.712667 0)
(1.3689 -0.952408 -1.49125e-22)
(-0.685754 0.537611 0)
(-0.344811 0.546949 1.11444e-19)
(0.715854 0.633172 -8.67336e-20)
(0.859785 -0.234592 0)
(-0.184089 -0.198121 0)
(1.60803 -0.470739 0)
(-0.976357 -0.134021 6.67536e-19)
(1.23068 -0.897441 9.24731e-20)
(1.19605 -0.620402 4.8263e-20)
(1.07475 -0.167127 -1.35884e-19)
(0.894674 -0.70979 -1.40385e-19)
(0.191137 -0.195555 0)
(-1.23015 0.303698 0)
(1.01808 -0.529604 1.45688e-19)
(-0.166417 -0.284645 0)
(-0.31017 0.691264 0)
(-0.406755 -0.284911 3.99296e-19)
(0.771727 0.651496 7.52447e-20)
(0.989085 0.774906 0)
(0.677901 0.533754 -7.55395e-20)
(0.836711 -0.0565945 -1.96928e-19)
(0.72761 0.544447 -2.01691e-19)
(0.573849 0.532919 -1.48069e-19)
(-0.268055 -0.493802 2.38351e-21)
(0.732096 -0.657313 0)
(0.891475 0.156643 -2.8439e-19)
(-0.339357 -0.498974 6.67119e-20)
(0.586194 0.543318 3.32227e-19)
(0.933639 0.777386 0)
(-0.855436 -0.0370202 4.83873e-19)
(-0.0607907 -0.461854 3.55464e-19)
(0.0302529 -0.374929 -1.85519e-19)
(0.644348 0.549377 -1.31364e-20)
(0.970524 -0.00931935 5.13461e-20)
(-0.378731 -0.45925 0)
(2.3927 -0.0185709 -3.49024e-19)
(1.77085 -0.699853 -2.09178e-19)
(0.665144 -0.617073 -6.35221e-20)
(-0.55263 0.40655 1.64686e-20)
(1.17561 0.456897 1.55951e-19)
(0.871475 0.403033 0)
(1.07379 -0.19232 1.62557e-19)
(0.104395 -0.479446 -8.09875e-21)
(-0.0577257 0.0813737 3.60149e-19)
(0.929606 0.0179597 -4.54448e-20)
(1.11471 0.134845 0)
(1.96724 -0.0595018 -3.3955e-19)
(1.92472 0.133472 0)
(0.537692 0.22929 -4.10362e-19)
(-0.130743 0.1972 0)
(-0.287299 -0.448015 2.8772e-19)
(0.709479 0.0962921 0)
(0.638006 -0.537298 -1.57444e-19)
(1.13066 0.0210807 1.8047e-19)
(-0.447582 0.570383 4.16099e-20)
(2.18087 -0.113086 3.54773e-21)
(2.13493 -0.296939 -1.49886e-19)
(1.10352 0.223749 -1.90711e-19)
(-0.346247 -0.492076 -1.29613e-19)
(1.09169 -0.864608 0)
(0.803625 0.0181803 -1.31364e-19)
(0.940509 -0.399352 -2.48658e-19)
(1.75276 -0.58567 -8.99704e-21)
(1.75438 0.0290696 3.10663e-19)
(1.0727 -0.0094996 3.32018e-19)
(0.0379925 -0.431829 -1.81555e-19)
(1.01067 -0.460041 -1.06063e-19)
(0.202066 -0.195009 2.2269e-19)
(1.00818 -0.0078988 0)
(1.00389 -0.00610369 0)
(1.1387 -0.672608 8.94548e-20)
(-0.0390362 0.713921 -9.72462e-20)
(0.178783 -0.12089 -1.51376e-19)
(1.98338 -0.118228 1.43866e-20)
(1.25879 -0.243425 0)
(2.03368 0.0822607 -1.83611e-19)
(0.958185 -0.833861 -5.63655e-20)
(1.81741 -0.573392 -9.03625e-20)
(1.07957 0.817058 0)
(0.485747 -0.469721 0)
(0.585953 0.497128 -1.57765e-19)
(1.08418 0.276899 -3.51197e-19)
(2.31247 -0.283797 4.85719e-22)
(0.857024 0.142064 1.22133e-19)
(-0.0837631 -0.420839 -5.30339e-19)
(1.05815 -0.269034 -3.89974e-20)
(-0.274592 -0.398241 0)
(-0.0907919 -0.214723 0)
(-0.431041 -0.39454 0)
(1.35973 -0.735486 -5.38433e-20)
(-0.197407 0.462847 -2.10946e-19)
(-0.0449915 0.126065 0)
(1.25935 0.95306 -2.51357e-20)
(1.1036 0.144711 -3.65299e-19)
(1.80642 0.468224 -4.51339e-20)
(1.05347 0.899653 6.70157e-20)
(-0.206671 0.651221 1.35969e-19)
(0.539659 -0.128004 0)
(-0.438307 -0.347768 -3.46606e-19)
(-0.271539 0.624288 2.55464e-19)
(0.778587 0.0179997 1.61562e-19)
(1.50009 0.928256 1.17768e-20)
(1.64697 0.492955 -1.18832e-20)
(-0.12941 0.328478 -2.86535e-21)
(0.758238 -0.692405 -3.01668e-20)
(1.11985 0.00315622 0)
(1.71984 -0.0752851 0)
(1.04282 0.0477213 0)
(-1.41149 0.349189 -2.21851e-19)
(-0.403352 -0.404193 1.2648e-19)
(1.02134 0.823058 0)
(1.00051 -0.0108677 4.42814e-19)
(0.748256 0.585537 -2.0197e-19)
(-1.77556 0.0423366 -1.94373e-19)
(0.860859 0.00406259 -3.60551e-20)
(0.727646 -0.66525 -1.81861e-19)
(1.36022 0.694833 -2.49275e-20)
(0.581246 -0.477376 -2.54975e-19)
(1.1255 -0.000391561 -3.98783e-19)
(0.820072 0.040802 3.83917e-20)
(1.55068 -0.190316 4.20932e-20)
(1.23156 -0.131742 -4.47809e-20)
(-0.067226 -0.0957224 -1.03857e-22)
(1.06034 0.459865 -2.33527e-19)
(1.28839 0.600758 7.61865e-20)
(-0.0256312 -0.438698 0)
(-0.0749423 -0.392043 1.95826e-19)
(-0.25408 -0.236071 1.3203e-19)
(-0.196875 -0.0666423 -1.44689e-19)
(0.459788 0.286087 0)
(1.4059 -0.710355 0)
(0.0203734 -0.0181498 -1.31239e-19)
(-0.297837 -0.51111 -7.23482e-20)
(1.04534 -0.0292365 1.58075e-19)
(-0.408516 0.417789 -4.3895e-20)
(1.63285 -0.224507 -6.4036e-19)
(-0.071911 0.726776 0)
(0.846892 -0.751296 -2.43197e-19)
(0.869964 -0.138837 5.92458e-20)
(-0.413849 -0.374465 1.91661e-19)
(0.716761 0.144183 2.91848e-19)
(0.620941 0.115325 9.48116e-20)
(0.514354 -0.488984 1.74248e-19)
(-0.227994 -0.315203 -1.52374e-19)
(1.45534 0.486845 0)
(0.375652 0.316656 -1.74552e-19)
(1.02439 -0.0169072 -2.51545e-19)
(-0.900868 0.145241 2.52039e-19)
(1.39985 0.481023 -9.61177e-20)
(-0.190744 -0.344231 -5.76862e-20)
(0.698551 -0.637656 -2.19903e-20)
(0.810063 0.171369 -1.82265e-19)
(0.958522 0.415694 2.00327e-20)
(1.1567 -0.148908 2.92447e-20)
(0.617307 -0.255791 -2.63853e-19)
(2.03961 -0.384473 -1.93996e-19)
(1.43367 -0.178582 0)
(1.41422 0.406392 -2.963e-20)
(1.7992 0.10563 -2.06468e-20)
(0.880435 -0.287552 1.52139e-19)
(0.905084 0.344282 -1.79811e-19)
(0.892123 0.0396624 4.52232e-20)
(0.402202 0.367754 -2.25721e-19)
(-0.22319 0.435328 2.76171e-19)
(1.98848 -0.210237 0)
(0.929294 0.00500566 0)
(0.886849 -0.784522 4.52769e-20)
(-0.0706665 -0.510391 -3.88862e-19)
(-0.945362 0.257551 -3.21494e-19)
(-0.0928161 -0.14305 -2.47414e-19)
(-0.443582 0.698229 -1.76547e-19)
(-0.320816 -0.415731 0)
(-0.0732366 -0.160792 4.37776e-20)
(0.174333 0.464458 -8.77253e-20)
(-0.141237 0.189856 -3.33818e-19)
(0.810638 -0.125239 0)
(1.50639 -0.676036 8.2105e-20)
(-0.240445 -0.265639 0)
(0.994654 0.0237358 3.19317e-19)
(-0.177857 -0.462012 2.30138e-20)
(0.557244 -0.449588 3.41706e-19)
(-0.871332 -0.222862 5.07957e-19)
(-1.61385 0.11995 0)
(0.240282 0.676308 1.0705e-19)
(1.00652 0.0230105 -9.59273e-21)
(-0.165558 -0.144374 0)
(1.00609 -0.00832449 -4.97799e-20)
(0.874977 -0.740834 -2.36033e-19)
(1.48079 -0.757665 0)
(0.943853 -0.28834 1.77696e-19)
(0.123551 0.71767 2.46357e-19)
(-0.0123281 -0.0119401 0)
(-0.218189 -0.418202 -7.07844e-21)
(0.740562 -0.650334 -3.59917e-19)
(0.966699 -0.0285918 -2.27634e-19)
(-0.097085 -0.516678 4.89752e-19)
(-0.235851 -0.439177 1.76701e-19)
(-0.296861 -0.422553 0)
(0.940329 0.465208 0)
(-0.367202 -0.494482 2.42153e-19)
(1.89102 0.0741259 -2.54198e-19)
(1.04923 0.874678 1.56325e-20)
(1.06325 0.207528 -1.07511e-19)
(1.15518 0.00375812 -1.86596e-19)
(1.06812 -0.062065 -6.42213e-20)
(-0.111008 -0.505947 -4.49207e-19)
(2.02603 0.0861068 5.27077e-19)
(0.67001 0.0257642 1.78055e-19)
(2.00069 -0.0963007 1.67275e-19)
(1.06985 -0.164144 0)
(-0.154614 0.411305 4.4676e-19)
(1.13296 0.0242792 -4.3278e-19)
(1.7225 0.613785 -2.51492e-21)
(0.753239 -0.476261 -1.39093e-19)
(-0.0683072 -0.031069 2.33606e-19)
(0.810887 -0.712613 3.11682e-19)
(1.22739 0.194188 6.326e-20)
(1.0038 -0.00871353 2.20588e-19)
(-0.00501464 -0.434499 -1.97789e-19)
(1.02343 0.00921421 0)
(1.6074 0.156939 -2.22394e-19)
(-0.0227389 -0.0187177 0)
(1.0236 0.0147882 -1.29696e-19)
(-1.40764 -0.0803259 -7.29759e-19)
(1.67751 0.320528 2.10515e-20)
(-0.371036 -0.232937 1.67712e-19)
(1.60763 -0.00193118 -1.84052e-20)
(1.01189 -0.0182975 4.56534e-20)
(1.34622 -0.0913754 0)
(1.46907 -0.618685 -8.89568e-20)
(1.01961 0.0253492 -1.35179e-19)
(1.41516 0.773772 -3.75581e-20)
(1.39778 -0.0596364 0)
(0.677693 -0.106445 -1.69252e-20)
(0.0188826 -0.0201829 0)
(1.36965 0.050011 0)
(-0.39611 -0.433554 0)
(1.22685 0.434404 0)
(1.83012 0.308933 5.16864e-20)
(0.721113 0.59702 3.53873e-19)
(0.298655 -0.300797 -2.06248e-19)
(-0.278887 -0.511504 -4.23779e-19)
(-0.031552 -0.0585665 0)
(1.62231 -0.522053 9.21172e-20)
(1.30219 0.511848 0)
(1.4369 0.298814 0)
(-0.464814 -0.32513 1.52901e-19)
(0.787515 0.695469 1.11809e-19)
(1.71238 -0.0208922 0)
(-0.346334 -0.430645 9.63686e-20)
(0.896419 0.203924 1.66952e-19)
(1.74922 -0.456661 -4.34495e-20)
(1.21384 0.906993 3.69155e-20)
(0.935203 -0.841362 -2.1556e-20)
(1.06962 -0.188786 -1.75019e-20)
(0.77393 0.699124 1.1441e-19)
(1.1519 0.905407 0)
(2.35123 -0.372638 1.81283e-19)
(1.19398 0.64043 0)
(1.35951 -0.586879 2.6371e-20)
(0.911311 0.0911715 1.81398e-19)
(1.00669 -0.00593941 0)
(-0.112376 0.201818 4.39334e-19)
(0.897956 -0.184699 4.14054e-20)
(0.644102 -0.432168 0)
(0.681223 -0.404705 1.84726e-19)
(1.2199 0.548959 -2.87463e-20)
(0.460199 0.433299 2.46713e-19)
(-0.171596 0.264039 3.96765e-20)
(0.0331674 -0.00540716 9.12099e-20)
(0.764898 0.0645924 0)
(1.34124 -0.91253 -3.44231e-20)
(1.04022 -0.0420635 3.50709e-19)
(1.46231 0.333337 1.42518e-19)
(-0.362835 -0.437351 8.33073e-20)
(-0.922799 -0.185122 0)
(1.24367 -0.248807 -9.29478e-20)
(-0.0116731 -0.0153534 -2.01699e-19)
(-0.0115696 0.177732 -5.63772e-20)
(-0.126573 0.0358597 -5.32619e-22)
(-0.200174 0.0870711 2.92984e-19)
(1.29512 -0.0689478 -1.96752e-21)
(2.42249 -0.0616476 4.67331e-19)
(1.17744 0.458429 -2.5148e-19)
(0.869301 -0.0359699 0)
(1.92295 -0.12866 2.84111e-19)
(1.8741 0.127013 1.40748e-19)
(0.925543 -0.77851 1.13822e-19)
(1.17198 -0.987799 -1.46816e-20)
(0.464629 0.430791 1.65065e-19)
(1.46145 0.36206 0)
(1.73206 0.57273 3.67784e-20)
(-0.0178608 -0.0319884 -4.10927e-19)
(0.863214 0.752758 0)
(1.29082 0.390442 0)
(0.300465 -0.300721 -3.8771e-21)
(0.308658 0.277694 0)
(-1.26109 0.00307031 -4.74267e-19)
(-0.260504 0.440854 -1.16216e-19)
(1.75635 -0.434141 0)
(1.26204 0.0895411 1.31584e-19)
(-0.725696 0.252111 2.68941e-19)
(0.544912 -0.518605 -3.93983e-19)
(2.00245 -0.0973034 -5.98718e-20)
(0.623177 -0.567086 0)
(1.02242 0.117569 0)
(1.37041 -0.247744 0)
(1.11172 0.222637 -2.02449e-19)
(1.32945 0.108172 2.85018e-19)
(-1.37484 0.0965512 0)
(0.881855 -0.0588165 0)
(2.11846 -0.12932 3.36048e-21)
(-0.0659866 0.139927 9.99464e-20)
(2.60781 -0.101988 -3.62045e-19)
(1.07858 -0.520949 2.10985e-19)
(2.03597 -0.0166728 -3.69142e-19)
(-1.15211 0.309478 -2.01848e-19)
(2.00741 0.14212 -2.40883e-19)
(1.01858 -0.0294782 3.59267e-19)
(1.49859 0.596793 0)
(-0.302933 0.58969 3.1186e-20)
(1.01847 -0.841287 1.34725e-19)
(0.862075 -0.0285948 4.2144e-20)
(0.649256 -0.454964 0)
(1.92756 -0.552573 9.61008e-21)
(1.228 -0.191235 1.19362e-19)
(1.60132 -0.644461 0)
(0.617673 -0.573787 3.59682e-19)
(0.655635 0.100676 -3.12274e-20)
(2.47226 -0.0762415 6.54477e-19)
(-0.0944447 0.234977 -2.06707e-19)
(1.31389 0.609719 1.24603e-19)
(1.13267 0.400481 3.19611e-21)
(0.89155 0.363757 1.9854e-19)
(1.96464 0.164131 -2.70195e-19)
(-0.137165 -0.491654 -5.12594e-21)
(0.871232 -0.197065 0)
(-0.155308 -0.09479 3.85704e-19)
(1.10619 -0.962455 0)
(1.07803 -0.665584 1.74804e-20)
(1.19068 -0.0426238 -7.6662e-19)
(1.41019 0.0785075 -4.50413e-21)
(-0.588893 -0.283362 -4.36823e-19)
(0.9713 0.476106 1.53799e-19)
(-0.276729 0.336056 2.45404e-19)
(0.697502 -0.0360078 0)
(1.76353 -0.160275 0)
(1.4658 0.163468 2.38297e-20)
(0.771369 -0.0100258 0)
(1.38834 -0.213358 -1.22822e-19)
(-1.63206 0.23774 6.07837e-19)
(1.90421 0.493058 2.65533e-20)
(1.04514 -0.0305495 0)
(0.567587 -0.375446 9.05753e-20)
(1.00733 0.0246588 1.71418e-19)
(0.640752 0.815333 -2.22825e-19)
(-0.474615 0.69684 0)
(1.1281 -0.494091 3.98041e-19)
(1.60993 -0.111837 -4.40467e-22)
(1.11679 -0.515461 -1.73479e-19)
(2.33334 0.266346 1.87779e-19)
(1.26509 0.775478 0)
(0.862563 0.0195713 0)
(-0.397185 -0.421899 -2.07034e-19)
(0.0204589 -0.0176791 1.47628e-19)
(0.934334 0.358893 -1.82883e-19)
(0.171786 -0.374795 -1.79556e-19)
(0.635029 0.391343 2.16488e-19)
(0.827695 -0.0584359 0)
(0.547375 -0.509202 0)
(0.976099 -0.191915 3.8823e-21)
(1.25092 -0.523436 -7.8079e-20)
(0.622428 -0.0276629 1.4542e-20)
(0.737823 -0.171188 1.03983e-19)
(-0.0409542 0.0693099 -2.64449e-19)
(1.33841 0.224951 3.41896e-19)
(0.643623 0.599724 0)
(1.24922 0.683201 0)
(1.59092 0.261629 0)
(-0.406957 -0.384039 -1.89123e-19)
(1.22554 0.547555 2.02071e-19)
(2.02954 0.0877029 5.83986e-20)
(0.931366 -0.00329158 0)
(1.34784 -0.450339 0)
(2.20725 -0.106131 -4.04893e-19)
(0.603442 0.357896 2.55344e-19)
(1.00768 0.00187041 -1.71469e-19)
(1.4759 0.461689 0)
(-0.312865 0.679778 0)
(1.23543 0.318714 2.48314e-19)
(1.00502 0.519868 -1.13606e-19)
(1.07042 0.0247826 0)
(1.71596 0.214478 0)
(1.94355 0.668551 -3.01275e-19)
(-0.0996312 0.450839 -1.74109e-21)
(0.996626 0.0133511 0)
(0.694674 0.457506 -2.96573e-20)
(0.948722 -0.836084 0)
(1.01082 0.0169294 3.97677e-20)
(0.992596 -0.467425 3.68834e-20)
(0.914052 -0.341201 2.61159e-19)
(0.969859 -0.239202 -6.56219e-20)
(2.23344 -0.142027 4.20644e-19)
(1.26961 0.135381 9.06401e-20)
(0.783343 -0.025545 0)
(1.01918 0.00891207 0)
(-0.623664 -0.365307 0)
(0.648559 0.620767 -1.6521e-19)
(-0.00825952 0.0248476 1.78545e-19)
(1.15765 0.342224 -3.98763e-19)
(-0.593906 0.437553 0)
(0.810455 0.626051 1.48339e-19)
(1.0179 -0.351614 0)
(1.00561 -0.00224487 1.00344e-19)
(0.140438 0.0531974 6.53565e-20)
(1.01778 0.398869 2.2463e-19)
(1.46408 0.263598 0)
(2.17095 0.216937 -9.7193e-20)
(0.830578 -0.12292 -3.17414e-19)
(-1.25784 0.0269357 -6.46506e-19)
(1.09938 0.25555 0)
(0.86836 0.227934 1.54881e-19)
(2.07999 -0.162509 0)
(0.761438 0.507616 3.21461e-19)
(-1.67698 0.190856 2.5845e-19)
(-0.0206672 0.0647102 0)
(0.574833 0.546286 -6.25072e-20)
(1.03942 -0.654096 -1.22891e-19)
(0.494385 -0.277071 -1.08021e-19)
(1.02172 -0.018511 0)
(-0.470146 0.419947 -2.65853e-19)
(0.651457 -0.584513 6.96102e-20)
(0.892958 0.276664 0)
(1.64366 -0.682619 1.16452e-19)
(0.960511 0.817847 2.09766e-20)
(1.03742 -0.419715 -2.95367e-20)
(0.26107 -0.290578 -2.84433e-19)
(0.241868 -0.0868635 -4.93214e-19)
(-0.134392 -0.280455 1.0696e-20)
(0.807686 0.348093 2.18618e-19)
(-0.216428 0.508279 -5.2334e-21)
(1.43432 -0.6604 3.5265e-21)
(1.02675 0.00442792 -2.96707e-19)
(-0.479569 -0.378461 0)
(1.02903 0.0258897 -3.51665e-19)
(2.16147 0.243931 2.24643e-19)
(0.86784 0.672913 2.47423e-19)
(1.13301 -0.0734038 1.36331e-19)
(1.00531 -0.0336087 1.3748e-19)
(1.47514 0.0910463 4.21939e-21)
(-0.323283 -0.358214 -2.00137e-22)
(1.74875 -0.884503 1.54542e-20)
(1.14877 -0.139582 -5.9669e-20)
(0.808284 0.0517642 6.81243e-20)
(0.919058 -0.309861 7.73671e-20)
(0.851233 0.179124 0)
(0.940982 0.717063 0)
(0.707316 0.307756 -7.79261e-20)
(2.06071 0.189664 -3.21868e-20)
(-1.16847 -0.0246864 2.20813e-19)
(1.04236 -0.555605 -4.25161e-19)
(0.631083 -0.552225 3.36322e-19)
(1.19265 0.255874 -1.57717e-19)
(0.283819 -0.422159 2.05964e-20)
(1.44792 -0.420177 0)
(0.753001 0.100675 -5.97103e-21)
(1.45144 -0.536013 -5.10074e-20)
(1.01759 0.7441 0)
(1.28168 -0.55509 0)
(0.578545 0.167463 0)
(-0.227074 -0.356696 -6.98991e-20)
(-0.143403 0.16144 0)
(1.52719 0.661246 2.89411e-19)
(1.21348 0.178668 5.5027e-21)
(-1.19902 0.200041 2.67818e-19)
(1.67475 0.553452 1.76223e-20)
(1.79575 0.468024 -7.62465e-20)
(2.1736 -0.343519 -4.34926e-20)
(-0.171241 0.00329122 -2.06567e-19)
(-0.220967 -0.431936 5.27671e-21)
(0.960642 0.0898411 0)
(0.678874 -0.0337321 0)
(0.999226 0.000390765 1.74133e-22)
(-0.423476 -0.383186 0)
(1.54293 0.00502628 -1.41349e-19)
(0.680018 -0.0315604 0)
(1.0622 0.00226484 1.092e-19)
(0.998385 0.0153363 -3.89526e-20)
(1.26412 0.197546 2.15079e-19)
(1.06276 -0.0169781 -8.03005e-22)
(0.954517 -0.200196 -4.67773e-20)
(1.02836 -0.0361835 3.18227e-19)
(0.684786 -0.625748 1.56379e-19)
(-0.790555 -0.189353 -2.76377e-19)
(1.12855 0.3957 3.46934e-20)
(0.0206833 -0.0120174 0)
(1.10234 0.777147 0)
(1.03 -0.0108758 0)
(1.016 -0.786425 -8.3199e-20)
(1.05284 -0.90192 1.58105e-20)
(0.782722 0.121856 -4.01974e-20)
(-0.036107 0.251346 -8.78153e-19)
(1.27575 -0.318832 1.016e-20)
(0.600571 -0.408174 -5.51883e-19)
(1.18094 0.424502 -4.65007e-20)
(0.982878 -0.0562364 -7.03414e-20)
(2.0991 -0.352029 1.35371e-19)
(0.39048 0.0823624 -3.01225e-20)
(-0.330283 -0.436708 -1.45845e-19)
(1.09528 0.543768 1.71042e-19)
(-0.0265726 -0.38382 0)
(0.0938122 -0.447617 4.41227e-19)
(-0.0713559 -0.130216 -8.09277e-23)
(1.03526 -0.0433624 2.87533e-19)
(1.02444 0.00105007 -7.36862e-21)
(1.10414 -0.0124724 -7.95562e-20)
(1.32839 -0.00178755 -1.03021e-20)
(1.60764 0.31596 4.36514e-20)
(0.411944 -0.388167 -2.72522e-19)
(0.7703 0.0518988 7.43109e-20)
(1.035 -0.00238058 -2.09875e-19)
(0.975985 0.257311 -3.57119e-20)
(1.27349 -0.0170866 0)
(1.0902 0.581815 -3.20324e-19)
(1.0043 -0.00526811 8.19184e-20)
(0.656698 0.585625 2.29849e-19)
(1.29582 -0.175798 6.07401e-22)
(1.06583 -0.0134636 -2.61571e-20)
(1.12735 0.0115483 7.4176e-22)
(2.53836 0.0393196 2.34105e-20)
(0.197887 0.0598733 0)
(1.05285 -0.0416826 0)
(1.05823 -0.0351955 5.04656e-19)
(1.00119 -0.00442797 0)
(-0.0491015 -0.0941401 0)
(0.964349 -0.587754 0)
(1.00055 -0.00131214 -4.76347e-19)
(1.17203 -0.693944 6.38581e-20)
(1.02417 -0.00399606 9.96876e-21)
(1.31509 0.936759 -1.9227e-20)
(1.49533 0.985029 -3.59443e-20)
(1.16082 -0.129372 -1.56362e-20)
(1.53103 0.296702 2.31901e-19)
(1.27228 0.2586 0)
(0.015969 0.559805 0)
(2.20686 -0.0360335 5.59184e-19)
(1.25556 -0.722741 0)
(1.0022 -0.00516315 -1.47798e-19)
(1.00939 -0.000641324 2.87e-19)
(1.42587 0.146202 -5.93215e-20)
(0.00146906 -0.124921 2.98228e-19)
(0.968488 -0.00175287 1.55902e-19)
(0.252854 -0.0435718 4.45463e-20)
(0.258462 0.049463 -4.05396e-20)
(1.3535 0.00795033 -1.45877e-22)
(0.927942 0.0169442 -1.56369e-19)
(1.00164 0.00325751 1.85198e-19)
(0.999671 -6.29805e-05 1.09363e-20)
(0.789324 -0.0130347 0)
(0.726774 -0.0276824 0)
(0.723284 -0.0279686 6.63076e-22)
(0.69981 -0.029434 0)
(0.693114 -0.170621 0)
(0.0970934 0.0037988 0)
(0.112114 -0.0189746 3.86649e-20)
(0.329242 0.127138 -2.39069e-20)
(1.0988 0.075637 0)
(1.33382 0.0345604 1.83556e-21)
(1.32822 -0.014621 0)
(0.121256 0.0111715 0)
(-0.0262453 0.00201475 0)
(0.00309662 0.032988 2.94353e-22)
(0.531302 0.145919 5.99512e-20)
(0.792888 0.0233881 0)
(0.795242 0.0207884 0)
(0.966691 0.0186333 -1.92842e-19)
(0.823224 0.00704451 3.6124e-19)
(1.00634 -0.000930338 0)
(0.999784 -0.000767849 3.41981e-19)
(0.999625 -0.000161171 -3.16784e-22)
(0.795932 0.0227935 3.06055e-19)
(0.990941 -0.00677476 -1.79024e-19)
(0.288141 -0.0209997 0)
(-0.0200942 -0.00865403 4.05751e-20)
(1.00116 -0.000677006 -1.72992e-19)
(1.00048 0.000277838 -2.96628e-19)
(1.09929 -0.10564 0)
(1.00001 0.0022331 0)
(0.999468 0.000203752 0)
(1.39787 -0.291842 2.11678e-20)
(1.04784 -0.0346144 1.22146e-20)
(0.933374 0.230061 0)
(-0.368414 0.416934 2.04853e-19)
(-0.86337 0.432477 -4.30144e-19)
(1.02053 -0.0169407 -2.3026e-19)
(-0.351597 -0.468146 -1.31648e-19)
(1.02069 0.000133114 -1.84849e-19)
(1.19847 -0.217638 -7.46919e-20)
(0.808863 -0.491665 2.59313e-19)
(-0.0702025 -0.108354 -9.99902e-20)
(1.02887 0.0117227 0)
(1.05159 -0.00792707 -5.0289e-20)
(0.862593 0.0227679 0)
(-0.0261974 0.0299993 2.6059e-19)
(1.22984 -0.629599 0)
(-0.442921 -0.375633 -3.3013e-19)
(0.278882 -0.0120502 -4.13801e-20)
(1.63142 0.674783 2.20057e-20)
(-0.0549588 -0.0455328 0)
(1.06118 -0.0373601 1.55941e-19)
(1.21602 -0.156792 1.84823e-21)
(0.925084 -0.0213841 2.46029e-19)
(1.01423 -0.00779568 -1.56914e-19)
(1.64323 0.84894 4.7993e-20)
(0.50671 0.474343 0)
(0.42932 0.378264 1.8234e-19)
(1.34167 -0.35072 -5.08792e-21)
(1.14185 0.123609 1.68187e-19)
(1.09951 -0.723393 0)
(1.02247 0.0028151 0)
(1.00091 -0.0175381 -3.61866e-19)
(1.01644 0.0130585 -3.51669e-19)
(-0.178166 -0.402032 0)
(1.19755 0.804118 -1.07354e-19)
(1.35527 -0.15071 -6.46663e-22)
(1.01372 0.00108743 1.35556e-19)
(1.00766 0.0155847 -1.69971e-19)
(-0.501711 -0.31668 -3.23852e-20)
(1.17749 -0.0261102 -3.88423e-20)
(1.01671 -0.0173014 5.78543e-19)
(1.21839 -0.0283041 0)
(1.82902 0.645182 -5.83316e-20)
(1.01627 -0.0131937 -1.80148e-19)
(1.99035 0.121431 -1.52623e-19)
(1.06034 0.00839981 -4.15949e-22)
(1.00869 -0.0104982 3.60836e-20)
(2.11965 -0.267355 -3.47587e-19)
(1.01503 0.00707045 1.74545e-19)
(1.24126 0.184194 6.29405e-21)
(1.01585 0.00267336 0)
(0.924279 0.135472 4.35274e-20)
(-1.36899 0.193935 6.55247e-21)
(0.998554 0.0200653 1.73499e-19)
(1.03704 0.0218704 -6.44623e-22)
(1.26325 -0.0777762 -6.83891e-22)
(1.24636 0.313615 3.5138e-19)
(0.999313 0.0147306 1.19005e-19)
(1.01707 -0.013407 3.95512e-22)
(1.71641 0.25904 -1.39267e-20)
(1.7328 0.923029 -1.03135e-19)
(0.785453 -0.70513 4.68776e-20)
(0.466621 -0.351875 -2.68624e-19)
(1.00687 -0.0117186 0)
(1.01959 0.00191093 4.33885e-20)
(1.00925 -0.00664962 9.1551e-20)
(1.19845 0.0985911 3.23896e-21)
(1.01225 0.00422253 -1.81757e-19)
(1.02835 -0.0275085 2.07098e-19)
(1.0086 -0.00736999 -1.71258e-19)
(1.01445 0.00333049 -5.38333e-22)
(1.01319 0.00523198 -3.48073e-22)
(1.02325 0.0127005 1.73855e-19)
(0.89653 0.071612 4.4731e-19)
(1.73357 0.599264 0)
(0.483101 0.0254466 2.85943e-19)
(1.01234 -0.00428475 0)
(1.02215 -0.0191956 -5.04425e-20)
(1.52267 0.448224 -6.00856e-20)
(1.84551 -0.0152759 0)
(2.0791 -0.419245 -9.62168e-20)
(1.30848 0.583177 -4.69576e-20)
(0.763567 -0.0140238 0)
(1.97939 -0.0703524 0)
(0.231228 0.29076 -1.54987e-19)
(1.3427 0.0660901 -1.87202e-21)
(1.01698 -0.00622633 -1.83159e-19)
(1.13279 -0.577568 -4.87823e-20)
(1.25608 -0.0161272 -9.50876e-21)
(1.50064 0.480786 0)
(1.31241 -0.308533 0)
(1.81735 0.469513 0)
(0.164008 0.548162 9.18094e-20)
(1.35145 0.180139 3.74751e-20)
(-0.0145129 0.252665 0)
(-0.069904 0.64344 -3.23733e-19)
(1.66678 0.951246 -7.05223e-20)
(1.01013 -0.00369353 -3.58039e-19)
(1.30407 0.114205 8.36813e-21)
(1.02214 0.00585693 2.36528e-19)
(0.695421 -0.0389905 0)
(-0.13571 -0.37151 -3.06143e-20)
(0.599955 0.414975 -3.04896e-19)
(1.75807 0.648377 8.49209e-20)
(0.108955 0.688475 0)
(0.803195 0.0899107 6.29706e-20)
(0.505286 0.482254 4.60434e-20)
(1.16177 0.866173 -2.8767e-20)
(-0.030205 -0.0186118 1.48636e-19)
(1.01807 0.00955665 0)
(1.43998 0.289118 2.33218e-20)
(1.01048 -0.00127733 1.34468e-19)
(2.43698 0.164241 0)
(1.01027 0.00658983 2.25395e-19)
(0.138387 -0.442116 -2.09565e-19)
(1.02102 0.0102138 -1.39438e-19)
(1.43314 0.248212 0)
(1.85883 -0.450541 4.76404e-22)
(1.01061 0.00512516 -9.36686e-20)
(0.995238 -0.032447 2.47344e-19)
(1.08773 0.0945452 -2.42271e-21)
(1.2461 0.283386 -3.75325e-20)
(-0.153286 -0.0611299 3.8919e-19)
(1.96018 0.338297 1.93498e-19)
(0.798345 0.177265 4.36569e-20)
(0.808475 0.0140942 -3.383e-19)
(0.804057 0.0240146 0)
(0.914466 0.0601365 4.36735e-20)
(1.0241 -0.0141586 -2.71138e-20)
(0.971072 0.0192182 0)
(1.04867 -0.0016116 -1.72324e-19)
(0.493446 -0.425597 -5.09157e-20)
(-1.56259 0.106001 2.90834e-19)
(2.17404 -0.604139 0)
(-1.02111 0.0207067 -8.8577e-19)
(1.54303 -0.351812 0)
(1.03772 -0.0189905 5.05753e-20)
(1.03477 -0.0740901 1.83555e-21)
(1.01569 -0.00259914 1.45358e-19)
(-1.09754 0.200992 5.45627e-19)
(1.01776 0.00289078 0)
(0.991241 0.00436635 -3.51464e-19)
(1.00839 0.00716831 1.84905e-19)
(0.884333 0.121714 0)
(0.785315 -0.154331 -8.23606e-21)
(0.96094 -0.000996017 -1.58541e-19)
(-0.290885 -0.479523 4.5729e-19)
(1.0038 -0.00101103 -1.80489e-19)