/*--------------------------------*- C++ -*----------------------------------*\
| =========                 |                                                 |
| \\      /  F ield         | OpenFOAM: The Open Source CFD Toolbox           |
|  \\    /   O peration     | Version:  2306                                  |
|   \\  /    A nd           | Website:  www.openfoam.com                      |
|    \\/     M anipulation  |                                                 |
\*---------------------------------------------------------------------------*/
FoamFile
{
    version     2.0;
    format      ascii;
    arch        "LSB;label=32;scalar=64";
    class       volVectorField;
    location    "40.3";
    object      U;
}
// * * * * * * * * * * * * * * * * * * * * * * * * * * * * * * * * * * * * * //

dimensions      [0 1 -1 0 0 0 0];

internalField   nonuniform List<vector> 
2186
(
(1.25556 -0.0596446 3.01548e-19)
(1.53869 -0.877307 5.17474e-20)
(1.38636 -0.857008 1.33963e-20)
(0.682157 -0.517376 -1.89368e-19)
(-0.417688 0.779349 -2.22808e-19)
(1.05727 0.411488 0)
(0.673889 -0.621006 0)
(0.0636399 0.14566 3.98104e-20)
(1.43075 -0.06726 2.72489e-20)
(0.504448 -0.224081 -2.00871e-21)
(0.741898 0.672594 0)
(0.859998 -0.246996 -4.45392e-20)
(0.0807401 0.189069 -1.67924e-20)
(1.20069 0.0296151 -4.63324e-19)
(1.71845 -0.627789 3.94196e-20)
(1.01974 0.00381639 2.16131e-19)
(0.978084 0.0133313 0)
(-0.114107 0.737704 0)
(0.90325 -0.0260986 0)
(-0.0878298 0.324349 -6.80622e-20)
(0.501385 0.212873 -1.32017e-19)
(-0.169078 0.238571 9.20341e-20)
(1.19166 0.0324436 3.81365e-19)
(-0.150017 -0.0739828 4.90289e-21)
(1.02572 0.017968 -3.00328e-19)
(0.732794 -0.494834 0)
(0.75665 0.0387057 1.75904e-19)
(0.565786 -0.545193 -2.28365e-19)
(1.29731 0.774179 0)
(0.957993 0.0271405 -4.09507e-19)
(-0.0335791 0.117314 0)
(1.02193 -0.000803625 1.42016e-20)
(-0.100561 0.25318 0)
(2.35135 -0.132844 -2.7119e-20)
(-0.212667 -0.0826102 -1.41375e-21)
(1.64706 0.831884 1.06531e-19)
(1.93514 0.0114366 -1.31965e-20)
(0.535245 0.259333 -3.92719e-19)
(2.09446 0.173375 -2.88182e-19)
(1.62891 0.0443381 2.29348e-20)
(0.0465245 0.179894 0)
(-0.11057 0.221726 0)
(1.79584 -0.805277 2.88514e-20)
(-0.477513 0.278496 0)
(1.16727 0.321134 1.85874e-19)
(0.555654 -0.207092 3.42794e-19)
(0.864335 -0.733714 0)
(1.11719 -0.733395 1.73719e-19)
(1.8752 -0.548757 0)
(-0.240923 0.72916 1.81128e-19)
(-0.0233604 0.184367 1.00626e-19)
(0.687055 0.634395 9.44454e-20)
(1.96844 -0.67874 -1.60625e-21)
(0.634723 0.371354 -3.15786e-19)
(-0.32439 0.0420534 3.61358e-20)
(0.706973 -0.594752 0)
(1.596 -0.896702 1.74853e-20)
(0.536197 -0.496918 0)
(2.49331 0.0959179 9.25149e-20)
(1.09019 -0.145641 -4.87232e-19)
(1.09785 -0.118732 -1.38503e-21)
(1.42731 0.328502 -2.23637e-19)
(1.43594 0.589865 0)
(2.26612 0.128391 -2.51406e-20)
(1.45703 0.421157 -1.38991e-19)
(1.18364 -0.676956 -2.5573e-19)
(1.25313 0.718238 6.38477e-20)
(0.688343 0.150092 -6.55016e-19)
(0.826452 0.118928 0)
(1.92763 -0.0621933 -4.84956e-22)
(0.033718 0.133089 -4.42161e-20)
(2.05321 -0.512307 -7.73573e-21)
(0.719389 0.0407639 -2.91136e-19)
(0.82013 -0.459669 0)
(0.852443 0.244665 -1.07103e-19)
(0.496966 -0.452831 -3.75625e-19)
(1.89587 -0.4958 0)
(1.00653 0.011327 4.45786e-19)
(-0.20953 -0.0652243 0)
(2.20385 0.382528 0)
(0.91661 0.233801 1.05383e-19)
(1.84857 0.240361 4.59324e-21)
(1.0184 0.0122592 4.991e-20)
(1.39842 0.447318 3.45803e-20)
(0.962376 0.0281107 5.24226e-19)
(1.03277 0.0361671 -1.2407e-20)
(0.691913 0.265035 -3.86607e-19)
(0.855915 0.635432 -8.03839e-21)
(1.24469 0.296368 0)
(-0.070428 -0.0671459 3.39744e-20)
(0.803086 -0.564217 -2.19082e-19)
(-0.180369 0.342215 -1.44037e-21)
(1.08101 -0.0525117 3.16488e-19)
(0.787872 -0.121056 0)
(0.968484 0.0248721 4.98474e-20)
(1.46012 0.692087 0)
(1.53905 -0.886766 0)
(1.37653 0.244454 0)
(-0.406935 0.870011 0)
(0.730708 -0.603794 3.81367e-19)
(0.952235 -0.177342 -3.48145e-19)
(0.925472 0.212881 2.20302e-19)
(1.64021 0.197995 0)
(1.12173 -0.0824029 -2.89332e-19)
(1.126 0.0250748 2.20456e-19)
(-0.0616007 0.370283 1.22966e-19)
(0.705736 0.586179 0)
(1.95197 -0.126961 1.9363e-20)
(0.913476 -0.423071 1.06745e-19)
(-0.944325 -1.04252 1.07241e-19)
(1.93763 0.269976 1.1904e-19)
(-0.284637 0.617047 -2.78489e-19)
(0.764489 -0.692779 0)
(0.626251 0.44534 1.88857e-19)
(1.60104 -0.0867732 -9.21298e-20)
(0.203721 0.518269 -2.7156e-19)
(1.22967 0.652685 -5.70265e-20)
(1.72983 -0.775163 0)
(-0.0923524 -0.0898602 -1.01315e-19)
(0.696199 0.00505534 9.26709e-20)
(1.67504 0.945247 0)
(0.017411 0.673554 -2.58266e-19)
(0.961276 0.829186 -3.17527e-19)
(-0.185439 0.621655 4.01788e-19)
(1.03198 -0.0192739 0)
(1.40771 0.738099 7.18843e-20)
(-0.37991 0.687277 0)
(0.642641 -0.427192 -1.35259e-19)
(-0.148019 0.7109 -2.1743e-19)
(0.736891 -0.670547 0)
(0.38027 -0.16698 4.95705e-19)
(0.48336 -0.384679 3.46577e-19)
(0.388061 -0.350575 0)
(0.921608 -0.726869 -1.92035e-19)
(0.967918 0.04586 0)
(-0.0895731 0.672109 -1.42038e-19)
(0.752157 -0.63957 1.87103e-19)
(2.10968 -0.134627 -8.50823e-21)
(2.18132 0.074125 0)
(-0.0291068 0.0352298 0)
(0.746127 0.693038 -3.98396e-19)
(1.68664 -0.563293 -4.85448e-20)
(0.079445 0.104458 0)
(0.921201 -0.749007 -2.02327e-20)
(1.10963 -0.0815291 0)
(1.05432 -0.0976526 5.00142e-19)
(1.92581 -0.108516 2.74888e-20)
(-0.456375 0.958139 0)
(1.15634 -0.508073 -8.14342e-20)
(-0.186733 0.357294 -4.50866e-20)
(-0.286736 0.386823 0)
(1.03275 -0.757353 1.14441e-20)
(1.00691 0.00562342 -7.44572e-19)
(0.594978 -0.409767 -1.31685e-20)
(0.762847 -0.453509 0)
(1.13385 -0.676418 -1.44459e-19)
(0.695467 0.323489 2.9631e-19)
(1.26826 0.123938 0)
(1.60287 0.0743824 -3.34944e-19)
(1.13364 -0.79855 -3.56386e-19)
(-0.047547 0.0217915 -3.44231e-20)
(-0.295023 0.0855855 -5.03422e-20)
(1.09042 0.0195082 2.78475e-19)
(0.86584 -0.407778 -1.34254e-19)
(1.01774 0.220864 7.44285e-21)
(0.685449 0.201996 2.97661e-20)
(0.762192 -0.115766 4.20688e-20)
(-0.0568967 -0.0538977 -9.68807e-20)
(0.870813 0.23591 0)
(1.42916 0.250255 -1.16141e-19)
(1.53977 0.701272 1.7538e-19)
(0.751341 -0.55424 -2.78095e-19)
(0.995118 0.00999381 1.52532e-20)
(0.662952 -0.466899 3.71925e-19)
(1.39864 0.860271 1.5544e-19)
(1.91613 -0.0170983 7.52639e-21)
(-0.420777 0.997165 0)
(1.10103 0.0710798 -2.88781e-19)
(-0.69984 0.381737 -1.30312e-19)
(1.14136 0.538108 9.37645e-20)
(0.209054 -0.11971 5.85369e-20)
(1.16243 0.0318336 -5.30411e-20)
(-0.21337 0.233914 -1.65182e-19)
(1.38257 0.627152 -9.49726e-20)
(1.22462 0.954777 0)
(-0.386981 1.10385 -1.15387e-19)
(0.327691 0.54607 0)
(0.719288 0.627597 -3.14058e-19)
(2.18719 0.140073 -1.55758e-20)
(0.0971775 0.258724 6.37095e-20)
(-0.371761 0.787055 -5.62132e-19)
(0.734551 0.154805 2.87925e-19)
(2.18146 -0.341363 -4.21935e-20)
(0.933061 -0.298298 -3.86709e-20)
(-0.0219182 0.00274579 0)
(-0.688199 -1.45956 2.32981e-19)
(1.43128 1.04578 -3.25961e-20)
(0.852402 0.140231 -1.58943e-19)
(0.608434 0.572525 2.1949e-19)
(0.492959 0.206826 0)
(-0.152391 0.0471736 -6.58163e-20)
(-0.64329 -1.34359 1.48888e-19)
(1.22782 -0.900032 1.10737e-21)
(0.980215 0.000727346 -2.32929e-19)
(-0.111557 -0.147437 4.45571e-21)
(-0.0692635 0.0592276 1.77489e-19)
(-0.194911 -0.193855 -7.02269e-20)
(1.46332 -0.742743 0)
(1.15605 0.0555064 -3.88304e-19)
(2.2283 -0.305162 9.92434e-20)
(1.20702 -0.568207 1.62535e-19)
(1.78745 0.191762 -4.33854e-20)
(0.64391 0.425064 0)
(1.0189 0.814443 -1.88784e-20)
(0.743637 0.686148 2.11385e-19)
(0.841805 -0.506172 1.97087e-19)
(0.751749 0.576804 0)
(1.01855 0.0120841 9.98927e-21)
(0.823796 -0.606082 2.81922e-19)
(0.895899 0.488215 -5.23373e-19)
(1.13506 -0.0978608 0)
(0.21699 0.312796 -2.1609e-19)
(-0.0698446 0.289382 -1.01351e-19)
(1.69772 0.774409 0)
(1.27618 -0.878041 -9.47458e-22)
(-0.0877921 0.699449 0)
(-0.399964 0.579291 1.34189e-19)
(0.803751 0.717834 -1.11636e-19)
(0.823198 -0.158522 0)
(-0.133012 0.00692333 0)
(1.57583 -0.407035 0)
(0.119138 -1.24724 4.9922e-19)
(1.1425 -0.826311 2.32842e-19)
(1.11391 -0.552753 9.04701e-20)
(1.00284 -0.151031 -2.25735e-19)
(0.816252 -0.635106 -2.24973e-19)
(0.170597 -0.172953 0)
(-0.329355 0.571929 0)
(0.945581 -0.4597 2.384e-19)
(0.0198305 0.0719561 0)
(-0.225067 0.793945 0)
(0.132198 0.601587 2.39021e-19)
(0.861816 0.735416 9.69051e-20)
(1.09017 0.858198 0)
(0.764367 0.626775 -9.59618e-20)
(0.823918 0.0202691 -2.65755e-19)
(0.812395 0.631407 -2.57952e-19)
(0.647413 0.605332 -1.88802e-19)
(-0.0190403 0.090515 3.69712e-22)
(0.669574 -0.597878 0)
(0.928502 0.229839 -3.77738e-19)
(-0.00331809 0.122284 1.9779e-20)
(0.657645 0.611309 4.27938e-19)
(1.03377 0.863632 0)
(0.206833 -0.764646 4.63207e-19)
(-0.215406 0.00452406 1.07328e-19)
(-0.192484 0.125238 -5.43478e-20)
(0.73155 0.641061 -1.6612e-20)
(0.969669 -0.00588764 7.19828e-20)
(0.0233564 0.221984 0)
(2.01388 -0.0995482 5.73954e-20)
(0.656039 -0.445074 2.18549e-19)
(0.60195 -0.553999 -9.97976e-20)
(0.191933 0.559576 1.46601e-20)
(1.26702 0.501945 2.1574e-19)
(0.943167 0.475883 0)
(1.00894 -0.143204 2.49638e-19)
(-0.232821 -0.00401121 1.09593e-21)
(-0.136254 0.185697 3.83276e-19)
(0.904164 0.0228643 -6.52681e-20)
(1.16619 0.159214 0)
(1.66881 -0.0148526 1.05453e-19)
(1.95129 0.00872319 0)
(0.58451 0.354435 -5.16467e-19)
(-0.127319 0.095568 0)
(0.0314492 0.112653 8.60639e-20)
(0.662193 0.0914804 0)
(0.561619 -0.444355 -2.27131e-19)
(1.13007 0.0238776 2.58252e-19)
(-0.380935 0.913141 4.6841e-20)
(1.7774 -0.140643 -1.16929e-20)
(1.9102 -0.147378 -6.31556e-21)
(1.16414 0.262203 -2.60856e-19)
(-0.0137349 0.143199 -3.9547e-20)
(1.01068 -0.793785 0)
(0.800669 0.0167293 -1.87755e-19)
(0.881416 -0.322195 -3.64147e-19)
(1.63214 -0.525431 9.56589e-21)
(1.57334 0.0035385 -1.47483e-19)
(1.10163 0.00229229 4.64606e-19)
(-0.193853 0.0395284 -4.63502e-20)
(0.945114 -0.386318 -1.65989e-19)
(0.17766 -0.170145 3.19046e-19)
(1.00834 -0.00471474 0)
(1.00485 -0.00308478 0)
(0.332899 -0.797111 -4.06194e-20)
(-0.0596932 0.554311 -9.66015e-20)
(0.217021 -0.103639 -5.65803e-20)
(1.03191 -0.28139 1.66068e-20)
(1.50791 -0.948173 0)
(2.35369 -0.419351 -7.46843e-20)
(0.886725 -0.767134 -1.41338e-19)
(1.70369 -0.506327 1.21258e-21)
(1.18687 0.901266 0)
(0.425482 -0.402922 0)
(0.671866 0.591982 -1.97935e-19)
(1.15437 0.315595 -4.78057e-19)
(2.06883 -0.183592 -6.42335e-23)
(0.888258 0.212292 1.62448e-19)
(-0.189513 0.0780734 -1.17447e-19)
(1.32072 0.506041 9.28233e-20)
(-0.202879 0.0896964 0)
(-0.0885617 0.0107283 0)
(-0.00238369 0.331159 0)
(1.26892 -0.669816 -1.69028e-19)
(-0.287234 0.397503 -2.28485e-19)
(-0.145081 0.178928 0)
(1.386 1.04708 -4.38131e-20)
(1.15869 0.178825 -5.02917e-19)
(2.5222 0.182269 -4.78991e-20)
(1.16423 0.993556 1.02337e-19)
(-0.267847 0.548218 1.41264e-19)
(1.46798 0.200412 0)
(0.00451989 0.406865 -1.60625e-19)
(-0.368693 0.598162 2.73721e-19)
(0.78558 0.0967838 2.15887e-19)
(1.64465 1.01168 -1.83778e-20)
(1.89381 0.91923 -6.25542e-20)
(-0.192284 0.333803 -2.15432e-21)
(0.693505 -0.630691 -5.14596e-20)
(1.22918 -0.0304526 0)
(1.77514 0.0518741 0)
(0.945191 0.0485048 0)
(-0.442102 -1.27542 -1.30767e-19)
(-0.0777479 0.271422 4.54743e-20)
(1.12704 0.910438 0)
(0.990458 0.0230059 6.24307e-19)
(0.836124 0.674486 -2.57883e-19)
(-0.630608 -1.24742 -1.11764e-19)
(0.870137 0.0715573 -4.89559e-20)
(0.663437 -0.601199 -2.92754e-19)
(1.4791 0.761127 -4.08307e-20)
(0.503594 -0.371405 -3.57246e-19)
(1.13575 0.00671527 -5.58966e-19)
(0.787983 0.0475744 5.63983e-20)
(1.43819 -0.158902 1.3137e-19)
(0.976059 0.187532 7.34418e-20)
(0.0124726 0.0330492 2.69757e-22)
(1.14443 0.523495 -3.13314e-19)
(1.44919 0.678614 7.70752e-20)
(-0.249046 0.0960456 0)
(-0.18701 0.0229925 4.50903e-20)
(0.270498 0.678221 9.53893e-20)
(-0.14955 -0.14645 -4.76827e-20)
(0.542632 0.428681 0)
(0.69026 -0.31002 0)
(-0.0325016 0.0369828 -1.39375e-19)
(-0.0592399 0.0886589 -2.07051e-20)
(1.05222 -0.0251482 2.21632e-19)
(-0.412701 0.977547 -6.18137e-20)
(1.91328 -0.838518 -3.5146e-19)
(-0.0389598 0.522901 0)
(0.776693 -0.685465 -4.21164e-19)
(1.12696 0.218317 -1.78482e-19)
(-0.492981 0.226589 6.62944e-20)
(0.746351 0.237931 3.77004e-19)
(0.645724 0.238811 1.20807e-19)
(0.454697 -0.425372 2.53755e-19)
(0.0864324 0.122874 -4.76981e-20)
(2.10108 0.928303 0)
(0.458806 0.44752 -2.14317e-19)
(1.0322 -0.0084559 -3.52749e-19)
(-0.388456 0.738892 2.2312e-19)
(1.51101 0.51179 -1.50089e-19)
(0.0163699 0.0831329 -1.71799e-20)
(0.646169 -0.58796 -1.31816e-19)
(0.852528 0.249025 -2.38254e-19)
(1.03538 0.480469 2.66203e-20)
(1.11223 -0.110781 4.51118e-20)
(0.572881 -0.143724 -3.599e-19)
(1.88152 -0.267393 4.75453e-20)
(0.382527 -0.0562524 0)
(2.20066 0.214797 -8.30872e-21)
(1.93139 -0.143495 1.35613e-21)
(0.255593 0.216151 1.01387e-20)
(1.08498 0.396805 -1.85716e-19)
(1.97955 0.36021 -1.18586e-20)
(0.477462 0.460733 -2.79316e-19)
(0.231609 0.618306 2.35926e-19)
(1.68664 -0.0176021 0)
(0.950622 0.00967145 0)
(0.816474 -0.719651 8.77162e-20)
(-0.20922 0.0235583 -1.1787e-19)
(0.037847 0.311394 -2.95272e-19)
(0.0183505 0.0477372 -7.2639e-20)
(-0.120003 0.796037 -1.68191e-19)
(-0.326424 0.147717 0)
(-0.0897682 -0.0111815 1.3331e-20)
(0.13701 0.328044 -9.40661e-20)
(-0.06696 0.0612597 -4.06902e-19)
(0.780297 -0.0454887 0)
(1.09751 -0.0869275 -9.77203e-20)
(0.22772 0.408045 0)
(0.991324 0.0249953 4.49457e-19)
(-0.206871 0.0564725 1.21399e-20)
(0.480942 -0.342608 4.79063e-19)
(-0.781681 0.402199 2.16401e-19)
(-0.667314 -0.725421 0)
(0.194783 0.442344 1.0674e-19)
(0.998211 0.0302451 -1.3567e-20)
(-0.020733 -0.0568807 0)
(1.00441 -0.00743284 -6.95986e-20)
(0.800276 -0.669772 -3.90023e-19)
(0.748814 -0.608852 0)
(0.89833 -0.218579 2.60276e-19)
(0.233298 0.537948 2.15714e-19)
(-0.0466128 -0.0347901 0)
(-0.14725 0.0503818 -1.85136e-21)
(0.668506 -0.57493 -5.4409e-19)
(0.931235 -0.020219 -3.34377e-19)
(-0.225835 0.0413631 1.36552e-19)
(-0.0166196 0.077133 5.21354e-20)
(-0.249481 0.131964 0)
(1.01934 0.531729 0)
(-0.368597 0.172736 6.23246e-20)
(1.27984 -0.0929512 3.6691e-20)
(1.15703 0.966603 2.22328e-20)
(1.11058 0.245064 -1.48268e-19)
(1.10209 0.0118556 -2.8657e-19)
(0.981947 -0.0574973 -1.0815e-19)
(-0.179592 0.0321848 -1.25814e-19)
(1.69968 -0.035483 1.70517e-19)
(0.714083 0.0441403 2.52855e-19)
(1.69021 -0.0904591 -2.18964e-20)
(0.98869 -0.125877 0)
(-0.321352 -0.737451 6.78993e-20)
(1.14504 0.0285254 -6.08874e-19)
(1.86232 0.66208 2.36164e-20)
(0.686111 -0.387059 -1.99308e-19)
(-0.0929515 -0.0863404 7.58091e-20)
(0.740935 -0.645183 5.07644e-19)
(1.29859 0.218518 9.12317e-20)
(1.00706 -0.00768767 3.08061e-19)
(-0.214613 0.0405696 -5.13652e-20)
(1.03752 0.0341576 0)
(1.96014 0.0391977 1.79806e-20)
(-0.0690282 -0.0446759 0)
(1.01117 0.0179198 -1.83291e-19)
(-0.201536 -0.960513 -5.33938e-19)
(1.87016 0.333228 5.03587e-20)
(0.197407 0.711537 1.4078e-19)
(1.69235 0.0651139 1.08425e-20)
(1.01769 -0.0139853 6.38694e-20)
(1.20712 -0.0854056 0)
(1.36805 -0.561976 -2.58022e-19)
(1.03404 0.0572954 -1.88122e-19)
(1.54208 0.847825 -7.93854e-20)
(1.21521 -0.0512342 0)
(0.995679 -0.432466 2.95626e-20)
(-0.0408992 0.0439815 0)
(1.23213 0.0515272 0)
(-0.0306564 0.211265 0)
(1.3173 0.494141 0)
(2.06834 0.229041 4.60285e-20)
(0.810073 0.682548 4.52284e-19)
(0.265828 -0.266076 -3.00533e-19)
(-0.0560871 0.0782201 -1.23724e-19)
(-0.0364976 -0.00120464 0)
(1.71898 0.0242555 -7.08521e-20)
(1.48063 0.564975 0)
(1.56687 0.310332 0)
(-0.07531 0.445738 6.98555e-20)
(0.876277 0.774964 1.48344e-19)
(1.5406 -0.00727287 0)
(0.109746 0.206556 3.25462e-20)
(0.946876 0.277798 2.21467e-19)
(1.04263 -0.0039325 1.04856e-19)
(1.33373 0.995697 5.52539e-20)
(0.864066 -0.775241 -6.81926e-20)
(0.558592 0.000802879 1.12132e-19)
(0.862328 0.779097 1.52926e-19)
(1.26829 0.995104 0)
(1.62063 -0.497352 8.59129e-21)
(0.369536 -0.844582 0)
(0.748168 0.228613 -1.38367e-19)
(1.19325 0.118621 1.99332e-19)
(1.00597 -0.001126 0)
(-0.365318 -0.951018 9.85825e-20)
(0.86193 -0.114177 5.88407e-20)
(0.574883 -0.331261 0)
(0.618734 -0.303923 2.57947e-19)
(1.32051 0.606269 -3.9916e-20)
(0.525681 0.499288 3.09999e-19)
(-0.0983124 0.116111 4.98907e-20)
(0.314613 -0.0490826 1.0077e-19)
(0.727839 0.0600936 0)
(1.25476 -0.841547 -1.80969e-19)
(1.0427 -0.0415967 4.91863e-19)
(1.662 0.352809 1.46965e-19)
(0.124443 0.256512 2.77557e-20)
(-0.786736 0.428829 0)
(1.17159 -0.210055 -1.52753e-19)
(-0.0416572 -0.0262199 -6.0787e-20)
(-0.595216 -0.35678 -2.88974e-21)
(-0.15983 0.07112 -9.57951e-22)
(-0.238882 0.124182 3.15428e-19)
(0.356155 0.846086 4.68504e-21)
(1.99603 -0.108793 -7.68907e-20)
(1.26862 0.498943 -3.47942e-19)
(0.956941 -0.0683327 0)
(1.8314 0.0143057 1.32393e-19)
(1.64578 0.0633613 -3.48686e-20)
(0.849971 -0.709098 1.96406e-19)
(1.09206 -0.913063 -1.0249e-19)
(0.528701 0.493253 2.09283e-19)
(0.530176 -0.612003 0)
(1.88704 0.604606 2.0148e-20)
(-0.0475658 -0.0221618 -1.23917e-19)
(0.956277 0.835589 0)
(1.68922 0.798944 0)
(0.264665 -0.26268 -3.47365e-21)
(0.388206 0.402483 0)
(-0.932634 0.301023 -3.00476e-19)
(-0.303609 0.351986 -1.36271e-19)
(1.67494 -0.377013 0)
(1.31169 0.0477304 2.50759e-19)
(0.150714 0.405771 2.46418e-19)
(0.488081 -0.460548 -5.92576e-19)
(1.6647 -0.0311163 1.03075e-20)
(0.562617 -0.506112 0)
(1.08113 0.145355 0)
(1.35342 -0.20337 0)
(1.17117 0.263194 -2.81706e-19)
(1.40781 0.116108 4.02885e-19)
(-0.318243 -0.630386 0)
(0.836709 -0.046526 0)
(1.50636 -0.1488 1.29108e-20)
(-0.170315 0.221414 1.06987e-19)
(2.14391 -0.39023 -1.3688e-19)
(1.04633 -0.468647 5.95278e-20)
(1.48084 -0.149671 -6.94943e-20)
(-0.212262 0.605356 -1.80786e-19)
(1.9404 0.00914684 -1.06055e-19)
(1.01251 -0.00467846 5.08525e-19)
(1.62364 0.640157 0)
(-0.371299 0.608993 3.71449e-20)
(0.939279 -0.771963 2.58013e-19)
(0.851693 0.0416746 5.72206e-20)
(0.577219 -0.356036 0)
(1.79402 -0.463041 -1.02129e-20)
(1.15354 -0.169829 2.06308e-19)
(0.358011 -0.172005 0)
(0.563154 -0.521067 6.13985e-19)
(1.51588 0.18112 4.3522e-20)
(2.14423 -0.406735 3.39913e-19)
(-0.196544 0.268423 -2.23223e-19)
(1.42318 0.669958 1.82297e-19)
(1.21901 0.45184 4.33546e-21)
(0.959002 0.43534 2.59762e-19)
(1.22349 -0.125997 4.56072e-20)
(-0.175522 0.0378539 4.46381e-22)
(0.361811 0.0686527 0)
(-0.119116 -0.0987883 1.23938e-19)
(1.03154 -0.891679 0)
(0.998967 -0.597938 3.00549e-20)
(0.305256 -0.0435196 8.33941e-20)
(0.204444 0.126264 -8.66627e-20)
(-0.395644 0.383919 -1.78439e-19)
(1.05511 0.541904 2.02548e-19)
(-0.292771 -0.945144 1.4434e-19)
(0.715398 -0.0419567 0)
(0.657944 -0.202664 0)
(1.95519 -0.0518312 -7.3222e-21)
(0.752231 -0.0120462 0)
(1.29365 -0.184931 -2.12289e-19)
(-0.506166 0.484547 5.00492e-19)
(2.04613 0.520977 -9.73353e-21)
(1.06392 -0.0305665 0)
(0.497584 -0.261222 1.29253e-19)
(1.00728 0.0267036 2.40919e-19)
(0.362545 -0.941702 -1.13728e-19)
(0.0342049 0.764884 0)
(1.04787 -0.429752 6.61867e-19)
(0.915243 0.0784737 6.81665e-23)
(1.04088 -0.445287 -2.87587e-19)
(2.45554 0.102466 1.4772e-19)
(1.37889 0.854617 0)
(0.89457 0.0270855 0)
(0.0913719 0.317829 -7.91044e-20)
(-0.0350551 0.038912 1.56859e-19)
(1.00658 0.420759 -2.41853e-19)
(-0.166609 0.0292328 -3.56705e-20)
(0.705728 0.492928 2.71471e-19)
(0.929001 -0.247511 0)
(0.495747 -0.46006 0)
(0.0802654 1.09917 -2.76327e-21)
(1.16409 -0.458129 -1.41048e-19)
(0.798751 0.0317622 4.73595e-21)
(0.715929 -0.0736785 1.41187e-19)
(-0.134456 0.170592 -2.81513e-19)
(1.75783 -0.167395 2.7418e-19)
(0.721962 0.674112 0)
(1.36028 0.751107 0)
(1.70433 0.266279 0)
(-0.233477 0.21206 -6.00142e-20)
(1.38587 0.630448 2.12764e-19)
(1.79251 0.0177522 -1.00586e-20)
(0.995137 -0.0181367 0)
(1.30668 0.387652 0)
(1.94981 -0.100091 -1.39245e-19)
(0.472203 -0.566723 1.40968e-19)
(1.005 0.00798219 -2.40671e-19)
(1.5993 0.524581 0)
(0.072155 0.717833 0)
(1.31242 0.350083 3.4755e-19)
(1.09322 0.584467 -1.51913e-19)
(1.08444 0.0380431 0)
(0.845485 -0.239571 0)
(2.17967 0.717892 -2.99595e-19)
(-0.197158 0.39167 -4.72956e-22)
(0.993017 0.017498 0)
(0.771537 0.552204 -3.77093e-20)
(0.874825 -0.768176 0)
(0.999275 0.0197554 5.6084e-20)
(0.183911 0.25726 -7.89641e-20)
(0.860274 -0.267591 3.8543e-19)
(0.351512 0.950693 1.11864e-19)
(1.93851 -0.0760247 -6.12964e-20)
(1.9671 0.108764 3.00026e-22)
(0.753388 -0.0213002 0)
(0.993944 0.0162987 0)
(-0.554875 0.342895 0)
(0.72497 0.694518 -2.16985e-19)
(-0.101322 0.118291 1.90131e-19)
(1.23422 0.391169 -5.56423e-19)
(-0.361591 0.980549 0)
(0.900213 0.711781 1.91333e-19)
(0.959483 -0.281158 0)
(1.00555 0.00162649 1.40733e-19)
(-0.293561 -0.621 -4.78413e-21)
(1.09845 0.453388 3.01465e-19)
(1.74116 0.0144882 0)
(2.24306 0.0836396 -5.64126e-20)
(0.81236 -0.047421 -4.3707e-19)
(-0.836175 0.256694 -4.10139e-19)
(0.609734 -0.566933 0)
(0.919903 0.301506 2.02924e-19)
(1.73912 -0.0837708 0)
(0.841354 0.593901 4.10877e-19)
(-0.65927 0.301841 2.04667e-19)
(-0.120926 0.148846 0)
(0.647479 0.617111 -8.02556e-20)
(0.964692 -0.584447 -2.09102e-19)
(0.423698 -0.138837 -1.4483e-19)
(1.01773 0.000466716 0)
(0.247552 0.457736 -2.22846e-19)
(0.581838 -0.509101 1.02244e-19)
(0.952673 0.348177 0)
(1.22899 -0.267396 -1.05597e-19)
(1.06172 0.90524 2.84388e-20)
(-0.148227 0.580839 4.95607e-20)
(0.101013 0.147774 -8.28993e-20)
(0.177043 0.14967 -6.33931e-19)
(-0.0326248 0.0511282 3.15386e-21)
(0.874439 0.426885 2.82409e-19)
(-0.307642 0.432065 -5.74052e-21)
(1.33565 -0.595339 2.9228e-21)
(1.01904 0.0277324 -4.20169e-19)
(-0.403751 0.250832 0)
(1.0442 0.0546788 -4.9182e-19)
(1.66877 -0.240085 -3.79237e-20)
(0.960508 0.756504 3.23611e-19)
(1.10952 -0.0511022 1.99796e-19)
(0.997525 -0.00410538 1.94366e-19)
(0.334196 0.0924119 8.39265e-20)
(0.180941 0.26713 1.5898e-21)
(1.65539 -0.804804 1.44239e-20)
(1.05808 -0.116583 -1.09266e-19)
(0.73436 0.0466017 1.26746e-19)
(0.869929 -0.238557 1.1067e-19)
(1.86577 0.181068 0)
(1.03762 0.800778 0)
(0.0483887 -0.425022 5.70522e-21)
(2.05933 0.201645 -1.14398e-20)
(-0.718565 0.422835 1.54069e-19)
(0.972592 -0.48474 -6.83579e-19)
(0.558813 -0.468541 4.83952e-19)
(1.69708 0.0815725 -1.35218e-19)
(-0.222998 0.0103511 4.68309e-21)
(0.0320385 0.758293 0)
(0.767829 0.193929 -7.83329e-21)
(0.179024 0.154862 2.92551e-19)
(1.11826 0.826381 0)
(-0.0638277 0.333102 0)
(0.785282 0.0406296 0)
(0.0511063 0.107606 -2.06351e-20)
(-0.124578 0.173957 0)
(1.33604 -0.453532 1.56925e-19)
(1.27664 0.202224 7.77981e-21)
(-0.423587 -1.20726 1.95714e-19)
(2.14366 0.765563 1.67175e-20)
(1.96014 0.470786 -5.128e-20)
(1.96791 -0.253542 1.04475e-21)
(-0.204586 0.0312298 -2.2085e-19)
(-0.200619 0.0530603 1.38011e-21)
(1.83156 0.155199 0)
(0.691989 -0.0357841 0)
(1.00083 0.00198497 1.90789e-22)
(-0.290003 0.246458 0)
(1.31881 0.012168 8.20316e-20)
(0.689046 -0.0317073 0)
(1.03126 0.0181401 1.60771e-19)
(0.987433 0.0177254 -5.47841e-20)
(1.71203 -0.17405 1.71744e-19)
(1.07701 -0.00914916 -1.12548e-21)
(0.915349 -0.145595 -6.64772e-20)
(1.01509 -0.0102662 4.53119e-19)
(0.613844 -0.547803 2.33488e-19)
(-0.240378 -1.47736 -1.98296e-19)
(1.75993 0.839125 1.46839e-20)
(-0.0434408 0.0564664 0)
(1.20851 0.859109 0)
(1.01692 0.0163176 0)
(0.939915 -0.715542 -1.50584e-19)
(0.977131 -0.835226 1.10311e-19)
(1.50387 0.522613 -1.25486e-20)
(-0.802894 -0.950652 -1.31469e-19)
(0.0696929 0.838348 1.31138e-20)
(0.527246 -0.296168 -7.65085e-19)
(1.98598 0.545815 -2.3216e-21)
(0.730831 1.03293 5.24421e-20)
(1.91597 -0.210555 -2.27709e-20)
(0.989618 0.279268 5.01275e-20)
(0.0903464 0.164932 -4.57632e-20)
(1.18593 0.608747 2.32962e-19)
(-0.282917 -0.0672829 0)
(-0.143336 0.0166845 8.29678e-20)
(-0.1333 -0.0472653 6.52849e-23)
(1.03258 -0.041926 4.02968e-19)
(1.01774 0.0180839 -1.04217e-20)
(1.11316 -0.00594679 -1.11381e-19)
(0.57647 -0.421396 1.23773e-19)
(1.7353 0.331664 7.851e-20)
(0.350984 -0.322731 -3.85129e-19)
(1.45481 0.251662 5.29908e-21)
(1.02378 0.019969 -2.98696e-19)
(1.9438 0.608452 -1.51272e-20)
(0.823746 -0.301589 0)
(1.18658 0.646512 -4.36981e-19)
(1.00279 -0.00146332 1.14829e-19)
(0.742124 0.670933 2.91476e-19)
(0.315962 0.872159 -2.2016e-21)
(1.08471 0.000890196 -3.66367e-20)
(1.14141 0.0233874 1.03964e-21)
(2.21608 -0.26582 1.3174e-20)
(0.702023 0.273977 0)
(1.04618 -0.0384661 0)
(1.04888 -0.0335903 7.04499e-19)
(1.0026 -0.00131522 0)
(-0.0668851 -0.00961237 0)
(0.933906 -0.544859 0)
(1.00086 0.00102895 -6.67999e-19)
(1.08953 -0.626812 1.27619e-19)
(1.02139 0.00384409 1.40988e-20)
(1.44389 1.02515 -3.57019e-20)
(1.63976 1.07572 3.69447e-20)
(0.20176 0.882131 -2.59896e-20)
(0.851603 -0.290895 -2.57769e-20)
(2.06681 0.0895531 0)
(-0.0419548 0.416078 0)
(1.66611 -0.0741032 -7.08657e-20)
(0.0788613 -0.0666968 0)
(0.999509 -0.00422601 -2.0611e-19)
(1.01053 -0.000989999 4.00825e-19)
(1.51433 0.148423 -8.55544e-20)
(0.0355896 -0.106136 1.01105e-19)
(0.984941 0.00302032 2.18306e-19)
(0.538465 -0.251342 2.6751e-20)
(2.11027 0.104915 5.62021e-20)
(0.428662 -0.484938 1.21794e-21)
(0.920651 0.0195716 -2.21549e-19)
(1.00337 0.00488607 2.59658e-19)
(1.00005 0.000225711 1.5328e-20)
(0.790193 -0.0130824 0)
(0.731696 -0.0264298 0)
(0.728898 -0.0269037 8.30197e-22)
(0.707328 -0.0294357 0)
(0.902082 0.180845 0)
(1.67663 0.243348 0)
(2.14919 0.0417968 -2.53119e-20)
(2.2903 -0.0256396 1.73481e-20)
(1.41644 -0.268622 0)
(0.416794 -0.109203 -3.67474e-20)
(-0.0253733 0.012608 0)
(0.349999 0.00190197 0)
(-0.0752311 0.086579 0)
(0.0447752 0.121636 -2.31332e-20)
(1.43514 0.284683 -8.99874e-20)
(0.769813 0.024599 0)
(0.783225 0.0198669 0)
(0.961375 0.0227192 -2.72716e-19)
(0.813453 0.00763557 5.06156e-19)
(1.00852 -0.00131939 0)
(1.00029 -0.000484873 4.79682e-19)
(1.00029 -0.000489298 -2.6566e-22)
(0.780512 0.0225462 4.33257e-19)
(1.00111 -0.00413915 -2.50583e-19)
(0.726743 -0.290087 0)
(1.99662 0.180905 -5.62571e-20)
(1.00081 -0.000511493 -2.42141e-19)
(0.999847 0.00226876 -4.16067e-19)
(0.568888 -0.388617 0)
(0.99897 0.00179277 0)
(0.999689 0.000489305 0)
(0.605577 0.736207 -4.34005e-20)
(0.400005 1.03088 4.24795e-21)
(1.75293 0.696348 0)
(-0.346995 0.69722 2.88012e-19)
(-0.430058 -0.957853 -9.96847e-20)
(1.02225 -0.0054893 -3.23603e-19)
(-0.0631137 0.127565 -4.07977e-20)
(1.01661 0.0158711 -2.6099e-19)
(1.10271 -0.193883 -1.57575e-19)
(0.744276 -0.406596 3.80317e-19)
(-0.00136135 0.0315566 -2.93942e-20)
(1.02517 0.0213587 0)
(1.08305 -0.0062318 -7.05486e-20)
(0.8365 0.0296483 0)
(-0.10562 0.12838 2.76301e-19)
(-0.212415 -0.112699 0)
(-0.120353 0.28076 -1.21624e-19)
(0.55403 0.01282 -9.23682e-22)
(1.77614 0.727134 -3.94618e-20)
(-0.0739985 0.0109157 0)
(1.05367 -0.0366131 2.18e-19)
(0.244165 1.0229 1.17347e-21)
(0.931356 0.0345024 3.38669e-19)
(1.01482 -0.0014996 -2.20204e-19)
(1.79653 0.921382 2.70108e-20)
(0.579935 0.550008 0)
(0.512373 0.491327 2.24381e-19)
(1.18167 0.457374 1.78917e-20)
(1.19679 0.145702 2.34057e-19)
(1.02174 -0.655051 0)
(1.02534 0.0136016 0)
(1.0011 -0.0154191 -5.06073e-19)
(1.01677 0.021635 -4.95382e-19)
(-0.0651619 0.0443801 0)
(1.3101 0.886463 -1.58642e-19)
(0.295417 0.845488 2.34329e-21)
(1.01628 0.0123285 1.90521e-19)
(1.01085 0.0177638 -2.38828e-19)
(-0.160272 0.451729 -1.36254e-20)
(0.505045 1.10397 -3.20147e-20)
(1.02108 -0.00672386 8.11745e-19)
(0.894485 0.620628 0)
(2.00794 0.690089 -3.19584e-20)
(1.01727 -0.00356792 -2.53024e-19)
(1.84129 -0.0214789 1.88781e-20)
(1.07331 0.0188557 -5.82766e-22)
(1.00951 -0.00662307 5.04753e-20)
(1.82411 -0.105864 2.34754e-20)
(1.01581 0.0105594 2.45758e-19)
(1.3216 1.21406 -9.74326e-21)
(1.01765 0.0145943 0)
(0.964924 0.198563 5.85467e-20)
(-0.762433 -0.780532 3.60657e-21)
(0.996197 0.0239884 2.44028e-19)
(1.039 0.022465 -5.45911e-22)
(0.404429 0.899056 -5.28584e-22)
(1.33496 0.347689 5.04564e-19)
(0.992112 0.0217277 1.68267e-19)
(1.0186 -0.00727896 5.13277e-22)
(1.8685 0.240476 -3.3312e-20)
(1.93704 1.03047 -1.11691e-19)
(0.720468 -0.644049 8.18727e-20)
(0.388807 -0.219171 -3.66776e-19)
(1.00961 -0.00557271 0)
(1.01946 0.00831941 6.10127e-20)
(1.01185 -0.00316998 1.28527e-19)
(0.912638 1.14532 2.30082e-21)
(1.01334 0.0145164 -2.55916e-19)
(1.02091 -0.00674349 2.94553e-19)
(1.00966 -0.00272467 -2.40144e-19)
(1.01412 0.0133233 -5.51532e-22)
(1.01308 0.0095368 -3.83087e-22)
(1.02185 0.0216412 2.45238e-19)
(0.919605 0.141485 6.03472e-19)
(2.03245 0.0661833 0)
(-0.112127 -0.145219 1.083e-21)
(1.00927 0.00477775 0)
(1.02497 -0.00503052 -7.09824e-20)
(1.6329 0.468551 -1.11384e-19)
(1.66515 -0.117789 0)
(1.27268 -0.192024 7.40102e-20)
(1.35124 -0.212309 -3.72166e-20)
(0.809436 -0.0221952 0)
(1.52417 -0.0701988 0)
(0.487965 -0.450243 -2.23573e-19)
(0.298864 0.304066 -7.16457e-21)
(1.01801 0.00525098 -2.57668e-19)
(1.05497 -0.51293 -8.26568e-20)
(0.533286 1.04875 -1.30845e-21)
(1.40621 1.12721 0)
(0.583526 0.787089 0)
(2.28345 0.137873 0)
(0.0258458 0.267639 9.4134e-20)
(0.881424 1.17396 7.18006e-20)
(-0.178632 -0.921743 0)
(0.310669 0.475254 -2.77287e-19)
(1.82344 1.03541 -3.96682e-20)
(1.00678 0.00283778 -5.03626e-19)
(0.704544 0.989188 1.89519e-20)
(1.01974 0.0231521 3.33956e-19)
(0.722284 -0.0473323 0)
(-0.127719 0.0103137 -9.29135e-21)
(0.678522 0.52123 -3.83612e-19)
(1.93454 0.109284 1.81278e-19)
(0.20619 0.422664 0)
(0.733731 0.0722028 1.05995e-19)
(0.573341 0.551842 5.81065e-20)
(1.27495 0.95224 -4.30378e-20)
(-0.0766894 -0.0641658 4.6663e-20)
(1.02739 0.0289275 0)
(1.15342 1.04719 -2.44207e-20)
(1.01147 0.00573105 1.88993e-19)
(2.35087 -0.150441 0)
(1.01076 0.0144953 3.17115e-19)
(-0.0962729 0.0664114 -3.70801e-20)
(1.01937 0.0208884 -1.96425e-19)
(1.62185 1.10797 0)
(1.92341 -0.360348 -7.37324e-23)
(1.00889 0.00958291 -1.31587e-19)
(0.996349 0.00323828 3.46454e-19)
(1.13307 0.120914 -3.82194e-21)
(1.63397 1.12646 9.77251e-20)
(-0.112449 -0.119001 1.27678e-19)
(2.2269 0.22788 1.78261e-19)
(0.81252 1.12461 -1.13511e-19)
(0.797696 0.0143961 -4.75494e-19)
(0.836585 0.0332765 0)
(0.542045 1.1307 -2.1364e-20)
(1.02669 0.000776932 -3.81212e-20)
(0.971369 0.0610994 0)
(1.05861 0.0104191 -2.41611e-19)
(0.436565 0.729885 1.12356e-19)
(-0.783597 -0.10594 1.45388e-19)
(2.03315 -0.489701 0)
(-0.0299778 -0.765112 -8.12208e-19)
(1.4256 -0.311236 0)
(1.04276 -0.0135955 7.08584e-20)
(1.09698 -0.515761 -3.73698e-21)
(1.01131 0.00964648 2.04666e-19)
(-0.0792374 0.230026 5.17969e-19)
(1.02025 0.0112805 0)
(0.993986 0.00374604 -4.88925e-19)
(1.00774 0.0127981 2.60001e-19)
(1.96699 -0.245964 0)
(1.18414 -0.570517 1.76829e-20)
(0.956331 -0.00108568 -2.21813e-19)
(-0.0976285 0.0733895 1.31485e-19)
(1.00357 0.00191851 -2.53448e-19)
(0.997812 0.0504027 -5.95439e-19)
(1.55128 -0.543911 -3.84083e-20)