/*--------------------------------*- C++ -*----------------------------------*\
| =========                 |                                                 |
| \\      /  F ield         | OpenFOAM: The Open Source CFD Toolbox           |
|  \\    /   O peration     | Version:  2306                                  |
|   \\  /    A nd           | Website:  www.openfoam.com                      |
|    \\/     M anipulation  |                                                 |
\*---------------------------------------------------------------------------*/
FoamFile
{
    version     2.0;
    format      ascii;
    arch        "LSB;label=32;scalar=64";
    class       surfaceScalarField;
    location    "28.3";
    object      phi;
}
// * * * * * * * * * * * * * * * * * * * * * * * * * * * * * * * * * * * * * //

dimensions      [0 3 -1 0 0 0 0];

oriented        oriented;

internalField   nonuniform List<scalar> 
3181
(
-1.01079
0.387375
0.623413
-0.383971
0.359439
0.0245316
0.512212
-0.352885
-0.159328
0.114891
-0.192073
0.0771821
-0.0360144
0.0518368
-0.0158224
0.857522
0.871199
-1.72872
0.145055
-0.138899
-0.00615681
-0.00813647
0.0037028
0.00443366
0.522994
-0.784127
0.261133
-0.0764719
0.130575
-0.0541035
-0.0104954
-0.0533585
0.0638539
0.134588
0.0429196
-0.177507
-0.0117531
0.0124108
-0.000657764
-1.09957
0.154194
0.945377
-0.317847
0.687581
-0.369734
-1.12317
0.641136
0.482033
0.0845979
-0.930707
0.846109
-0.104909
0.183695
-0.078786
-0.979775
-0.447623
0.00116944
0.0657118
-0.0668812
0.0490565
-0.0934673
0.0444108
-0.0710449
0.0651305
0.00591439
1.06477
-1.04197
-0.0227948
0.0393906
0.0285663
-0.0679569
-0.958308
0.331655
0.626653
-0.106643
0.221534
0.303064
-0.254481
-0.0485828
0.0287544
0.0607073
-0.0894616
-0.423584
0.349841
0.073743
-0.0348034
-0.0183046
0.0209643
-0.00265974
-0.0417301
-0.916578
0.0724268
-0.0614439
-0.0109829
0.334228
1.11664
-1.45087
-0.0632852
0.0560543
0.00723086
0.184028
0.28479
-0.468818
1.68556
-1.35133
0.075936
-0.0268795
1.59022
-0.837429
-0.752786
-0.727511
1.58503
0.00512509
-0.0168782
-0.0638666
-0.00717837
-0.403781
0.0859334
-0.149578
0.0857112
-0.645716
0.125449
0.520267
-0.141096
0.0646244
-0.165243
0.169335
-0.00409239
-0.263367
-0.0762674
0.339635
0.167667
1.35926
-1.52692
0.0613033
0.100786
-0.16209
-0.0171352
-0.103649
0.109974
-0.00632482
0.497868
0.189713
-0.0943804
0.150274
-0.0558939
0.083866
-0.0114392
-0.165661
0.190919
-0.025258
0.159276
0.0579257
-0.217202
0.105661
-0.111455
0.00579423
1.27665
0.313569
-0.832479
-0.17831
0.0198478
-1.70984
1.69
0.564083
0.239983
-0.804066
-0.455649
-0.214314
0.669963
-1.54432
0.816808
-0.28213
0.846213
-0.314022
-0.103247
0.417269
-0.212111
-0.211473
-0.184182
0.170922
0.0132597
0.150515
0.277641
-0.428156
-0.281957
0.804951
-0.0144848
0.0063483
-2.10328
2.12312
0.174726
0.128337
-0.169583
-0.111026
0.280609
-0.267486
0.365212
-0.097726
-0.0773961
0.0858961
-0.00849994
-1.93561
-0.919871
0.0106276
0.909243
-0.0339439
-0.0293412
-1.10573
0.822641
0.283085
0.33512
-0.166214
-0.168906
-1.41599
-0.12833
1.10203
-0.947839
-0.737778
1.1473
-0.201925
1.0603
0.177039
-0.17088
-0.00615874
1.49738
-0.626177
1.39722
-1.39722
-0.00743085
-0.00269797
0.0101288
-0.203517
-0.0533246
0.256841
0.0832253
-0.0722474
-0.0109779
-0.456526
0.823996
-0.367469
-0.0311589
-0.221029
0.252188
-1.08453
0.0425554
0.358062
0.0563808
-0.414442
0.128241
-0.881974
1.12196
0.0552272
0.0688649
-0.124092
-0.0180177
-0.147643
-0.289806
-0.00537912
0.295185
-0.0988289
-0.190977
0.124121
-1.00609
0.317586
-0.774112
0.925351
-0.840753
0.0220894
0.100057
-0.122146
0.0899072
0.0538986
-0.143806
-1.28195
-0.137095
1.41905
-0.234055
0.398569
-0.164513
-0.940509
0.121613
0.818896
-0.487538
-0.618189
0.0974674
-0.0361641
-0.149479
0.143957
0.00552285
-0.0788711
-0.0181698
0.0970409
-0.599175
-0.184952
0.0528344
-0.0121515
-0.0406828
-0.920453
-0.687235
1.60769
1.85772
-0.498461
-0.0222068
0.0147759
0.0245366
0.15019
-0.206947
0.390974
0.0296717
0.131601
-0.161273
0.144107
0.070681
-0.214788
-0.0601936
0.285764
-0.225571
-0.594058
-0.529111
-1.4458
0.525347
-0.0308956
0.0861228
-0.0983783
0.176711
-0.0783331
-0.165103
0.0240227
0.121033
-0.0565129
0.0648569
-0.00834393
-0.090991
-0.019711
0.110702
0.0732976
-0.0732976
-0.180245
0.204268
0.236291
0.130458
0.1008
0.0901189
-1.20574
0.923783
-1.60344
0.1036
1.49984
0.016789
-0.0181213
0.0013323
-0.027544
-0.0531864
0.0807304
0.517885
-0.0144337
-0.503451
-0.00115889
0.000336072
0.000822813
-0.194223
0.0139774
0.167422
0.656574
-0.355223
0.522645
-0.0999539
-1.182
-0.0960256
0.0600112
0.473573
-0.293038
-0.180535
0.0696964
-0.0677395
-0.0019569
0.0475687
-0.310936
0.0232349
-0.943106
0.0484723
-0.146851
-0.276226
-0.39029
0.0826583
1.42816
-0.963412
-0.464752
1.11691
0.311251
0.0659387
0.273696
0.0112081
0.00558087
0.0934613
0.0591926
-0.152654
-0.247766
-0.595889
0.843654
-0.345081
0.517601
0.373284
-0.820907
0.173978
0.033684
-0.0273705
-0.00631343
-1.88631
0.166102
1.72021
-0.101846
-1.78446
-0.313197
0.671258
-0.907472
-0.015362
0.00582707
-0.276275
0.270447
1.50283
-1.62626
0.123429
-0.0539151
-0.0421105
0.580176
-0.827942
0.328337
-0.346416
0.0180791
-0.301435
-0.125994
0.427428
0.207662
-1.01039
-0.0741364
-0.0152534
-0.0516278
-0.574808
0.360494
-0.254885
0.0189792
0.235906
0.0766268
-0.130542
-0.0443348
0.0443348
-0.12508
0.137509
-0.0124294
-0.295638
-1.3078
-0.0260451
0.00472991
0.0213152
0.0816765
-0.125706
0.0440293
-0.229058
0.0448761
1.5257
-0.420771
-1.10493
-0.17896
0.435225
-0.256265
0.0126643
-0.0132057
0.000541381
-0.930969
-0.00953988
-0.191461
-0.00498097
0.196442
-0.163793
0.314308
-0.105943
0.104216
0.00172729
0.0779634
0.0111281
-0.0890915
-0.0438831
0.00440552
0.0394776
0.0653502
0.85869
-0.92404
-0.215053
-0.0494749
0.264528
-0.684722
0.663268
0.021454
-0.00971205
0.0382783
0.00857446
-0.00874359
0.000169132
-0.0281997
-0.0397572
1.04316
0.814557
0.170127
-0.894537
0.724409
0.00729288
2.09234
-2.09963
0.370326
0.391619
1.0056
0.0714032
0.211705
-0.067598
-0.0740615
-0.0295874
0.227284
0.165297
-0.0753903
0.73545
-0.403794
0.0594895
0.197352
0.0564451
-0.174055
0.117609
-0.744857
-0.128387
0.873244
0.0281871
-0.0281871
-0.0393545
-0.273871
0.558661
0.0112612
-0.226314
0.17277
0.0109256
0.0240075
-0.0549031
0.142206
-0.152702
-0.347327
0.316168
0.00915513
0.072109
-0.0812641
0.380723
-0.337804
0.0224132
-0.00257826
-0.019835
-0.201178
0.267117
0.183274
-0.476312
-0.202473
0.589848
0.16029
-0.0325561
0.0325561
0.245243
0.0432571
-0.2885
0.370217
0.0283519
-0.0115051
0.00966961
0.00183547
-0.0932249
0.0694979
-0.0166636
-0.0506279
0.192834
-0.187343
0.250033
-0.0626903
0.137151
0.0281465
-0.383246
0.128765
0.199793
-0.0626416
-0.0476846
-0.0582583
0.000765305
0.0162788
-0.0170441
0.143574
-0.101901
-0.0416735
-0.0293726
0.409222
-0.37985
-0.00810937
-0.0063754
0.108617
-0.113089
0.0044712
0.0243625
0.0924683
-0.0700551
-0.0691046
0.0326932
0.0364114
-0.0597425
0.0741939
-0.0144514
-0.0969335
0.097037
-0.720136
0.623099
-0.0209201
-1.32728
-0.342322
1.6696
0.51056
1.0736
-1.58416
0.0804026
0.0457816
0.239983
0.289783
0.255502
-0.545285
-0.210361
0.266806
0.134806
-0.864518
0.729712
-0.0791156
0.0193731
-0.0287743
0.0135209
-0.982553
0.442336
0.540217
0.963412
-0.839292
-1.55338
1.41628
-1.50283
1.60643
0.0373506
-0.0932445
4.08903e-05
0.00853357
0.0071136
0.775258
-0.640452
0.116539
-0.0680662
0.411507
0.735795
-0.0640809
-1.75695
1.76424
-0.676296
-0.529443
-0.242368
-0.403348
-0.0249875
-0.161057
0.208625
-0.571046
-0.359826
0.180866
0.755397
-0.237512
-0.822671
-0.730705
0.750303
-0.0336032
-0.0455124
0.270712
0.0366065
-0.0366065
0.66982
0.149604
-0.819424
-0.226008
0.895828
0.531618
-0.925346
0.393729
0.118849
0.0116095
0.00503317
0.00863658
-0.0136698
-1.70984
-1.11521
0.616744
1.06708
0.458621
-0.0340475
-0.131195
-0.244792
0.74266
-0.204871
-0.0500144
-0.00276512
-0.074631
-0.0571553
0.111054
0.384725
-0.259276
-0.77625
-0.296859
-0.0563723
0.0938303
-0.0374579
-1.1776
1.56922
-0.052213
-0.00544806
0.0576611
0.0315684
-0.0203602
0.0408427
-0.0478325
0.00698984
0.0108536
0.406415
0.0379566
0.0317398
0.00596075
0.0123261
-0.0182869
-0.0165549
-0.174906
-0.73881
0.383002
0.355808
1.30804
-2.19693
0.888894
0.142954
-0.164827
0.021873
0.0236626
0.0738048
-0.138289
-1.25893
0.0117488
0.0290939
-0.0715488
0.0353847
0.148165
-0.355111
-1.85264
0.516691
1.33594
0.0438708
0.0902001
0.0533741
-0.744857
0.774247
-0.708897
-0.00892794
-0.0389046
0.0451621
-0.641335
-0.043387
0.0628769
0.136916
-0.0722796
0.0264441
-0.4546
0.118873
0.3581
-0.30172
-0.109547
0.018556
0.219703
0.840879
-1.06058
0.105976
-0.704652
0.598676
-0.913074
0.784687
-1.49748
0.136707
1.36078
-0.00745573
0.00687038
0.00058535
0.178528
-0.479963
0.215564
-0.125821
-0.0897425
0.0600902
0.0141037
-0.118314
0.0619417
-0.0161478
0.012152
-0.0403517
0.0198156
0.0873061
-0.107122
1.04218
0.0022912
-0.00209947
-0.000191726
0.0213249
-0.0277003
0.86084
0.0235364
-0.0656469
-0.461561
-0.653644
0.0677841
0.0510646
0.00721803
0.0829821
-1.36078
1.25893
0.0486997
-0.252083
0.203383
-0.261458
0.0905779
0.120124
-0.126283
-0.0012853
0.0871814
0.00254392
-1.81513
-0.0375042
-0.0499891
0.0698046
0.741073
-0.25904
-0.0637144
0.145391
0.356766
-0.00839424
-0.00311084
-0.00770183
0.0809995
0.142448
0.222764
0.156909
-0.34274
0.18583
0.102766
0.553808
-0.0309525
-0.110144
0.886363
-0.227165
-0.659197
-1.49748
-0.305566
1.61361
1.68556
-0.226135
0.228069
-0.0019339
0.375073
-0.0757649
-0.299308
-0.220098
-1.19589
-0.0782301
0.079472
-0.0012419
-0.147751
-0.00459247
0.152344
0.340657
-0.918574
0.577917
0.0389257
0.664988
-0.703913
-0.043211
-0.106268
-0.0566065
-0.0124981
0.236313
0.0089297
-0.00409222
-0.0033635
0.136255
-0.03119
-0.105065
0.103156
-0.009695
0.0112099
0.0203585
-0.00611188
0.106169
-0.00834745
-0.000396136
0.20264
-0.42367
-0.235397
1.30899
-0.013263
-0.014924
-0.991679
-0.0187122
-0.0591215
-0.0691302
-0.0404169
0.106209
0.222128
0.378677
-0.684528
0.305851
0.0930724
-0.0252883
-0.937169
-0.0106699
-0.0182154
-0.649146
0.746183
-0.0169725
0.177262
0.155526
-1.08087
0.187885
-0.431902
0.244017
-0.0176158
0.149217
0.0109169
-0.0116688
0.000751841
-0.0564937
0.0126106
-0.0198267
-0.127817
0.733842
-0.627866
-0.0372333
0.00788459
0.0509433
0.321686
-0.164777
-0.103954
0.963532
-0.18516
-0.778372
-0.124895
0.143874
-0.509207
-0.229603
-0.546932
0.586486
-0.572785
-0.0137017
-0.0615354
0.0243021
-1.75695
0.564074
-0.564074
-1.60543
1.60543
0.775258
-0.193958
0.184034
0.00992421
-0.899865
-0.0918147
0.649467
-0.379943
-0.269525
0.152583
-0.230916
-0.0142921
-0.00791471
-0.917935
-0.0881597
-0.933013
0.212877
0.0590581
0.0347722
0.696188
-0.0998648
-0.596323
1.49485
0.19071
-0.00271981
0.0136367
-0.959964
0.562915
-0.565493
-0.0812228
-0.624519
0.705741
0.0533502
-0.902258
-0.724
0.220967
-0.815025
-0.873244
1.29066
-0.417421
-0.137934
0.273472
-0.135538
-0.0350032
0.731191
-0.110718
-0.941665
0.941665
-0.620287
0.711426
-0.0911389
0.00126046
0.00103074
-0.029848
-0.447995
0.860329
-0.0376872
-0.0898248
-0.0338414
0.00428079
0.0038717
0.00879261
2.01986
-1.88315
-0.3436
0.421564
-0.657205
1.04655
-0.389348
-0.0488273
0.060576
0.128678
-0.0579972
0.348999
0.00200643
0.0104044
0.358259
0.0509632
0.0439925
-0.255929
0.211936
0.135961
0.033374
0.101134
0.186946
1.81965
0.30347
-0.222102
0.227037
-0.00493537
-1.23854
1.40465
0.233488
-0.147777
0.0751333
-0.76628
0.691146
-0.41606
0.116205
-0.463533
-0.0748917
0.128295
-0.0534029
0.121516
-0.196408
-0.46212
-0.112688
-0.0753752
0.0786832
-0.00330799
-0.00180632
-0.00654113
0.000682068
-0.0121212
0.640452
-0.598676
-0.0417757
-0.28455
0.295811
0.879805
0.635314
-0.260241
0.0118158
-0.0070859
-0.0436769
-0.302739
0.161035
-0.563292
0.402257
-0.0111534
-0.00051534
0.0445643
-0.273509
0.228944
0.00488129
-0.0113501
0.00646878
-0.0248908
0.0166336
0.00825722
-0.773672
0.147495
-0.120605
-1.20667
-0.206618
-0.839292
1.60643
1.41628
-0.187005
-0.169062
0.119587
-0.0662538
0.0722226
-0.00596878
-0.153429
0.40997
-0.256541
0.571495
0.0779717
-0.001772
-0.00938141
0.125497
-0.92911
0.0338414
-0.0543268
0.00433778
-0.399879
0.356202
-0.0196533
0.0436608
-0.238899
0.619622
1.11691
0.282095
-0.0591247
0.00108882
0.0580359
1.72603
-0.309748
-0.0589606
-0.0524942
-1.00257
0.163281
0.431656
-0.223993
-0.483433
-0.140634
0.624067
0.841321
-0.379346
-0.461976
-0.0360084
0.414685
-1.76424
0.0543942
-0.00488456
-0.0387347
0.0436192
0.211123
1.88122
-0.170518
0.175551
-0.182314
2.24987
-0.643439
-0.671451
0.0441346
0.627317
0.397387
0.014574
-0.356802
0.510605
0.784448
0.0704492
0.0741325
-0.0207584
-1.56469
0.136269
1.42842
1.2782
0.0497126
-0.0437519
-0.0539485
-0.366757
0.114551
-0.324913
0.497638
0.465895
-0.00881203
-0.0527234
0.144904
-0.37104
-0.0249267
0.0152146
0.108362
-0.144671
0.0363097
-0.290706
0.302964
-0.0122585
0.159624
-0.344784
-1.89501
0.672332
1.22268
-0.0467276
-0.0407053
0.0874329
0.282697
0.0389897
0.348647
0.4256
-0.670907
0.670907
1.69
1.49485
-0.704652
0.313441
0.471007
-0.238744
-0.0497563
0.948189
-0.376693
0.0109764
-0.881978
0.871001
0.122533
0.0080423
0.0254863
0.359275
-0.0106278
0.0250182
-0.166824
-0.114037
0.280861
0.192514
-0.497946
0.331122
-1.13307
-0.295893
-0.659931
0.0283051
-0.00201837
-8.10956e-05
-0.228188
-0.0825307
0.0450727
0.0322306
-0.153816
0.121585
-0.668629
0.0483412
-0.00553489
0.0662422
0.179381
-0.172315
-0.00706594
-0.551348
0.370812
-0.14627
0.218379
0.227177
-0.00389501
-0.0248793
-0.834706
0.413935
0.0359605
0.0726569
-0.0115746
0.0625179
0.207467
0.00809674
-0.438499
1.58192
0.492922
0.586312
0.86615
-0.791016
0.813631
-0.456865
-0.632223
0.184228
0.156703
-0.795374
0.774681
0.0206927
0.77027
-0.272633
-0.206049
-0.137552
-0.0579145
-0.0143329
0.950817
-0.838627
-0.11219
-0.192394
0.117004
0.0265999
0.117357
0.87668
-0.134481
-0.305481
0.439962
-0.317669
-0.0421574
0.280958
-0.101578
0.187733
1.23132
1.87025
-0.375402
0.164435
0.549494
-0.713929
-0.234004
0.0519766
-0.0106745
0.00677952
-0.523004
-0.109219
0.135938
-0.0593109
-0.195393
0.144765
-0.517715
0.261451
-0.992288
0.0306052
-0.294132
-0.598415
1.56969
-0.0698582
-0.294904
-0.126827
-0.273052
0.405034
0.311749
0.0465101
1.16707
-0.826411
-0.199094
0.136452
-0.290554
0.120828
0.169727
-0.0136533
0.00876875
0.0508571
-0.0607286
-0.229977
-0.110616
0.698217
-0.42678
-0.271436
0.23539
0.128333
-0.0926765
-0.0356565
0.245149
0.0666001
-0.129013
-1.45514
-0.09953
0.144692
0.0852149
-0.219696
-0.0486549
0.0342035
-0.0256997
0.0141878
0.0115119
-0.0118152
-0.00630611
-0.251271
0.0772166
-0.0323548
-0.541631
0.403697
0.0267655
0.0796867
-0.126414
-0.695753
1.39477
-0.928871
0.0155811
-0.20083
0.185249
-0.145134
-0.53005
0.675184
0.0653493
-0.706684
-1.03315
-0.861854
0.0162237
0.00187851
-0.0181022
-0.244504
-0.586486
-0.158371
-0.129783
-1.56469
-0.240016
0.172418
0.0751696
-1.18437
-0.287185
0.0841386
0.203046
0.25618
0.108039
0.487729
0.218175
-0.705904
-0.0616922
0.028089
1.05638
0.0941031
-1.15049
-0.216582
0.0951
1.30955
-0.250495
0.187804
-0.50881
0.60391
0.322367
-0.327746
0.001397
0.0057166
-0.0106343
0.853316
-0.267004
0.754654
0.0866679
-1.72127
-0.0938586
0.247676
0.700513
0.894123
-0.00776086
-0.0200095
-1.87025
-0.659931
-0.712562
0.72319
0.0681121
-0.822671
0.664988
0.588708
-0.930442
0.70912
-0.000617877
-0.794756
-0.315697
0.638896
-0.764203
0.125306
0.0776985
0.0506346
-0.637772
-0.304531
2.02908
-1.72455
-0.000106493
-0.00191188
-0.272568
0.222554
0.704245
0.214987
-0.20101
-0.176764
0.769415
-1.45665
0.348172
-0.338248
0.350766
0.111189
-0.461955
-1.68214
1.81841
0.0576149
-0.22993
0.117873
1.12389
-1.42842
0.0037759
0.22081
-0.0211739
0.0596021
-0.118724
0.0113487
-0.0409349
0.0295862
-1.02622
-0.0343596
0.308669
-0.805256
-1.09658
1.31264
-0.216054
0.383444
0.663108
-0.047056
0.050292
-0.00323598
-0.326115
1.09553
-0.720068
1.09997
-0.0533617
-1.04322
0.3248
-0.103989
-0.584453
-0.407835
-0.738739
1.08951
-0.0532602
-0.882596
-1.9438
-0.155829
1.12389
0.0510612
-0.856317
0.830494
-0.645743
-0.184751
-0.981801
0.397348
0.0150816
0.112592
0.000523808
-0.113116
-0.971535
0.5637
-0.207016
0.913116
-0.923786
0.198267
-0.214822
-0.098941
0.247106
0.104123
0.513729
-0.0710815
-1.23442
0.456047
1.09034
-1.01989
-0.552959
-0.518264
1.07122
0.447041
0.0187099
-0.0100733
-0.738273
0.703913
0.441095
-0.767211
-1.0056
0.842061
0.163539
1.3649
-0.0522682
0.772971
-0.807775
-0.493329
-0.449776
-0.471599
-0.499936
0.803988
-0.803988
0.687212
-0.687212
-0.738273
-0.713731
0.713731
-0.842061
-1.11233
-0.863986
0.13014
-0.206547
0.206547
0.441095
-0.767211
0.772971
0.765219
-0.765219
0.807775
0.758445
-0.758445
0.506671
0.528401
0.481736
0.234548
-0.500064
-0.550224
1.07862
-0.759056
-1.61976
0.881023
0.261348
-0.203733
-0.356677
-0.0121853
0.0357217
-0.8845
0.0896622
0.794838
-0.0106201
-0.0143674
-0.994453
0.590659
0.889588
-0.576147
-0.123643
0.00820268
-0.00346161
-0.817741
-0.0767956
-0.540217
-0.00807081
0.0215918
0.58153
0.0119813
-0.0508859
0.178719
0.000472914
-0.00836264
0.00788973
-0.811755
0.0679747
0.74378
-0.110971
0.215094
-0.526901
0.42311
0.103791
0.915248
-0.744148
-0.1711
0.0822176
0.308757
-0.0141204
-0.0612548
-0.0646974
-0.0135328
0.563379
-1.74098
-0.862779
0.0959489
-0.746132
0.794662
-0.0485303
0.121136
-0.900273
0.779137
-0.803667
0.903069
-0.0994024
-0.0267818
0.0149666
0.0200226
-0.296297
0.530928
0.558577
-0.0913458
-0.793154
0.915857
-0.0909461
-0.82491
-0.0761305
0.0273033
0.150376
0.823902
-1.19779
0.473034
-0.395062
0.0990449
-0.892199
1.35133
0.254091
-0.792742
-0.00201402
1.01692
-0.895787
1.11152
0.757319
-0.996169
0.23885
-0.883471
-0.110982
-0.424073
0.0442231
-0.218695
0.524546
-0.783932
0.783932
-0.619838
-0.0832837
-0.863366
0.119218
-0.974359
0.893136
0.0785854
-0.204407
-0.0559166
0.0529246
0.0119323
0.187026
0.829897
0.819785
0.772981
0.137654
-0.910635
-0.984227
0.780494
-0.784196
-0.102737
0.886933
0.164386
-0.884454
-0.676339
0.88624
-0.787195
-0.104001
0.460652
-0.0104817
-0.45017
-0.67793
1.45947
-0.781538
0.0378388
0.125809
-0.163648
-0.888197
-0.829162
0.0830298
0.544236
0.269395
-2.01217
0.175386
-0.592909
0.592909
-0.824745
-0.409674
0.499738
-0.510365
-0.585029
1.25736
0.783503
-0.195451
0.362807
-0.215312
0.99949
-0.79814
-0.20135
-0.667852
-1.52908
0.0869605
-0.226908
0.218783
-0.92768
0.134728
0.311867
-0.229649
0.782117
-0.881519
1.10806
-0.32757
-0.144469
0.735128
0.594111
-0.594111
-0.0421875
0.0218272
0.116142
-0.0839112
0.817261
0.642206
0.123929
0.0041199
0.00940946
-0.0135294
-0.674799
0.69231
-0.0175106
-0.268661
-0.727508
0.10608
-0.893275
-1.12028
1.45088
-0.330603
-0.0229286
0.873165
-1.65994
1.39128
-0.755621
0.609695
-0.653082
-0.672222
0.163015
0.271983
0.0269279
0.107543
0.126325
0.145657
0.00120209
0.00892079
0.0629592
0.731703
0.688822
-0.0791269
0.0703637
0.790476
0.239958
-0.435536
0.195578
-0.417381
0.50376
0.0564599
-0.921569
0.703381
0.218188
-0.685339
-0.129686
0.658065
-0.273661
0.282591
-0.0343242
0.485972
0.514028
-0.77099
-0.110529
-0.472699
-0.898145
0.100992
-0.290882
0.400802
0.599198
-0.0270682
-0.000632172
-0.861936
-0.0577649
-0.595318
-0.157167
-0.237789
0.394955
0.00146766
0.00107626
0.117791
0.0750429
-0.128369
-0.122902
0.762183
-0.647833
0.718197
0.406523
-0.280198
-0.646481
0.397911
0.248569
-0.745357
-0.185299
0.930655
-0.235225
0.22301
-0.0256586
-0.0664061
-0.0641358
0.00173308
0.730785
-0.137875
0.11319
0.113987
-0.734238
0.0594391
0.675124
0.154578
0.103339
-0.123174
-0.291582
-0.281155
1.01695
-0.00226624
0.0495567
-0.23187
-0.00762482
-0.0214596
0.0135456
0.476634
0.19849
0.788931
-0.952921
0.16399
0.845213
-0.0368171
-0.00167907
0.0384962
0.133372
-0.0048595
0.000767279
0.213561
-0.1052
0.4581
-1.04313
0.863753
-0.0748224
0.00505712
0.285385
-0.555009
-1.01277
1.31461
-0.301838
-0.779148
0.830017
-0.0508686
-0.0639272
0.356817
-0.0344494
-0.079764
1.29389
-0.464855
-0.0620461
0.271593
0.442291
0.181856
-0.624148
0.395629
0.0309235
0.661386
-0.572008
0.57271
-0.000702272
0.910219
-0.505185
-0.022776
0.0247804
-0.00200438
0.700744
-0.00974223
-0.0824125
0.0187391
1.34663
0.703845
-0.767772
0.0616192
0.108841
-0.149546
0.145892
-0.111022
-0.0348694
0.0246583
-0.0133096
0.478318
-0.384215
-0.0166194
0.213268
-0.0250842
-0.0793674
0.233026
0.0932393
0.00200122
0.0391777
0.763703
0.649869
-0.168813
-0.481056
-0.35658
0.347714
0.00886554
0.644718
0.118994
-0.0143474
-0.0426836
0.057031
-0.152834
0.240761
-1.0389
-0.0112474
0.76155
0.725612
0.643215
-0.208098
-0.429674
0.809104
0.0766437
-0.180598
-0.900474
0.106851
-0.273699
-0.10476
-0.171305
0.697729
0.0659736
0.0139643
0.622195
-0.265379
0.0690172
0.166711
0.0164901
-0.109957
0.422076
-0.0584775
-0.220195
-0.066767
0.169724
-0.276048
-0.0805312
-0.14809
0.160634
-0.0314893
-0.1094
0.00302403
0.00065771
-0.00368174
-1.16371
0.658525
-0.00253539
0.926256
-0.227234
-0.620821
0.652796
-0.0319747
0.443741
0.757168
0.493201
-0.244631
0.0810218
-0.179963
0.638914
0.118255
1.03235
0.536868
-0.276817
0.74985
-0.126796
0.325286
-0.589832
0.352094
0.237738
0.418378
-0.0708089
0.0408025
0.0691363
-0.0492348
1.20679
0.73667
0.0724334
0.632069
0.211586
-0.877538
-0.08209
-0.680209
0.678195
-0.027664
-0.569815
0.412649
0.861977
0.669837
0.0622925
0.0718569
-0.142432
-0.3211
0.64998
0.744786
0.511704
0.0187399
0.284068
0.0412183
0.284498
1.32319
-0.0814161
0.0394368
-0.732318
0.924717
-0.192398
-0.414661
-0.175172
-0.0247329
-0.113623
-0.194021
0.801299
0.0143181
-0.00199195
0.626383
0.188373
-0.311547
0.612072
-0.131783
0.223967
0.779357
0.250111
-1.02947
0.277174
-0.922917
0.263975
-1.19285
-0.167681
0.756834
-0.589154
-0.675061
0.00166367
-0.0680697
-0.0560645
-1.41789
0.0110947
-0.0367945
0.805117
0.207641
-0.110242
-0.0973995
-0.0404681
-0.571046
-0.143927
0.193484
-1.44939
-0.00284662
0.00331953
-0.256068
-0.0547676
-0.601252
0.029244
0.568562
0.293414
0.932801
0.736799
-0.232238
-0.389365
0.621603
-0.150913
-0.619237
0.619237
-0.241352
-0.950623
1.19198
0.0312483
-0.156143
0.673761
-0.105199
-0.220225
0.147252
0.135339
0.393375
1.35282
0.0163627
0.185198
-0.10254
-0.434081
0.48221
0.0905002
0.069771
0.00616495
-1.90448
-0.469738
-0.162656
0.693122
0.306878
-0.469738
0.693122
0.0302081
0.145266
0.0302081
-0.696437
0.696437
0.303563
-0.0138388
-0.0420798
-0.0780763
0.221367
0.0854143
-0.482865
0.637204
-0.0251313
0.646899
-0.506081
-0.140819
-0.0499865
0.0466829
0.00330356
-0.0202594
0.0243793
-0.424881
0.0182159
-0.0641493
-0.434554
-0.365707
0.137519
0.0379879
0.820265
-0.27077
-0.400191
0.127139
-0.0205765
-0.136109
-0.0027371
0.688921
0.0726295
-0.220968
-0.0188423
0.000555432
-0.0188972
0.0843326
0.553178
-0.479682
-0.0734958
1.86142
0.558077
-0.32553
0.92768
0.011722
-0.0649085
0.111003
-0.0685346
0.011632
1.16315
-0.383791
0.00302537
0.0252797
0.197463
-0.43029
0.0200555
-0.0200555
0.0222099
-0.0222099
-0.00165229
0.00165229
-0.013263
0.366063
0.463691
0.086581
-0.700234
0.462722
0.184392
0.029169
-0.0847641
-0.48166
0.722821
0.112537
-0.797876
-1.18938
0.108512
-0.0288361
0.0204094
-0.00377583
0.00739874
-0.00739874
0.313147
0.00552022
-0.00552022
0.700211
0.102785
-0.0164731
-0.00236924
0.00641338
-0.0655381
-0.0215457
0.0215457
-0.000821281
0.000821281
-0.0232374
0.0232374
0.00332826
-0.00332826
0.028825
-0.299107
-0.0787873
0.219489
0.00220819
-0.00220819
-0.378006
0.501398
-0.123391
0.487276
-0.213803
-0.317311
-0.0828801
0.557374
0.0672741
0.0842414
0.568554
0.564862
-0.000660931
0.000660931
-0.255417
0.0260753
-0.0260753
0.00123815
-0.00123815
0.773162
-1.1346
0.0378389
-0.610125
0.336616
0.00197575
-0.00197575
0.00095915
-0.00095915
0.0189297
-0.0189297
0.0220827
-0.0220827
-0.0243977
0.0243977
0.0362436
-0.0362436
0.495328
-0.032894
0.032894
-0.00274303
0.00274303
0.0248984
-0.0248984
-0.000651147
0.000651147
-0.000161883
0.000161883
-0.109359
-0.0273172
0.0273172
0.374827
0.0414356
-0.0407148
0.0407148
0.000482015
-0.000482015
0.00382686
-0.00382686
0.0346213
-0.0346213
0.0249562
-0.0249562
0.00131803
-0.00131803
-0.000860906
0.000860906
0.0649354
-0.108166
-0.000878152
0.000878152
-0.00332838
0.00332838
-0.0393102
0.0393102
-0.0272331
0.0272331
0.000506718
-0.000506718
-0.428121
0.675796
0.261485
-0.0329854
0.0329854
0.00524356
-0.000951854
0.000951855
-0.00390625
0.00390625
0.0362921
-0.0362921
-0.0520695
-0.128528
0.000949671
-0.000949671
-0.0215631
0.0215631
-0.479277
0.0426359
0.635541
-0.0304979
0.0304979
-0.437337
0.0319952
0.0182968
-0.258708
-1.46257
-0.0378449
0.0378449
-0.208441
0.149963
-0.0399236
-0.00444763
0.00444763
-0.0101113
0.0545221
0.26638
-0.32365
-0.266335
0.589985
0.180298
-0.000856385
0.000856385
-0.042532
-0.0751364
0.117668
0.755272
-0.379774
-0.375498
-0.475976
-0.659885
-0.214263
0.341403
-0.207235
-0.210146
-0.575784
-0.0272209
0.19198
-1.07641
0.0178721
-0.0178721
-0.00385883
0.00385883
0.0317756
-0.0317756
0.0255085
-0.0255085
-0.000116999
0.000116999
-0.00334348
0.00334348
-0.00953344
-0.156681
0.164215
-0.287858
0.00025371
-0.00025371
-0.0437244
0.0437244
-0.0415352
0.0415352
-0.0183318
0.159713
-0.141381
0.0136688
0.301841
-0.529075
-0.000394917
0.000394917
-0.0118658
0.0118658
-0.103667
0.104769
-0.319033
-0.00409533
0.00409533
0.0388454
0.013786
0.921568
-0.487651
-0.0907481
0.578399
-0.620501
0.261953
-0.480648
-0.0375676
0.0375676
-0.674685
0.270877
0.0510282
-0.0510282
-0.666783
0.397258
0.255636
0.114935
-1.18723e-05
1.18723e-05
-0.85954
6.92239e-05
-6.92239e-05
0.323389
0.407802
0.0626107
-0.0551272
0.0551272
-0.00420269
0.00420269
-0.0436308
0.0436308
-0.052332
0.052332
0.000260954
-0.000260954
-0.0578548
0.0578548
0.000169182
-0.000169182
-0.0470364
0.0470364
-0.0081773
-0.044016
0.044016
0.00569744
-0.00569744
0.049634
-0.049634
-0.000394966
0.000394966
0.0462669
-0.0462669
-0.286073
-0.00227601
0.00227601
-0.00430477
0.00430477
-0.0545204
0.0809995
-0.0107735
0.0107735
0.00469505
-0.00469505
-0.0610935
0.0610935
0.303162
-0.0190308
0.0190308
-0.0559153
0.0559153
-0.00727944
0.00727944
-0.0691283
0.0691283
-0.0131459
0.0131459
-0.082612
0.082612
-0.0225273
0.0225273
-0.092225
0.092225
-0.699764
0.038663
-0.541009
0.509034
-0.902258
-0.159059
-0.550765
0.37946
0.101289
0.134101
0.00371041
-0.00371041
0.190348
-0.703425
0.0476099
-0.0414449
-1.34277
1.53348
1.03519
0.249487
0.0192491
-0.0212212
-0.384167
-0.591318
-0.0784833
0.394667
-1.26076
-0.0245891
0.0245891
-0.731217
0.0174914
-0.0174914
-0.000761305
0.000761305
0.32173
-0.285105
-0.00299947
0.00299947
0.0185429
0.0140132
0.599047
-0.192407
-0.0219385
-0.00988305
-0.0101265
-0.105461
0.507141
-0.401679
0.0999012
-0.0129407
0.00313431
0.984002
0.0300334
0.0446394
-0.409805
0.454028
-0.500553
-0.945326
-0.236675
-0.0758215
0.0186662
-0.0177654
0.143575
-0.0270756
-0.00671698
0.00370466
0.798241
-0.540033
-0.0439716
0.0604617
-0.0388917
0.0089921
-0.0510719
0.417316
0.245952
-0.166119
0.208924
0.0126448
-0.00151665
-0.806174
0.00830737
-0.188822
0.0785806
-0.0183097
-1.18689
-0.0719888
0.269274
-0.353605
0.404568
0.27676
-0.875174
0.0505151
0.0873198
-0.0600166
-0.354676
0.458467
-0.0344052
0.0783177
-0.0439125
-0.0282064
0.0282064
0.183744
-0.443985
-0.133455
0.00774871
-0.0855101
0.057846
-0.0609669
-0.00469931
0.0656662
-0.0460706
-0.156844
0.090509
0.110522
-0.286563
-0.344221
0.630785
0.0167768
0.0626952
0.150106
-0.0369159
-0.124415
0.073398
-0.163259
0.319962
0.00823171
0.0302645
-0.0194356
0.169541
0.00288591
0.267562
0.000670188
-0.000670188
-0.66145
0.945948
0.0958287
-0.177919
-0.0156079
0.0689581
1.47939
-0.0881059
0.0530627
-0.00872788
-0.534975
-0.00603365
0.0896879
0.100423
-0.70042
0.323727
-0.0570737
0.367428
-0.653992
0.202694
0.500688
-0.0921023
0.0921023
0.000523808
-1.25248
-0.108246
1.36072
-0.219896
0.163831
-0.24741
0.0929018
-0.437686
0.00396278
-0.0207072
0.0207481
0.929763
0.256019
-0.193727
-0.0699324
-0.99429
-0.0489303
-0.039719
-0.26937
0.779975
0.564446
-0.262605
-0.301565
0.586951
0.10353
0.124539
-0.267625
0.0343142
-0.459063
0.335672
0.121394
-0.121394
-0.0529146
-0.0507472
0.103662
-0.0058643
0.0100873
0.0141878
0.0517057
-0.204539
0.218817
-0.186385
-0.0324321
0.532392
-1.10779
0.248718
-0.902362
0.688081
-0.111198
-0.17666
-0.0305222
-0.0800942
-0.495879
0.0613244
-0.296237
-0.00219196
-0.0183097
0.390452
-0.00510725
0.00217458
-0.00112007
0.0133788
-0.0113548
-0.002024
-0.0989277
-0.0174569
-0.171648
0.189105
-0.115243
-0.34382
0.0185429
0.348795
0.000700435
-0.385383
0.0912511
0.00283792
0.146697
-0.0601164
-0.0129421
0.0129421
-0.00150757
0.000137868
-0.00905907
-0.000970047
0.0627098
0.000537016
-0.00116037
0.0822721
0.139856
-0.00341587
0.00341587
0.015417
0.504118
-5.68717e-05
-0.287586
0.504452
1.17075
-0.469919
0.32236
-0.439229
-0.0623137
-0.0711409
0.216695
-0.220598
0.041197
0.00167808
5.49936e-05
-0.00306631
-0.179953
-0.375072
0.837794
0.375714
-0.385247
0.00152504
-0.00162234
-0.0070582
-0.0158704
-7.29335e-06
0.000602107
0.00107598
0.0222866
0.00140458
-0.000519612
0.733764
-0.660366
-0.247865
0.253736
0.518656
-0.000577864
8.87609e-05
-0.0399236
-0.00554166
0.817591
-0.431012
0.521512
-1.0608
0.906077
-0.145616
0.565302
-0.185842
0.710735
-0.000205239
0.00349653
0.0169129
-0.122255
0.138747
0.0609982
0.00827787
0.00201044
0.0687332
-0.0556035
-0.0131297
-9.32869e-05
-0.0602302
0.0837317
-0.0235015
-0.0924134
0.0101963
-0.000786818
0.00228157
0.487476
-0.437046
0.0080389
0.000111799
1.07791
-1.18615
0.377729
-0.00606932
0.000588805
0.0863406
-0.10296
-0.0469058
-0.101665
-0.0130772
-0.00369031
0.130486
0.0229536
-0.00256413
0.399183
9.96009e-05
-0.000715925
0.000715925
0.0034651
-0.0133482
0.00013671
-0.323338
-0.00380871
0.0746611
-0.107551
0.236755
0.243992
-0.0653239
0.000141205
0.00202876
0.450832
0.000105123
0.00118798
-0.0259209
-0.00209562
0.000163469
0.0671714
0.0567576
-0.71004
0.455401
-0.830472
0.248344
-0.000107366
0.0311522
0.034805
0.099923
0.568424
-0.0147644
-0.121888
-0.00409893
-0.00139427
-0.55643
-0.0034056
-9.17725e-05
0.0133848
0.934314
-0.538685
-0.00259755
-0.000564148
-0.00596637
-0.00188104
0.0699156
-0.0216982
0.0216982
-0.00944548
0.00958335
-0.00258439
-0.00803476
0.0225789
-0.0204044
-0.171511
0.100702
-0.00586651
-0.0134837
0.038339
-0.0179754
0.0650635
-0.0463973
-0.623777
0.575247