/*--------------------------------*- C++ -*----------------------------------*\
| =========                 |                                                 |
| \\      /  F ield         | OpenFOAM: The Open Source CFD Toolbox           |
|  \\    /   O peration     | Version:  2306                                  |
|   \\  /    A nd           | Website:  www.openfoam.com                      |
|    \\/     M anipulation  |                                                 |
\*---------------------------------------------------------------------------*/
FoamFile
{
    version     2.0;
    format      ascii;
    arch        "LSB;label=32;scalar=64";
    class       volVectorField;
    location    "28.3";
    object      U;
}
// * * * * * * * * * * * * * * * * * * * * * * * * * * * * * * * * * * * * * //

dimensions      [0 1 -1 0 0 0 0];

internalField   nonuniform List<vector> 
2186
(
(1.28557 -0.0620729 2.60996e-19)
(1.60271 -0.924529 -1.43505e-20)
(1.44587 -0.901923 8.01417e-21)
(0.72593 -0.564124 -1.67484e-19)
(-0.223071 0.364107 -1.61803e-19)
(1.62003 -0.234006 0)
(0.715492 -0.660491 0)
(-0.0246615 0.035819 6.65836e-20)
(1.59544 -0.0427915 1.10716e-19)
(0.540452 -0.284236 -2.28661e-21)
(0.697576 0.631068 0)
(0.871449 -0.278 -8.89338e-20)
(-0.012394 0.0813486 -2.62673e-20)
(1.20457 0.026089 -4.2158e-19)
(1.78975 -0.670285 -2.4747e-20)
(1.0146 -0.000150662 1.9839e-19)
(0.980498 0.0122057 0)
(-0.0228925 0.582107 0)
(1.40476 -0.12716 0)
(-0.0846861 0.275394 -5.38967e-20)
(0.489747 0.130177 -1.24865e-19)
(-0.19363 0.203545 7.28589e-20)
(1.19296 0.0292569 3.47594e-19)
(-0.190573 -0.105364 6.20519e-21)
(1.03094 0.0121439 -2.73635e-19)
(0.776714 -0.539904 0)
(0.760687 -0.0086153 1.6164e-19)
(0.60456 -0.583996 -1.97819e-19)
(1.2385 0.735171 0)
(0.963836 0.0251476 -3.73264e-19)
(-0.0259459 0.0889292 0)
(1.02424 -0.00706792 1.29405e-20)
(-0.0956441 0.219418 0)
(2.07734 -0.115483 7.93566e-20)
(-0.190819 -0.170346 -8.37532e-22)
(1.57134 0.798073 1.14068e-19)
(1.91015 0.00785338 7.33583e-20)
(0.518992 0.177765 -3.72349e-19)
(1.94824 0.271784 -2.25751e-19)
(1.53579 -0.225054 -1.21199e-20)
(-0.035623 0.0829842 0)
(-0.153517 0.177906 0)
(1.87307 -0.857804 5.91087e-20)
(-0.414243 0.20716 0)
(1.12761 0.294868 1.76262e-19)
(0.586837 -0.266867 3.13266e-19)
(0.913178 -0.776918 0)
(1.17097 -0.774381 1.39787e-19)
(2.39456 -0.140546 0)
(-0.215857 0.393382 1.40336e-19)
(-0.0189055 0.15091 7.96785e-20)
(0.646019 0.596643 9.20301e-20)
(2.05847 -0.726904 5.2746e-20)
(0.607829 0.304371 -3.00449e-19)
(-0.285168 0.0627264 2.81206e-20)
(0.75186 -0.637708 0)
(1.66412 -0.95243 1.85966e-20)
(0.574287 -0.53429 0)
(2.3567 0.245079 7.35833e-20)
(1.12126 -0.159707 -4.22053e-19)
(2.01503 -0.0817055 1.54661e-19)
(1.37873 0.315944 -2.14335e-19)
(1.375 0.553869 0)
(1.56372 -0.22445 1.32774e-20)
(1.39348 0.401874 -1.34833e-19)
(1.23606 -0.718136 -2.00781e-19)
(1.197 0.683439 6.23308e-20)
(0.682672 0.0964911 -6.12315e-19)
(0.820794 0.0772058 0)
(2.17956 -0.0655318 -3.4312e-20)
(-0.0550664 0.0282039 -7.84091e-20)
(2.48124 -0.149289 -1.4503e-19)
(0.724838 -0.0128533 -2.70429e-19)
(0.862039 -0.501295 0)
(0.835438 0.20073 -1.00388e-19)
(0.537835 -0.496421 -3.35705e-19)
(2.37037 -0.151872 0)
(1.00698 0.00967118 4.07882e-19)
(-0.197787 -0.171763 0)
(2.0527 0.397913 0)
(0.612909 0.269336 7.10219e-20)
(1.44163 -0.176461 1.22588e-20)
(1.02247 0.00848381 4.54627e-20)
(1.34473 0.433739 3.3421e-20)
(0.969169 0.0254179 4.76931e-19)
(1.03829 0.0310126 -1.13052e-20)
(0.675772 0.203851 -3.64707e-19)
(1.32891 -0.111396 3.81545e-21)
(1.35303 -0.0988283 0)
(-0.0741081 -0.078812 6.65321e-20)
(0.8478 -0.607277 -1.90268e-19)
(-0.166443 0.259381 -1.67792e-21)
(1.10596 -0.0677631 2.8244e-19)
(0.810021 -0.16373 0)
(0.973379 0.0237178 4.54715e-20)
(1.39554 0.665403 0)
(1.60811 -0.934145 0)
(1.33059 0.231172 0)
(-0.246636 0.428917 0)
(0.777752 -0.650434 3.34285e-19)
(0.213719 0.290886 -2.468e-19)
(0.590173 0.221154 1.37627e-19)
(1.60255 0.201678 0)
(1.14179 -0.0943479 -2.58199e-19)
(1.12454 0.023899 2.01693e-19)
(-0.128968 0.287904 9.92555e-20)
(0.659503 0.532268 0)
(2.08042 -0.120763 -5.07561e-20)
(0.95344 -0.462249 9.36497e-20)
(-1.16805 -0.404275 1.31066e-19)
(1.77346 0.33358 9.25456e-20)
(-0.228578 0.339911 -2.1892e-19)
(0.808782 -0.734429 0)
(0.584991 0.379676 1.81362e-19)
(1.74105 -0.113213 -3.37613e-19)
(0.111041 0.325525 -2.9816e-19)
(1.47343 0.935228 1.02327e-20)
(2.02848 -0.159862 0)
(-0.0984168 -0.111891 -1.98706e-19)
(0.706376 -0.0489676 8.56394e-20)
(1.5928 0.904353 0)
(-0.130855 0.407606 -1.87748e-19)
(0.909848 0.783775 -3.08469e-19)
(0.0024478 0.614903 2.60135e-19)
(1.0307 -0.023091 0)
(1.59337 0.940665 -1.28986e-20)
(-0.237433 0.348505 0)
(0.684281 -0.475499 -1.20621e-19)
(-0.0104558 0.625725 -1.41593e-19)
(0.780972 -0.712223 0)
(0.420456 -0.242785 4.54571e-19)
(0.527678 -0.436592 3.11957e-19)
(0.410719 -0.371586 0)
(0.972002 -0.770277 -1.57012e-19)
(0.2298 0.253564 0)
(-0.177964 0.371368 -1.1e-19)
(0.799228 -0.684787 1.62039e-19)
(2.22296 -0.123335 1.32179e-19)
(2.24387 0.188553 0)
(-0.100894 -0.0573303 0)
(0.702083 0.652408 -3.88749e-19)
(1.76419 -0.599586 -1.96645e-20)
(-0.00963522 0.0107492 0)
(0.971388 -0.794145 -1.67665e-20)
(1.13618 -0.0921481 0)
(1.07446 -0.113142 4.46655e-19)
(2.0013 -0.107138 -4.62635e-20)
(-0.236953 0.456188 0)
(1.20706 -0.540829 -6.70724e-20)
(-0.187562 0.352691 -3.50922e-20)
(-0.197692 0.235414 0)
(1.08247 -0.801264 1.22409e-20)
(1.00673 0.00460692 -6.81292e-19)
(0.637766 -0.46011 -1.17983e-20)
(0.805105 -0.498599 0)
(1.18633 -0.71676 -1.16834e-19)
(0.669206 0.263904 2.81768e-19)
(1.25678 0.118522 0)
(1.53212 0.0907855 -3.34009e-19)
(1.18571 -0.843078 -2.71808e-19)
(-0.110024 -0.0704779 -6.892e-20)
(-0.424763 0.0484865 -9.33924e-20)
(1.07695 0.0110155 2.56828e-19)
(0.906477 -0.447495 -1.17773e-19)
(1.37956 -0.14422 -3.53232e-21)
(0.631488 0.229494 -5.84942e-20)
(0.777345 -0.137261 8.05992e-20)
(-0.0662948 -0.112091 -1.87098e-19)
(1.72182 -0.251796 0)
(2.33964 -0.281019 8.32146e-20)
(1.47605 0.669021 1.7521e-19)
(0.795923 -0.598661 -2.43811e-19)
(0.994715 0.00895662 1.39563e-20)
(0.707485 -0.513434 3.31637e-19)
(1.33298 0.822797 1.55474e-19)
(1.90576 0.061879 8.1343e-21)
(-0.21424 0.51112 0)
(1.09052 0.0625114 -2.66798e-19)
(-0.647035 0.36515 -1.30604e-19)
(1.09449 0.507956 9.01767e-20)
(0.193275 -0.161764 1.13059e-19)
(1.16241 0.0289249 -4.84351e-20)
(-0.179675 0.219747 -1.30777e-19)
(1.32168 0.602211 -9.3934e-20)
(1.16381 0.90871 0)
(-0.184996 0.621295 -8.43976e-20)
(0.165963 0.288311 0)
(0.674115 0.583396 -3.03171e-19)
(2.15939 0.206262 -1.45984e-20)
(0.0157726 0.149308 8.93492e-20)
(-0.138275 0.648004 -4.46755e-19)
(0.728393 0.0994743 2.69121e-19)
(2.04907 0.112734 -4.11611e-20)
(0.970113 -0.331344 -3.42334e-20)
(-0.0772216 -0.0642841 0)
(-1.08579 -0.517049 2.83426e-19)
(1.35542 0.99413 -4.13445e-20)
(0.843836 0.0948854 -1.48534e-19)
(0.570569 0.536321 2.11885e-19)
(0.432059 0.193152 0)
(-0.2319 0.0172789 -1.25424e-19)
(-1.14819 -0.758874 2.50205e-19)
(1.28609 -0.946127 7.2824e-22)
(0.987629 -0.0209804 -2.12261e-19)
(-0.142393 -0.172705 4.90272e-21)
(-0.0496977 0.0504975 1.32816e-19)
(-0.195796 -0.240067 -1.30998e-19)
(2.01771 -0.257745 0)
(1.14078 0.0502652 -3.59607e-19)
(2.54608 0.111436 2.00407e-19)
(1.25983 -0.604186 1.28353e-19)
(1.0514 -0.0622084 4.71691e-21)
(0.609191 0.358802 0)
(0.96702 0.771567 -1.83699e-20)
(0.700438 0.645527 2.05229e-19)
(0.885353 -0.548155 1.71565e-19)
(0.706364 0.525947 0)
(1.02214 0.00541639 9.11651e-21)
(0.869871 -0.649449 2.44902e-19)
(0.857149 0.443973 -5.0049e-19)
(1.19299 -0.104193 0)
(0.103826 0.173469 -2.22528e-19)
(-0.0805721 0.251456 -8.06819e-20)
(1.62093 0.744 0)
(1.33718 -0.924389 -6.23218e-22)
(-0.0442587 0.54413 0)
(-0.222204 0.285669 1.00043e-19)
(0.757128 0.673499 -1.07926e-19)
(0.843322 -0.198676 0)
(-0.190458 -0.144857 0)
(1.64063 -0.444862 0)
(0.00453294 0.147373 5.00761e-19)
(1.19983 -0.87104 1.77751e-19)
(1.16344 -0.589888 7.44946e-20)
(1.03965 -0.161914 -1.93466e-19)
(0.86504 -0.679311 -1.94391e-19)
(0.184856 -0.188307 0)
(-0.138096 0.614745 0)
(0.989635 -0.496436 2.0476e-19)
(-0.0674604 -0.0265932 0)
(-0.200402 0.421322 0)
(0.0807686 0.389134 2.59596e-19)
(0.814167 0.691585 9.3656e-20)
(1.03637 0.815113 0)
(0.718312 0.577479 -9.24501e-20)
(0.83016 -0.0222424 -2.45333e-19)
(0.766794 0.584706 -2.48223e-19)
(0.607413 0.566441 -1.82392e-19)
(-0.0986086 -0.00872449 -4.58201e-22)
(0.711113 -0.636816 0)
(0.909931 0.192819 -3.54838e-19)
(-0.0853738 0.0304359 3.46755e-20)
(0.6181 0.574099 4.14321e-19)
(0.980374 0.818617 0)
(-0.061895 -0.136869 3.6485e-19)
(-0.258091 -0.0884386 2.19337e-19)
(-0.212963 0.0241986 -1.18256e-19)
(0.685322 0.592988 -1.60301e-20)
(0.968877 -0.00751536 6.60058e-20)
(-0.042829 0.13129 0)
(2.00595 -0.0229775 -9.58034e-20)
(1.62249 -0.514197 -2.31525e-19)
(0.643973 -0.595064 -8.67639e-20)
(0.138499 0.564156 9.02594e-21)
(1.21552 0.476818 2.08156e-19)
(0.904354 0.433637 0)
(1.03883 -0.16156 2.20097e-19)
(-0.268833 -0.101822 4.06538e-21)
(-0.105141 0.15493 3.03573e-19)
(0.913996 0.020333 -5.91379e-20)
(1.14902 0.147577 0)
(1.73444 0.0194193 -7.81182e-20)
(1.96257 0.08157 0)
(0.558294 0.285586 -4.91731e-19)
(-0.0784262 0.0713724 0)
(-0.0603147 0.00622314 1.53876e-19)
(0.680219 0.0950425 0)
(0.606315 -0.494751 -2.03216e-19)
(1.13729 0.0206166 2.34389e-19)
(-0.228782 0.469697 3.43029e-20)
(2.15695 -0.0680274 4.38791e-21)
(2.05374 -0.153685 -7.24625e-20)
(1.13029 0.241015 -2.45873e-19)
(-0.0860904 0.0622973 -6.52043e-20)
(1.06288 -0.838848 0)
(0.809703 0.0169562 -1.70501e-19)
(0.916673 -0.359893 -3.24575e-19)
(1.70062 -0.561871 1.49596e-21)
(1.65469 -0.0125945 4.61036e-20)
(1.08789 -0.00343416 4.29415e-19)
(-0.210853 -0.0359488 -1.00578e-19)
(0.983927 -0.422423 -1.44613e-19)
(0.19381 -0.186249 2.86098e-19)
(1.00807 -0.00694033 0)
(1.00467 -0.00581712 0)
(0.627189 -0.381345 5.93205e-20)
(-0.176027 0.332824 -7.65356e-20)
(0.201213 -0.112938 -1.00161e-19)
(2.01075 -0.0558082 -5.27836e-22)
(1.2266 0.00317922 0)
(1.94828 0.0956408 -1.25609e-19)
(0.935634 -0.812343 -1.07923e-19)
(1.78187 -0.548928 -3.98282e-20)
(1.12943 0.857853 0)
(0.462732 -0.442717 0)
(0.626061 0.542038 -1.90964e-19)
(1.11607 0.294197 -4.53528e-19)
(2.15158 -0.17606 1.78943e-22)
(0.871636 0.176231 1.52255e-19)
(-0.300015 0.017074 -2.61987e-19)
(1.55578 -0.134783 -6.46528e-21)
(-0.26929 0.115499 0)
(-0.142965 -0.0807615 0)
(-0.039109 0.237072 0)
(1.32537 -0.708822 -1.23174e-19)
(-0.2053 0.247242 -1.81013e-19)
(-0.10155 0.130711 0)
(1.31467 0.99603 -4.66664e-20)
(1.12687 0.16066 -4.7288e-19)
(2.5592 0.0599815 -1.16563e-19)
(1.10216 0.941841 1.04591e-19)
(-0.22661 0.319115 1.11307e-19)
(1.21927 -0.0287401 0)
(-0.019375 0.290245 -1.96611e-19)
(-0.242911 0.318629 2.14624e-19)
(0.7801 0.0524431 2.00213e-19)
(1.56363 0.968876 -3.23219e-20)
(1.64052 0.753823 -1.01211e-19)
(-0.186593 0.24947 -2.28361e-21)
(0.737161 -0.671739 -4.36001e-20)
(1.153 -0.0148992 0)
(1.75198 -0.0364852 0)
(0.98886 0.0474945 0)
(-0.775965 -0.405159 -2.19208e-19)
(-0.0977884 0.212815 6.32958e-20)
(1.07036 0.864845 0)
(0.996937 0.00603845 5.69416e-19)
(0.789275 0.627426 -2.48929e-19)
(-1.13211 -0.560675 -1.23998e-19)
(0.865524 0.035849 -4.52073e-20)
(0.705311 -0.642132 -2.52598e-19)
(1.41363 0.728647 -4.18456e-20)
(0.548135 -0.427863 -3.22847e-19)
(1.12902 0.00381416 -5.13573e-19)
(0.799959 0.0400909 5.06357e-20)
(1.48845 -0.16506 9.54191e-20)
(1.60255 -0.0928653 -8.23013e-20)
(-0.0535747 -0.0416399 -2.697e-22)
(1.09891 0.48669 -3.00113e-19)
(1.34781 0.632459 5.87708e-20)
(-0.236377 -0.00443862 0)
(-0.331385 0.0284668 9.58337e-20)
(0.160068 0.356424 9.57831e-20)
(-0.149203 -0.188062 -9.26081e-20)
(0.497276 0.351665 0)
(1.7119 -0.45116 0)
(-0.00821759 0.0123425 -1.10449e-19)
(-0.129812 0.00923034 -3.40293e-20)
(1.04908 -0.0288016 2.03582e-19)
(-0.196671 0.448414 -4.2874e-20)
(1.45321 0.0511356 -4.38792e-19)
(-0.1637 0.317462 0)
(0.823164 -0.728547 -3.55119e-19)
(1.36294 -0.0708466 1.17402e-19)
(-0.569174 0.169935 7.86037e-20)
(0.727716 0.184482 3.55581e-19)
(0.631179 0.168669 1.14291e-19)
(0.492243 -0.464062 2.26328e-19)
(-0.0104152 0.024052 -8.08785e-20)
(1.97641 0.730594 0)
(0.413843 0.378634 -2.06817e-19)
(1.03012 -0.0133792 -3.2379e-19)
(-0.117514 0.649919 1.78144e-19)
(1.44589 0.499382 -1.4992e-19)
(-0.0700532 -0.0197429 -3.20113e-20)
(0.68361 -0.623057 -8.72179e-20)
(0.827828 0.206367 -2.24962e-19)
(0.995188 0.443111 2.54354e-20)
(1.14187 -0.129879 3.96396e-20)
(0.599131 -0.203218 -3.28799e-19)
(1.98684 -0.292126 -6.38401e-20)
(1.69499 -0.0485759 0)
(2.25539 -0.0167964 -7.90647e-20)
(1.80777 -0.122871 8.12757e-21)
(0.643353 0.16167 6.32289e-20)
(0.951329 0.361538 -1.47399e-19)
(1.66121 -0.178262 -2.09736e-20)
(0.437062 0.411656 -2.69442e-19)
(0.0467876 0.441729 1.551e-19)
(1.96701 0.0442928 0)
(0.943892 0.00809819 0)
(0.86384 -0.763294 7.15681e-20)
(-0.246164 -0.0772308 -2.40801e-19)
(0.166083 0.587222 -1.84765e-19)
(-0.0562102 -0.0379481 -1.42041e-19)
(-0.13745 0.486539 -1.16148e-19)
(-0.378137 0.122878 0)
(-0.143121 -0.0967488 2.68187e-20)
(0.0517529 0.320146 -7.59777e-20)
(-0.0494072 0.0527387 -3.03377e-19)
(0.798051 -0.0895375 0)
(1.51142 -0.475919 9.09022e-20)
(0.116148 0.213883 0)
(0.994445 0.0240104 4.10631e-19)
(-0.348843 0.0416471 9.58232e-21)
(0.524588 -0.399641 4.3282e-19)
(-0.651408 0.377264 2.16785e-19)
(-1.00853 -0.398139 0)
(-0.00540941 0.276433 8.39059e-20)
(1.00199 0.0252609 -1.23782e-20)
(0.00543132 -0.152122 0)
(1.0049 -0.00866674 -6.38442e-20)
(0.847523 -0.713468 -3.337e-19)
(1.52623 -0.575942 0)
(0.926226 -0.25455 2.32242e-19)
(-0.0723403 0.339083 1.56665e-19)
(-0.0783597 -0.0774407 0)
(-0.238523 0.0415363 -3.40777e-21)
(0.713085 -0.619159 -4.78979e-19)
(0.94276 -0.0203133 -3.00073e-19)
(-0.263393 -0.0719396 2.88734e-19)
(-0.0969568 -0.0258481 9.73466e-20)
(-0.309426 0.150321 0)
(0.977646 0.493638 0)
(-0.47485 0.046041 9.66825e-20)
(1.46053 -0.104803 -5.76908e-20)
(1.09771 0.917061 2.21592e-20)
(1.08421 0.2244 -1.38405e-19)
(1.11904 0.00765938 -2.52653e-19)
(1.02758 -0.0634766 -9.22903e-20)
(-0.247207 -0.0589096 -2.5574e-19)
(1.98131 0.0628855 3.76351e-19)
(0.700976 0.039745 2.36712e-19)
(1.67853 -0.0233682 5.77967e-20)
(1.03259 -0.138432 0)
(-0.0825959 -0.193028 1.84724e-19)
(1.14396 0.0267838 -5.56349e-19)
(1.78514 0.639092 3.18318e-20)
(0.727553 -0.434611 -1.78805e-19)
(-0.103255 -0.113029 1.48577e-19)
(0.786521 -0.68817 4.36327e-19)
(1.26084 0.204443 8.62645e-20)
(1.00706 -0.00814259 2.8268e-19)
(-0.279693 0.0341743 -1.04336e-19)
(1.0286 0.0235998 0)
(1.97051 -0.0119322 -1.56477e-19)
(-0.099779 -0.0939166 0)
(1.01392 0.0148683 -1.67295e-19)
(-0.822269 -0.562103 -5.38728e-19)
(1.7708 0.327421 5.28037e-20)
(0.136206 0.431272 1.30941e-19)
(1.65057 0.0250016 1.25771e-20)
(1.0152 -0.0169441 5.86681e-20)
(1.26528 -0.0871908 0)
(1.42649 -0.594392 -1.90854e-19)
(1.02664 0.043273 -1.7356e-19)
(1.47092 0.810621 -8.69348e-20)
(1.26974 -0.0443735 0)
(0.506278 0.475916 2.82262e-20)
(-0.0120533 0.015386 0)
(1.29201 0.0539322 0)
(-0.0845159 0.144409 0)
(1.2667 0.461677 0)
(1.90843 0.300154 3.61468e-20)
(0.762972 0.637896 4.36583e-19)
(0.28795 -0.289271 -2.67952e-19)
(-0.130895 -0.0139595 -2.25736e-19)
(-0.0899067 -0.0733468 0)
(2.42608 -0.337339 1.23306e-19)
(1.36373 0.534135 0)
(1.4912 0.303523 0)
(-0.0595451 0.346919 8.5538e-20)
(0.827984 0.732403 1.44583e-19)
(1.61517 -0.00493276 0)
(0.0152637 0.0889356 5.07774e-20)
(0.921345 0.239327 2.08159e-19)
(2.00421 -0.211505 -7.27707e-20)
(1.26825 0.949282 5.58472e-20)
(0.913177 -0.820635 -4.95597e-20)
(1.48165 -0.105994 -4.09047e-20)
(0.813661 0.735635 1.49363e-19)
(1.20357 0.94678 0)
(2.26947 -0.206181 1.61021e-19)
(0.327807 -0.315556 0)
(1.5001 -0.278011 5.20666e-20)
(1.00871 0.105981 1.49116e-19)
(1.00574 -0.00421622 0)
(-0.484198 -0.43481 1.91112e-19)
(0.883064 -0.152926 5.31444e-20)
(0.615461 -0.384696 0)
(0.656577 -0.357427 2.33559e-19)
(1.26452 0.575461 -3.88574e-20)
(0.489911 0.463682 2.99336e-19)
(-0.0670097 0.0846352 3.65672e-20)
(0.153466 -7.1784e-05 7.71128e-20)
(0.742314 0.0581104 0)
(1.31051 -0.886309 -1.21673e-19)
(1.03577 -0.0437205 4.52171e-19)
(1.53278 0.345724 1.16767e-19)
(0.0305831 0.13537 4.30652e-20)
(-0.744573 0.383933 0)
(1.21693 -0.226734 -1.31121e-19)
(-0.0793847 -0.0729525 -1.23178e-19)
(-0.723096 -0.527266 -1.60917e-20)
(-0.133828 0.0443711 -6.59315e-22)
(-0.210843 0.0945529 2.5136e-19)
(0.728929 0.0420816 -1.90986e-20)
(2.12487 -0.0556027 1.28332e-19)
(1.21717 0.478278 -3.35683e-19)
(0.889815 -0.0567544 0)
(1.9176 -0.0955401 1.78018e-19)
(1.71578 0.0464187 3.64281e-20)
(0.898384 -0.752771 1.6578e-19)
(1.14764 -0.963592 -6.6747e-20)
(0.493489 0.459284 2.0204e-19)
(0.630608 -0.0641291 0)
(1.79589 0.595559 8.92872e-21)
(-0.0901121 -0.0822364 -2.50497e-19)
(0.905622 0.79124 0)
(1.69966 0.822945 0)
(0.288308 -0.287242 -3.76135e-21)
(0.34524 0.336601 0)
(-0.723881 0.308095 -2.36894e-19)
(-0.169569 0.193743 -1.03323e-19)
(1.73921 -0.418842 0)
(1.30212 0.0757187 2.48147e-19)
(0.067365 0.537805 1.53536e-19)
(0.525308 -0.497883 -5.2274e-19)
(1.70529 0.00440525 -1.79099e-20)
(0.602449 -0.54511 0)
(1.05872 0.132285 0)
(1.38091 -0.26142 0)
(1.13354 0.239258 -2.64867e-19)
(1.38065 0.114625 3.78154e-19)
(-0.863333 -0.149195 0)
(0.8681 -0.0498324 0)
(2.11862 -0.0978017 -7.98339e-21)
(-0.130541 0.172081 8.48625e-20)
(2.42563 -0.0223459 -2.62484e-19)
(1.08216 -0.503732 1.28063e-19)
(1.99776 -0.00659516 -2.77591e-19)
(0.0312919 0.616518 -1.12099e-19)
(2.02185 0.0781238 -1.4895e-19)
(1.01603 -0.0150432 4.63978e-19)
(1.54997 0.621805 0)
(-0.235988 0.313229 2.7972e-20)
(0.990648 -0.816447 2.11181e-19)
(0.856021 0.00323518 5.28407e-20)
(0.619298 -0.408362 0)
(1.88181 -0.494542 -1.59757e-21)
(1.19187 -0.185637 1.74573e-19)
(1.51841 -0.236255 0)
(0.600263 -0.556997 5.20161e-19)
(1.77333 0.146042 -5.12317e-20)
(2.43796 -0.0118211 4.28568e-19)
(-0.150336 0.192145 -1.77659e-19)
(1.36163 0.638863 1.80248e-19)
(1.17092 0.423349 4.15999e-21)
(0.923183 0.394009 2.47151e-19)
(1.57024 -0.022429 -4.88163e-20)
(-0.244377 -0.0360904 5.20066e-22)
(0.715082 0.0453617 0)
(-0.125204 -0.112704 2.41953e-19)
(1.08491 -0.94084 0)
(1.04862 -0.637341 2.54009e-20)
(0.423973 0.047649 -8.0206e-20)
(1.58045 0.887507 -2.69834e-20)
(-0.314768 0.355203 -2.03282e-19)
(1.01024 0.504564 1.94743e-19)
(-0.855647 -0.65893 2.42005e-19)
(0.702732 -0.0411736 0)
(1.92037 -0.0521696 0)
(1.76665 -0.154068 -9.5389e-21)
(0.773505 -0.00841217 0)
(1.33392 -0.196519 -1.79634e-19)
(-0.215067 0.588535 3.50566e-19)
(1.97255 0.514973 -2.19912e-20)
(1.05092 -0.0324735 0)
(0.537543 -0.321239 1.16088e-19)
(1.00882 0.0262932 2.20211e-19)
(0.12864 -0.671651 -1.72361e-19)
(-0.0476869 0.537171 0)
(1.09248 -0.460738 5.65339e-19)
(1.83079 -0.0832019 -4.9929e-22)
(1.08504 -0.481105 -2.45876e-19)
(2.38557 0.257567 1.22931e-19)
(1.31654 0.813737 0)
(0.8813 0.0239183 0)
(0.0155944 0.200045 -1.10809e-19)
(-0.0104095 0.0131195 1.24278e-19)
(0.968945 0.385759 -2.30121e-19)
(-0.288956 -0.0540902 -9.873e-20)
(0.666702 0.436589 2.60705e-19)
(0.673874 0.494168 0)
(0.531248 -0.49366 0)
(-0.257243 0.11225 -5.97374e-22)
(1.21441 -0.491341 -1.17469e-19)
(0.847155 -0.0536558 1.08711e-20)
(0.728103 -0.127459 1.29533e-19)
(-0.102667 0.138894 -2.23148e-19)
(1.082 0.13981 2.07027e-19)
(0.678738 0.633519 0)
(1.29957 0.716953 0)
(1.65617 0.269091 0)
(-0.255742 0.216787 -8.84176e-20)
(1.28599 0.580465 1.68092e-19)
(1.84823 0.0333098 1.74766e-20)
(0.95329 -0.0155291 0)
(2.29379 -0.25955 0)
(2.17149 -0.0705726 -2.85232e-19)
(0.154736 -0.526149 2.14023e-19)
(1.00515 0.00461382 -2.20316e-19)
(1.5305 0.494013 0)
(-0.0951112 0.453871 0)
(1.26796 0.333975 3.30993e-19)
(1.04627 0.548153 -1.46143e-19)
(1.07525 0.0318105 0)
(1.06453 -0.0841341 0)
(2.03557 0.692299 -2.36743e-19)
(-0.187137 0.279181 -1.21441e-21)
(0.994212 0.0141178 0)
(0.729324 0.499845 -3.6217e-20)
(0.924905 -0.814012 0)
(1.00182 0.0167436 5.12137e-20)
(-0.601467 -0.423827 -6.23455e-20)
(0.892441 -0.303724 3.42609e-19)
(-0.165644 -0.694192 2.87882e-20)
(2.00418 -0.0465038 1.40724e-19)
(2.03681 0.0650417 9.24316e-20)
(0.778855 -0.0189696 0)
(1.00629 0.0120712 0)
(-0.629502 0.258917 0)
(0.682061 0.653433 -2.11032e-19)
(-0.0665087 0.0870374 1.50753e-19)
(1.19035 0.364392 -5.29465e-19)
(-0.174555 0.588955 0)
(0.852422 0.666581 1.84719e-19)
(0.995439 -0.316012 0)
(1.00541 -0.000342501 1.28923e-19)
(-0.209837 -0.188216 1.88551e-20)
(1.05565 0.422687 2.8884e-19)
(1.34411 0.218458 0)
(2.26965 0.157886 -6.33747e-20)
(0.821766 -0.0902021 -4.00126e-19)
(-0.797274 0.242537 -3.16914e-19)
(0.381613 -0.14721 0)
(0.893288 0.262102 1.91815e-19)
(1.89275 -0.0298189 0)
(0.797609 0.546219 3.95394e-19)
(-0.528618 0.394269 1.45402e-19)
(-0.0835802 0.11243 0)
(0.607577 0.578579 -7.75261e-20)
(1.01202 -0.625019 -1.77327e-19)
(0.463912 -0.211177 -1.33026e-19)
(1.02 -0.00841853 0)
(0.0650712 0.528727 -1.4158e-19)
(0.624645 -0.553048 9.0925e-20)
(0.922066 0.309093 0)
(1.78842 -0.315635 1.26224e-19)
(1.00646 0.858447 2.78695e-20)
(0.665968 -0.194939 3.16752e-20)
(0.235169 0.046978 -1.95744e-19)
(0.216693 0.0249921 -5.94263e-19)
(-0.102665 -0.0472198 6.15173e-21)
(0.836309 0.381215 2.69747e-19)
(-0.207714 0.252788 -4.51219e-21)
(1.39445 -0.631802 3.45745e-21)
(1.02214 0.0174251 -3.83373e-19)
(-0.379178 0.246222 0)
(1.03465 0.0425499 -4.53404e-19)
(1.8018 -0.152249 4.05916e-20)
(0.911333 0.712657 3.1328e-19)
(1.12642 -0.0606638 1.79296e-19)
(1.00296 -0.0183207 1.77332e-19)
(1.56176 0.952038 2.35375e-20)
(0.0751324 0.133972 6.9686e-22)
(1.72323 -0.852253 1.52995e-20)
(1.1122 -0.124264 -9.08623e-20)
(0.765294 0.0444523 1.04888e-19)
(0.897968 -0.273553 9.95588e-20)
(1.95906 0.118871 0)
(0.986279 0.75711 0)
(0.0645212 -0.26882 -2.2487e-20)
(2.05944 0.201389 -1.23633e-20)
(-0.516965 0.410871 1.1758e-19)
(1.01574 -0.522673 -5.90337e-19)
(0.602103 -0.515334 4.33388e-19)
(1.27505 0.206449 -1.07402e-19)
(-0.1899 -0.011509 1.17215e-20)
(1.58395 -0.234485 0)
(0.758531 0.140425 -7.33095e-21)
(1.62679 -0.174875 -1.01032e-19)
(1.06462 0.783771 0)
(0.66827 -0.237223 0)
(0.678227 0.443445 0)
(-0.0422824 0.00285987 -3.76973e-20)
(-0.144614 0.173166 0)
(0.902236 -0.522281 2.40787e-19)
(1.2433 0.188635 7.31458e-21)
(-0.732642 -0.374711 1.93485e-19)
(1.93988 0.564969 5.69472e-20)
(1.86514 0.477924 -3.23624e-20)
(2.05415 -0.268917 -1.83784e-20)
(-0.178684 0.00873446 -1.74765e-19)
(-0.28048 0.0538362 2.54179e-21)
(1.95428 0.14913 0)
(0.682378 -0.0356201 0)
(1.00073 0.000819058 2.12026e-22)
(-0.291903 0.259733 0)
(1.36847 0.0395816 -1.30432e-20)
(0.68124 -0.0320383 0)
(1.04333 0.00987137 1.44249e-19)
(0.989827 0.0157233 -5.0075e-20)
(1.15401 0.196203 1.23842e-19)
(1.06848 -0.0145629 -1.03675e-21)
(0.939111 -0.175176 -6.00404e-20)
(1.02068 -0.0231814 4.11967e-19)
(0.657715 -0.593691 2.06498e-19)
(-0.851618 -0.561288 -2.53047e-19)
(1.76242 0.53074 2.0632e-20)
(-0.0142616 0.0275685 0)
(1.15153 0.81679 0)
(1.02446 0.00337792 0)
(0.98799 -0.75895 -1.2532e-19)
(1.02927 -0.880496 7.18657e-20)
(1.41873 0.588532 4.6444e-20)
(-0.850388 -0.489061 -3.61614e-19)
(0.260886 0.179693 1.53091e-20)
(0.569725 -0.354969 -6.94378e-19)
(2.08922 0.240512 -1.31099e-19)
(-0.0889664 0.0835801 1.55745e-20)
(2.03585 -0.227529 4.92058e-20)
(1.45549 0.134865 -2.65817e-20)
(-0.0106241 0.0540346 -7.67004e-20)
(1.13694 0.572336 2.25261e-19)
(-0.267481 -0.181421 0)
(-0.328691 -0.0331545 1.95411e-19)
(-0.169477 -0.130915 -4.87315e-23)
(1.02844 -0.0444194 3.70192e-19)
(1.02267 0.00810396 -9.51103e-21)
(1.10825 -0.00853907 -1.0225e-19)
(1.19749 0.745542 8.39138e-21)
(1.66972 0.328838 7.86129e-20)
(0.38772 -0.361114 -3.47082e-19)
(0.983637 0.562305 -9.23664e-20)
(1.03141 0.00999644 -2.71649e-19)
(1.94853 0.610779 -2.12546e-20)
(1.03562 0.778266 0)
(1.13433 0.611434 -4.23164e-19)
(1.0026 -0.00355653 1.05175e-19)
(0.696564 0.62609 2.81444e-19)
(1.0389 -0.189587 -2.63948e-21)
(1.07362 -0.00584053 -3.38101e-20)
(1.13168 0.0191546 9.57679e-22)
(2.39488 0.057668 1.52406e-20)
(1.38482 0.284877 0)
(1.04335 -0.0402801 0)
(1.04812 -0.0346572 6.4674e-19)
(1.00258 -0.00259658 0)
(-0.119867 -0.0884448 0)
(0.965403 -0.577354 0)
(1.00079 -0.000404634 -6.11752e-19)
(1.14048 -0.666669 1.03219e-19)
(1.02285 -0.000670067 1.28634e-20)
(1.3726 0.978942 -3.84258e-20)
(1.55901 1.02826 7.24069e-20)
(0.300688 -0.151793 -2.46453e-20)
(1.05368 -0.126814 6.26769e-20)
(1.99766 -0.0526008 0)
(-0.146797 0.298 0)
(1.87561 0.0865262 9.36844e-20)
(1.0784 -0.223429 0)
(0.999735 -0.00483927 -1.8918e-19)
(1.01083 -0.00113361 3.67732e-19)
(1.48531 0.149269 -8.08953e-20)
(0.0168614 -0.110655 1.90579e-19)
(0.980847 0.00218678 2.00532e-19)
(0.613724 0.11192 -5.78506e-20)
(0.941538 -0.0541942 5.58883e-21)
(1.16403 0.770342 4.83072e-23)
(0.927465 0.0182202 -2.01852e-19)
(1.0037 0.00411154 2.3761e-19)
(1.0003 -0.000422544 1.40395e-20)
(0.789751 -0.013384 0)
(0.72847 -0.0269393 0)
(0.724122 -0.027317 7.1568e-22)
(0.700853 -0.029793 0)
(1.32266 -0.0640633 0)
(1.21163 -0.108069 0)
(0.902133 -0.0695766 -2.37347e-20)
(0.823542 -0.0699723 1.28701e-20)
(1.62149 -0.295841 0)
(1.24328 0.409807 3.43763e-20)
(1.25013 0.624123 0)
(0.292014 0.222922 0)
(0.538932 0.106192 0)
(0.962371 0.256378 9.91461e-21)
(1.75321 0.220953 7.65749e-20)
(0.774277 0.0241481 0)
(0.785878 0.0200464 0)
(0.966072 0.0210785 -2.48687e-19)
(0.814814 0.00769371 4.63001e-19)
(1.00777 -0.00123688 0)
(1.00011 -0.000467089 4.39191e-19)
(1.00028 -0.000621051 -3.27978e-22)
(0.783934 0.0226245 3.94893e-19)
(0.998498 -0.00475166 -2.30131e-19)
(0.303266 0.154773 0)
(1.06649 -0.0866305 -5.59298e-21)
(1.00062 -0.00116753 -2.2196e-19)
(0.999682 0.00105626 -3.80947e-19)
(0.721933 0.450262 0)
(0.998959 0.00158374 0)
(0.999652 0.0003118 0)
(1.67216 -0.271207 -1.12138e-20)
(0.208189 0.380719 4.01852e-20)
(1.41528 0.613357 0)
(-0.172353 0.3151 1.99437e-19)
(-0.315348 -0.206478 -1.88592e-19)
(1.0202 -0.0113051 -2.96395e-19)
(-0.128212 0.0715519 -6.39212e-20)
(1.01851 0.00821182 -2.38573e-19)
(1.14941 -0.208141 -1.26216e-19)
(0.784253 -0.451705 3.38492e-19)
(-0.0688297 -0.0501926 -5.8479e-20)
(1.02953 0.0152113 0)
(1.0663 -0.00972764 -6.52483e-20)
(0.8453 0.0243194 0)
(-0.0699466 0.0931924 2.18798e-19)
(1.11069 -0.408834 0)
(-0.136837 0.241409 -1.64285e-19)
(1.01161 0.129279 4.31393e-20)
(1.69288 0.703859 -6.16899e-20)
(-0.0546943 -0.00986553 0)
(1.05198 -0.0378616 2.00113e-19)
(-0.0978799 0.258217 3.28074e-21)
(0.929419 0.00755551 3.11886e-19)
(1.0125 -0.00633384 -2.01892e-19)
(1.71065 0.885168 1.08198e-20)
(0.540348 0.509691 0)
(0.467761 0.431903 2.16521e-19)
(2.11452 -0.252978 -2.32146e-21)
(1.16738 0.133416 2.20053e-19)
(1.07142 -0.696325 0)
(1.02396 0.00736995 0)
(0.999943 -0.0174985 -4.64372e-19)
(1.01842 0.0174962 -4.52748e-19)
(-0.131606 -0.0555877 0)
(1.24906 0.844279 -1.58701e-19)
(1.17246 -0.136489 2.8101e-21)
(1.01616 0.00686281 1.7449e-19)
(1.0118 0.0145785 -2.18432e-19)
(-0.116643 0.363846 -1.6848e-20)
(0.201595 0.0503198 -6.84031e-20)
(1.01895 -0.0109105 7.44176e-19)
(1.43372 -0.124475 0)
(1.89704 0.671791 -1.41619e-20)
(1.01612 -0.00821281 -2.31751e-19)
(1.87015 0.00293407 -5.47645e-20)
(1.06523 0.013702 -5.36072e-22)
(1.00959 -0.00916808 4.63051e-20)
(1.95078 -0.0737824 -1.26845e-19)
(1.01617 0.00751377 2.24645e-19)
(0.887693 0.846156 9.479e-21)
(1.01822 0.00766951 0)
(0.944601 0.167729 5.48062e-20)
(-0.844632 -0.188752 3.09314e-21)
(0.998628 0.0227075 2.22955e-19)
(1.0398 0.0213781 -5.96412e-22)
(0.799302 -0.145577 -1.84673e-20)
(1.28203 0.328143 4.82383e-19)
(0.994549 0.0178927 1.5354e-19)
(1.0172 -0.0116958 4.79214e-22)
(1.7943 0.259076 -3.49313e-20)
(1.8126 0.968134 -9.06236e-20)
(0.764269 -0.684966 6.8836e-20)
(0.431836 -0.289198 -3.34667e-19)
(1.00754 -0.00865999 0)
(1.02013 0.00485023 5.57913e-20)
(1.0114 -0.00741445 1.17768e-19)
(0.990029 0.780895 1.80515e-20)
(1.01457 0.0089641 -2.33959e-19)
(1.026 -0.0170148 2.6811e-19)
(1.00813 -0.0070098 -2.20118e-19)
(1.01368 0.00816706 -5.04388e-22)
(1.01291 0.00441367 -3.47025e-22)
(1.02476 0.016609 2.24021e-19)
(0.908245 0.106223 5.61295e-19)
(1.69734 -0.212659 0)
(-0.350263 -0.0903035 4.46771e-20)
(1.01105 -0.000496238 0)
(1.0224 -0.0126929 -6.50038e-20)
(1.56911 0.460874 -1.10827e-19)
(1.63237 -0.0540046 0)
(2.14798 -0.210499 -1.288e-19)
(1.03612 -0.369629 -5.67792e-20)
(0.777558 -0.0196005 0)
(1.73114 -0.0235568 0)
(-0.237268 -0.544421 -3.48643e-19)
(1.4411 0.642307 -4.42183e-20)
(1.01787 -0.000590724 -2.35816e-19)
(1.10151 -0.548392 -7.01649e-20)
(0.291816 -0.00106943 -5.36316e-20)
(0.833362 0.757861 0)
(1.43344 -0.214011 0)
(2.15126 -0.09948 0)
(-0.0646973 0.200068 7.33578e-20)
(0.842238 0.711861 -1.32099e-22)
(-1.07726 -0.878578 0)
(-0.00430062 0.377164 -1.82035e-19)
(1.73484 0.992663 -1.58951e-20)
(1.00765 -0.00105108 -4.60608e-19)
(0.794325 0.648852 3.9338e-20)
(1.02106 0.013834 3.05272e-19)
(0.70267 -0.0450276 0)
(-0.180734 -0.0854369 -1.87047e-20)
(0.635894 0.463571 -3.68171e-19)
(1.69542 -0.0603233 3.03185e-19)
(-0.0592164 0.319088 0)
(0.764999 0.0750162 9.04716e-20)
(0.536164 0.514374 5.61254e-20)
(1.21378 0.907707 -4.35106e-20)
(-0.0950086 -0.100384 9.31393e-20)
(1.02393 0.0197635 0)
(0.798105 0.697122 -3.42213e-20)
(1.01204 0.000547168 1.72989e-19)
(2.38919 0.134725 0)
(1.01216 0.00973362 2.90021e-19)
(-0.194341 6.28354e-05 -9.41422e-20)
(1.01855 0.0145045 -1.79729e-19)
(1.59575 1.10406 0)
(2.47692 -0.296434 5.40004e-22)
(1.00903 0.00507384 -1.204e-19)
(0.996821 -0.0163673 3.17418e-19)
(1.10645 0.106696 -2.93162e-21)
(0.908231 0.749625 8.23758e-20)
(-0.109914 -0.146974 2.48437e-19)
(2.0609 0.287146 1.35737e-19)
(0.102769 0.396725 -9.45007e-20)
(0.799575 0.0146138 -4.34547e-19)
(0.822362 0.031532 0)
(0.377085 0.325425 6.75222e-21)
(1.0229 -0.00807613 -3.4932e-20)
(0.971802 0.0401161 0)
(1.05285 0.00597571 -2.21933e-19)
(-1.03099 0.0156832 5.8414e-20)
(-0.741059 0.124251 1.24165e-19)
(2.13371 -0.529807 0)
(-0.141632 -0.0055068 -6.57725e-19)
(1.48417 -0.331992 0)
(1.04127 -0.0165944 6.50103e-20)
(0.707453 0.556282 -9.67868e-22)
(1.01335 0.00304338 1.87106e-19)
(-0.0740531 0.500807 3.38232e-19)
(1.01982 0.00522944 0)
(0.994472 0.00363607 -4.49048e-19)
(1.00875 0.00878695 2.37814e-19)
(1.36621 -0.26116 0)
(0.197454 0.243392 6.68667e-21)
(0.956411 -0.00124065 -2.03025e-19)
(-0.166444 0.0145949 2.32627e-19)