/*--------------------------------*- C++ -*----------------------------------*\
| =========                 |                                                 |
| \\      /  F ield         | OpenFOAM: The Open Source CFD Toolbox           |
|  \\    /   O peration     | Version:  2306                                  |
|   \\  /    A nd           | Website:  www.openfoam.com                      |
|    \\/     M anipulation  |                                                 |
\*---------------------------------------------------------------------------*/
FoamFile
{
    version     2.0;
    format      ascii;
    arch        "LSB;label=32;scalar=64";
    class       surfaceScalarField;
    location    "5.9";
    object      phi;
}
// * * * * * * * * * * * * * * * * * * * * * * * * * * * * * * * * * * * * * //

dimensions      [0 3 -1 0 0 0 0];

oriented        oriented;

internalField   nonuniform List<scalar> 
3181
(
-0.982345
0.362081
0.620264
-0.386588
0.361184
0.0254038
0.514556
-0.354786
-0.15977
0.119987
-0.199309
0.0793219
-0.12468
0.135476
-0.0107952
0.691118
0.482386
-1.1735
0.146791
-0.140479
-0.00631149
0.104403
0.00792402
-0.112327
0.62505
-0.915919
0.290869
-0.0768732
0.134631
-0.0577579
-0.0101888
-0.0517752
0.061964
0.144836
0.03259
-0.177426
-0.0272386
-0.0769723
0.104211
-1.03092
0.136689
0.894234
-0.317725
0.691947
-0.374222
-1.10863
0.632024
0.47661
0.0810186
-0.943371
0.862352
-0.387757
0.273337
0.11442
-0.621182
-0.41569
-0.00196664
0.108369
-0.106402
0.0394496
-0.086675
0.0472253
-0.0591125
0.0407465
0.0183661
1.01071
-0.989236
-0.02147
0.0181892
0.0549788
-0.073168
-0.951826
0.312244
0.639582
-0.108653
0.22864
0.300562
-0.240791
-0.0597714
0.0298998
0.061748
-0.0916478
-0.412516
0.338842
0.0736737
-0.0202171
-0.0154788
0.0148845
0.000594307
-0.0354863
-0.91634
0.20592
-0.119982
-0.0859378
-0.085394
0.957808
-0.872414
-0.0704865
0.0952933
-0.0248068
0.185207
0.273059
-0.458267
0.850952
-0.936346
0.0728143
-0.0333647
1.64523
-0.905288
-0.739945
-0.337412
1.02853
-0.170395
0.143157
-0.0617522
0.00263961
-0.40692
0.0891957
-0.150343
0.0885911
-0.630846
0.127889
0.502956
-0.144514
0.0676412
-0.165779
0.169858
-0.00407874
-0.268176
-0.0738461
0.342022
-0.167881
0.971306
-0.803424
0.140612
0.173024
-0.313636
-0.0174454
-0.100814
0.106929
-0.00611475
0.499908
0.192039
-0.0965354
0.143206
-0.0466708
0.0419743
0.163946
-0.170579
0.197205
-0.0266269
0.159825
0.0586975
-0.218523
0.108907
-0.114739
0.00583184
1.16393
0.481298
-0.806137
-0.176208
0.0571038
-0.813224
0.75612
0.549873
0.223156
-0.773029
-0.44672
-0.20303
0.64975
-1.01534
0.677923
-0.265133
0.815006
-0.318768
-0.0992158
0.417983
-0.208338
-0.204178
-0.188943
0.165983
0.0229604
0.136269
0.281879
-0.418148
-0.347464
0.972514
-0.0416969
0.1461
-1.05226
1.10937
0.182835
0.117727
-0.174905
-0.111811
0.286716
-0.270651
0.358315
-0.087664
-0.0805853
0.089138
-0.00855267
-1.22014
-0.916058
0.00768187
0.908376
-0.110072
0.0395852
-1.1251
0.827616
0.297488
0.56272
-0.648898
0.0861779
-1.002
-0.0133388
1.12449
-0.987801
-0.711853
1.08665
-0.19242
1.089
0.169361
-0.175213
0.00585198
1.13614
-0.653752
0.983194
-0.983194
0.000503573
0.00345021
-0.00395379
-0.211661
-0.0518629
0.263524
0.216625
-0.14425
-0.0723745
-0.416294
0.791447
-0.375153
-0.0204557
-0.230711
0.251167
-1.03548
0.0462477
0.343762
0.0602966
-0.404058
0.127968
-0.842176
1.06533
0.156806
0.0535046
-0.21031
-0.0169789
-0.1536
-0.496308
0.776637
-0.28033
-0.762213
0.265905
0.100117
-0.942293
0.343538
-0.759831
0.912387
-0.831369
-0.0333319
0.286365
-0.253033
0.0860482
0.0523785
-0.138427
-1.31955
-0.209242
1.52879
-0.23859
0.4007
-0.16211
0.60091
-0.156658
-0.444252
-0.493828
-0.631275
0.238019
-0.0974076
-0.150387
0.14492
0.00546752
-0.0783467
-0.0148872
0.0932339
-0.638421
-0.277498
-0.122335
0.0571368
0.065198
-0.982528
-0.00780958
0.990338
1.11509
-0.143787
0.00625829
-0.00575472
0.0372783
0.145557
-0.199916
0.385123
0.067317
0.172831
-0.240148
0.139332
0.0689708
-0.208303
0.420861
-0.255389
-0.165472
-0.583876
-0.524758
-0.795732
-0.186796
-0.057862
0.214668
-0.101898
0.182757
-0.0808587
0.0331037
0.0249073
0.121883
-0.0568882
0.0677461
-0.010858
-0.0947277
-0.0206374
0.115365
0.0733357
-0.0733357
-0.182282
0.207189
-0.199492
0.240341
0.105262
0.0919432
-1.26235
0.914888
-1.41767
-0.00211207
1.41979
0.0622447
-0.0497452
-0.0124995
-0.02699
-0.0518074
0.0787974
0.523528
-0.0126336
-0.510894
-0.0706588
0.0731684
-0.00250959
-0.1986
0.016318
0.166611
0.624836
-0.346666
0.513277
-0.0835616
-1.23599
-0.136648
0.0119673
0.472189
-0.299375
-0.172814
0.22487
-0.196137
-0.0287334
0.0463818
-0.314558
0.0259238
-0.941981
0.0502012
-0.152099
-0.283558
-0.392614
0.0728259
1.42353
-0.998992
-0.424542
1.09312
0.330415
0.0653005
0.276721
0.0673273
-0.00508266
-0.026761
0.19333
-0.166569
-0.239785
-0.582252
0.822037
-0.350401
0.514955
0.670782
-1.08647
0.163026
-0.00164259
-0.0160174
0.01766
-0.905933
-0.0461876
0.952121
0.0582674
-0.964201
-0.311353
0.655115
-0.917447
-0.0165519
0.00338681
-0.268239
0.264852
1.4106
-1.56618
0.155575
-0.154777
0.0181295
0.561515
-0.8013
0.335298
-0.439072
0.103774
-0.296836
-0.117029
0.413865
0.161383
-0.984429
-0.0510546
-0.0524088
-0.0539935
-0.557912
0.354882
-0.248619
0.0193559
0.229263
-0.0595729
-0.0952042
0.0308359
-0.0308359
-0.121126
0.13323
-0.0121039
-0.16549
-1.25218
0.098796
0.0490793
-0.147875
-0.185306
0.0305264
0.154779
-0.222108
0.033165
1.32372
0.0674986
-1.39122
-0.178321
0.437627
-0.259307
0.00896901
-0.00746606
-0.00150296
0.457726
0.143184
-0.189292
-0.00420274
0.193495
-0.173229
0.309498
-0.102842
0.101181
0.00166102
0.0748383
0.0235579
-0.0983962
-0.271759
0.294029
-0.0222697
0.324835
-0.710887
0.386052
-0.216138
-0.0495617
0.2657
-0.68544
0.65334
0.0321
0.0158559
0.0391229
0.0708319
-0.0723125
0.00148056
-0.00358572
-0.0695823
0.569394
0.545698
0.157027
-0.860342
0.703315
-0.223291
1.54634
-1.32305
0.372973
0.202142
0.781052
0.0648595
0.205709
-0.066377
-0.0719547
-0.0288593
0.234853
0.159728
-0.0736799
0.727402
-0.415158
0.0589875
0.204537
0.0520773
-0.166193
0.114115
-0.841853
-0.117046
0.958899
-0.0449403
0.0449403
-0.153314
-0.275621
0.54868
0.0116515
-0.22779
0.0608807
0.212456
0.0752967
-0.133159
0.137685
-0.147874
-0.339354
0.318898
-0.0382308
0.179903
-0.141673
0.372629
-0.340039
-0.439493
0.371585
0.0679077
-0.203354
0.268654
0.178888
-0.478262
-0.265446
0.627527
0.16425
-0.0335144
0.0335144
-0.472606
0.416805
0.0558016
0.376249
0.0244507
-0.0583905
0.0710612
-0.0126706
-0.260131
-0.0592254
-0.0631095
-0.0491393
0.186824
-0.18148
0.243406
-0.0619259
0.132386
0.0273422
-0.382298
0.141507
0.193152
-0.0607661
-0.0462021
-0.0566404
-0.117037
0.120581
-0.00354365
0.146071
-0.103445
-0.0426263
-0.0167299
0.39307
-0.37634
-0.189787
0.14809
0.10543
-0.10979
0.00436032
0.0242294
0.0341618
-0.473655
-0.158321
-0.0453294
0.20365
-0.161526
-0.101563
0.263089
-0.093784
0.106463
-0.729013
0.622551
-0.0715994
-1.42802
-0.0945264
1.52254
0.0713637
0.874516
-0.945879
0.0822804
-0.266225
0.0108362
0.274993
0.254278
-0.529271
-0.202829
0.254906
0.197097
-0.906681
0.709584
0.042234
-0.20376
-0.0562619
0.00385314
-1.01793
0.463101
0.554827
0.998992
-0.898876
-1.60587
1.39663
-1.4106
1.40849
0.0394904
-0.0861611
0.0161937
0.0546382
0.0290622
0.909263
-0.712166
0.121227
-0.0710256
0.400527
0.686127
-0.198343
-1.27784
1.05455
-0.699775
-0.562577
-0.238487
-0.392358
-0.0466297
-0.163934
0.210316
-0.617401
-0.362679
0.184358
0.77179
-0.248262
-0.862852
-0.743021
0.718542
0.308116
-0.265882
0.275517
0.0378448
-0.0378448
0.671042
0.156168
-0.827209
-0.215238
0.886279
0.615666
-0.963285
0.347619
0.272369
-0.0320278
0.00557341
0.00836486
-0.0139383
-0.813224
-0.95966
0.815873
0.426563
0.897157
-0.0340504
-0.131729
-0.257061
0.756969
-0.198737
-0.0498817
-0.00292079
-0.0776645
-0.055097
0.107475
0.378171
-0.250281
-0.783336
-0.28738
-0.183416
-0.0460442
0.22946
-0.741828
0.943969
-0.314366
0.232468
0.0818978
0.0598681
0.00745927
-0.146984
0.0621047
0.0848791
0.0095053
0.408478
0.146577
0.0782931
0.0439337
0.0264058
-0.0703394
-0.017993
-0.171299
-0.713384
0.36747
0.345914
0.591259
-1.00879
0.417531
0.139427
-0.161219
0.0217922
0.0107859
0.227234
-0.172197
-0.810996
-0.156424
0.00944028
-0.180169
0.0827618
0.148316
-0.348232
-1.1273
0.70518
0.422117
0.0633108
0.0921275
0.0539437
-0.841853
-0.45245
0.777285
0.190953
-0.128848
0.0446686
-0.630427
-0.0550133
0.0608456
0.132306
-0.253162
0.0356315
-0.45378
0.121843
0.353349
-0.293053
-0.114102
0.0193745
0.202022
0.828785
-1.03081
0.085243
-0.743299
0.658056
-0.909609
0.792563
-0.715174
-0.0375554
0.752729
-0.0201598
0.0229517
-0.00279185
0.167876
-0.464712
0.223093
-0.131884
-0.0912085
0.0250085
-0.126571
-0.0678263
-0.115589
-0.0141044
0.0215473
-0.0251331
0.0205549
0.0811801
-0.101735
0.68703
-0.0119338
0.0131562
-0.00122235
0.173833
-0.0257434
0.834047
0.0858698
-0.0677402
0.0165197
-0.976179
0.248252
0.0241169
0.0083804
0.0837471
-0.752729
0.810996
0.134714
-0.320223
0.185508
-0.254999
0.0797855
0.119526
-0.113674
-0.00140968
0.0905477
-0.0627348
-0.738556
-0.388741
-0.0458891
0.066444
0.741125
-0.264515
-0.288566
0.10326
0.338397
0.0164528
-0.0748434
-0.00775477
0.0810905
0.147149
0.211166
0.154644
-0.328415
0.173771
0.0965536
0.528282
-0.0354936
-0.109021
0.892229
-0.238158
-0.654071
-0.715174
-0.107761
0.699019
0.850952
-0.614445
0.76505
-0.150606
0.381511
-0.0560437
-0.325467
-0.255122
-0.746874
-0.0752963
0.0763166
-0.0010203
0.090511
-0.206727
0.116216
0.216788
-1.10968
0.892891
0.0262099
0.705477
-0.731687
-0.0432555
-0.107132
-0.013763
-0.144558
-0.13726
-0.335346
-0.0245737
0.00441386
0.088756
0.0998177
-0.188574
0.165592
-0.192353
-0.00380783
0.0636759
0.152054
0.134311
-0.0632913
-0.00902116
0.190534
-0.421246
0.0486427
0.825873
0.035742
0.00919839
-0.975925
-0.00850377
0.125504
-0.071641
-0.0424612
-0.0362477
0.371546
-0.142106
0.28992
-0.147814
0.183982
0.0642701
-0.971015
-0.0167861
-0.0542482
-0.647052
0.753514
-0.018398
0.182648
-0.329671
-0.633614
0.19147
-0.436778
0.245308
-0.0234114
0.196242
-0.00586357
0.00690499
-0.00104143
-0.116878
-0.154881
-0.0211353
-0.132464
0.743519
-0.658276
-0.217523
0.137034
-0.148774
0.310615
-0.15597
-0.0318547
0.964128
0.335662
-1.29979
-0.121605
0.140961
-0.495121
-0.218263
-0.563143
0.658569
-0.643816
-0.0147524
-0.162545
-0.0549779
-1.27784
0.633378
-0.633378
-1.37941
1.37941
0.909263
0.658677
-0.669368
0.0106906
-0.88039
-0.095535
0.635164
-0.363144
-0.272019
0.156594
-0.237453
0.000390804
0.00586749
-0.861295
-0.0809981
-0.934276
0.205263
0.0754259
-0.12147
0.689265
-0.105666
-0.583599
0.629951
0.221001
0.00302618
-0.00888975
-0.992485
-0.133263
0.504848
-0.10902
-0.577213
0.686232
-0.0733298
-0.882435
-0.683745
0.213135
-0.797011
-0.958899
1.36271
-0.403809
-0.139844
0.276613
-0.136769
-0.0257585
0.715023
-0.104917
-0.985132
0.985132
-1.08183
0.493179
0.588653
-0.000690139
-0.0112437
0.119354
-0.436861
0.902191
-0.0745754
-0.087028
-0.034924
0.170289
0.01011
-0.00114094
0.915558
-0.953113
-0.353457
0.428296
-0.640791
1.01039
-0.369598
-0.0909043
-0.0655198
0.125242
-0.0562709
0.377576
0.0132468
-0.0902191
0.349783
0.0432874
0.0440525
-0.250343
0.20629
0.136419
0.0334392
0.0982517
0.183479
0.898422
0.210945
-0.10615
0.80998
-0.70383
-0.894424
0.848237
0.249304
-0.160713
0.0803583
-0.77365
0.693291
0.552527
0.124766
-0.46412
-0.0771501
0.132725
-0.0555745
0.124539
-0.201689
-0.451383
-0.106529
-0.0731975
0.0764496
-0.00325205
-0.00981449
-0.0534769
0.16294
0.00100571
0.712166
-0.658056
-0.0541103
-0.286227
0.297878
0.854995
0.654541
-0.27303
-0.037619
0.0866983
-0.0924347
-0.346637
0.168744
-0.552619
0.383875
0.00658337
0.000321621
-0.124248
0.5347
-0.410452
0.00144731
-0.00934281
0.00789549
-0.0272083
0.0184528
0.00875554
-1.00599
0.352237
-0.255764
-1.17225
-0.197106
-0.898876
1.40849
1.39663
-0.19022
-0.169529
0.119967
-0.0643457
0.0702146
-0.00586896
-0.017656
0.832762
-0.815106
0.545006
0.0901581
0.00573557
0.000847802
0.122481
-0.0905515
0.034924
-0.0504492
0.00456011
-0.350044
0.257609
-0.0861094
0.161406
-0.244259
0.616888
1.09312
-0.403485
-0.061173
0.00144701
0.059726
1.63518
-0.238545
-0.0605968
-0.0541423
-1.06282
0.16394
0.366821
-0.205438
-0.471059
-0.128983
0.600041
0.784893
-0.339401
-0.445492
-0.139413
-0.00269367
-1.05455
0.241327
-0.0332825
-0.0772812
0.110564
0.567519
0.978818
-0.172185
0.177759
0.251333
1.83588
-0.427388
-0.656994
0.0373133
0.61968
0.379494
0.0344981
-0.346666
0.514728
0.789009
-0.0685512
0.075042
-0.0210983
-0.669107
-0.0294427
0.69855
0.994082
0.149656
-0.105722
-0.0491763
-0.361395
0.106706
-0.309535
1.05807
-0.0939444
-0.180442
0.0178974
0.109556
-0.724001
-0.00662532
0.0224812
0.10851
-0.145024
0.0365144
-0.292354
0.308154
-0.0158004
1.07192
-0.736262
-0.970434
0.0451953
0.925239
0.132482
-0.322397
0.189916
0.271155
0.0394596
0.243261
-0.695711
-0.731561
0.731561
0.75612
0.629951
-0.743299
0.30904
0.479969
-0.23064
0.286442
0.922899
-0.377893
0.0214516
-0.854975
0.833524
0.127216
0.00741553
0.0319969
-0.579147
0.822409
0.151392
-0.157711
-0.120323
0.278034
0.0409465
-0.494987
0.337276
-1.07078
-0.289666
-0.710109
-0.0629962
0.0121891
0.000967113
-0.221709
0.139566
0.0898939
0.0333613
-0.148143
0.114781
-0.621449
-0.460383
-0.00568647
0.0674345
-0.999116
0.446977
0.552139
-0.54609
0.373276
-0.0752605
0.255164
0.227813
-0.0223187
-0.0339433
-1.13253
1.20003
0.0348127
0.0706174
-0.271435
0.122662
0.213595
0.00949731
-0.429437
0.779924
0.558039
0.230833
0.874905
-0.794546
0.783806
-0.445409
-0.610462
0.173601
0.154125
-0.779587
0.759177
0.0204103
0.879698
0.178374
-0.217597
-0.135861
-0.177961
0.0337108
0.954773
-0.847144
-0.107629
-0.185283
0.111603
0.0270885
0.117831
0.903718
0.852568
-0.68914
-0.163429
-0.322334
-0.0403446
-0.553727
-0.445389
0.293239
1.23555
0.776868
-0.146917
0.188472
0.563251
-0.751722
-0.216449
0.0506579
-0.0215008
-0.000817824
-0.51011
-0.100352
0.155992
-0.215565
-0.188991
0.139851
-0.522098
0.262791
-0.988887
-0.687024
-0.290941
-1.33202
1.3605
0.0592865
-0.279739
0.0359615
-0.386006
0.128932
0.296948
0.0528347
1.24967
-1.03288
-0.191715
0.130949
-0.215474
-0.223455
0.438929
-0.0416273
0.00834472
0.0494062
-0.0556978
-0.236656
-0.114646
0.6835
-0.410025
-0.273475
-0.195891
0.133428
-0.0961223
-0.0373052
0.236751
0.0601971
0.0137448
-0.959624
-0.0967472
0.141416
0.82983
0.0227379
0.0217818
0.241307
-0.0232877
0.0167259
0.00656183
0.0257298
-0.075475
-0.24253
0.0763374
-0.113375
-0.544645
0.404801
0.0265061
0.214049
-0.0815671
-0.687918
1.04666
-1.14061
0.0155255
-0.194542
0.179017
-0.126266
-0.519592
0.645857
0.078845
-0.709272
-0.853694
-0.116741
-0.085723
0.000780002
0.084943
-0.247095
-0.658569
-0.183284
-0.130864
-0.669107
-0.232948
0.166571
-0.811272
-1.09661
-0.465899
0.370985
0.0949138
0.255927
0.112674
0.506961
0.423472
-0.930432
0.225539
0.0825769
0.81734
-0.0972119
-0.720128
-0.221834
-0.0689121
0.917149
-0.243561
0.181635
-0.811898
0.742985
0.386573
0.390064
-0.0489931
0.0780553
-0.0152973
0.880805
-0.649972
0.697355
0.0875385
-0.942397
0.203841
0.262487
0.660412
0.886286
0.00594279
-0.025761
-0.776868
-0.710109
-0.713167
0.720849
-0.0573866
-0.862852
0.705477
0.617253
-0.942679
0.919698
0.00433038
-0.783917
-0.312013
0.630873
-0.760886
0.130012
0.0802851
0.0531424
0.251686
0.0159995
0.986048
-1.00205
0.00733743
0.00485166
-0.265527
0.215645
0.709718
0.22013
-0.203812
-0.177283
0.874565
-0.882375
-0.211882
0.222572
0.58911
0.463842
-1.05295
-0.82765
0.798207
0.998534
-0.551557
0.10295
0.71455
-0.69855
-0.00811577
0.21676
-0.116664
0.0671215
0.0583823
-0.00767925
-0.0465767
0.0542559
-1.02086
-0.00995062
0.317378
-0.807722
-0.457145
1.15128
-0.694139
0.365183
0.645206
-0.0490064
0.0523193
-0.00331285
-0.0293596
0.903925
-0.723573
0.895497
0.50789
-0.965035
0.314867
-0.0981071
-0.580899
-0.407988
-0.399338
0.988449
-0.0421238
-0.850645
-1.58033
0.257287
0.71455
0.0489002
-0.856622
0.830803
-0.646579
-0.184224
-0.988294
0.407394
0.00630212
0.113488
0.00038076
-0.113869
-0.966197
0.558209
-0.213726
0.924052
-0.940838
0.192659
-0.210652
-0.0956373
0.243953
1.01598
0.0645925
-0.228916
-1.3472
0.0474109
0.854216
-0.922767
-0.553674
-0.513193
1.06687
0.446326
0.0172103
-0.00884541
-0.741638
0.731687
0.698312
-0.727671
-0.781052
0.72767
0.0533822
0.631685
0.519599
0.809821
-0.830038
-0.490887
-0.451094
-0.467684
-0.498513
0.80927
-0.80927
0.692737
-0.692737
-0.741638
-0.714331
0.714331
-0.72767
-0.538088
-0.355675
-0.407539
-0.817207
0.817207
0.698312
-0.727671
0.809821
0.78379
-0.78379
0.830038
0.760297
-0.760297
0.509113
0.532316
0.486807
-0.118896
-0.501487
-0.548906
1.08122
-0.526258
-1.05246
0.653118
0.531087
0.467447
0.0131217
-0.0122349
0.0981047
-0.879172
0.0944196
0.784752
-0.207999
0.161369
-0.994619
0.579461
0.921815
-0.612775
-0.126964
0.0104522
0.0077125
-0.7914
-0.0689424
-0.554827
-0.0103165
0.0141696
0.0423187
-0.232226
0.103378
0.185536
0.013635
-0.0213617
0.00772666
-0.810945
0.0676913
0.743254
0.473411
0.54257
-0.519402
0.412164
0.107237
0.929977
-0.743133
-0.186845
0.0857817
0.299341
-0.0136915
-0.0595061
-0.0612308
-0.0140655
0.235117
-0.976945
-0.81046
0.094428
-0.742814
0.789785
-0.0469706
0.118044
-0.884014
0.76597
-0.805346
0.916576
-0.11123
-0.122618
0.148348
0.0210798
-0.289319
0.52503
0.463419
-0.0839529
-0.795219
0.912975
-0.0849259
-0.828049
0.083709
-0.174613
1.0045
0.846025
-0.648474
0.476129
-0.385971
0.101024
-0.896243
0.936346
0.443067
-0.768361
-0.0155565
1.02773
-0.909682
1.20813
0.954948
-0.512001
-0.442947
-0.875978
-0.118641
-0.41278
0.0364397
-0.0914931
-0.056321
-0.792294
0.792294
-0.599428
-0.0887669
-0.864147
0.121014
-0.975621
0.866601
0.0721893
-0.204073
-0.056732
0.0559985
0.0117476
0.191572
0.836154
0.827809
0.775229
0.131767
-0.906996
-0.485861
0.953308
-0.754818
-0.113448
0.868266
0.171719
-0.895291
-0.672574
0.89626
-0.795236
-0.113029
0.460609
-0.0189585
-0.441651
-0.287319
0.900636
-0.613317
-0.439026
-0.302463
0.741488
-0.867847
-0.832471
0.0896568
0.513071
0.270735
-0.939368
0.593486
-0.670683
0.670683
-1.15514
-0.192059
0.313339
0.50907
-0.827959
0.873154
0.782812
-0.200229
0.920773
-0.568536
0.535655
-0.944118
0.408463
-0.280956
-0.727834
0.336036
0.469087
0.340719
0.436566
0.0928047
0.309782
-0.224
0.773818
-0.885048
0.557696
0.395612
-0.150504
0.729965
0.662618
-0.662618
-0.130843
0.138302
0.112501
-0.0791398
0.547076
0.35356
0.260512
-0.00121426
-0.00743835
0.00865261
-0.659821
0.688832
-0.0290108
0.427591
-0.939592
0.0940288
-0.889265
-0.976263
1.02229
-0.0460308
0.206688
0.877232
-0.643783
1.07137
-0.757498
0.601484
-0.656498
-0.640694
0.145573
-0.403937
0.0157926
0.162246
-0.930655
0.526718
-0.00806531
-0.994504
0.0610826
0.728702
0.67977
-0.0782857
0.0654047
0.768642
-0.458859
1.02151
-0.562653
-0.179512
0.51271
-0.105251
-0.923221
0.694324
0.228897
-0.67246
-0.124551
1.00107
0.0540873
-0.389433
-0.0477191
0.48795
0.51205
-0.767641
-0.117407
-0.490442
-0.541517
-0.474811
-0.5489
0.408335
0.591665
-0.225781
0.200037
-0.852567
-0.0650529
-0.591445
-0.164279
-0.238797
0.403076
-0.0561448
-0.00658994
0.113978
0.0728461
-0.126985
-0.115545
0.758591
-0.644144
0.709549
-0.398974
-0.531681
0.857834
-0.354926
-0.502908
-0.699863
-0.215418
0.915281
-0.237404
0.227184
-0.0226476
-0.107949
0.0127449
0.0241753
0.810795
-0.140111
0.118242
0.109571
-0.726378
0.0665568
0.906825
-0.467786
0.623727
-0.55582
0.849789
-0.302357
0.988484
0.000281408
0.374434
-0.123102
-0.0125487
-0.0959238
-0.190456
0.360589
0.546236
-0.444099
0.823232
-0.379133
0.848248
-0.0294491
-0.00789942
0.0373485
0.129503
-0.022282
-0.0022917
0.21444
-0.10593
0.165699
-0.993658
-0.807792
0.363693
-0.00463174
0.29156
0.468306
-1.18007
1.2774
-0.0973309
-0.786647
0.848315
-0.0616681
-0.371226
-0.27717
0.663744
-0.0727837
0.907665
-0.450972
-0.06843
0.288621
0.449433
0.171079
-0.620512
0.41145
0.0429862
0.645846
-0.57285
0.566043
0.00680728
0.897833
-0.768902
-0.0768104
0.0957316
-0.0189211
0.697744
-0.00757202
-0.0832833
0.0198578
0.780339
-0.763802
0.392576
0.157363
-0.0892806
-0.233117
0.144884
0.0647597
-0.209643
0.00435845
-0.0120377
0.668511
-0.765723
0.315433
0.219612
-0.0250571
-0.0895914
0.226934
0.0969804
0.00916731
0.172559
0.758826
-0.311699
0.779272
-0.467573
0.904597
-0.407041
-0.497556
0.632897
0.12228
-0.0923004
0.00601644
0.086284
-0.169368
-0.364459
-0.579658
-0.00443454
0.722977
0.69525
0.247861
-0.437763
0.68945
0.804615
-0.00201863
-0.029836
-0.874929
0.297251
-0.27679
0.185964
-0.171672
0.687576
0.0712504
0.0135743
0.754164
-1.03133
-0.208289
0.177416
0.0234993
-0.110174
0.419815
-0.0566842
-0.37775
-0.0696438
0.276946
0.646821
0.257776
-0.148
0.770683
-0.0416154
-0.112914
0.0349526
-0.00204127
-0.0329113
-0.95678
0.187879
0.0023246
0.93311
-0.219469
-0.602599
0.633324
-0.0307249
-0.111636
0.754133
-0.868588
0.36568
0.0810943
-0.176732
0.627343
0.12679
0.693492
0.250477
-0.26328
0.73941
-0.344895
0.891131
-0.595472
0.348016
0.247457
-0.504894
-0.070501
0.0408644
0.0662928
-0.0478264
1.22322
0.721574
0.0830415
0.607033
0.215004
-0.855277
-0.0801123
-0.689327
0.673771
-0.0259256
-0.578357
0.414078
0.851586
0.670329
0.323884
-0.0423505
-0.153282
-0.310837
0.892188
0.154476
-0.786174
0.0766205
0.53046
0.36067
0.668004
0.322334
-0.0787995
0.89614
-0.714578
0.903297
-0.188719
-0.413659
-0.181814
-0.105544
-0.137165
-0.0431527
0.988259
0.0382837
-0.0118779
0.620087
0.062608
-0.618428
0.605276
-0.134048
0.228798
0.731681
0.255909
-0.98759
0.261464
-0.908043
-0.154303
-0.986304
-0.175754
0.746331
-0.570576
-0.667508
-0.144801
0.0368522
-0.0546908
-0.903596
0.0164594
-0.0397471
0.878481
0.122454
-0.36013
0.237676
-0.0886449
-0.617401
0.166112
0.208322
-0.894273
0.00787896
0.00575609
-0.393598
-0.0539312
-0.597275
0.0244256
0.550741
0.300845
0.583651
0.938893
-0.23195
-0.371177
0.603127
0.152256
-0.625046
0.625046
-0.200419
-0.916321
1.11674
0.0307893
-0.152395
0.667665
-0.116924
-0.208814
-0.0495305
-0.339903
0.517479
0.517701
-0.384441
0.178373
-0.105547
-0.740345
0.481793
0.08425
0.0622446
0.0105697
-0.874751
-0.598752
-0.251985
0.698469
0.301531
-0.598752
0.698469
-0.610391
-0.246569
-0.610391
-0.703201
0.703201
0.296799
-0.0138976
0.0563637
-0.0769904
0.25031
0.195206
-0.480877
0.628088
-0.0228119
0.645608
-0.491911
-0.153697
-0.053239
0.0512398
0.0019992
0.000514792
-0.00172905
0.385674
0.01831
-0.148517
-0.431739
-0.351238
0.129529
0.0202217
0.846995
-0.283745
-0.155027
-0.230978
0.0170992
-0.27392
-0.00715404
0.653601
0.0693759
-0.321399
-0.0660135
-0.00432592
0.0144157
0.0803263
0.560526
-0.471197
-0.0893283
1.11228
0.549802
-0.797244
0.878253
0.0114571
-0.0632645
0.107659
-0.128631
0.226039
1.12522
-0.393541
0.0228319
-0.0858281
0.632898
-0.61128
0.020918
-0.020918
0.0213595
-0.0213595
-0.0321284
0.0321284
0.035742
0.368055
0.45649
-0.0706817
-0.713092
0.46483
0.184968
0.0294715
-0.0838912
-0.483266
1.00245
0.113368
-0.785828
-0.812899
0.179285
0.137395
0.0204988
-0.00204602
-0.0279963
0.0279963
0.810388
-0.0287763
0.0287763
0.711603
0.09509
-0.0477042
-0.0183093
0.00657664
-0.0677496
-0.0221636
0.0221636
-0.0250452
0.0250452
-0.0228381
0.0228381
-0.0233883
0.0233883
0.219292
-0.291041
-0.0817321
0.213705
-0.022809
0.022809
-0.378712
0.499072
-0.12036
0.491414
-0.214801
0.220332
-0.375359
0.55661
-0.088412
0.0842851
0.549039
0.581509
-0.0124661
0.0124661
0.342344
0.0255524
-0.0255524
-0.0215656
0.0215656
0.737886
-0.83058
0.0410451
0.525054
0.0096461
0.00490066
-0.00490066
0.0288577
-0.0288577
0.0185409
-0.0185409
0.0227275
-0.0227275
-0.0239665
0.0239665
0.035356
-0.035356
0.48818
-0.0321151
0.0321151
-0.00260896
0.00260896
0.0244098
-0.0244098
-0.0154485
0.0154485
0.0149757
-0.0149757
-0.0800416
-0.0265727
0.0265727
0.267201
0.0644116
-0.0397163
0.0397163
0.013968
-0.013968
0.0318375
-0.0318375
0.0337762
-0.0337762
0.0255838
-0.0255838
0.00694193
-0.00694193
-0.00608544
0.00608544
-0.435962
0.292814
-0.0229891
0.0229891
0.000182888
-0.000182888
-0.038379
0.038379
-0.0276319
0.0276319
-0.000692669
0.000692669
-0.403386
0.665872
0.266954
-0.0322643
0.0322643
-0.0642606
-0.0295679
0.0295679
0.00227936
-0.00227936
0.0369994
-0.0369994
0.0770919
-0.106928
0.00945271
-0.00945271
-0.0222558
0.0222558
-0.473788
0.0443394
-0.726082
-0.0311675
0.0311675
-0.433021
0.0333251
0.0189941
-0.299936
-0.642461
-0.037105
0.037105
-0.200873
0.144189
-0.0398965
0.00378231
-0.00378231
-0.00289174
0.0501171
0.256461
-0.320235
-0.266955
0.587189
0.188235
-0.0126415
0.0126415
-0.538696
0.339582
0.199114
0.729528
-0.377453
-0.352074
-0.461746
-0.631536
-0.426508
0.195529
-0.164011
-0.0155013
-0.577914
0.0175054
0.176909
-0.9684
0.0167994
-0.0167994
0.00407545
-0.00407545
0.0311148
-0.0311148
0.0256554
-0.0256554
0.00436657
-0.00436657
0.00375383
-0.00375383
-0.423911
-0.224987
0.166043
-0.293007
-0.00351948
0.00351948
-0.0439654
0.0439654
-0.0407929
0.0407929
0.243284
0.0395941
-0.282878
0.00491347
0.306796
-0.526265
0.00210072
-0.00210072
-0.0270327
0.0270327
-0.0916549
-0.461185
0.0346772
0.00479525
-0.00479525
0.177768
0.0175241
0.997007
-0.481661
-0.0802434
0.561904
-0.624894
-0.313173
0.22168
-0.0376539
0.0376539
-0.681036
0.271709
0.0504546
-0.0504546
-0.650229
0.378209
0.259303
0.114089
0.0056132
-0.0056132
-0.831695
0.00464609
-0.00464609
0.306518
0.408505
0.139931
-0.0546385
0.0546385
0.0050324
-0.0050324
-0.0429124
0.0429124
-0.0524054
0.0524054
0.00586845
-0.00586845
-0.0578729
0.0578729
0.0058351
-0.0058351
-0.046335
0.046335
-0.00297904
-0.0439753
0.0439753
-0.00660326
0.00660326
0.0489698
-0.0489698
0.00421276
-0.00421276
0.0467537
-0.0467537
-0.139357
6.87906e-05
-6.87907e-05
-0.00412483
0.00412483
-0.0929725
0.0810905
-0.0120203
0.0120203
0.00199642
-0.00199642
-0.0607355
0.0607355
0.301041
-0.0207759
0.0207759
-0.0560334
0.0560334
-0.00701881
0.00701881
-0.0689879
0.0689879
-0.0135575
0.0135575
-0.0828176
0.0828176
-0.0232092
0.0232092
-0.0925478
0.0925478
-0.664887
-0.151108
-0.529402
0.498677
-0.882435
-0.197021
-0.550243
0.37857
0.0874191
-0.28331
-0.00197935
0.00197935
0.334737
-0.697688
0.0452164
-0.0346467
-0.559705
0.780706
0.607729
0.252617
-0.0628911
0.0286134
-0.386856
-0.573316
-0.0795555
0.383705
-1.13393
-0.0220322
0.0220322
-0.738531
0.0187251
-0.0187251
-0.00335541
0.00335541
0.336024
-0.175247
0.00315305
-0.00315305
0.0190072
0.0145072
0.592794
0.0501612
-0.00738463
-0.0125036
-0.0132574
-0.101501
0.495269
-0.393768
0.412899
-0.0768624
0.0062633
1.23137
-0.00267472
0.0523087
-0.409386
0.445826
-0.489629
-0.964354
-0.271634
-0.0732512
0.0181542
-0.702003
0.39954
0.0663352
-0.00523282
-0.0205984
0.764626
-0.543745
-0.0381875
0.0616868
-0.0367796
-0.265501
0.321864
0.419911
0.233429
-0.173555
0.210372
0.0258622
-0.00230424
-0.646412
0.0480274
-0.101877
-0.258254
-0.0188507
-1.02672
-0.069924
0.264001
-0.349255
0.392542
-0.097437
-1.23458
0.0770789
-0.0220753
-0.152538
-0.344844
0.452081
-0.110819
-0.0178106
0.128629
-0.0276619
0.0276619
0.165823
-0.438852
-0.113725
0.144251
-0.0819637
0.0560381
-0.063414
-0.00528362
0.0686977
-0.0519223
-0.155573
0.154003
-0.106383
-0.277157
-0.345441
0.622598
0.0156422
0.0606744
0.150377
-0.0321356
-0.160314
0.0729984
-0.156645
0.310771
0.0108772
0.0264713
-0.0228701
0.173247
0.00436171
0.26049
0.0012548
-0.0012548
-0.16358
0.831584
0.0908878
-0.171
-0.068168
-0.00516181
0.456294
0.61508
0.0113269
-0.0421629
-0.521522
-0.00788051
-0.353324
0.0965707
-0.67925
0.301357
-0.0569075
0.359882
-0.637039
0.19288
0.501444
-0.0930913
0.0930913
0.00038076
-0.925381
0.467299
0.458082
-0.212277
0.157586
-0.290465
0.362421
-1.09868
-0.205904
-0.0765445
0.0927382
0.926264
0.464282
-0.140398
-0.0680886
-0.371201
-0.593833
-0.127052
-0.26823
0.782958
0.554255
-0.247459
-0.278632
0.570192
0.476756
0.288294
-0.263474
0.167615
-0.447966
0.327606
0.122019
-0.122019
0.132894
-0.149023
0.0161292
0.0077457
-0.00133824
0.0167259
-0.187563
0.018195
0.221144
-0.188035
-0.0331096
0.53625
-1.07729
-0.190658
-0.785521
0.68455
-0.112207
-0.1808
-0.0357047
-0.0789413
-0.486706
0.0549674
-0.288069
0.00538792
-0.0188507
0.381971
-0.00521321
-0.000290919
0.000579292
0.0135364
-0.0203164
0.00677994
-0.113974
-0.0199535
-0.169735
0.189688
-0.117383
-0.330583
0.0190072
0.343641
0.00256049
-0.374517
0.0835754
0.00271425
0.178782
-0.249463
-0.0125025
0.0125025
-0.00133775
0.00381244
-0.00936742
0.00124342
-0.0859786
0.000563904
-0.00112838
0.321529
0.0500174
0.00437758
-0.00437759
0.18203
0.503917
0.0020561
-0.299014
0.547797
1.14535
-0.462227
0.323715
-0.434662
-0.27727
0.163546
0.224238
-0.225121
-0.0157058
0.0311336
-0.00695828
0.00231698
-0.176966
-0.375139
0.83997
0.343657
-0.767568
0.232861
-0.00157983
0.416106
-0.209419
0.000710225
0.00143412
0.0296995
-0.235738
0.00133729
-0.000471661
0.697513
-0.624515
-0.244988
-0.365713
0.552579
0.00209647
0.00336727
-0.0398965
-0.00558369
0.80885
-0.42505
0.5093
-0.793502
0.893196
-0.795469
0.569753
-0.191183
0.68758
0.00280703
0.00243332
0.0180655
-0.102829
0.131718
-0.0619401
0.00815079
0.0105649
0.0663215
-0.0522273
-0.0140942
0.0031888
0.0473247
0.0354769
-0.0828015
-0.0989059
-0.00809316
0.000654811
-0.00222568
0.484877
-0.432931
-0.00480479
0.00140805
0.810879
-0.34358
0.380585
-0.00599015
0.000293142
0.458164
-0.142731
-0.0426388
-0.105415
-0.0154704
-0.00368789
0.121387
0.0848616
-0.00219299
0.396198
0.00273003
-0.00550781
0.00550781
0.0125897
-0.0250933
0.000847087
-0.319507
-0.00369536
0.0728072
-0.106069
0.206816
0.115579
-0.0618277
0.00141877
0.00419362
0.445632
0.00124664
-0.00682077
-0.098723
-0.00211952
0.00194747
-0.0688021
0.329314
-0.70278
0.452385
-0.827524
-0.061645
0.000237138
-0.733294
0.197132
-0.104327
0.571739
-0.0147515
0.0145227
-0.00418387
-0.00148488
-0.554246
-0.00342259
-3.33496e-05
-0.0551454
0.947439
-0.535988
-0.0026348
-0.00162234
-0.00609703
-0.00414397
0.0777344
-0.0219455
0.0219455
-0.0652075
0.0690199
-0.00502239
-0.00825239
0.06287
-0.0631609
-0.165164
0.0946627
-0.00653869
-0.0138297
0.0403818
-0.0172131
0.0632014
-0.0450472
-0.630771
0.5838
0.0574452
-0.00397577
0.417896
-0.140951
-0.0690799
-0.66497
-0.0724844
-0.114435
-0.0948532
0.0927337
0.680426
0.00210061
0.0382594
-0.0348921
0.344096
0.0578655
-0.140687
0.0828217
-0.0700737
-0.61261
0.839851
-0.52774
0.0196577
0.0126066