/*--------------------------------*- C++ -*----------------------------------*\
| =========                 |                                                 |
| \\      /  F ield         | OpenFOAM: The Open Source CFD Toolbox           |
|  \\    /   O peration     | Version:  2306                                  |
|   \\  /    A nd           | Website:  www.openfoam.com                      |
|    \\/     M anipulation  |                                                 |
\*---------------------------------------------------------------------------*/
FoamFile
{
    version     2.0;
    format      ascii;
    arch        "LSB;label=32;scalar=64";
    class       volVectorField;
    location    "5.9";
    object      U;
}
// * * * * * * * * * * * * * * * * * * * * * * * * * * * * * * * * * * * * * //

dimensions      [0 1 -1 0 0 0 0];

internalField   nonuniform List<vector> 
2186
(
(1.24476 -0.030831 1.98141e-19)
(1.61352 -0.927679 -9.32995e-20)
(1.45376 -0.905301 9.19969e-22)
(0.749304 -0.587108 -1.27028e-19)
(-0.670549 0.584454 -2.83522e-19)
(1.02545 -0.00861621 0)
(0.721099 -0.668763 0)
(-0.502305 -0.668335 1.57071e-19)
(1.93818 -0.136318 2.46202e-19)
(0.55468 -0.300965 -2.1724e-21)
(0.675911 0.611072 0)
(0.911827 -0.243073 -1.39253e-19)
(-0.549412 -0.698233 -6.3872e-20)
(1.07693 0.0173359 -3.18363e-19)
(1.81266 -0.659958 -9.7423e-20)
(1.01166 -0.0134412 1.49834e-19)
(1.00388 0.00942218 0)
(-1.06743 0.156048 0)
(1.03525 0.00490819 0)
(-0.103098 0.39596 -8.62127e-20)
(0.480209 0.0864413 -1.00228e-19)
(-0.185761 0.132022 1.1341e-19)
(1.07848 0.0198544 2.64928e-19)
(-0.284526 -0.0165211 8.19772e-21)
(1.02338 -0.00750921 -2.08044e-19)
(0.7986 -0.563676 0)
(0.7495 -0.0392835 1.25911e-19)
(0.615593 -0.598272 -1.44083e-19)
(1.20746 0.708537 0)
(0.95406 0.00503279 -2.84462e-19)
(-0.0206076 0.0656884 0)
(1.02867 -0.00628693 9.8047e-21)
(0.0689844 0.606799 0)
(1.44643 0.328249 4.67094e-20)
(-0.0741404 -0.42734 1.24494e-20)
(1.55547 0.759596 1.96938e-20)
(1.18573 0.116272 3.30257e-20)
(0.509066 0.133381 -2.97927e-19)
(2.10681 0.0663533 -4.24343e-19)
(1.0418 -0.0138224 -5.92946e-22)
(-0.633153 -0.714489 0)
(-0.176932 0.117669 0)
(1.88964 -0.856497 9.32591e-20)
(-0.303425 0.223492 0)
(1.09909 0.277107 1.2625e-19)
(0.598467 -0.282999 2.47397e-19)
(0.915981 -0.780059 0)
(1.17755 -0.791045 8.6974e-20)
(1.35649 -0.423611 0)
(-0.693495 0.741617 3.43219e-19)
(-0.00458648 0.173798 1.27607e-19)
(0.628662 0.5794 6.37796e-20)
(2.06226 -0.727837 1.084e-19)
(0.595483 0.263998 -2.38222e-19)
(-0.14214 0.573792 4.22353e-20)
(0.77133 -0.663202 0)
(1.67645 -0.955898 1.87763e-20)
(0.589012 -0.551238 0)
(2.29337 0.085883 1.40036e-19)
(1.08863 -0.16454 -3.19911e-19)
(1.01116 -0.0245112 2.67891e-20)
(1.3247 0.302382 -1.36251e-19)
(1.32962 0.524365 0)
(1.07571 -0.0155479 6.49631e-22)
(1.35037 0.369036 -7.70376e-20)
(1.23522 -0.732526 -1.19245e-19)
(1.1693 0.656731 4.01287e-20)
(0.673168 0.0593347 -4.83405e-19)
(0.814667 0.0547296 0)
(2.46937 -0.0144722 -6.69768e-20)
(-0.496838 -0.739313 -1.8342e-19)
(1.23717 -0.191447 -1.57186e-20)
(0.709626 -0.0503323 -2.13191e-19)
(0.877194 -0.518288 0)
(0.825902 0.169935 -7.7802e-20)
(0.558223 -0.517649 -2.59564e-19)
(1.33953 -0.247726 0)
(1.01302 0.0062586 3.102e-19)
(-0.0789945 -0.561918 0)
(2.07039 0.3856 0)
(1.31055 -0.480399 1.90104e-19)
(1.00917 0.00826447 2.35371e-21)
(1.05686 0.000505969 3.43598e-20)
(1.31202 0.400707 2.01449e-20)
(0.956289 0.00368635 3.60127e-19)
(1.03993 0.0182939 -8.56582e-21)
(0.670502 0.164186 -2.87418e-19)
(1.02383 -0.0064389 2.83559e-22)
(0.751912 0.0156663 0)
(0.0262784 0.0544752 1.04148e-19)
(0.866042 -0.63503 -1.39246e-19)
(-0.152345 0.777761 -7.96954e-21)
(1.09093 -0.0885228 2.12168e-19)
(0.804073 -0.188035 0)
(0.974707 0.0402025 3.45706e-20)
(1.37343 0.636556 0)
(1.61704 -0.936453 0)
(1.3087 0.190062 0)
(-0.721799 0.690629 0)
(0.800593 -0.679244 2.49304e-19)
(0.802655 -0.972473 -2.55602e-19)
(1.08392 -0.910745 2.4464e-19)
(1.45559 0.161914 0)
(1.07569 -0.125802 -1.93973e-19)
(1.07466 0.0295704 1.53777e-19)
(-0.0159161 0.741216 1.97118e-19)
(0.638629 0.510285 0)
(2.13903 -0.0782969 -1.21989e-19)
(0.95571 -0.478057 6.96079e-20)
(0.609962 0.163149 -2.60499e-20)
(1.84519 0.299427 1.33643e-19)
(-0.4522 0.787037 -4.55959e-19)
(0.812518 -0.740235 0)
(0.567349 0.345385 1.43842e-19)
(1.88572 -0.280379 -6.87939e-19)
(-0.573519 -0.381613 -5.89198e-19)
(1.03681 0.00699142 -6.11407e-21)
(1.25622 -0.30552 0)
(-0.00192885 0.0512385 -3.14007e-19)
(0.692205 -0.0869454 6.75652e-20)
(1.57529 0.874573 0)
(-0.378734 0.605372 -5.45064e-19)
(0.884303 0.758849 -2.17384e-19)
(-1.07449 -0.0913363 5.1351e-19)
(1.01165 -0.00712076 0)
(1.04077 0.00101173 7.70316e-21)
(-0.633932 0.754221 0)
(0.707714 -0.491959 -9.27414e-20)
(-0.960737 0.0218235 -3.0251e-19)
(0.786608 -0.720806 0)
(0.434378 -0.269599 3.62545e-19)
(0.549469 -0.455974 2.43955e-19)
(0.410622 -0.371248 0)
(0.982244 -0.787366 -1.00952e-19)
(1.06462 -0.700385 0)
(-0.27419 0.785327 -2.69189e-19)
(0.818537 -0.710974 1.17924e-19)
(2.24937 -0.0504615 3.00265e-19)
(2.05429 0.0425675 0)
(-0.17223 -0.400391 0)
(0.684591 0.634764 -2.64156e-19)
(1.80056 -0.599974 1.50135e-20)
(-0.332902 -0.432735 0)
(0.984016 -0.81496 -1.11222e-20)
(1.07598 -0.0858147 0)
(1.05726 -0.102953 3.3746e-19)
(2.08529 -0.122572 -1.21771e-19)
(-0.680564 0.558195 0)
(1.19396 -0.555052 -4.45259e-20)
(0.00921812 0.545225 -5.27987e-20)
(-0.46517 0.810332 0)
(1.08906 -0.821388 1.19886e-20)
(1.00058 -0.000999571 -5.18329e-19)
(0.66054 -0.476515 -9.14489e-21)
(0.8254 -0.515268 0)
(1.18661 -0.735454 -7.39803e-20)
(0.658356 0.225008 2.23194e-19)
(1.22054 0.109674 0)
(1.56457 0.0474622 -1.19961e-19)
(1.18984 -0.858092 -1.47219e-19)
(-0.143779 -0.338787 -1.27466e-19)
(-0.564126 -0.278043 -3.70991e-19)
(1.04392 0.00721137 1.92087e-19)
(0.920662 -0.455594 -8.75382e-20)
(1.02948 -0.00120984 -2.62517e-22)
(1.03546 0.00883193 -1.34574e-21)
(0.749215 -0.0820488 1.23166e-19)
(-0.0348958 0.000212333 -2.43977e-19)
(1.06011 -0.0169172 0)
(1.07692 0.0194025 -1.52468e-21)
(1.43206 0.630988 8.32998e-20)
(0.817218 -0.62464 -1.81855e-19)
(0.994893 0.00806874 1.06341e-20)
(0.731595 -0.534238 2.55014e-19)
(1.3056 0.790671 8.03568e-20)
(1.78738 -0.0910151 2.0788e-20)
(-0.685357 0.405691 0)
(1.04799 0.0617933 -1.9892e-19)
(-1.1354 0.196789 -3.08961e-19)
(1.06569 0.476446 6.37722e-20)
(0.167058 -0.019289 1.47394e-19)
(1.08489 0.0268009 -3.67305e-20)
(-0.0822126 0.498206 -2.15523e-19)
(1.30224 0.575258 -5.19207e-20)
(1.13762 0.881942 0)
(-0.702282 0.396531 -1.38718e-19)
(-0.230121 -0.112549 0)
(0.653109 0.565036 -2.3008e-19)
(1.98171 0.0292944 -2.50361e-20)
(-0.621963 -0.626623 2.13496e-19)
(-0.948967 0.0666573 -8.31727e-19)
(0.722522 0.0662172 2.12196e-19)
(1.83057 -0.655503 -2.24044e-20)
(0.981009 -0.334398 -2.57221e-20)
(-0.0133271 -0.0664898 0)
(0.707985 0.146842 -4.57734e-20)
(1.33829 0.969824 1.81246e-20)
(0.836784 0.0662467 -1.15299e-19)
(0.553989 0.520878 1.5915e-19)
(0.534783 0.186181 0)
(-0.385923 -0.881281 -3.68266e-19)
(0.843596 0.0192079 -3.34071e-20)
(1.2921 -0.950618 2.07754e-22)
(0.981617 -0.0403605 -1.61697e-19)
(-0.287163 -0.0927635 5.92433e-21)
(-0.368587 0.443263 2.29083e-19)
(-0.393486 -0.182823 -1.98745e-19)
(1.22954 -0.304763 0)
(1.07866 0.0548528 -2.66681e-19)
(1.67386 -0.429301 7.6802e-20)
(1.2555 -0.618102 7.7378e-20)
(1.00945 0.0152763 -9.83934e-22)
(0.593694 0.322565 0)
(0.940509 0.745516 -1.27137e-20)
(0.681379 0.626135 1.46665e-19)
(0.901203 -0.57143 1.25941e-19)
(0.682946 0.504182 0)
(1.02199 -0.015433 6.92027e-21)
(0.887652 -0.677507 1.79246e-19)
(0.825984 0.419763 -3.7969e-19)
(1.29041 -0.114253 0)
(-0.244372 -0.224726 -3.92288e-19)
(0.0118745 0.790133 -1.44014e-19)
(1.58527 0.709327 0)
(1.34446 -0.930235 -1.77794e-22)
(-1.04849 0.335552 0)
(-0.671541 0.74207 1.80624e-19)
(0.733158 0.652393 -7.97346e-20)
(0.841572 -0.216757 0)
(0.0652827 -0.478393 0)
(1.65411 -0.420729 0)
(0.534394 -0.320787 -6.18286e-20)
(1.20702 -0.879851 9.62877e-20)
(1.15447 -0.611795 4.94516e-20)
(1.09726 -0.129439 -1.4009e-19)
(0.884302 -0.708486 -1.4081e-19)
(0.190041 -0.194311 0)
(-0.828787 -0.510057 0)
(0.991907 -0.514391 1.46188e-19)
(-0.277957 -0.507455 0)
(-0.675962 0.630392 0)
(-0.556154 -0.352774 5.02374e-19)
(0.788516 0.669148 6.91815e-20)
(1.01013 0.788271 0)
(0.694712 0.556921 -7.04955e-20)
(0.813795 -0.0481228 -1.91473e-19)
(0.74114 0.564524 -1.87899e-19)
(0.589384 0.549999 -1.37039e-19)
(-0.45131 -0.79094 8.01069e-21)
(0.721976 -0.651943 0)
(0.890152 0.166135 -2.70599e-19)
(-0.592166 -0.782864 8.67485e-20)
(0.600781 0.557517 3.04346e-19)
(0.954198 0.792556 0)
(0.437207 -0.479157 -1.45359e-20)
(-0.0800823 -0.784079 4.08901e-19)
(0.162329 -0.705835 -2.27211e-19)
(0.663155 0.573132 -1.2251e-20)
(0.993555 -0.0103645 5.09822e-20)
(-0.631736 -0.680813 0)
(1.92281 0.367827 -1.85653e-19)
(1.09645 -0.0533338 9.56929e-21)
(0.659097 -0.613886 -6.36966e-20)
(-0.851022 -0.1454 1.61737e-20)
(1.1823 0.447848 1.37436e-19)
(0.866766 0.409132 0)
(1.06599 -0.211703 1.61414e-19)
(0.183182 -0.812088 -1.77344e-20)
(-0.073121 0.300379 5.01216e-19)
(0.960293 0.0196844 -4.45492e-20)
(1.13439 0.128458 0)
(1.77645 0.151992 -1.86114e-19)
(1.78364 -0.0683177 0)
(0.544575 0.246029 -3.93127e-19)
(-0.398821 0.528663 0)
(-0.484424 -0.70937 3.58388e-19)
(0.878013 0.0338234 0)
(0.63087 -0.516219 -1.57337e-19)
(1.04189 -0.000525765 1.76517e-19)
(-0.780683 0.509347 6.63577e-20)
(1.46659 -0.0962875 -8.61529e-21)
(2.18348 -0.183199 -1.42665e-19)
(1.10177 0.220925 -1.77759e-19)
(-0.581808 -0.782347 -1.73862e-19)
(1.07201 -0.853938 0)
(0.825461 0.0172479 -1.28388e-19)
(0.931392 -0.353698 -2.46352e-19)
(1.72342 -0.559967 -7.75096e-21)
(1.70192 -0.0769767 1.85239e-19)
(1.05487 0.000780937 3.19804e-19)
(0.0382142 -0.789293 -2.68629e-19)
(0.983854 -0.429476 -1.06049e-19)
(0.199742 -0.191926 2.22604e-19)
(1.00657 0.0081354 0)
(1.00013 -0.0229591 0)
(1.04389 -0.110988 -9.42866e-21)
(-0.177003 0.712783 -1.7738e-19)
(0.199488 -0.115992 -1.48506e-19)
(0.855014 -0.0813684 7.17465e-21)
(1.21472 -0.534825 0)
(1.74117 -0.70839 -3.84607e-20)
(0.938655 -0.816428 -5.82987e-20)
(1.82851 -0.527841 -8.18547e-20)
(1.10315 0.830116 0)
(0.480601 -0.460561 0)
(0.605885 0.522331 -1.47964e-19)
(1.09049 0.271797 -3.24697e-19)
(2.1169 -0.120789 4.15392e-22)
(0.862478 0.147745 1.16599e-19)
(-0.157652 -0.636104 -8.99951e-19)
(1.02452 -0.00478713 2.58208e-21)
(-0.753986 -0.58873 0)
(-0.149072 -0.423272 0)
(-0.708935 -0.551934 0)
(1.32799 -0.71809 -5.93819e-20)
(-0.493262 0.8433 -3.49009e-19)
(-0.221181 0.481132 0)
(1.29526 0.970817 -1.14439e-20)
(1.08798 0.148389 -3.41544e-19)
(1.11783 0.0128076 -9.09103e-22)
(1.08198 0.920081 4.59866e-20)
(-0.435131 0.894385 2.35595e-19)
(1.01111 -0.00744921 0)
(-0.704066 -0.448889 -4.39808e-19)
(-0.562453 0.867021 4.36781e-19)
(0.773527 0.0251947 1.56555e-19)
(1.54383 0.931444 4.81372e-20)
(1.05603 0.0109142 4.23771e-21)
(-0.236002 0.752157 -4.11521e-21)
(0.7471 -0.685987 -3.03075e-20)
(1.29434 -0.0497776 0)
(1.66409 0.123007 0)
(1.18899 0.0589568 0)
(0.893907 0.0637057 3.05224e-20)
(-0.73274 -0.579673 1.68245e-19)
(1.04412 0.838252 0)
(0.982208 -0.0159987 4.33323e-19)
(0.763795 0.606649 -1.87136e-19)
(0.771589 0.022419 2.31168e-20)
(0.85546 0.014861 -3.49773e-20)
(0.719587 -0.661789 -1.8242e-19)
(1.39254 0.69457 -1.57642e-20)
(0.569926 -0.446896 -2.53718e-19)
(1.03327 -0.014284 -3.8668e-19)
(0.901621 0.00232593 3.73024e-20)
(1.5048 -0.124327 4.83885e-20)
(0.941423 0.0189282 -3.73827e-21)
(-0.0874209 -0.152156 7.5635e-22)
(1.07286 0.456669 -2.13338e-19)
(1.39404 0.620678 1.04933e-19)
(0.172719 -0.748239 0)
(-0.142909 -0.559694 3.31403e-19)
(-0.33601 -0.293295 1.64856e-19)
(-0.191325 -0.0799217 -1.43635e-19)
(0.479284 0.316018 0)
(1.04992 -0.0767099 0)
(0.0773533 -0.07686 -1.81262e-19)
(-0.504231 -0.847668 -1.08735e-19)
(1.01359 -0.00395102 1.5331e-19)
(-0.604332 0.455188 -6.52697e-20)
(1.30409 -0.59183 -4.12325e-20)
(-0.067119 0.802422 0)
(0.833235 -0.743934 -2.44509e-19)
(0.964707 0.0150093 1.67475e-21)
(-0.878492 -0.0242567 2.4192e-19)
(0.723187 0.150864 2.79794e-19)
(0.621012 0.12523 9.11056e-20)
(0.510297 -0.482804 1.74396e-19)
(-0.369779 -0.505388 -1.89142e-19)
(1.04984 0.0146671 0)
(0.396982 0.349337 -1.66058e-19)
(1.02913 -0.00477268 -2.44553e-19)
(-1.03921 0.0615415 3.28999e-19)
(1.42267 0.455726 -7.12673e-20)
(-0.321682 -0.584008 -6.91241e-20)
(0.684839 -0.623543 -2.54441e-20)
(0.819461 0.176279 -1.73276e-19)
(0.960289 0.41192 1.84974e-20)
(1.08458 -0.129724 2.97185e-20)
(0.604656 -0.222378 -2.5959e-19)
(2.01578 -0.321533 -1.65813e-19)
(0.693797 -0.0119108 0)
(1.04449 0.00111435 -8.70121e-22)
(0.845233 0.10482 -6.0861e-21)
(1.66546 0.377519 2.41848e-19)
(1.13466 0.301308 -2.162e-19)
(1.05817 0.0012045 -4.44031e-21)
(0.422791 0.392929 -2.13716e-19)
(-0.643496 0.0681343 4.73046e-19)
(2.4604 0.263139 0)
(0.982827 -0.00305529 0)
(0.868911 -0.770914 4.58e-20)
(-0.147049 -0.814993 -4.46203e-19)
(-0.819607 -0.305354 -2.14995e-19)
(-0.1365 -0.242551 -2.83209e-19)
(-0.762633 0.589528 -2.80515e-19)
(-0.726313 -0.480502 0)
(-0.114902 -0.329399 4.66244e-20)
(0.41497 0.745807 -1.48318e-19)
(-0.405945 0.492764 -5.24081e-19)
(0.783094 -0.1271 0)
(1.06901 -0.0304078 -5.04949e-21)
(-0.329917 -0.347029 0)
(1.00949 0.0298776 3.09792e-19)
(-0.309812 -0.475319 2.40048e-20)
(0.544632 -0.417303 3.40087e-19)
(-1.05268 0.0246759 5.13015e-19)
(0.28651 0.0452274 0)
(0.319985 0.700836 2.1441e-19)
(1.05381 0.025883 -9.40253e-21)
(0.0265958 -0.24121 0)
(1.01027 -0.0204278 -4.86325e-20)
(0.863997 -0.737894 -2.36978e-19)
(1.03959 -0.122021 0)
(0.937687 -0.257307 1.75629e-19)
(-0.113246 0.523533 4.55075e-19)
(0.0539158 0.0495963 0)
(-0.563383 -0.74668 -1.1161e-20)
(0.734919 -0.644557 -3.60646e-19)
(1.04602 -0.0408451 -2.23597e-19)
(-0.195123 -0.905756 6.19469e-19)
(-0.405087 -0.716005 2.16749e-19)
(-0.734863 -0.626156 0)
(0.943312 0.463953 0)
(-0.442158 -0.170984 3.68241e-19)
(1.85762 0.780899 -1.07236e-19)
(1.0747 0.892401 1.24529e-20)
(1.04847 0.206258 -1.01917e-19)
(1.14549 -0.0195197 -1.85301e-19)
(1.11619 -0.0585786 -6.47998e-20)
(-0.167196 -0.878496 -5.7672e-19)
(1.39599 -0.125627 2.03043e-19)
(0.825119 0.0413151 1.6949e-19)
(1.50338 0.190906 6.53835e-20)
(1.08511 -0.119418 0)
(0.791635 0.549992 -1.59767e-20)
(1.09254 0.00990855 -4.19619e-19)
(1.72734 0.591772 -2.5948e-20)
(0.75004 -0.446016 -1.38273e-19)
(0.0221077 0.0530788 2.34994e-19)
(0.800668 -0.708404 3.12758e-19)
(1.23266 0.187483 5.72801e-20)
(0.999297 -0.0205215 2.15053e-19)
(0.0729047 -0.81191 -3.01356e-19)
(1.01838 0.0124834 0)
(0.98228 0.0370053 -4.67753e-20)
(0.0484078 0.0390653 0)
(1.03974 0.0224222 -1.26957e-19)
(0.60161 -0.149018 7.55696e-20)
(1.66681 0.248366 6.11227e-21)
(-0.487199 -0.280658 2.13655e-19)
(1.60459 0.0824905 -2.66067e-20)
(0.997784 -0.0182153 4.4024e-20)
(1.32598 -0.0857549 0)
(1.44253 -0.597956 -9.78159e-20)
(0.995193 0.0170526 -1.304e-19)
(1.44395 0.780869 -6.23567e-21)
(1.33821 -0.0182838 0)
(1.06442 -0.00773716 1.46451e-21)
(0.0690989 -0.0747498 0)
(1.45346 0.0882496 0)
(-0.725143 -0.665527 0)
(1.22453 0.43802 0)
(2.01549 0.257496 6.97247e-20)
(0.738342 0.617568 3.27746e-19)
(0.296727 -0.298544 -2.06432e-19)
(-0.486995 -0.833547 -5.41671e-19)
(-0.000913201 -0.0661053 0)
(1.1059 -0.0270688 2.75055e-21)
(1.45969 0.492153 0)
(1.46693 0.255205 0)
(-0.732136 -0.419237 1.94864e-19)
(0.806003 0.71002 9.91717e-20)
(1.71998 0.0324478 0)
(-0.544317 -0.626946 1.21572e-19)
(0.895193 0.210452 1.58779e-19)
(1.0878 0.00445577 1.1853e-21)
(1.2429 0.921243 2.68536e-20)
(0.915194 -0.82291 -2.27978e-20)
(0.694211 -0.00236171 1.89385e-21)
(0.792762 0.714471 1.00482e-19)
(1.18167 0.921874 0)
(1.16774 -0.132149 1.74516e-20)
(1.02487 0.279094 0)
(1.03048 -0.0214176 -5.32157e-21)
(0.951042 0.0764099 1.99962e-19)
(1.01268 -0.01084 0)
(0.846511 0.378227 -3.91545e-20)
(0.872641 -0.177987 4.07135e-20)
(0.636735 -0.398219 0)
(0.675365 -0.367954 1.82807e-19)
(1.22845 0.546487 -2.48269e-20)
(0.476127 0.45073 2.30696e-19)
(-0.458868 0.579595 6.21729e-20)
(0.354262 0.379579 1.18309e-19)
(0.848271 0.0549038 0)
(1.31741 -0.894913 -4.04812e-20)
(1.0584 -0.00704572 3.39307e-19)
(1.55839 0.26117 1.71166e-19)
(-0.557553 -0.618533 1.05621e-19)
(-0.639242 0.397405 0)
(1.14504 -0.222496 -9.48399e-20)
(0.0525304 0.0358509 -2.13741e-19)
(0.746651 1.05087 -5.47676e-21)
(-0.148757 0.0247685 -4.29453e-22)
(-0.234311 0.10156 3.89383e-19)
(1.03165 0.00099251 -5.58665e-22)
(2.04145 0.191226 2.48725e-19)
(1.19271 0.450103 -2.21629e-19)
(1.07818 -0.0833849 0)
(1.65288 0.0903827 1.80947e-19)
(1.65614 0.0629465 7.31213e-20)
(0.911409 -0.773924 1.14429e-19)
(1.1511 -0.965449 -1.75804e-20)
(0.47921 0.446081 1.53499e-19)
(1.15288 0.483893 0)
(1.78635 0.540432 5.96263e-20)
(0.0393786 -0.00782514 -4.37301e-19)
(0.883183 0.767844 0)
(1.03274 -0.0136051 0)
(0.297739 -0.297099 -3.73708e-21)
(0.329795 0.309742 0)
(-0.963452 0.172309 -2.64696e-19)
(-0.565618 0.720418 -1.89337e-19)
(1.76221 -0.357231 0)
(1.27899 0.0294552 8.60628e-20)
(-0.293888 -0.835228 1.87996e-19)
(0.541379 -0.515606 -3.94837e-19)
(1.6228 0.133673 -2.50404e-20)
(0.618658 -0.564069 0)
(1.08264 0.115153 0)
(1.29404 -0.247353 0)
(1.10237 0.2215 -1.89404e-19)
(1.25293 0.0651242 2.66015e-19)
(0.198833 -0.0870553 0)
(0.915672 -0.062657 0)
(1.18793 -0.0758563 8.94171e-21)
(-0.182294 0.505977 1.43903e-19)
(1.622 -0.373785 -9.84013e-20)
(1.0886 -0.51259 2.05153e-19)
(1.14679 -0.155853 -9.54643e-20)
(-1.16872 -0.293911 -2.32211e-19)
(1.70649 -0.102458 -1.5198e-19)
(1.00442 -0.0162101 3.50789e-19)
(1.53647 0.58058 0)
(-0.628219 0.758047 4.998e-20)
(0.99997 -0.831329 1.36319e-19)
(0.847031 -0.0115545 4.08839e-20)
(0.641361 -0.423295 0)
(1.93067 -0.504528 8.27803e-21)
(1.21168 -0.208005 1.23717e-19)
(1.05045 -0.0372239 0)
(0.607376 -0.56634 3.61242e-19)
(0.938229 -0.0186815 -5.91721e-22)
(1.59298 -0.606943 1.65937e-19)
(-0.274787 0.650081 -3.14523e-19)
(1.32674 0.608149 9.96151e-20)
(1.14421 0.398621 2.89113e-21)
(0.884035 0.37012 1.86169e-19)
(1.59233 0.793968 -6.41601e-20)
(-0.225442 -0.911046 -2.3286e-20)
(1.80797 0.333677 0)
(-0.190373 -0.0168002 3.77492e-19)
(1.08838 -0.942548 0)
(1.05459 -0.663119 1.76222e-20)
(1.49519 1.02981 -3.47266e-19)
(1.04394 -0.014832 -5.58606e-22)
(-1.07174 -0.294806 -5.66538e-19)
(0.977842 0.474281 1.41344e-19)
(0.900565 0.162505 -3.37084e-20)
(0.788049 -0.0257262 0)
(0.744255 -0.0525237 0)
(0.652619 0.0241164 5.99959e-21)
(0.768199 -0.00717877 0)
(1.31906 -0.180903 -1.27309e-19)
(-0.831382 -0.0989765 3.71002e-19)
(1.86992 0.446296 6.01e-20)
(1.02312 -0.0132874 0)
(0.553988 -0.338615 9.0268e-20)
(1.02207 0.0186138 1.66062e-19)
(0.980707 0.124202 1.77051e-20)
(-0.417819 0.278077 0)
(1.08647 -0.484191 4.00849e-19)
(0.947024 0.00146461 -4.60582e-23)
(1.07094 -0.501783 -1.74664e-19)
(2.19603 0.0864578 2.2402e-19)
(1.28556 0.787037 0)
(0.930545 0.0240307 0)
(-0.627264 -0.577556 -2.6332e-19)
(0.0846721 -0.0686249 2.03807e-19)
(0.932322 0.35857 -1.70593e-19)
(0.361088 -0.630394 -3.04817e-19)
(0.647574 0.408203 2.04865e-19)
(1.02214 -0.0152308 0)
(0.540382 -0.504403 0)
(1.03077 -0.000879342 6.59952e-22)
(1.20145 -0.505721 -7.97681e-20)
(0.600381 -0.29542 1.49723e-20)
(0.718268 -0.160059 1.01563e-19)
(-0.0949105 0.341445 -3.71499e-19)
(1.66575 -0.7938 1.98759e-19)
(0.65921 0.614819 0)
(1.27314 0.688393 0)
(1.53895 0.235816 0)
(-0.932052 -0.57125 -2.7336e-19)
(1.32278 0.573746 2.72387e-19)
(1.67943 0.194057 2.44473e-20)
(1.03315 -0.0357563 0)
(1.05636 0.00150933 0)
(1.70179 -0.0447905 -1.66436e-19)
(0.997137 0.218525 -2.11876e-20)
(1.00895 0.00450273 -1.66792e-19)
(1.47001 0.467783 0)
(-0.599131 0.414441 0)
(1.23153 0.31849 2.24817e-19)
(1.01695 0.517879 -1.03376e-19)
(1.03573 0.0214334 0)
(1.46101 0.727861 0)
(2.04419 0.647255 -3.97619e-19)
(-0.223205 0.865992 -1.71845e-20)
(0.996431 0.00895747 0)
(0.705918 0.475322 -2.78206e-20)
(0.928942 -0.819721 0)
(1.01644 0.0594276 3.88372e-20)
(1.03054 0.00352378 1.54133e-20)
(0.906214 -0.299182 2.58973e-19)
(1.03643 -0.00227709 -1.21242e-20)
(2.10704 0.0637055 3.47965e-19)
(0.960656 -0.00170109 1.76012e-20)
(0.832169 -0.0036196 0)
(1.037 -0.000961445 0)
(-0.607508 0.216651 0)
(0.664604 0.635425 -1.48163e-19)
(-0.013855 0.162192 2.51617e-19)
(1.15173 0.347696 -3.62099e-19)
(-0.820758 0.331237 0)
(0.825345 0.64414 1.36667e-19)
(1.00431 -0.316618 0)
(1.00638 -0.0104631 9.78946e-20)
(0.902307 0.662533 4.41297e-21)
(1.02966 0.393241 2.05078e-19)
(2.08193 -0.695151 0)
(2.02345 -0.0332751 -7.19268e-20)
(0.808153 -0.120825 -3.09987e-19)
(-0.384536 0.576128 -1.90274e-19)
(1.08091 0.415223 0)
(0.863004 0.234249 1.4676e-19)
(2.26004 0.395219 0)
(0.770154 0.523657 2.99565e-19)
(-0.648294 0.00840907 6.53859e-20)
(-0.105875 0.316184 0)
(0.589842 0.562262 -5.75852e-20)
(1.01719 -0.65067 -1.23983e-19)
(0.474897 -0.236654 -1.06516e-19)
(1.00643 -0.0099336 0)
(-0.192706 -0.434063 -3.55631e-19)
(0.646638 -0.576236 6.96643e-20)
(0.884667 0.282587 0)
(1.11615 -0.0810998 -4.10998e-21)
(0.983185 0.834017 1.81056e-20)
(1.02949 -0.00706089 -1.34217e-20)
(0.480038 -0.678863 -3.27503e-19)
(0.226282 -0.0238713 -4.81562e-19)
(-0.235332 -0.51326 1.2341e-20)
(0.809349 0.355267 2.0509e-19)
(-0.515574 0.828383 -8.70901e-21)
(1.40528 -0.635587 3.30617e-21)
(0.993601 0.0275745 -2.90031e-19)
(-0.926826 -0.421558 0)
(1.02239 0.0387936 -3.39558e-19)
(1.54813 0.501295 5.33491e-20)
(0.883776 0.688353 2.2491e-19)
(1.07811 -0.0574369 1.34482e-19)
(1.00241 -0.0345007 1.33307e-19)
(1.03873 0.0148152 4.80319e-22)
(-0.473137 -0.494744 4.50582e-22)
(1.73772 -0.856104 1.5562e-20)
(1.2064 -0.165865 -5.8155e-20)
(0.918529 0.0222405 6.68616e-20)
(0.908675 -0.269333 7.63604e-20)
(0.672091 0.00664327 0)
(0.95925 0.73107 0)
(1.06707 0.895631 -5.26102e-21)
(1.97904 0.189862 -3.15974e-20)
(-1.12757 0.218797 1.71681e-19)
(1.01265 -0.544592 -4.26118e-19)
(0.625171 -0.536869 3.36066e-19)
(1.89525 0.0813156 -2.1307e-19)
(0.555785 -0.807757 3.27337e-20)
(1.02129 -0.00556273 0)
(0.756603 0.108335 -5.75197e-21)
(1.03964 -0.0126384 1.02822e-20)
(1.03781 0.756963 0)
(1.03412 0.00399407 0)
(0.793447 -1.08163 0)
(-0.37374 -0.588048 -8.66797e-20)
(-0.00707076 0.0847479 0)
(1.06972 0.128541 -1.00318e-20)
(1.19366 0.176783 5.0901e-21)
(0.479744 -0.01331 -3.08007e-20)
(1.06135 0.0170346 -1.34456e-21)
(1.85109 0.427997 -1.05164e-19)
(2.02233 -0.277657 -3.66682e-20)
(-0.206947 -0.0173833 -2.75577e-19)
(-0.579894 -0.766745 8.33451e-21)
(0.95547 -0.0237701 0)
(0.761425 -0.0200275 0)
(0.999898 -0.00127326 -4.23289e-22)
(-0.901508 -0.451425 0)
(1.43111 0.140235 -8.65304e-20)
(0.741759 -0.0185059 0)
(1.01773 -0.0316019 1.0739e-19)
(1.01379 0.0268896 -3.7818e-20)
(1.71666 -0.977058 9.99449e-20)
(1.05763 -0.00822207 -7.78418e-22)
(0.946451 -0.185839 -4.59972e-20)
(1.01766 -0.0237855 3.10383e-19)
(0.680075 -0.618926 1.56636e-19)
(0.727357 -0.111921 3.63577e-20)
(1.02675 0.00494448 -1.71646e-21)
(0.0836258 -0.0358562 0)
(1.12486 0.789997 0)
(1.01635 -0.0164366 0)
(0.999032 -0.782913 -8.40476e-20)
(1.03227 -0.882887 1.89288e-20)
(1.01565 0.01576 2.69386e-21)
(0.642075 0.449342 3.3156e-20)
(1.05337 -0.00252793 2.64937e-21)
(0.587961 -0.370779 -5.47297e-19)
(1.03208 0.00322895 3.84524e-22)
(1.03138 0.00729092 -8.72258e-21)
(2.09528 -0.267004 1.15599e-19)
(0.958446 -0.00963607 5.61633e-22)
(-0.528541 -0.66275 -1.83424e-19)
(1.10676 0.543076 1.52036e-19)
(0.164423 -0.596285 0)
(0.115864 -0.391507 8.0116e-19)
(-0.0987032 -0.296181 2.41212e-22)
(1.07001 -0.0115815 2.78886e-19)
(0.992845 -0.0116427 -7.21964e-21)
(1.06294 -0.019213 -7.71128e-20)
(1.03278 0.00856254 1.48969e-21)
(1.58792 0.30836 3.00759e-20)
(0.403698 -0.376325 -2.71964e-19)
(1.02931 0.0276049 -5.08404e-21)
(1.02748 0.025877 -2.04698e-19)
(1.02229 -0.00624518 1.76653e-21)
(1.02848 0.00377298 0)
(1.10452 0.58241 -2.83552e-19)
(0.999942 -0.0145671 8.0384e-20)
(0.674874 0.606969 2.13715e-19)
(1.01775 0.00369079 -3.87701e-22)
(1.06041 0.0144147 -2.52165e-20)
(1.08258 0.0241192 7.19045e-22)
(1.84141 -0.385022 1.04278e-20)
(0.698517 0.000726778 0)
(1.08235 -0.0345066 0)
(1.05911 -0.0195125 4.90499e-19)
(0.997151 0.00723765 0)
(-0.0454658 -0.164158 0)
(0.97022 -0.581999 0)
(1.0027 0.0102405 -4.65421e-19)
(1.14033 -0.687057 6.53532e-20)
(1.0307 -0.0130126 9.77107e-21)
(1.34937 0.947721 -6.91235e-21)
(1.53653 0.997473 -1.26785e-19)
(1.03423 0.00525248 -4.66717e-21)
(1.24229 0.636286 1.88726e-20)
(0.690557 -0.00273609 0)
(0.0782369 0.805556 0)
(1.88357 0.741128 2.46024e-19)
(1.03792 -0.0473545 0)
(1.00181 -0.0125114 -1.43729e-19)
(1.00596 0.0010674 2.79387e-19)
(1.33166 0.113428 -5.37155e-20)
(0.0138323 -0.10616 2.91318e-19)
(1.00464 0.0178533 1.50935e-19)
(0.929502 0.00888801 -1.82994e-21)
(0.946326 0.00305298 3.47464e-21)
(1.03636 -0.00452273 2.15382e-23)
(0.916169 0.010268 -1.52955e-19)
(1.0022 0.000164199 1.80893e-19)
(0.993192 -0.00199357 1.06816e-20)
(0.814579 0.00625747 0)
(0.736781 -0.0173302 0)
(0.72254 -0.00515907 7.71375e-22)
(0.728823 -0.0098594 0)
(0.715505 0.0259562 0)
(0.742299 -0.0315265 0)
(0.755384 -0.00249994 -3.21481e-21)
(0.925811 -0.0164785 2.27388e-21)
(1.051 -0.00108957 0)
(1.02684 0.00131048 1.17935e-21)
(1.03912 -0.00281294 0)
(0.777254 -0.00969765 0)
(0.715043 0.0126422 0)
(0.722321 0.0153484 -2.78756e-22)
(0.684465 -1.18134e-05 -1.70045e-23)
(0.858633 0.0118081 0)
(0.834112 0.0404524 0)
(0.946337 0.00130664 -1.8861e-19)
(0.814701 -0.00281877 3.52962e-19)
(1.00072 0.000639087 0)
(1.00006 -0.00295634 3.33376e-19)
(0.994289 -0.000381698 -4.36127e-22)
(0.846301 0.0124524 2.99274e-19)
(1.00309 -0.0167567 -1.73451e-19)
(0.922353 -0.000148712 0)
(0.738574 -0.000675226 -3.47756e-21)
(1.01832 -0.00601135 -1.68448e-19)
(1.00153 -0.00644039 -2.89164e-19)
(1.04296 -0.000598445 0)
(0.999425 0.00420834 0)
(0.996184 -0.000787367 0)
(1.0249 -0.0222928 -2.83642e-21)
(1.04076 0.00268426 3.46939e-21)
(1.02676 -0.0098518 0)
(-0.591046 0.487285 3.081e-19)
(0.822356 0.219958 3.89567e-20)
(1.01885 -0.0100656 -2.24423e-19)
(-0.699088 -0.771082 -1.83272e-19)
(1.02116 0.00220261 -1.79985e-19)
(1.19419 -0.212907 -7.85966e-20)
(0.804356 -0.463239 2.58204e-19)
(-0.0900611 -0.173986 -1.11962e-19)
(1.04067 0.0401913 0)
(1.05259 0.0115768 -4.8489e-20)
(0.92111 0.00520733 0)
(0.00116538 0.109383 3.57777e-19)
(1.03226 -0.0241242 0)
(-0.850109 -0.551233 -4.40586e-19)
(0.958074 -0.00968939 1.96229e-21)
(1.68342 0.657506 8.25699e-20)
(-0.0843462 -0.0980459 0)
(1.07093 -0.034372 1.50274e-19)
(1.04772 -0.00814332 4.25947e-22)
(0.910611 -0.000458024 2.38434e-19)
(1.0359 -0.00872546 -1.53494e-19)
(1.69456 0.841883 8.31818e-20)
(0.524322 0.494643 0)
(0.451278 0.407751 1.73205e-19)
(1.0673 -0.00751141 4.79683e-22)
(1.11675 0.113668 1.57344e-19)
(1.07538 -0.720771 0)
(1.01686 0.00948237 0)
(1.02024 -0.0272462 -3.51708e-19)
(1.03496 -0.00523289 -3.43247e-19)
(-0.312829 -0.679583 0)
(1.22209 0.81615 -8.20296e-20)
(1.03608 0.013923 4.12766e-22)
(1.00446 0.018736 1.32191e-19)
(1.01843 0.0266485 -1.6533e-19)
(-0.8287 -0.408004 -4.22924e-20)
(1.02579 -0.00309408 -7.3579e-21)
(1.02073 -0.011831 5.62979e-19)
(1.03343 -0.00554969 0)
(1.89377 0.643794 -9.45652e-20)
(1.01856 -0.000856743 -1.75066e-19)
(1.46048 0.096041 -6.29055e-20)
(1.02664 0.030784 -4.02584e-22)
(1.02156 0.0177433 3.50005e-20)
(2.15443 0.112192 -2.89576e-19)
(1.01116 0.0186792 1.70046e-19)
(1.0271 0.00457285 2.01403e-22)
(1.01561 0.00773901 0)
(0.926838 0.147374 4.14249e-20)
(0.242651 0.311059 -9.96303e-23)
(0.99956 -0.00259203 1.69324e-19)
(1.05163 0.0168183 -8.295e-22)
(1.026 -0.00644263 -1.24537e-21)
(1.24338 0.30093 3.11645e-19)
(1.02838 0.0148423 1.16513e-19)
(1.01667 -0.0157702 -6.17665e-22)
(1.72718 0.211057 -4.04289e-21)
(1.83501 0.946473 -1.33796e-19)
(0.77154 -0.696169 4.71504e-20)
(0.446826 -0.313052 -2.65887e-19)
(1.02486 -0.023455 0)
(1.03244 0.00182072 4.2687e-20)
(1.0073 -0.00391931 8.86124e-20)
(1.03334 -0.00387751 4.2207e-22)
(0.984096 -0.00966664 -1.78218e-19)
(1.03838 -0.0166522 2.01821e-19)
(0.997759 -0.0021625 -1.654e-19)
(1.02531 -0.00097106 -5.38487e-22)
(1.01939 0.00233843 -2.54112e-22)
(1.03967 -0.00239491 1.69814e-19)
(0.900936 0.0856081 4.29869e-19)
(1.09665 0.0632172 0)
(0.979294 1.19313 8.67311e-20)
(0.987446 -0.00036065 0)
(1.02993 -0.0268753 -4.90452e-20)
(1.52598 0.422146 -4.20912e-20)
(1.07063 0.111325 0)
(1.1102 -0.0308612 -2.87314e-21)
(1.06724 0.107369 2.48599e-21)
(0.917253 -0.0210092 0)
(2.11627 0.661408 0)
(0.981082 0.0940268 1.88363e-20)
(1.04055 0.0135267 -1.2586e-21)
(1.02835 -0.00836954 -1.78533e-19)
(1.09233 -0.570536 -4.92312e-20)
(1.03089 -0.00476373 -6.93753e-22)
(1.03956 0.0140738 0)
(1.03944 -0.000929477 0)
(1.0907 0.0146666 0)
(0.434477 0.635146 1.97444e-19)
(1.02607 -0.000929393 7.03656e-21)
(0.950226 0.0437515 0)
(-0.00560638 0.217363 -5.53611e-19)
(1.71342 0.959194 -1.2221e-19)
(1.01925 -0.00110314 -3.49422e-19)
(1.02966 -0.0136667 1.26514e-21)
(1.00641 0.00331396 2.30301e-19)
(0.814049 -0.0370736 0)
(-0.250193 -0.641599 -3.39196e-20)
(0.616267 0.436805 -2.88224e-19)
(1.08011 0.0591675 -5.40249e-21)
(0.0894369 0.444275 0)
(0.90868 0.178145 6.35773e-20)
(0.520916 0.500026 4.29129e-20)
(1.18783 0.879711 -2.09239e-20)
(0.0588839 0.0565479 1.52954e-19)
(1.00825 0.00188349 0)
(1.02837 -0.00252788 4.70581e-21)
(1.0202 0.0155467 1.31004e-19)
(2.07117 -0.357224 0)
(0.982222 0.0156804 2.201e-19)
(0.317722 -0.364308 -3.84273e-19)
(1.01572 0.0016328 -1.35733e-19)
(1.04148 -2.53741e-05 0)
(1.1547 -0.0753487 4.98221e-23)
(1.00466 0.0135156 -9.15341e-20)
(0.989616 -0.0250921 2.40586e-19)
(1.05642 0.0853266 -3.3299e-21)
(1.03317 0.0114304 -6.5316e-21)
(-0.113607 -0.0027063 3.85752e-19)
(2.12816 0.239376 2.5482e-19)
(1.02437 0.0129971 7.43515e-21)
(0.816045 0.031455 -3.29933e-19)
(0.901445 0.0419981 0)
(1.0354 0.000405182 4.29641e-21)
(1.01965 -0.00663984 -2.63595e-20)
(0.962179 0.0346274 0)
(1.02779 3.65944e-05 -1.67129e-19)
(1.02475 0.00584151 -9.02912e-21)
(-0.535496 0.18605 8.82151e-20)
(2.13652 -0.553782 0)
(0.209545 -0.355648 3.43019e-20)
(1.50519 -0.305764 0)
(1.02161 0.000143425 4.92748e-20)
(1.03601 0.0181467 -1.19243e-22)
(0.990134 -0.00145456 1.42527e-19)
(-0.473889 -0.497356 1.68558e-19)
(1.0073 -0.00334208 0)
(0.993671 0.00313799 -3.42577e-19)
(0.994587 -0.00105218 1.8035e-19)
(1.03492 -0.00463043 0)
(1.02684 0.00367393 6.34091e-22)