/*--------------------------------*- C++ -*----------------------------------*\
| =========                 |                                                 |
| \\      /  F ield         | OpenFOAM: The Open Source CFD Toolbox           |
|  \\    /   O peration     | Version:  2306                                  |
|   \\  /    A nd           | Website:  www.openfoam.com                      |
|    \\/     M anipulation  |                                                 |
\*---------------------------------------------------------------------------*/
FoamFile
{
    version     2.0;
    format      ascii;
    arch        "LSB;label=32;scalar=64";
    class       volScalarField;
    location    "31";
    object      p;
}
// * * * * * * * * * * * * * * * * * * * * * * * * * * * * * * * * * * * * * //

dimensions      [0 2 -2 0 0 0 0];

internalField   nonuniform List<scalar> 
2186
(
0.819299
-0.352561
-0.0366766
1.12691
-0.802812
0.0691439
0.710563
-0.94598
-1.01037
1.38923
1.14031
-0.963167
-0.920782
1.08657
-0.584622
1.0986
1.11771
-0.902416
0.158998
-0.737613
1.49311
-0.726405
1.09643
-1.045
1.08807
1.10038
1.31251
0.946351
0.689474
1.08726
-0.718934
1.08828
-0.682576
-0.822517
-0.981226
0.213971
-0.833954
1.48301
-0.55839
0.0181971
-0.92635
-0.695739
-0.703467
-0.842538
0.995129
1.37163
0.366495
0.542981
-1.35772
-0.777436
-0.724169
0.989045
-0.696079
1.41854
-0.731226
0.998734
-0.756909
1.02747
-0.612493
0.859961
-1.15519
0.734016
0.651639
0.00579442
0.672261
0.482513
0.764654
1.38147
1.27736
-1.06864
-0.953383
-1.19656
1.34687
1.05351
1.2707
1.21832
-1.27617
1.1128
-0.990351
-0.634043
-0.86308
-0.0786029
1.08294
0.71858
1.07484
1.08361
1.39108
0.127657
-0.379814
-0.997033
1.00049
-0.736252
0.989007
1.23968
1.09735
0.519161
-0.16558
0.685353
-0.79994
1.04235
-1.14331
-1.05791
0.738782
1.01061
1.11957
-0.706212
1.31171
-0.737668
0.984007
-1.3732
-0.620472
-0.779681
0.569732
1.41699
-0.991223
-0.824257
-0.474236
-1.55499
-0.996993
1.34747
0.0785105
-0.783232
0.949718
-0.982189
1.10316
-0.52685
-0.792823
1.20899
-0.921682
0.690277
1.46558
1.30833
0.252084
0.681809
-0.949881
-0.758199
0.968039
-1.01536
-0.524102
-0.983239
0.8941
-0.217761
-0.944614
0.736175
0.975346
1.01688
-0.695237
-0.808592
0.641883
-0.78729
-0.772784
0.608408
1.11577
1.25024
1.10199
0.554145
1.38866
0.541195
0.447373
0.443755
-0.98647
-1.15053
1.07737
1.04281
0.212497
0.221959
-0.903181
-0.963789
-0.765937
-0.829886
0.460663
1.04818
1.11866
1.1722
0.525088
-0.196329
-0.818284
1.07877
-1.14395
0.956814
-0.956261
1.10303
-0.732678
0.644165
0.627474
-0.82878
-0.782148
1.2333
-0.439978
-0.887332
-0.886533
1.35084
-1.05571
1.03459
-0.986508
-1.29324
0.184281
1.27177
1.1692
-0.725658
-1.04251
-1.34052
0.08949
1.11673
-0.984917
-0.789586
-0.998551
-1.59647
1.04648
-1.06138
0.546645
-0.314137
1.40389
0.922454
1.01738
1.00216
1.28444
1.09248
0.945466
1.20179
0.392839
-0.796011
-0.714424
0.202527
0.200901
-0.888419
-0.798378
1.13817
1.20895
-1.03468
-0.91478
-1.60723
0.390969
0.687854
0.831814
0.946758
1.18387
-1.10159
0.934589
-0.973343
-0.795962
-0.818044
1.09896
0.825436
1.25268
1.26596
1.21266
1.19056
-0.971851
0.870203
1.21205
-0.957375
1.08569
0.87225
-1.52687
-0.988478
-0.996405
1.25399
1.11917
-0.907554
-1.02604
-1.4197
1.00786
-0.991107
0.848717
1.17143
0.923058
-1.00116
-0.721796
1.06246
0.727412
-0.644641
-0.410194
1.44278
-0.788593
-0.961716
0.905088
1.25407
1.0763
-0.809283
-0.957991
-0.887176
1.01433
-0.945817
0.575186
1.05932
1.08246
-0.213413
-0.506163
1.06392
-1.03841
0.983578
1.26508
1.11435
1.11141
-1.68415
-0.732303
-1.06316
-1.13241
-1.56335
-1.1216
0.400193
-0.583618
0.705867
1.23963
1.30835
1.01872
-0.747729
1.24212
-1.11686
-0.356965
-1.05719
-0.988694
-0.877955
0.371233
-0.772694
-0.753131
0.265581
1.02806
-0.554729
0.481591
-0.762165
-0.440153
-0.859422
-0.782638
1.31186
0.086154
-0.809503
-0.732235
0.832615
0.660156
-0.301476
0.553904
-1.13853
-0.899418
0.758283
1.11437
1.17626
-1.42784
1.24435
0.939166
0.477369
1.31975
1.09491
1.01489
0.387365
-0.929161
-0.981246
0.97012
-0.819505
-1.00549
-1.11176
-0.78345
-0.999791
1.46629
-1.56262
-0.726453
-0.973749
1.09413
-0.820331
-1.49345
-0.70728
0.802446
-0.672718
-1.14875
1.35423
1.41427
1.19322
-0.941962
-0.849052
1.4812
1.09791
-0.891565
0.552047
-0.972629
0.184892
1.27955
1.08739
0.938713
1.386
-0.548795
-1.01112
-0.55072
-0.796074
-1.4226
-0.710519
-0.0848515
1.41193
-0.879997
-1.18776
1.08682
0.616298
-0.991403
-1.12727
-0.978621
-0.827563
-1.09911
-0.988553
-0.709908
-0.790833
1.27472
-1.11655
-0.80249
1.10498
-1.16886
1.33936
-1.09886
-1.34724
-0.68276
1.08772
-0.947741
1.11747
0.89616
-1.8188
1.11175
-0.75935
-0.993649
-1.04373
1.07208
1.01977
-1.00215
-0.975189
-1.05929
1.08658
-1.18997
-1.18555
0.610402
1.05006
0.947617
0.755715
-1.00122
-0.879556
0.931981
-0.860159
0.863664
-1.12925
1.11123
0.063841
1.20044
-0.996301
0.901493
0.803908
1.12475
-1.07791
1.09401
-0.75031
-0.993137
1.09112
-1.54366
0.246022
-0.802851
-0.0413656
1.09994
0.103352
0.307446
1.1019
0.343703
-0.164501
0.151974
-0.725982
0.250079
-0.920318
0.806967
-0.543518
1.17483
1.2023
-0.977601
-0.988636
-1.048
-0.715658
0.532771
-0.860193
0.93578
-0.0473587
-0.911162
1.20157
-1.04637
0.473937
0.315195
-0.736191
0.898383
0.446075
-1.26943
-0.694789
-0.765362
-0.679105
1.10873
-1.02335
1.18573
1.30385
1.29036
0.753395
1.27078
-0.795569
-0.653167
0.968553
0.233364
1.08764
-0.731213
-0.882151
-1.19943
0.842989
-0.989538
-1.25201
-0.739319
-0.776187
0.209658
-0.943804
0.838896
0.810372
-0.538194
-0.774373
0.793502
0.0845239
1.24084
-1.0615
-0.0773071
-0.990006
0.861832
-0.600673
1.24415
1.49548
-1.19313
-0.793394
-0.884085
0.402402
-1.11557
1.10042
-0.790853
1.05331
0.862358
-1.04064
0.97397
0.935854
-1.45034
0.944852
-1.06166
-0.739186
-1.17304
-0.957076
-0.978645
-1.01644
-0.65986
1.09087
0.317504
-0.781179
0.624997
1.23929
1.28908
-0.370815
0.802735
-0.947274
0.822026
-0.480263
-1.15742
-0.752253
0.599792
0.917448
1.16678
-1.11108
-1.00731
-1.42769
-0.998416
-0.112791
0.773761
-1.35269
-0.00977847
-0.989657
1.04759
-1.06788
1.05387
-1.14097
-0.714856
1.02767
0.705088
-1.10419
-0.0752261
1.0633
1.37455
1.11334
-0.619076
-0.893748
0.84753
-1.10778
0.834265
-0.451891
0.548046
1.06092
-0.870349
-0.724265
1.12589
-1.1533
1.34589
0.122071
0.928309
-0.321463
0.661895
-0.932584
1.32277
-0.730684
-1.02828
1.06609
0.625133
0.601688
-1.00879
-0.724923
-0.830105
0.880269
-0.48481
-0.796799
-0.548261
1.10903
0.49816
-0.813285
0.851537
0.999782
1.08247
-1.15218
-0.646336
-0.74547
1.1051
1.28101
0.521143
1.10085
-0.661428
1.12387
-0.334893
-0.84301
-0.713856
0.998666
1.05046
-1.19646
0.955808
-0.730382
0.913502
-0.830577
1.10682
1.01425
1.11015
-1.11345
1.02985
-0.924845
-0.615976
1.25433
-1.23954
-0.697908
1.2206
-1.16496
1.21217
-1.22547
-0.738943
1.15013
0.827408
1.44668
1.09041
-0.944692
1.15041
1.19152
-1.4765
0.741341
-0.464694
-0.947789
1.58859
-0.982901
1.24132
-0.777017
0.32239
1.09096
-1.02564
1.088
-1.02018
1.03096
1.02713
1.10283
-0.093108
-0.85946
-0.628259
0.616625
0.713981
1.1383
-0.524159
0.934876
-0.985134
-0.27968
-1.08051
0.884449
1.21774
-0.680312
-1.04668
-0.266068
1.3365
-0.61083
0.841354
-0.515233
-1.31185
-0.961562
-0.740952
-0.511727
0.908425
-1.38446
-0.737769
-0.211042
-0.583041
-0.756296
-1.09091
-0.508851
1.069
1.11145
-1.0003
-0.425543
1.08125
1.01232
1.11036
-1.14729
1.0802
1.13105
1.08337
1.12524
-1.59575
-0.451019
-0.724248
0.725774
1.08943
0.749966
0.169238
-0.243004
-1.11059
-0.134198
1.34027
-0.550942
-0.428552
-0.710338
-0.357309
-0.929967
0.894597
-1.01993
-1.22982
-0.990044
1.09684
1.09191
1.10689
-0.0515651
0.454802
1.31458
-0.0457351
1.08568
-0.448978
-0.0235176
0.870138
1.11206
1.19927
-0.0402853
1.07688
1.07404
-0.964769
-0.263699
1.10714
1.11847
1.1139
-0.989552
-1.04079
1.11334
0.647946
1.09277
0.318046
-0.0158209
-0.124402
-1.01027
-0.512335
-0.723331
-1.13608
-1.10318
1.12008
1.12473
0.861707
-1.00786
1.09686
0.055435
-0.209618
-0.03033
1.08832
1.11685
1.11416
1.12871
1.10667
1.10053
1.09218
-0.546789
-0.270783
-0.0843383
-0.120624
0.0672909
0.0510009
-0.0450702
0.122206
0.119542
-0.0581283
-0.440097
1.08228
1.10421
1.0986
1.12261
1.12111
1.11388
1.11815
1.09301
1.10457
0.149487
-0.175514
1.11531
1.1133
0.0134218
1.1154
1.11483
-0.0774893
-0.37875
-0.28402
-0.815246
-0.917328
1.0979
-0.961214
1.09306
0.678055
1.14593
-0.983502
1.09207
1.04607
1.03215
-0.722694
-0.934547
-0.922525
-0.146789
0.0683594
-0.722653
1.11227
-0.160709
1.18583
1.10193
-0.0651843
1.28735
1.43347
-0.357636
0.984564
0.707368
1.09513
1.11278
1.10234
-0.983271
0.593844
-0.0259167
1.10044
1.10791
-0.88681
-0.142326
1.10258
0.0322535
-0.223103
1.10117
-0.869802
1.08584
1.11431
-0.946369
1.10471
-0.684361
1.096
1.18512
-1.38626
1.10934
1.1174
0.0735742
0.802204
1.09588
1.10408
0.272856
-0.635013
0.762989
1.43822
1.11064
1.09828
1.10484
-0.348255
1.09919
1.08156
1.1071
1.10025
1.10324
1.09728
1.21168
-0.479914
-1.40953
1.10038
1.09666
0.404285
-0.866983
-1.21467
-0.514395
0.983034
-1.2423
-0.667127
0.0414496
1.09712
0.775122
0.200173
-0.841742
-0.249504
-0.565283
-0.65495
-0.636393
-1.21946
-0.817552
-0.223211
1.1038
-0.226093
1.09153
1.02753
-0.98743
1.35821
-0.485648
-0.722468
0.811226
1.24836
0.568725
-0.994412
1.09937
-0.878195
1.10262
-0.743836
1.10233
-1.22216
1.09507
-0.725125
-1.15657
1.1051
1.1192
1.05975
-0.758734
-0.996601
-0.560245
-0.656129
1.11506
1.01271
-0.629666
1.09713
1.13881
1.09212
-0.699227
-1.25476
-0.691187
-1.54659
0.353077
1.10361
0.041381
1.09764
-1.26602
1.09789
1.13651
1.10608
-0.000897162
0.0264768
1.13125
-0.989492
1.10793
1.11229
0.0224455
-0.934006
1.06152
1.25423
1.09259
1.09313
-0.634193
-1.2765
1.06118
0.443742
1.10699
0.899058
-0.833293
-0.954209
0.96144
1.33562
1.09961
0.371059
-0.509144
-0.751744
-1.69984
-0.840738
1.07612
-1.13917
1.08705
-0.988769
-0.985771
-0.798177
0.580534
-1.04306
-0.542142
-1.62214
1.0941
-0.991671
1.03363
-0.976574
-0.167824
-0.985283
0.053932
-1.44794
1.07484
-0.506294
-0.916339
-1.46942
-0.743549
1.08059
-1.36214
0.14692
-1.40891
1.20087
-0.592997
-0.97891
1.16712
1.07868
1.06725
0.516312
-0.950303
1.10479
1.13388
-0.563264
-0.770959
1.09315
0.847614
1.36615
1.11616
-1.48824
-1.60611
-0.770666
-1.00322
-0.860595
-0.991404
-0.25758
-1.1174
0.852126
-0.00994709
1.1014
1.32071
1.09547
-0.997236
-1.05334
1.09607
-1.89016
-1.60951
1.06882
-0.289245
-0.824997
-1.2915
-0.782447
1.05877
1.03205
-0.522817
0.902906
0.805668
-1.65665
1.07447
-1.26476
0.932739
-0.709264
1.05503
-1.75304
0.454949
1.09662
1.2146
-1.35478
-1.14134
0.949119
1.4729
1.11755
1.14184
-1.53722
1.32605
-0.988784
-1.44909
-0.84775
0.505874
-1.45781
1.21056
1.23676
-0.970751
-0.642417
1.09565
-0.663216
0.910015
1.12736
1.07691
-1.30197
1.09809
0.0557038
1.12256
0.0828839
-1.05533
-0.0129199
1.10072
-0.162468
-0.347039
-0.516626
1.08173
-1.12327
1.30856
0.287635
1.43695
1.11163
-0.638313
1.06992
-0.74554
1.08023
1.07681
-1.15922
-0.908805
1.24637
1.09014
1.3419
1.06183
0.098834
1.06786
1.07691
0.988378
1.10599
-1.0432
-0.81774
-1.72165
1.18422
-0.858857
-1.64177
-0.733691
-0.813249
-0.716828
-0.333707
0.996459
-0.675765
1.04026
1.09235
-0.777044
-1.19019
-0.690011
-1.16667
-0.693644
-0.747486
1.10553
-1.64718
1.11519
1.31825
1.1532
-0.0580379
1.12187
1.04312
-0.990654
1.0429
1.08669
-0.83928
1.08507
1.07069
-0.0220439
-0.795303
1.55658
-1.61125
-0.95981
-0.949076
0.260899
1.06754
-0.944517
-0.513038
-0.721416
1.24291
-1.7089
0.985853
1.11822
1.07147
-0.994653
1.05023
-1.5957
1.11229
1.12655
-0.299445
1.1157
0.640744
1.07727
0.760442
-1.33549
0.0427105
-0.0852185
-0.154832
1.35382
0.106398
1.13548
1.50201
-0.587648
-0.0380065
1.1609
-0.0585979
1.1578
0.0266633
0.0548907
1.16124
1.16591
0.458998
-1.28918
0.898349
-0.647262
-0.757142
-0.559212
1.12301
1.08245
1.5172
-0.994463
-1.83664
0.792071
-0.91721
1.18468
1.11524
1.07309
1.09269
1.04478
-1.28717
-0.989836
-1.07029
0.943495
1.03689
-1.57386
-0.759608
-0.981887
1.11107
1.12162
-0.774564
-1.14617
1.13662
-1.81452
0.367649
0.909884
1.05492
-0.580227
-0.963072
-0.0802108
-0.855682
-0.709912
-1.30231
-1.74564
1.46408
1.47834
-0.827246
-0.815235
1.1119
1.08793
-0.849467
-0.0596612
-0.361344
0.793315
1.20067
-1.36952
1.10687
-1.73579
-0.971387
-0.685293
-0.935864
-0.812344
1.06901
-0.839723
-1.3917
1.47337
-0.863616
1.10778
1.34554
-0.762173
1.11614
1.33593
-0.803022
1.36457
-0.886812
-1.00775
1.14477
-0.790399
1.08377
1.10839
-0.906436
1.14636
0.16763
-1.30858
1.14517
1.10311
-0.932013
-1.09399
1.06282
1.1005
-0.949539
-1.4996
1.40253
-0.923494
1.02852
-0.760387
1.02254
-0.979608
-1.12939
-0.975997
-0.808556
1.22144
1.11953
1.37608
1.33001
1.11112
1.16387
1.19395
-0.980841
1.26037
1.22196
-0.785534
-0.938471
-0.852761
1.4413
-1.64831
-1.00984
-0.308363
1.07251
-0.792815
-0.838928
1.15276
1.09169
-0.96963
-0.764107
-0.987233
-0.0499524
-1.45561
-0.797619
-0.984357
1.02733
0.957128
-0.742857
-0.311123
-0.894851
0.980362
-0.925921
-0.817966
-0.987223
1.01194
-1.31442
-0.771419
1.41877
0.975589
0.431225
1.27834
-0.874337
1.04967
1.11616
1.21224
1.29182
-0.708409
0.827167
1.1409
0.294503
-0.989084
1.52931
1.04349
0.980295
1.14821
-0.77887
-1.4719
0.923305
0.939051
1.05333
-1.31317
-1.2846
1.08206
-0.987119
0.8895
-0.746616
1.52736
-0.990794
0.879591
0.794173
-0.7291
-0.992305
-0.734149
1.13559
-0.732717
-0.991762
0.754041
0.76627
-0.983033
1.17399
0.900987
-0.73713
-0.853166
1.0743
-1.36527
-0.99344
-1.00649
-0.719743
-0.856791
1.09908
1.09959
-1.32684
0.669044
1.10312
1.45304
0.308435
0.447715
0.182174
0.948261
-0.454297
-0.726773
-1.72391
-0.425817
-0.725043
1.10127
-0.730216
0.340052
-0.994064
0.700389
0.616724
-0.724076
0.687812
-1.10318
0.540314
-0.723391
0.627603
-0.728109
0.429533
-0.996589
0.545908
-0.722899
0.879674
-1.27796
-0.725267
-0.733128
-0.991599
1.11544
0.113211
-0.760573
-1.00389
0.209376
0.284138
-0.726541
-0.990803
-0.802053
-0.103709
-1.01774
0.0487888
-1.0514
-0.154731
-0.878526
-0.282751
1.01324
-0.180368
-1.27665
1.09565
0.0899356
-0.416169
0.489944
1.06096
-0.96386
-1.31855
-0.999911
-1.0636
0.96436
1.52773
-0.696554
-0.732211
0.0409081
-0.851147
-0.215709
-0.363787
1.09052
-0.827949
1.04034
-0.981663
1.59318
0.496431
1.51571
-0.756716
1.27278
-0.390785
1.08506
-0.914338
-0.998096
1.15131
1.08643
-1.26887
-0.992368
-0.727515
1.09849
-0.61311
1.09061
-0.785503
-0.99931
-0.973687
1.41225
1.15546
1.18937
1.13261
1.11323
-0.812565
-0.563154
1.32938
-1.42662
-0.812956
1.52703
-0.754717
1.03019
1.0277
1.47311
1.525
-0.738675
-1.37124
1.13083
0.25438
-0.460811
-0.686468
-0.547806
-1.01686
-0.767184
0.601518
-0.999648
1.28422
-0.907289
1.17527
1.25226
1.15889
-0.874857
-0.985468
-0.889162
1.18601
-0.842777
1.29924
-0.581591
-0.889711
1.36012
1.39438
-0.994781
0.249129
1.03384
-0.976352
-0.881984
0.714377
1.39361
1.3122
-0.809719
1.00164
0.983167
-0.990413
1.32377
0.441052
-0.749504
-1.5428
-0.113042
-0.0631109
1.2423
-0.813534
0.418982
-0.557553
-0.352965
-0.81253
-0.996638
1.10224
-1.1533
1.14271
0.0612965
0.107857
0.745461
0.28377
-0.987943
-0.466156
-1.22202
-0.555856
-0.349347
-0.87327
1.06903
-1.31936
-1.50597
1.13518
-0.950116
-0.787114
1.11215
-1.05629
1.10379
-0.0778491
-0.989902
-0.346187
0.849439
-0.880606
-1.47425
0.954653
-0.988497
1.16499
-0.591084
-0.874485
-0.827371
-0.994869
1.5853
-1.35964
1.20634
-0.555972
1.05275
1.29634
0.776377
1.10846
1.28484
0.00936966
-1.39345
1.05742
1.17093
1.45355
-0.851113
1.15961
0.815504
-0.875805
0.844403
1.29197
-0.436406
1.46008
0.297034
-0.835916
0.89318
-0.896518
-0.728508
1.02658
-0.325849
1.15156
1.12891
1.08192
-0.825435
1.0378
1.38307
-0.862126
-0.185503
-1.46438
-1.05885
-0.865897
-0.991987
1.44296
0.802915
-0.808515
0.973978
-0.915543
-0.828137
1.35713
1.34813
-1.05317
-1.05817
-0.995857
-0.987318
1.05605
-0.801613
0.0890657
-0.711778
-0.302996
1.16066
-0.94504
1.50324
1.15614
0.94531
1.13779
1.42173
-0.913609
-0.932241
1.09598
1.22431
-0.828367
1.0988
-1.32146
-0.978351
-0.956867
1.21248
1.24062
-0.972884
-0.795655
0.59242
-0.0747743
-0.688392
1.09294
1.09411
-1.0258
1.13278
1.174
-1.26494
-0.789499
-0.815676
-0.982935
-0.963705
1.40076
-1.45174
1.04901
-0.796255
1.39729
1.00079
1.00192
1.07467
-1.29319
-0.695078
-0.98625
0.67172
-0.767708
0.982715
0.323341
-0.425322
0.997296
1.07322
1.14005
1.11957
-0.0129499
1.13698
0.0736869
0.448005
0.931415
-0.431203
-0.782399
-0.818159
-0.562213
1.11041
1.03374
1.10964
-1.49578
-0.830316
-0.988375
-0.667094
1.11066
1.40506
1.12363
-0.775252
-0.822165
-0.95036
-0.412447
-0.993879
-0.996639
-0.0685986
1.10593
-0.844755
-0.739522
-0.288826
-0.0873132
0.857735
-1.27234
-0.990886
-1.12599
1.0672
1.53104
-0.259345
1.19507
1.59125
0.798356
1.32231
-0.789893
-0.937111
1.48962
-0.991857
0.336601
-0.760295
-0.961621
-0.724784
-0.730424
1.05565
0.783327
1.31494
1.27823
-0.0157139
0.833373
0.185808
-0.112611
-0.992788
1.20703
0.859343
1.11803
1.13485
0.109026
-0.0633405
1.12824
-0.910839
-0.996948
-0.734175
-0.735013
0.634552
-0.727205
1.05163
0.71698
-0.991063
1.31456
-0.779845
-0.193252
1.07603
-0.812014
-0.83951
-1.45631
0.735489
-0.745668
-0.71993
1.04464
1.12632
-0.304881
0.0447036
-1.40044
-0.993679
-1.46058
-0.811846
-0.208526
0.645205
-0.910357
-0.725707
1.38239
0.399073
0.499818
-0.724573
-0.958141
1.09983
1.11557
0.665959
0.576754
-0.723475
-0.837029
-0.817716
0.59014
0.48093
-0.723126
0.964478
0.282525
-0.722175
1.55389
-0.726405
-1.5361
-0.964359
-0.671267
0.900673
-0.742394
-0.801545
-1.00758
0.0218498
-0.77786
0.138719
-0.822468
-0.0251888
1.29811
-0.83325
-0.170168
-1.03461
-0.0396884
1.45554
1.48828
1.35024
1.10693
1.32788
-0.585625
1.09541
-0.782237
1.1126
-1.00116
-1.0052
1.34732
-1.02764
0.51674
-0.86484
1.49451
0.0916297
1.42817
0.733609
0.901812
-0.752793
-0.768276
-0.998468
-0.687001
1.41008
1.31314
1.09565
0.675338
1.09415
0.926646
0.942914
-0.720555
-0.992668
0.392384
0.0200062
0.918239
1.11113
-0.0181771
-0.75685
-0.71903
-1.36344
-0.998693
-1.30403
1.4327
1.12927
1.10588
0.11748
-0.0370622
1.1246
-0.59348
-0.99343
-1.27086
-0.872966
0.907419
-0.741027
-0.722619
-0.31771
1.11686
-1.38972
-0.966736
1.09454
0.653978
0.77229
1.09643
-0.995298
0.994158
1.27172
0.895204
-0.995266
1.08483
0.387258
0.589296
-0.859913
-0.731698
1.54971
0.267344
-0.745523
0.0238458
1.03019
1.08857
-0.830627
-1.0509
-0.0212767
-0.620132
-0.930616
-0.805463
-0.4485
1.0925
-0.823326
1.10208
1.36545
1.16414
1.10774
1.20603
1.26472
1.09943
-1.01997
-0.682291
-0.284712
-1.07844
-0.939409
-0.723692
1.26381
1.1719
-0.916637
1.03891
-0.827433
-1.41752
-0.725631
-0.554782
0.576513
-1.24947
1.09071
1.02791
-0.7325
-0.409416
1.43775
-1.42732
-1.89191
-1.13735
-0.808625
-0.6953
1.13283
0.896985
1.17018
-0.951287
-0.612684
-0.964551
-0.233434
-0.908426
-1.03765
-0.923527
-1.36164
1.03341
-0.809309
1.54805
-0.966682
-0.610115
-1.0294
-0.722593
1.00174
-1.04216
-0.916586
-1.00911
-0.364824
1.31093
1.30372
-1.37584
-0.675801
0.945693
-1.01683
-0.938158
1.18309
-0.793782
-1.29132
-0.651893
0.874331
-0.461145
-0.898047
1.09301
0.162288
-0.690433
1.10929
-0.826403
-1.00992
-0.851999
-0.796928
-0.103371
-0.89479
1.42826
-0.989758
0.170074
-1.00087
0.914928
-0.639493
-0.838591
0.773314
0.815517
1.15063
1.04459
1.29226
-0.737173
0.91116
0.588509
-0.89494
1.05185
-0.250323
-0.633723
-1.40798
1.25986
1.24612
-0.616935
-0.831572
-0.930597
1.13331
-0.829866
0.217834
-1.30552
-0.727848
1.39418
1.13335
-0.760796
-0.81793
-0.764342
-0.746387
1.01718
-0.790579
1.10013
0.36073
0.831691
0.957459
-0.709783
-0.840065
1.06169
-0.725347
-0.228849
1.37847
-0.985132
-0.74615
0.941307
-0.885726
-0.806811
-0.217552
-0.837775
1.45042
-0.674968
0.145556
-0.764764
1.39058
-0.775392
-0.821179
0.768618
-1.24512
-1.00075
1.42881
0.797928
1.07456
-0.807467
1.34606
-0.595399
-0.877048
-0.801537
-0.800747
-0.779304
1.37722
0.702173
-0.965708
-0.77263
-0.879604
1.24184
-0.835838
1.36495
-0.99971
0.841816
-0.735141
0.500865
0.665826
0.632004
0.55217
0.202699
-0.825482
1.12883
-0.798007
-0.565225
-1.16703
0.294009
1.4082
-0.340205
-0.807834
-0.78558
-0.737856
0.395809
-0.963028
-0.732623
0.900746
0.199341
-0.753932
1.47755
-0.889181
-1.05592
1.4538
-0.742995
0.28293
-0.82955
-0.724439
-0.729755
1.45047
-0.717524
1.36681
-0.727973
-0.836389
1.2879
-0.272468
-0.824198
0.692387
-0.842015
0.150352
-0.451335
-0.735015
0.863425
-1.02585
-0.735763
-0.724872
-0.726001
-1.00531
0.903957
-0.0209892
-0.496318
-0.757042
1.39679
-0.899392
-0.810913
-0.707907
-0.171506
-0.85151
-0.713613
-0.749844
-0.134848
1.36046
-0.78209
-0.993684
-0.856567
-0.792513
-0.1015
-1.01068
1.48676
1.41997
0.543548
-0.853013
-1.00233
0.459652
-0.999865
1.50039
0.340599
1.14382
0.823645
1.37003
0.223918
-0.862024
-0.866989
0.0723867
-0.795887
0.0727201
-0.114609
-0.729444
1.39368
-0.337807
0.351774
-0.455644
-0.980899
-0.863309
)
;

boundaryField
{
    frontback
    {
        type            empty;
    }
    Top
    {
        type            zeroGradient;
    }
    outlet
    {
        type            fixedValue;
        value           uniform 0;
    }
    bottom
    {
        type            zeroGradient;
    }
    Inlet
    {
        type            zeroGradient;
    }
    rectangle
    {
        type            zeroGradient;
    }
}


// ************************************************************************* //
