/*--------------------------------*- C++ -*----------------------------------*\
| =========                 |                                                 |
| \\      /  F ield         | OpenFOAM: The Open Source CFD Toolbox           |
|  \\    /   O peration     | Version:  2306                                  |
|   \\  /    A nd           | Website:  www.openfoam.com                      |
|    \\/     M anipulation  |                                                 |
\*---------------------------------------------------------------------------*/
FoamFile
{
    version     2.0;
    format      ascii;
    arch        "LSB;label=32;scalar=64";
    class       surfaceScalarField;
    location    "31";
    object      phi;
}
// * * * * * * * * * * * * * * * * * * * * * * * * * * * * * * * * * * * * * //

dimensions      [0 3 -1 0 0 0 0];

oriented        oriented;

internalField   nonuniform List<scalar> 
3181
(
-1.03592
0.400645
0.635272
-0.393216
0.369047
0.0241686
0.526509
-0.362079
-0.16443
0.121617
-0.201535
0.0799183
-0.0114133
0.0322845
-0.0208711
0.938508
0.653939
-1.59245
0.150194
-0.143793
-0.00640024
0.0326213
0.00554272
-0.038164
0.586045
-0.789274
0.203229
-0.0755126
0.137347
-0.0618348
-0.0103062
-0.0509533
0.0612595
0.133261
0.0453033
-0.178564
-0.0161977
-0.0217404
0.037938
-1.10243
0.151535
0.950893
-0.328147
0.704413
-0.376266
-1.12162
0.63741
0.484209
0.0850735
-0.93109
0.846016
-0.183673
0.220357
-0.0366832
-0.404196
-0.659889
0.0102331
0.0375323
-0.0477653
0.0375378
-0.0863729
0.0488351
-0.0640685
0.0617816
0.00228693
1.06881
-1.04328
-0.0255344
0.0326326
0.0316255
-0.0642582
-0.958604
0.32762
0.630984
-0.108909
0.230526
0.307574
-0.24578
-0.0617943
0.0299634
0.0630908
-0.0930543
-0.410592
0.338358
0.0722336
-0.0336162
-0.0231976
0.024017
-0.000819371
-0.0376212
-0.920983
0.0229446
-0.0493262
0.0263816
0.157912
1.19863
-1.35654
-0.0504131
0.0508957
-0.000482593
0.179039
0.275569
-0.454608
1.4878
-1.32989
0.0718313
-0.0342935
1.5297
-0.807075
-0.722625
-0.545722
1.48423
-0.0576232
0.0414255
-0.0563751
-0.00769346
-0.413949
0.0858023
-0.130648
0.0742732
-0.63295
0.127491
0.505458
-0.14883
0.073317
-0.1705
0.174827
-0.00432667
-0.272162
-0.077584
0.349746
0.309233
1.16884
-1.47807
0.0323411
0.166062
-0.198403
-0.0129645
-0.0995396
0.105576
-0.00603616
0.514521
0.189892
-0.0954669
0.141063
-0.0455964
0.0931161
-0.0701714
-0.172063
0.198528
-0.0264655
0.164557
0.0583986
-0.222956
0.110061
-0.116054
0.00599318
1.22779
0.301915
-0.849335
-0.186582
-0.060245
-1.77329
1.83353
0.551099
0.231873
-0.782972
-0.445238
-0.20624
0.651479
-1.57115
1.02543
-0.272337
0.823436
-0.324763
-0.104164
0.428927
-0.206794
-0.203798
-0.190373
0.167018
0.0233556
0.135073
0.284047
-0.41912
-0.250096
0.836142
-0.0195064
0.0521277
-2.22649
2.16625
0.187029
0.120546
-0.178818
-0.111927
0.290745
-0.269181
0.356414
-0.0872324
-0.0816229
0.0899634
-0.00834054
-1.91726
-0.919571
0.00961399
0.909957
-0.0437064
-0.00670674
-1.07444
0.792529
0.281907
0.398438
-0.178563
-0.219875
-1.54625
-0.0248962
1.10226
-0.950724
-0.717575
1.1524
-0.201502
1.06464
0.167934
-0.173738
0.00580389
1.09557
-0.441627
1.32556
-1.32556
-0.00750768
-0.00201158
0.00951926
-0.212763
-0.0535054
0.266269
0.0345955
-0.0421868
0.00759131
-0.455301
0.836139
-0.380839
-0.0196305
-0.235884
0.255514
-1.08682
0.043537
0.346495
0.0555964
-0.402091
0.133293
-0.862651
1.09452
0.0197656
0.108675
-0.128441
-0.0177627
-0.1543
-0.437218
0.0585433
0.378675
-0.143376
-0.293843
0.119695
-0.982346
0.326937
-0.782237
0.925713
-0.84064
0.0465464
0.0558923
-0.102439
0.0835842
0.0519151
-0.135499
-1.35286
-0.132932
1.48579
-0.245593
0.411001
-0.165408
-0.98976
0.539696
0.450065
-0.471548
-0.602888
0.0820341
-0.0496931
-0.154464
0.148783
0.00568131
-0.0774289
-0.013951
0.0913799
-0.576047
-0.213228
-0.0165176
0.0153229
0.00119467
-1.24599
-0.488746
1.73474
1.76699
-0.598156
-0.0197057
0.012198
0.0371912
0.149837
-0.200418
0.379457
-0.0253201
0.225704
-0.200384
0.138443
0.0681623
-0.206605
0.0731863
0.210734
-0.28392
-0.595155
-0.526465
-1.38054
0.134545
-0.0393451
0.0591107
-0.105509
0.184246
-0.0787363
-0.110487
0.0249909
0.125203
-0.0572985
0.0703182
-0.0130197
-0.0957682
-0.0216548
0.117423
0.0757797
-0.0757797
-0.186049
0.21104
0.255062
0.140742
0.105163
0.0933651
-1.26886
1.01877
-1.56139
0.108249
1.45314
0.0324433
-0.0289948
-0.00344847
-0.0265334
-0.0510463
0.0775797
0.536336
-0.0187021
-0.517634
-0.0296267
0.0298049
-0.000178164
-0.201064
0.0150145
0.16366
0.672479
-0.36502
0.52868
-0.126249
-1.22661
-0.0859032
0.0744899
0.48751
-0.304404
-0.183105
0.0267076
-0.0249517
-0.00175593
0.0485109
-0.320673
0.0237046
-0.943276
0.0495571
-0.155066
-0.287727
-0.402347
0.0724675
1.38735
-0.933883
-0.453472
1.08352
0.303833
0.0673078
0.282438
0.0294169
0.00302639
0.0684042
0.0905397
-0.158944
-0.252585
-0.586903
0.839488
-0.35752
0.691371
0.132108
-0.791997
0.165893
0.0316813
-0.0343827
0.00270136
-2.14755
0.303723
1.84383
-0.221073
-1.92648
-0.306029
0.652524
-0.907385
-0.0172897
0.00492129
-0.267242
0.262321
1.45634
-1.57489
0.118552
-0.0467038
-0.0391994
0.571116
-0.823702
0.241224
-0.344132
0.102908
-0.294998
-0.119334
0.414332
0.197575
-1.01111
-0.0757068
0.00509635
-0.0528617
-0.557232
0.350992
-0.246443
0.0185441
0.227899
0.05694
-0.103644
-0.0110774
0.0110774
-0.119469
0.13106
-0.0115902
-0.291613
-1.26978
0.0207149
0.0217959
-0.0425108
0.000539402
-0.069819
0.0692796
-0.222253
0.0318794
1.43457
-0.42788
-1.00669
-0.191021
0.448963
-0.257941
0.0171977
-0.0168637
-0.000334019
-0.53544
-0.454321
-0.185406
-0.00475062
0.190157
-0.173112
0.308185
-0.101306
0.0996292
0.00167681
0.0764001
0.0105121
-0.0869123
-0.10047
0.102305
-0.00183507
-0.564918
0.86891
-0.303992
-0.220979
-0.051179
0.272158
-0.693772
0.662903
0.0308689
-0.00776889
0.0393944
-0.00186307
0.00261183
-0.000748761
-0.0214149
-0.0428433
1.14956
0.617431
0.173105
-0.886409
0.713304
0.0321159
2.03833
-2.07045
0.383345
0.463964
0.861599
0.0636345
0.204135
-0.0656917
-0.0710173
-0.0285223
0.237239
0.157548
-0.0739641
0.736784
-0.409163
0.0609709
0.205298
0.050212
-0.165777
0.115565
-0.771644
-0.133691
0.905336
-0.00232478
0.00232478
-0.00277983
-0.267047
0.542616
0.0122136
-0.233192
0.189994
0.0303629
0.00235741
-0.0417025
0.135937
-0.146243
-0.346966
0.327335
0.0172159
0.0739187
-0.0911346
0.387654
-0.342351
0.182273
-0.358989
0.176716
-0.207641
0.274949
0.187294
-0.491698
-0.205994
0.606639
0.166134
-0.0340423
0.0340423
0.0349692
0.229497
-0.264466
0.384119
0.0268818
-0.0281912
0.0311982
-0.00300707
-0.0897274
0.0151499
-0.0316675
-0.049246
0.185183
-0.180437
0.241454
-0.0610171
0.129717
0.0278317
-0.390784
0.145004
0.191179
-0.061462
-0.0457692
-0.0555368
-0.0377599
0.0445866
-0.0068267
0.148778
-0.105473
-0.0433055
-0.0177468
0.396487
-0.37874
-0.0672194
0.047713
0.104056
-0.108356
0.00430044
0.0236979
0.06918
0.113093
-0.0649062
0.00616166
0.0587446
-0.0629925
0.0390968
0.0238958
-0.0916378
0.0978595
-0.720396
0.622536
-0.0369083
-1.45453
-0.340916
1.79545
0.409772
1.34025
-1.75002
0.0835955
-0.0839198
0.294654
0.279013
0.250768
-0.52978
-0.206948
0.25716
0.141919
-0.882989
0.74107
-0.0147333
-0.0482593
-0.0126842
0.0177805
-0.989864
0.444853
0.545011
0.933883
-0.814188
-1.63341
1.50048
-1.45634
1.56459
0.0395474
-0.0851438
0.00201597
-0.00387905
0.0143678
0.797555
-0.655636
0.122409
-0.0728521
0.414953
0.737443
-0.0539512
-1.73974
1.77185
-0.688263
-0.580599
-0.240244
-0.392706
-0.0257939
-0.16651
0.215021
-0.574911
-0.37404
0.183018
0.775732
-0.239396
-0.860664
-0.772748
0.744221
0.0818884
-0.0966216
0.283555
0.0385173
-0.0385173
0.670857
0.148483
-0.81934
-0.224889
0.895746
0.690168
-1.21117
0.521005
0.146673
-0.00593162
0.00613686
0.00728289
-0.0134197
-1.77329
-1.0773
0.47914
1.04061
0.393963
-0.0349752
-0.135525
-0.246905
0.761427
-0.197666
-0.0487773
-0.0030281
-0.0785947
-0.0534615
0.105377
0.37697
-0.249479
-0.814512
-0.286928
-0.0939407
-0.00433507
0.0982758
-1.23185
1.69581
-0.121899
0.0688843
0.0530146
0.0388083
-0.00939145
-0.0280463
-0.00743925
0.0354856
0.0100755
0.418851
0.0181352
0.00857243
-0.00390104
0.0014068
0.00249424
-0.0162179
-0.169188
-0.724931
0.372554
0.352377
1.22079
-1.85053
0.629742
0.138116
-0.159249
0.0211332
0.00987459
0.0721596
0.0187402
-1.3443
-0.0485504
0.0205041
-0.0605683
0.0108752
0.143865
-0.344283
-1.67293
0.896885
0.776047
0.0318157
0.0934776
0.0553008
-0.771644
0.409812
-0.97473
0.0610934
-0.0685327
0.0437882
-0.639899
-0.053873
0.0609528
0.130226
0.33347
0.0411689
-0.460289
0.123329
0.347777
-0.292181
-0.117039
0.0212709
0.222215
0.836714
-1.05893
0.104407
-0.713848
0.609442
-0.941081
0.807389
-1.70607
0.140691
1.56538
-0.0162908
0.0167947
-0.000503908
0.170241
-0.465238
0.208053
-0.121705
-0.0863483
0.0540435
-0.0149467
-0.0722366
-0.0217041
-0.0134021
0.0151153
-0.0365302
0.0205664
0.0784851
-0.0990516
1.09994
0.00358248
-0.00372181
0.000139334
0.0616501
-0.0139371
0.859625
0.0137582
-0.0529576
-0.496021
-0.581276
0.0911201
0.0555532
0.00767832
0.0857993
-1.56538
1.3443
0.0653528
-0.269582
0.204229
-0.252832
0.0790934
0.119437
-0.113633
-0.00144694
0.0914103
-0.024084
-1.19051
-0.482422
-0.0433256
0.063892
0.739842
-0.255632
-0.120361
0.1209
0.34545
0.000306936
-0.0284981
-0.00787947
0.0836592
0.145809
0.210604
0.155567
-0.332012
0.176445
0.108264
0.564214
-0.0393058
-0.109524
0.919803
-0.247871
-0.671932
-1.70607
-0.161295
1.38209
1.4878
-0.184544
0.304022
-0.119477
0.366953
-0.0777165
-0.289237
-0.29394
-1.25231
-0.0728995
0.0737626
-0.000863132
-0.165008
-0.0272362
0.192244
0.409402
-0.996385
0.586982
0.0402324
0.660205
-0.700438
-0.0445304
-0.109934
-0.0222685
-0.0426377
0.323892
-0.288923
-0.0146683
-0.00162257
0.175398
-0.0516958
-0.123703
0.116842
-0.0484383
0.00733448
0.0314739
-0.0629486
0.118841
0.00268374
-7.19135e-05
0.196827
-0.43271
-0.24242
1.58267
0.00699009
-0.00466532
-0.993042
-0.018066
0.0183031
-0.0725648
-0.0444744
0.0240175
0.217207
0.729129
-0.667466
-0.0616636
0.090354
0.000766104
-0.936629
-0.0140957
-0.0171667
-0.648687
0.746546
-0.0178557
0.18399
-0.378759
-0.832414
0.18486
-0.443234
0.258373
0.0391818
0.186522
0.00995574
-0.0104186
0.000462882
-0.0471802
-0.0532899
-0.0209809
-0.133319
0.742963
-0.638556
-0.0705278
0.0448935
-0.00505642
0.312076
-0.15651
-0.0935911
1.13691
-0.132954
-1.00396
-0.120515
0.139059
-0.505276
-0.219654
-0.556052
0.607558
-0.591561
-0.0159971
-0.0627761
-0.00775167
-1.73974
0.548818
-0.548818
-1.66142
1.66142
0.797555
-0.619084
0.194466
0.424618
-0.899913
-0.0931293
0.632081
-0.368661
-0.26342
0.162563
-0.2413
-0.013401
-0.00630472
-0.898859
-0.083487
-0.932919
0.212523
0.0387351
-0.0430702
0.696394
-0.10736
-0.589033
1.20196
0.285848
-0.00137084
0.0113266
-0.962163
0.12777
-0.486759
-0.082483
-0.607702
0.690185
0.0017478
-0.873383
-0.70151
0.218419
-0.813574
-0.905336
1.33649
-0.431152
-0.139976
0.280509
-0.140533
-0.0278194
0.724213
-0.10683
-0.977315
0.977315
-1.15114
0.935643
0.2155
0.000233451
0.00334902
0.0241851
-0.438563
0.833193
-0.0406636
-0.0852904
-0.0354892
0.0548234
0.00799046
0.00920727
2.1689
-2.02821
-0.332664
0.409064
-0.641052
1.01837
-0.377316
-0.0620623
0.0135119
0.123861
-0.0556984
0.359173
0.0064216
-0.028162
0.354554
0.0419327
0.0427126
-0.247724
0.205011
0.140355
0.0344715
0.0973274
0.180828
1.96237
0.203877
0.318169
0.214344
-0.532513
-1.23489
1.53861
0.224139
-0.149866
0.0769408
-0.767156
0.690215
-0.300915
0.12842
-0.475386
-0.0748521
0.133795
-0.0589433
0.131128
-0.20598
-0.449505
-0.107728
-0.0716846
0.074783
-0.00309834
0.00351643
-0.000832687
-0.0561625
-0.0140089
0.655636
-0.609442
-0.0461944
-0.292514
0.304728
0.876946
0.621414
-0.254461
-0.00743563
0.0292316
-0.144691
-0.19944
0.170778
-0.579608
0.40883
-0.00966622
-0.000752402
-0.373373
0.247457
0.125916
0.00646034
-0.0123649
0.00590458
-0.0243267
0.0165662
0.00776051
-0.538403
0.0967755
-0.163197
-1.29133
-0.198737
-0.814188
1.56459
1.50048
-0.193385
-0.174232
0.123053
-0.0631927
0.0688462
-0.0056535
0.00117802
0.73863
-0.739808
0.555308
0.0767731
0.000755362
-0.0104216
0.121025
-0.483654
0.0354892
-0.0478468
0.00452124
-0.470618
0.325926
-0.0112704
0.0136278
-0.237941
0.625596
1.08352
0.239973
-0.0618189
0.00133626
0.0604826
1.82461
-0.324134
-0.0613074
-0.0547468
-0.976507
0.16232
0.41535
-0.217775
-0.477087
-0.13231
0.609398
0.824286
-0.368255
-0.456031
0.241269
0.487861
-1.77185
-0.00143541
0.00539161
-0.0174493
0.0120577
0.119636
1.91869
-0.174034
0.180171
-0.0544231
2.20391
-0.639322
-0.677675
0.0523687
0.625307
0.385477
-0.00145757
-0.349615
0.528827
0.80605
0.347781
0.0769083
-0.0216075
-1.36448
-0.0535769
1.41806
1.16024
0.009858
-0.013759
-0.0510989
-0.359539
0.106629
-0.313576
0.855922
0.280991
-0.0614277
-0.00134847
0.229255
-0.413799
-0.0242458
0.0164769
0.111673
-0.149007
0.0373334
-0.299597
0.313257
-0.0136603
0.468862
-0.601816
-1.5935
0.841824
0.751671
-0.00457156
-0.109389
0.11396
0.272566
0.0395108
-0.345423
0.755235
-0.662109
0.662109
1.83353
1.20196
-0.713848
0.32523
0.48082
-0.358436
0.09397
0.923413
-0.368104
0.0088636
-0.874146
0.865282
0.131508
0.00583937
0.0258002
-0.085667
-0.259756
0.0249856
-0.168267
-0.120186
0.288453
0.127464
-0.512688
0.344421
-1.09869
-0.28726
-0.653245
-0.00702527
-0.0038644
0.000142588
-0.225383
0.00745842
0.0908174
0.0336599
-0.1463
0.112641
-1.06687
-0.0842758
-0.00577708
0.0688679
0.328476
0.0301822
-0.358658
-0.567088
0.383983
-0.123231
0.19715
0.234018
0.0047091
-0.0173933
-0.789119
0.361239
0.034357
0.0696985
-0.0895715
0.0845151
0.199946
0.00810714
-0.427689
1.86257
0.464176
0.128677
0.867087
-0.790146
0.79157
-0.44612
-0.614742
0.176179
0.153232
-0.792162
0.766572
0.0255905
1.03196
-0.176042
-0.20016
-0.132503
-0.0228444
-0.0193423
0.952132
-0.838449
-0.113683
-0.183448
0.109484
0.0275952
0.121187
0.876425
-0.133756
-0.757139
0.890895
-0.324954
-0.0490859
0.731297
-0.402821
0.17611
1.30968
1.52578
-0.323822
0.168837
0.552814
-0.721651
-0.166675
0.0498773
-0.00105724
0.00576635
-0.512322
-0.10242
0.13162
-0.0746804
-0.187547
0.138301
-0.532372
0.27443
-0.992045
0.195644
-0.288793
-0.534056
1.52283
-0.0696898
-0.287706
-0.126002
-0.344616
0.206117
0.301072
0.0534817
1.2985
-0.889094
-0.190556
0.129095
-0.408285
0.0285426
0.379743
0.00118068
0.00421093
0.0486758
-0.0606884
-0.238908
-0.119133
0.697907
-0.421186
-0.276721
0.267417
0.134353
-0.0967789
-0.037574
0.242043
0.0590295
-0.061628
-1.68839
-0.0959162
0.139704
0.316809
-0.450565
-0.0265199
0.0504157
-0.0221323
0.0190613
0.00307102
0.000580857
-0.0295757
-0.243068
0.0772908
-0.0140765
-0.557037
0.41706
0.0202318
0.124494
-0.129066
-0.694264
1.46445
-1.18346
0.0155877
-0.193286
0.177698
-0.140716
-0.537597
0.678314
0.0740724
-0.713972
-0.567807
-1.02569
-0.0246615
0.00186317
0.0227983
-0.249392
-0.607558
-0.164086
-0.140094
-1.36448
-0.231384
0.165692
-0.17773
-1.15123
-0.347233
0.186659
0.160574
0.263933
0.114069
0.457874
0.202727
-0.660601
0.0184867
0.0634017
0.909237
0.17957
-1.08881
-0.220952
0.403077
1.13554
-0.241908
0.180891
-0.376495
0.779572
0.416475
-0.357931
-0.0177238
0.0320916
-0.0159349
0.736237
-0.60756
0.73654
0.0877458
-1.52725
0.336737
0.241637
0.681776
0.915022
0.00478088
-0.0178664
-1.52578
-0.653245
-0.712949
0.722563
0.0349228
-0.860664
0.660205
0.602247
-0.931578
0.739914
-0.00440564
-0.787757
-0.314814
0.638128
-0.771466
0.133338
0.080952
0.0534009
-0.153289
-0.0752251
2.05741
-1.98218
-0.00269621
-0.00116819
-0.26361
0.214833
0.712201
0.222469
-0.207455
-0.182111
1.297
-1.78574
0.409078
0.01554
0.261882
0.160682
-0.422564
-1.69902
1.64544
-0.0284084
0.0585907
0.10051
1.34284
-1.41806
-0.000225967
0.215595
-0.0370911
0.0825306
-0.0642275
0.00617051
-0.0387633
0.0325928
-1.02333
-0.0355999
0.315598
-0.80491
-1.25684
1.28286
-0.0260252
0.374495
0.643872
-0.0497731
0.0532779
-0.00350479
-0.319326
1.61632
-0.719098
1.57375
-0.0375393
-1.2193
0.314521
-0.0989268
-0.584966
-0.407079
-0.773257
1.03514
-0.0571299
-0.878551
-1.87858
-0.191861
1.34284
0.0501947
-0.855104
0.830515
-0.645286
-0.185228
-0.98178
0.396813
0.0153249
0.115635
1.73549e-05
-0.115653
-0.971624
0.564545
-0.215053
0.912297
-0.926393
0.191944
-0.208162
-0.0956654
0.239531
-0.197977
0.292155
-0.0468856
-1.41698
0.413025
1.28017
-0.932394
-0.553197
-0.518016
1.07121
0.446803
0.0179253
-0.0106424
-0.736037
0.700438
0.811521
-1.13085
-0.861599
0.72192
0.139679
1.48761
-0.204747
0.776414
-0.81003
-0.493216
-0.45006
-0.47142
-0.500204
0.803659
-0.803659
0.685843
-0.685843
-0.736037
-0.697024
0.697024
-0.72192
-0.77566
-1.12857
0.467587
-0.633775
0.633775
0.811521
-1.13085
0.776414
0.766493
-0.766493
0.81003
0.758759
-0.758759
0.506784
0.52858
0.481984
0.177746
-0.499796
-0.54994
1.07852
-0.932495
-1.58668
0.813427
0.143486
-0.171894
-0.21199
-0.0130208
0.026779
-0.885815
0.0940846
0.791731
-0.0757668
0.0499729
-0.996131
0.586968
0.915872
-0.590641
-0.125164
0.0133463
-0.00868588
-0.808152
-0.078257
-0.545011
-0.00210795
0.0198885
0.90368
-0.0674188
-0.00111385
0.173955
-0.00315054
-0.00707121
0.0102217
-0.811069
0.0674118
0.743658
-0.191023
-0.0069535
-0.531193
0.414547
0.116645
0.916266
-0.742222
-0.174043
0.0802781
0.299179
-0.0137388
-0.0579458
-0.0587479
-0.0141516
0.677448
-1.90929
-0.845342
0.0982039
-0.742277
0.795502
-0.0532252
0.122352
-0.899998
0.777646
-0.803046
0.90474
-0.101694
-0.0476535
0.0482343
0.0198245
-0.287066
0.489783
0.545356
-0.0949229
-0.790892
0.91673
-0.0923339
-0.824396
-0.0241017
-0.0379607
-0.0475375
0.821343
-1.10266
0.45983
-0.383057
0.102203
-0.893096
1.32989
0.331524
-0.790447
0.0026909
1.01738
-0.895029
1.19488
0.479771
-0.450529
-0.029242
-0.880361
-0.11577
-0.412981
0.0342408
-0.613303
0.55164
-0.784559
0.784559
-0.606793
-0.0857378
-0.863755
0.121532
-0.947705
0.865222
0.0757896
-0.197494
-0.0579941
0.0588639
0.0114543
0.188944
0.828437
0.819002
0.771563
0.139587
-0.911151
-0.69971
0.527816
-0.782449
-0.106598
0.889047
0.170901
-0.889998
-0.674811
0.887544
-0.78534
-0.107391
0.46004
-0.0220973
-0.437943
-0.421839
1.08712
-0.66528
-0.115091
0.0396286
0.0754621
-0.889839
-0.830109
0.0878322
0.528359
0.263211
-2.08983
0.314397
-0.579526
0.579526
-0.95758
-0.459404
0.0344532
-0.29421
-0.282018
1.12384
0.780946
-0.203245
0.206516
-0.10974
0.127663
-0.396307
0.268644
-0.553999
-1.29653
0.0274054
-0.219939
-0.542401
-0.432328
0.231426
0.302802
-0.222524
0.78096
-0.882653
1.02478
-0.49696
-0.149798
0.736766
0.583852
-0.583852
-0.0542256
0.0448342
0.110721
-0.0770616
0.419569
0.66755
0.187288
0.00335399
0.00790875
-0.0112627
-0.669045
0.693683
-0.0246377
-0.00118068
-0.449348
0.10888
-0.89422
-1.07778
1.41441
-0.336625
0.089989
0.87503
-1.17924
1.17806
-0.754633
0.603512
-0.657385
-0.659734
0.154458
-0.321686
0.0273134
0.110567
0.273572
-0.595257
0.00432541
0.0293487
0.0688561
0.726646
0.692325
-0.0888132
0.0745323
0.785093
1.12815
-0.165389
-0.962757
-0.534287
0.523485
0.310449
-0.948353
0.725765
0.222588
-0.685645
-0.127929
0.898103
-0.440839
0.151916
-0.0383786
0.486116
0.513884
-0.770199
-0.112454
-0.70857
-0.847194
0.0343915
-0.50612
0.400601
0.599399
-0.0815171
0.06758
-0.862533
-0.0662936
-0.591092
-0.158178
-0.246492
0.40467
-0.0221021
-0.0019819
0.112914
0.0722691
-0.128232
-0.114835
0.75926
-0.643428
0.71796
-0.578438
0.85201
-0.549708
-0.366817
0.916525
-0.746733
-0.191066
0.937799
-0.242616
0.230511
-0.0252128
-0.0632178
-0.0404261
0.0120811
0.712763
-0.133236
0.122438
0.11158
-0.735473
0.0664279
0.348851
-0.565908
0.290827
-0.114111
-0.836611
-0.286088
1.02353
-0.00535458
0.15444
-0.208863
-0.0138373
-0.00775393
-0.0578865
0.474891
-0.12604
0.487883
-0.259823
-0.22806
0.847092
-0.0321102
-0.00294599
0.0350562
0.128502
-0.0146009
-6.73827e-05
0.219401
-0.107728
0.585481
-0.867499
0.762608
-0.274725
0.00696014
0.292118
-0.62664
-0.963826
1.25751
-0.293689
-0.778551
0.835134
-0.0565836
0.330279
0.405559
0.0109161
-0.0715334
0.894461
-0.457603
-0.0735896
0.276798
0.453631
0.189295
-0.642926
0.407821
0.0388189
0.654864
-0.572906
0.563937
0.00896942
1.00975
-0.803628
0.000600148
-0.000969901
0.000369752
0.697294
-0.00939579
-0.0826659
0.0194453
1.35344
0.516096
-0.185816
0.0280098
0.0474048
-0.156794
0.132896
-0.0579061
-0.07499
0.0222508
-0.0160803
0.508577
-0.329007
0.109304
0.221115
-0.0259538
-0.0886651
0.224903
0.0964134
0.00306758
0.059235
0.76615
-0.0478645
0.277286
-0.229421
0.551961
0.185826
-0.737786
0.644068
0.116651
-0.0213773
-0.0249843
0.0463616
-0.412297
-0.256422
-0.139885
-0.00510345
0.749325
0.71763
0.402185
0.0109498
-0.164239
0.814969
0.085806
-0.179397
-0.88372
0.0626784
-0.273998
0.301777
-0.173691
0.693006
0.0731441
0.0133095
0.640335
-0.234776
-0.0213065
0.163945
0.0255378
-0.111911
0.422527
-0.0573214
0.212103
-0.0714279
0.17063
-0.146541
0.698501
-0.152459
0.144314
-0.0457415
-0.110172
0.017608
-1.42013e-05
-0.0175938
-1.21902
0.415392
-0.00882728
0.883513
-0.229133
-0.61704
0.641443
-0.024403
0.505138
0.759434
0.95639
-0.0398649
0.0785215
-0.174187
0.633098
0.126336
1.11263
0.583176
-0.268508
0.728338
0.154945
-0.280986
-0.600464
0.351179
0.249285
0.681665
-0.0708074
0.041756
0.0645341
-0.0470964
1.1581
0.736701
0.0782682
0.622143
0.217345
-0.871591
-0.0810726
-0.675217
0.677908
-0.0247778
-0.584919
0.426741
0.870038
0.671917
0.113817
0.0776693
-0.157601
-0.317785
0.926865
0.537581
-0.0422348
-0.00533556
-0.555723
0.274737
0.49968
1.23506
-0.0781038
-0.595588
-0.740222
0.930325
-0.190103
-0.413888
-0.186576
-0.00115579
-0.160243
-0.19427
0.759789
-0.000215954
0.00162275
0.627045
0.377202
-0.491313
0.605623
-0.132663
0.234722
0.75634
0.24616
-1.0025
0.277462
-0.922748
0.115782
-1.29924
-0.176442
0.767299
-0.590857
-0.668673
-0.0306342
-0.0325836
-0.0549845
-1.3966
0.0201359
-0.0422682
0.856342
0.166059
-0.179389
0.0133302
-0.0515816
-0.574911
-0.0456984
0.200138
-1.21928
-0.00646322
0.00331267
-0.228051
-0.053686
-0.593281
0.0203748
0.567985
0.302053
0.909234
0.886212
-0.242963
-0.38646
0.629423
-0.346999
-0.618431
0.618431
-0.232453
-0.927936
1.16039
0.0301756
-0.150691
0.682031
-0.114046
-0.222667
-0.0829955
0.234912
-0.00472461
1.21926
0.0860128
0.176755
-0.104287
-0.889121
0.483512
0.0804252
0.0595041
0.0123272
-1.62036
-0.544474
-0.330783
0.693224
0.306776
-0.544474
0.693224
-0.349391
0.00623585
-0.349391
-0.696332
0.696332
0.303668
-0.0143375
0.0215785
-0.0762156
0.21013
0.0662279
-0.468668
0.639387
-0.0337639
0.656851
-0.505589
-0.151261
-0.0564712
0.055291
0.00118019
-0.017934
0.021288
0.0492348
0.0189143
-0.0915205
-0.435078
-0.354418
0.129035
0.0427433
0.82866
-0.275846
-0.487948
0.143332
-0.00728945
-0.177504
-0.00686375
0.68134
0.0679844
-0.233906
0.00219699
0.000297249
-0.00275993
0.0855614
0.561763
-0.477762
-0.0840008
1.73621
0.550574
-0.608181
0.902854
0.0112077
-0.062254
0.106626
-0.316936
0.0834012
1.13019
-0.373851
0.0110331
-0.0180584
0.353771
-0.306403
0.0221037
-0.0221037
0.0202792
-0.0202792
-0.00299907
0.00299907
0.00699009
0.365571
0.460045
0.0582156
-0.719089
0.479694
0.189762
0.0296387
-0.0827194
-0.483684
0.816237
0.111447
-0.797092
-1.16737
0.334955
0.0318196
0.0194995
-0.00293322
-0.00765974
0.00765974
0.356833
-0.0095229
0.0095229
0.700508
0.0940888
0.000991179
0.00120581
0.00670844
-0.0685273
-0.0227682
0.0227682
0.00052282
-0.00052282
-0.0220181
0.0220181
-0.0088384
0.0088384
0.0848342
-0.295389
-0.0822882
0.220935
-0.00956463
0.00956463
-0.375187
0.510535
-0.135348
0.501476
-0.220967
-0.0973796
-0.390569
0.559543
0.0267253
0.0769412
0.564501
0.56571
-0.00788868
0.00788868
-0.22299
0.0245602
-0.0245602
-0.0100487
0.0100487
0.758282
-1.04469
0.033729
-0.261379
0.508837
0.00595532
-0.00595532
0.000301086
-0.000301086
0.0180866
-0.0180866
0.0235173
-0.0235173
-0.0231794
0.0231794
0.0346523
-0.0346523
0.485953
-0.0313961
0.0313961
-0.00588794
0.00588794
0.0237401
-0.0237401
0.00207191
-0.00207191
0.00806684
-0.00806684
-0.0885403
-0.0254233
0.0254233
0.549939
0.0315442
-0.0389528
0.0389528
-0.00132315
0.00132315
0.00607287
-0.00607287
0.0330729
-0.0330729
0.0260598
-0.0260598
0.00596953
-0.00596953
0.00237687
-0.00237687
0.157278
-0.305985
0.00125123
-0.00125123
-0.00538404
0.00538404
-0.037634
0.037634
-0.02833
0.02833
-0.00142547
0.00142547
-0.416059
0.657696
0.265973
-0.0315978
0.0315978
-0.022328
-0.00122653
0.00122653
-0.00489299
0.00489299
0.0377888
-0.0377888
-0.10639
-0.0730072
-0.0025274
0.0025274
-0.0232204
0.0232204
-0.494722
0.0445708
-0.0718618
-0.0317957
0.0317957
-0.445307
0.0340239
0.019254
-0.546891
-0.980356
-0.0362481
0.0362481
-0.200121
0.1428
-0.0413082
-0.00455897
0.00455897
0.000628529
0.0482065
0.264403
-0.324915
-0.278756
0.603671
0.192751
0.00242796
-0.00242796
-0.0598059
0.0101809
0.0496249
0.771447
-0.393815
-0.377632
-0.461959
-0.661953
-0.203495
0.346827
-0.45426
-0.0800272
-0.5744
-0.00599133
0.191839
-0.622306
0.015758
-0.015758
-0.00334466
0.00334466
0.0304288
-0.0304288
0.0265078
-0.0265078
6.63773e-05
-6.63773e-05
-0.00259226
0.00259226
0.00543844
-0.184002
0.174501
-0.299665
-0.00048697
0.00048697
-0.0454221
0.0454221
-0.0398103
0.0398103
0.057399
0.106708
-0.164107
0.00226899
0.314423
-0.543555
0.00100533
-0.00100533
-0.0117526
0.0117526
-0.0952328
0.116152
-0.319646
-0.00305514
0.00305514
0.0657449
0.0163235
0.985551
-0.484622
-0.0812984
0.56592
-0.629024
-0.147699
-0.465605
-0.0390219
0.0390219
-0.679757
0.278319
0.0489667
-0.0489667
-0.648687
0.385268
0.264121
0.119655
-0.000410961
0.000410961
-0.835341
-0.000553545
0.000553545
0.315397
0.408816
0.0264801
-0.0529059
0.0529059
-0.00311898
0.00311898
-0.0418309
0.0418309
-0.054291
0.054291
-0.000692882
0.000692882
-0.0599723
0.0599723
-0.000893305
0.000893305
-0.0451179
0.0451179
-0.00480416
-0.0456349
0.0456349
0.00472301
-0.00472301
0.0476179
-0.0476179
-0.00134495
0.00134495
0.0481153
-0.0481153
-0.273065
-0.00282635
0.00282635
-0.00440983
0.00440983
-0.0509958
0.0836592
-0.0103144
0.0103144
0.00479293
-0.00479293
-0.058641
0.058641
0.295152
-0.0180749
0.0180749
-0.0577054
0.0577054
-0.00739685
0.00739685
-0.0664093
0.0664093
-0.0134024
0.0134024
-0.0794326
0.0794326
-0.0214712
0.0214712
-0.0950387
0.0950387
-0.690884
0.147386
-0.531142
0.506739
-0.873383
-0.0467289
-0.5659
0.392209
0.17689
0.0905276
0.00362922
-0.00362922
0.210676
-0.71873
0.0434883
-0.0311611
-1.1002
1.38605
0.347569
0.254985
-0.0136284
-0.0210373
-0.394968
-0.579855
-0.0618034
0.392728
-1.19855
-0.0201164
0.0201164
-0.751785
0.0202415
-0.0202415
0.00216447
-0.00216447
0.312279
-0.305782
-0.00271143
0.00271143
0.0193513
0.014691
0.598155
-0.12302
-0.02088
-0.0108929
-0.00697347
-0.0971444
0.494226
-0.397082
0.0320873
-0.00468187
0.00923502
0.92089
0.00431723
0.0533841
-0.407505
0.441745
-0.488803
-0.991588
-0.235026
-0.0713531
0.0178916
-0.036638
0.0762666
0.0106576
-0.00435847
0.00516533
0.785614
-0.552754
-0.0379399
0.0634776
-0.0363353
0.0377121
-0.0161335
0.423993
0.23891
-0.167859
0.213931
0.0146122
-0.00410012
-0.817093
2.12782e-05
-0.133708
-0.0456812
-0.0192634
-1.24076
-0.0710269
0.264086
-0.3506
0.392533
0.277662
-0.811719
0.0437978
0.0487399
-0.0867005
-0.347985
0.46463
-0.057595
0.0394394
0.0181556
-0.0268385
0.0268385
0.177645
-0.432106
-0.118254
0.0484352
-0.079605
0.0548271
-0.0647032
-0.00613647
0.0708397
-0.0401419
-0.152339
0.104804
0.0459101
-0.290374
-0.356535
0.646909
0.0149041
0.0588585
0.152155
-0.0297174
-0.141423
0.0673976
-0.156588
0.30982
0.00641297
0.0286432
-0.0263919
0.178547
0.00315097
0.25917
-0.0018788
0.0018788
-0.727201
1.22688
0.0896004
-0.170673
-0.0324619
0.0342097
1.1074
0.0706529
0.0292092
-0.0181319
-0.532742
0.00159996
0.116953
0.0911452
-0.68042
0.312315
-0.0573514
0.380061
-0.670435
0.212415
0.51335
-0.0886385
0.0886385
1.73557e-05
-0.887464
-0.177304
1.06477
-0.211684
0.1567
-0.125678
0.026457
-0.628273
-0.0565977
-0.000338547
0.00235452
0.930116
0.253285
-0.139468
-0.068884
-1.14261
-0.0766947
-0.048629
-0.269528
0.798355
0.579202
-0.26478
-0.282907
0.575025
0.0325815
0.27144
-0.269125
0.0591406
-0.465641
0.330292
0.124677
-0.124677
0.00885516
-0.0772497
0.0683945
-0.000669643
0.007887
0.0190613
-0.00446322
-0.407833
0.228504
-0.187242
-0.0412623
0.54393
-1.07536
0.317825
-0.8991
0.694781
-0.120247
-0.179418
-0.0395256
-0.0796078
-0.485781
0.0507025
-0.286518
0.000684498
-0.0192634
0.378592
-0.0051441
0.0030738
-0.000726228
0.0139484
-0.00954538
-0.00440303
-0.103924
-0.0170063
-0.165993
0.182999
-0.125648
-0.339992
0.0193513
0.346266
0.00177254
-0.373782
0.0849891
0.00254208
0.157093
-0.0988778
-0.0122053
0.0122053
-0.00111674
0.000823903
-0.00945881
-0.000484111
0.0069775
0.000749135
-0.00116127
0.130068
0.0871384
-0.0026186
0.0026186
0.0563807
0.513688
0.00072841
-0.292348
0.492037
1.13935
-0.473633
0.334546
-0.4381
-0.120038
0.00178371
0.229116
-0.230419
0.0174566
0.0155163
-0.00343521
-0.00941802
-0.181918
-0.381783
0.861477
0.345619
-0.34018
0.0769683
-0.00157942
0.0817652
0.00822378
0.000925437
0.00151605
0.0140002
0.167546
0.00131879
-0.000296853
0.719775
-0.652378
-0.244747
0.118268
0.636007
0.00049105
-0.000150533
-0.0413082
-0.00573587
0.817552
-0.430791
0.511216
-1.17798
0.906175
-0.499884
0.580433
-0.188224
0.697143
0.000356052
0.00339626
0.0161032
-0.119827
0.13997
-0.0272244
0.00902494
-0.00132265
0.0647008
-0.0503825
-0.0143183
9.94394e-05
-0.0160778
0.0536012
-0.0375234
-0.0900761
0.00840913
-0.000500379
0.00210441
0.473133
-0.429191
0.00567976
-0.000420141
1.05171
-1.22902
0.388278
-0.00581929
0.00121431
0.163272
-0.0539681
-0.0416397
-0.115015
-0.0170454
-0.00356225
0.120616
0.0132892
-0.00186225
0.412574
-0.000212394
-0.00445347
0.00445347
-0.000676367
-0.0102166
-0.000420597
-0.323638
-0.00365912
0.0717604
-0.107327
0.284385
0.15255
-0.0655352
-0.000518354
0.00158348
0.464991
-0.000477335
-0.00104606
-0.000109726
-0.00202054
-0.000453325
0.105366
0.0819227
-0.710225
0.474381
-0.856164
0.192418
-6.38435e-05
-0.57024
0.129347
0.102079
0.591949
-0.0152691
-0.075466
-0.00393922
-0.00134881
-0.55342
-0.00328701
-0.000200426
-0.014298
0.946082
-0.538261
-0.0025
-0.000451649
-0.0057351
-0.0014814
0.0674428
-0.0225529
0.0225529
-0.00268298
0.00350688
-0.00260392
-0.00776825
0.0208673
-0.0177935
-0.16419
0.0933822
-0.00600553
-0.0130233
0.0422714
-0.0165259
0.0616049
-0.0437133
-0.623745
0.57052
-0.00352299
-0.00116371
0.352695