/*--------------------------------*- C++ -*----------------------------------*\
| =========                 |                                                 |
| \\      /  F ield         | OpenFOAM: The Open Source CFD Toolbox           |
|  \\    /   O peration     | Version:  2306                                  |
|   \\  /    A nd           | Website:  www.openfoam.com                      |
|    \\/     M anipulation  |                                                 |
\*---------------------------------------------------------------------------*/
FoamFile
{
    version     2.0;
    format      ascii;
    arch        "LSB;label=32;scalar=64";
    class       volVectorField;
    location    "31";
    object      U;
}
// * * * * * * * * * * * * * * * * * * * * * * * * * * * * * * * * * * * * * //

dimensions      [0 1 -1 0 0 0 0];

internalField   nonuniform List<vector> 
2186
(
(1.31057 -0.0640458 1.97785e-19)
(1.64122 -0.954248 -9.75772e-20)
(1.48255 -0.930319 9.11713e-22)
(0.754308 -0.595109 -1.34028e-19)
(-0.0964737 0.327424 -1.64597e-19)
(1.45078 -0.110698 0)
(0.740477 -0.684205 0)
(-0.189417 -0.222611 1.12967e-19)
(1.52391 -0.182118 1.94945e-19)
(0.564189 -0.324893 -2.47976e-21)
(0.66868 0.603149 0)
(0.860628 -0.27964 -1.42972e-19)
(-0.207761 -0.201236 -4.41926e-20)
(1.20987 0.0230586 -3.45383e-19)
(1.83081 -0.692851 -1.04218e-19)
(1.0125 -0.00338815 1.6408e-19)
(0.979779 0.0118213 0)
(-0.227609 0.575765 0)
(1.04417 0.255588 0)
(-0.113271 0.208406 -5.90679e-20)
(0.483422 0.0755455 -1.08763e-19)
(-0.171783 0.205284 8.13269e-20)
(1.1962 0.026425 2.85568e-19)
(-0.196312 -0.0709259 6.27674e-21)
(1.03438 0.00648838 -2.24627e-19)
(0.805411 -0.570067 0)
(0.763744 -0.0407009 1.35854e-19)
(0.62766 -0.607176 -1.52348e-19)
(1.20152 0.707891 0)
(0.966136 0.0234808 -3.06675e-19)
(-0.0521815 0.0898562 0)
(1.02659 -0.0119158 1.06219e-20)
(-0.19387 0.0669068 0)
(1.94121 0.0995358 1.61076e-19)
(-0.130771 -0.185113 1.40711e-21)
(1.52529 0.771993 7.7465e-20)
(1.81647 0.0607525 1.23026e-19)
(0.508297 0.124123 -3.24497e-19)
(1.88591 0.25814 -2.43049e-19)
(1.48599 -0.0292112 -1.56293e-21)
(-0.236723 -0.205902 0)
(-0.120423 0.160869 0)
(1.91589 -0.890112 9.5847e-20)
(-0.399311 0.137916 0)
(1.10422 0.27819 1.48042e-19)
(0.607393 -0.306621 2.63964e-19)
(0.942456 -0.802863 0)
(1.20605 -0.801817 9.16994e-20)
(2.23647 0.00269883 0)
(-0.131969 0.539817 1.47122e-19)
(-0.0499881 0.128488 8.72775e-20)
(0.620083 0.572387 7.79357e-20)
(2.10372 -0.763968 1.17123e-19)
(0.589617 0.260546 -2.61693e-19)
(-0.314069 -0.113049 3.16602e-20)
(0.780125 -0.664921 0)
(1.702 -0.984674 1.93469e-20)
(0.597292 -0.556906 0)
(2.2542 0.236796 7.19049e-20)
(1.14678 -0.172717 -3.20378e-19)
(2.14413 -0.103049 1.92785e-19)
(1.34088 0.303755 -1.74602e-19)
(1.33926 0.534246 0)
(1.71133 -0.056346 1.71265e-21)
(1.36043 0.389998 -1.07544e-19)
(1.27108 -0.745733 -1.23963e-19)
(1.16117 0.6582 5.15894e-20)
(0.679328 0.0604273 -5.25644e-19)
(0.818282 0.0480388 0)
(2.33958 -0.140552 -7.02552e-20)
(-0.195028 -0.236252 -1.34296e-19)
(2.52978 0.0334444 -2.02248e-19)
(0.728672 -0.0493467 -2.30804e-19)
(0.889745 -0.529795 0)
(0.823488 0.171573 -8.58083e-20)
(0.562953 -0.5235 -2.73811e-19)
(2.44761 -0.0147768 0)
(1.00697 0.0085259 3.37019e-19)
(-0.127257 -0.214372 0)
(1.9931 0.363168 0)
(0.659603 0.329174 6.95451e-20)
(1.506 -0.0622521 -1.21895e-20)
(1.02317 0.00573116 3.72945e-20)
(1.30879 0.413745 2.69848e-20)
(0.972981 0.0230724 3.90665e-19)
(1.04164 0.0272768 -9.27968e-21)
(0.664819 0.164842 -3.15108e-19)
(1.12227 0.0162349 5.37595e-21)
(1.27766 -0.167319 0)
(-0.0718413 -0.0676855 1.05294e-19)
(0.876988 -0.635916 -1.471e-19)
(-0.136943 0.0841877 -1.21765e-21)
(1.12289 -0.0785498 2.25308e-19)
(0.825878 -0.193449 0)
(0.974764 0.0229757 3.74101e-20)
(1.35508 0.643088 0)
(1.65043 -0.966431 0)
(1.29946 0.222121 0)
(-0.141105 0.504465 0)
(0.807759 -0.680526 2.63195e-19)
(0.609361 0.365555 -2.43104e-19)
(0.715507 0.402164 1.44738e-19)
(1.56559 0.194677 0)
(1.15541 -0.103616 -2.05968e-19)
(1.12431 0.0232339 1.66787e-19)
(-0.180133 0.213294 1.0616e-19)
(0.628492 0.495807 0)
(2.222 -0.157049 -1.30761e-19)
(0.98026 -0.489554 7.35826e-20)
(-1.13102 0.154559 1.7902e-19)
(1.72381 0.321666 1.08704e-19)
(-0.109533 0.362455 -2.33678e-19)
(0.835498 -0.759501 0)
(0.557718 0.336561 1.58945e-19)
(1.76817 -0.210367 -5.71743e-19)
(-0.154056 0.0407929 -4.1005e-19)
(1.70743 0.628675 1.64283e-19)
(1.89386 0.0492635 0)
(-0.0953988 -0.0948572 -3.14727e-19)
(0.713628 -0.0853221 7.28357e-20)
(1.54602 0.875879 0)
(-0.0278664 0.577712 -1.94162e-19)
(0.876305 0.752911 -2.62187e-19)
(-0.392263 0.553418 2.89938e-19)
(1.02896 -0.0256399 0)
(1.58301 0.521407 -2.07025e-19)
(-0.0825788 0.337275 0)
(0.711572 -0.507752 -9.79123e-20)
(-0.272762 0.552656 -1.57067e-19)
(0.807512 -0.737387 0)
(0.446644 -0.293143 3.85797e-19)
(0.556023 -0.470422 2.57619e-19)
(0.424335 -0.38429 0)
(1.00347 -0.797398 -1.07047e-19)
(0.451468 0.240265 0)
(-0.0757364 0.550786 -1.1537e-19)
(0.82871 -0.713419 1.24669e-19)
(2.36858 -0.208642 3.00094e-19)
(2.17933 0.19778 0)
(-0.132735 -0.169589 0)
(0.674986 0.626897 -3.27379e-19)
(1.8127 -0.630002 1.68042e-20)
(-0.148012 -0.162953 0)
(1.003 -0.822677 -1.17859e-20)
(1.15508 -0.0987718 0)
(1.08814 -0.125341 3.57563e-19)
(2.07456 -0.140961 -1.286e-19)
(-0.135128 0.441295 0)
(1.24067 -0.563178 -4.64556e-20)
(-0.275931 0.226866 -3.94987e-20)
(-0.0545441 0.0928615 0)
(1.1141 -0.829402 1.28386e-20)
(1.00703 0.0042963 -5.62996e-19)
(0.665591 -0.493716 -9.65952e-21)
(0.832788 -0.529139 0)
(1.22036 -0.743423 -7.7717e-20)
(0.651212 0.225224 2.4528e-19)
(1.21744 0.119503 0)
(1.49031 0.0847008 -2.48169e-19)
(1.21888 -0.871487 -1.54674e-19)
(-0.127559 -0.165134 -1.13832e-19)
(-0.449469 -0.00281974 -1.84405e-19)
(1.06798 0.00510414 2.1294e-19)
(0.933761 -0.47542 -9.25307e-20)
(0.90636 0.094781 -4.97686e-21)
(0.456245 0.369251 -5.69679e-20)
(0.765636 -0.120064 1.27459e-19)
(-0.100763 -0.0900457 -2.87465e-19)
(1.97405 -0.328001 0)
(2.52483 -0.439168 1.49834e-19)
(1.4359 0.645433 1.34681e-19)
(0.824769 -0.628073 -1.91986e-19)
(0.995297 0.00826053 1.15351e-20)
(0.736477 -0.544382 2.69163e-19)
(1.29231 0.795126 1.22538e-19)
(1.83394 0.0722641 1.29152e-20)
(-0.163186 0.466775 0)
(1.08288 0.0540952 -2.21267e-19)
(-0.690535 0.122581 -2.13529e-19)
(1.06333 0.485503 7.62008e-20)
(0.148041 -0.134949 1.73705e-19)
(1.16397 0.0271024 -3.99021e-20)
(-0.210292 0.0781691 -1.43084e-19)
(1.28433 0.579808 -7.48522e-20)
(1.12552 0.877606 0)
(-0.199179 0.510301 -8.90848e-20)
(-0.000896816 0.094801 0)
(0.643826 0.553044 -2.63078e-19)
(2.09644 0.188521 -1.71348e-20)
(-0.22067 -0.141276 1.43479e-19)
(-0.35111 0.423347 -5.36556e-19)
(0.72437 0.0623749 2.30905e-19)
(1.95952 0.174259 -4.10587e-20)
(0.994756 -0.355136 -2.72812e-20)
(-0.0871222 -0.0996031 0)
(-0.883041 0.244437 3.33303e-19)
(1.31181 0.961927 -2.04113e-20)
(0.838074 0.0641112 -1.2668e-19)
(0.545791 0.51216 1.83283e-19)
(0.426563 0.19428 0)
(-0.179828 -0.306039 -2.22876e-19)
(-0.759068 0.241813 3.07973e-19)
(1.32153 -0.974894 2.21053e-22)
(0.992009 -0.0369465 -1.74625e-19)
(-0.162297 -0.16574 6.01652e-21)
(0.0239299 -0.0148284 1.38839e-19)
(-0.222948 -0.214213 -2.03244e-19)
(1.95005 -0.00770618 0)
(1.1277 0.0444999 -2.97847e-19)
(2.47521 0.158017 2.20322e-19)
(1.29502 -0.629566 8.04412e-20)
(0.993554 -0.0348677 2.12514e-20)
(0.585549 0.315485 0)
(0.932909 0.741701 -1.55368e-20)
(0.673087 0.619204 1.75209e-19)
(0.91406 -0.576641 1.33052e-19)
(0.676018 0.491498 0)
(1.02381 5.69471e-05 7.49762e-21)
(0.89964 -0.678005 1.89368e-19)
(0.831063 0.4147 -4.31433e-19)
(1.219 -0.112233 0)
(-0.0423046 0.0082545 -2.87803e-19)
(-0.128265 0.0940288 -8.90566e-20)
(1.57493 0.718186 0)
(1.37473 -0.954109 -1.892e-22)
(-0.190315 0.579727 0)
(-0.0644024 0.229022 1.03472e-19)
(0.726158 0.64312 -9.29223e-20)
(0.858042 -0.226792 0)
(-0.203378 -0.177872 0)
(1.65457 -0.460772 0)
(-0.46059 0.390257 5.30001e-19)
(1.23541 -0.899653 1.0153e-19)
(1.19648 -0.615836 5.15869e-20)
(1.06451 -0.174648 -1.44228e-19)
(0.896245 -0.707903 -1.48875e-19)
(0.193386 -0.197469 0)
(-0.628385 0.502246 0)
(1.01911 -0.521995 1.54278e-19)
(-0.149518 -0.186762 0)
(-0.102213 0.563033 0)
(-0.168026 0.0845736 3.5324e-19)
(0.78248 0.661253 8.06193e-20)
(1.00145 0.785134 0)
(0.687439 0.543829 -8.02302e-20)
(0.834407 -0.0522655 -2.07299e-19)
(0.73626 0.552654 -2.14735e-19)
(0.581114 0.540214 -1.57848e-19)
(-0.180246 -0.252105 1.4278e-22)
(0.736389 -0.660432 0)
(0.896947 0.167293 -3.02083e-19)
(-0.224334 -0.251773 5.99854e-20)
(0.59259 0.549638 3.56373e-19)
(0.945811 0.787983 0)
(0.0147816 0.149341 3.65797e-19)
(-0.137221 -0.20774 3.51581e-19)
(-0.129176 -0.0788884 -1.84264e-19)
(0.654368 0.560054 -1.39369e-20)
(0.969123 -0.00846635 5.4594e-20)
(-0.252055 -0.169351 0)
(2.11855 0.0688461 -2.77295e-19)
(2.02056 -0.366029 -4.70659e-19)
(0.669248 -0.61989 -6.73144e-20)
(-0.051454 0.568821 9.83374e-21)
(1.18421 0.456034 1.72491e-19)
(0.878715 0.405847 0)
(1.06325 -0.17646 1.72371e-19)
(-0.0507064 -0.260412 -5.79863e-22)
(-0.119801 0.0632245 3.32049e-19)
(0.922117 0.018216 -4.81762e-20)
(1.11619 0.142744 0)
(1.81945 0.0224389 -2.83506e-19)
(1.88866 0.0869006 0)
(0.540709 0.239675 -4.29679e-19)
(0.0249214 -0.0124794 0)
(-0.188626 -0.235162 2.63973e-19)
(0.701658 0.101816 0)
(0.63508 -0.527865 -1.66013e-19)
(1.14394 0.0175324 1.91365e-19)
(-0.140722 0.523303 3.60585e-20)
(2.17297 -0.052363 8.80347e-21)
(2.15115 -0.21853 -1.43162e-19)
(1.10639 0.225781 -2.06188e-19)
(-0.236447 -0.240975 -1.1323e-19)
(1.09546 -0.867208 0)
(0.814939 0.0177193 -1.39307e-19)
(0.941025 -0.387237 -2.61693e-19)
(1.74054 -0.580775 -8.41969e-21)
(1.74632 -0.018362 2.61137e-19)
(1.0757 -0.007671 3.56045e-19)
(-0.0426374 -0.264083 -1.6853e-19)
(1.01025 -0.448347 -1.11919e-19)
(0.203415 -0.195882 2.34781e-19)
(1.00793 -0.00824109 0)
(1.00466 -0.00726633 0)
(1.16452 -0.201074 2.15456e-19)
(-0.0782167 0.432308 -8.06321e-20)
(0.191893 -0.117311 -1.52643e-19)
(2.06892 0.0145963 -7.76163e-21)
(1.16562 0.160268 0)
(1.79036 0.168953 -1.34391e-19)
(0.964947 -0.839513 -6.18705e-20)
(1.82501 -0.566555 -8.84536e-20)
(1.09266 0.827595 0)
(0.485583 -0.467359 0)
(0.595373 0.507939 -1.66689e-19)
(1.09074 0.277025 -3.80997e-19)
(2.23354 -0.218503 4.50385e-22)
(0.860217 0.151174 1.29566e-19)
(-0.111934 -0.300206 -4.80898e-19)
(1.66821 -0.26243 -4.27869e-20)
(-0.370928 -0.119539 0)
(-0.136814 -0.179677 0)
(-0.274557 -0.0560897 0)
(1.36187 -0.734751 -6.05131e-20)
(-0.0674081 0.09608 -1.96373e-19)
(-0.0175924 -0.0106001 0)
(1.27293 0.963617 -3.28769e-20)
(1.1051 0.147332 -3.95089e-19)
(2.14552 -0.0518835 -6.36097e-20)
(1.06517 0.909625 8.01171e-20)
(-0.130394 0.28702 1.18931e-19)
(1.1909 -0.127103 0)
(-0.269229 0.0159164 -2.95078e-19)
(-0.0913597 0.268191 2.28769e-19)
(0.777272 0.0216913 1.70063e-19)
(1.51621 0.93841 -5.26499e-21)
(1.41744 0.125342 -1.53808e-19)
(-0.150954 0.0701063 -1.67121e-21)
(0.76357 -0.696563 -3.21119e-20)
(1.11725 -0.0193261 0)
(1.7145 -0.0520158 0)
(1.04502 0.0546471 0)
(-1.33021 0.034568 -2.30883e-19)
(-0.317946 -0.0622306 1.05256e-19)
(1.03404 0.8339 0)
(1.00079 -0.00576621 4.69119e-19)
(0.757812 0.595031 -2.15346e-19)
(-1.16341 -0.0692417 -1.56109e-19)
(0.86255 0.00991388 -3.80579e-20)
(0.73093 -0.667279 -1.92982e-19)
(1.37286 0.704042 -3.10532e-20)
(0.576868 -0.465233 -2.68389e-19)
(1.12509 0.00104147 -4.24991e-19)
(0.812818 0.0371944 4.07129e-20)
(1.53733 -0.16875 4.80596e-20)
(1.82568 -0.109467 -1.30932e-19)
(-0.0970819 -0.110685 -4.13508e-22)
(1.06996 0.46275 -2.53267e-19)
(1.30123 0.608296 6.82774e-20)
(-0.167166 -0.146023 0)
(-0.175591 -0.187753 1.76249e-19)
(-0.0428278 0.0729694 1.21798e-19)
(-0.158823 -0.159314 -1.45907e-19)
(0.467396 0.30137 0)
(1.55505 -0.442321 0)
(-0.0223116 0.0207729 -1.20763e-19)
(-0.201762 -0.276559 -6.13799e-20)
(1.04564 -0.0312379 1.684e-19)
(-0.139659 0.380167 -4.26933e-20)
(1.45059 0.098234 -4.42286e-19)
(-0.144599 0.375468 0)
(0.851352 -0.754757 -2.59106e-19)
(1.51256 -0.142865 2.08388e-19)
(-0.632549 0.115992 1.42901e-19)
(0.715883 0.148896 3.07037e-19)
(0.620825 0.123345 9.9345e-20)
(0.515238 -0.487879 1.83903e-19)
(-0.161585 -0.182462 -1.37592e-19)
(1.75179 0.036284 0)
(0.384246 0.331763 -1.82412e-19)
(1.02843 -0.0165754 -2.67786e-19)
(-0.364711 0.421111 2.12257e-19)
(1.40663 0.479185 -1.15227e-19)
(-0.15853 -0.208596 -5.44294e-20)
(0.705718 -0.643987 -2.73756e-20)
(0.811132 0.178252 -1.93047e-19)
(0.968903 0.419014 2.1593e-20)
(1.16209 -0.143777 3.08667e-20)
(0.616181 -0.243478 -2.76935e-19)
(2.04108 -0.344805 -1.86454e-19)
(1.96271 -0.0354265 0)
(2.00379 -0.134395 -5.95358e-20)
(1.55659 0.0135628 -6.51776e-21)
(0.847938 -0.0879855 1.37716e-19)
(0.915374 0.359591 -1.69466e-19)
(1.76454 -0.105049 1.88428e-20)
(0.409726 0.377995 -2.36793e-19)
(0.067557 0.565225 1.63845e-19)
(2.19334 -0.0464037 0)
(0.937802 0.00659258 0)
(0.892464 -0.789695 4.85965e-20)
(-0.126002 -0.233971 -3.85371e-19)
(-0.357477 0.484939 -1.97209e-19)
(-0.113909 -0.135353 -2.38766e-19)
(-0.141796 0.602231 -1.26352e-19)
(-0.457071 -0.01655 0)
(-0.133123 -0.165595 4.35129e-20)
(-0.162347 0.233449 -8.16576e-20)
(0.0226826 -0.0086451 -3.16378e-19)
(0.810506 -0.120302 0)
(1.7726 -0.46115 1.99147e-19)
(-0.070311 -0.0198133 0)
(0.995605 0.0236941 3.38653e-19)
(-0.268512 -0.148979 1.62021e-20)
(0.55281 -0.437307 3.59709e-19)
(-0.635812 0.117046 3.54145e-19)
(-0.89532 0.231732 0)
(0.00131131 0.32348 8.23776e-20)
(1.00464 0.0219167 -1.01766e-20)
(-0.0341905 -0.148941 0)
(1.00499 -0.00932339 -5.28936e-20)
(0.877257 -0.741203 -2.5079e-19)
(1.51894 -0.175058 0)
(0.945049 -0.279567 1.86965e-19)
(0.0806992 0.534996 1.62119e-19)
(-0.0656649 -0.0690972 0)
(-0.208017 -0.276961 -6.28765e-21)
(0.741218 -0.647496 -3.80548e-19)
(0.960405 -0.0239721 -2.41126e-19)
(-0.1249 -0.249534 4.67365e-19)
(-0.170603 -0.236369 1.65858e-19)
(-0.410189 -0.0730209 0)
(0.950582 0.468364 0)
(-0.473185 0.017172 1.88704e-19)
(1.81251 0.197314 -1.7168e-19)
(1.06148 0.885234 1.78301e-20)
(1.06746 0.209474 -1.1575e-19)
(1.13528 0.00678491 -1.97862e-19)
(1.05404 -0.0724674 -6.84273e-20)
(-0.122701 -0.271295 -4.22164e-19)
(1.9291 0.11827 4.21433e-19)
(0.680482 0.0333547 1.94945e-19)
(1.6963 0.0265813 1.32242e-19)
(1.05487 -0.153402 0)
(-0.947929 0.0460692 2.82849e-19)
(1.14436 0.0252306 -4.58947e-19)
(1.73662 0.617527 1.11873e-20)
(0.754651 -0.466824 -1.46425e-19)
(-0.0958921 -0.0945741 2.35269e-19)
(0.814461 -0.714627 3.30922e-19)
(1.23351 0.195432 7.04229e-20)
(1.00668 -0.00841483 2.34347e-19)
(-0.0247948 -0.316199 -1.7998e-19)
(1.02196 0.0156657 0)
(1.70691 0.0237959 -2.15353e-19)
(-0.0845566 -0.0855372 0)
(1.01378 0.0123713 -1.37633e-19)
(-0.537505 0.0959923 -5.82424e-19)
(1.73688 0.31105 3.50191e-20)
(-0.106087 0.12004 1.57789e-19)
(1.6086 0.0165131 -1.55394e-21)
(1.01385 -0.01897 4.85884e-20)
(1.29242 -0.0877078 0)
(1.46486 -0.615952 -9.90365e-20)
(1.02116 0.033276 -1.44222e-19)
(1.42776 0.783533 -5.63328e-20)
(1.29853 -0.028817 0)
(1.07279 0.489261 2.25038e-20)
(-0.0302003 0.024955 0)
(1.36466 0.053286 0)
(-0.299868 -0.145862 0)
(1.23634 0.444073 0)
(1.85077 0.283366 4.1349e-20)
(0.73143 0.606943 3.77487e-19)
(0.301137 -0.303019 -2.17676e-19)
(-0.190692 -0.270242 -3.8846e-19)
(-0.0923543 -0.107038 0)
(2.53338 -0.348409 1.87268e-19)
(1.31724 0.521549 0)
(1.4539 0.293379 0)
(-0.292928 0.0743981 1.29489e-19)
(0.797215 0.704301 1.22045e-19)
(1.69211 -0.0126483 0)
(-0.195019 -0.189033 8.49337e-20)
(0.904173 0.213778 1.77307e-19)
(2.21471 -0.270417 -1.30469e-19)
(1.22792 0.917976 4.34663e-20)
(0.942447 -0.847802 -2.42235e-20)
(1.72597 -0.106845 -8.72362e-20)
(0.783135 0.707546 1.25452e-19)
(1.16478 0.915639 0)
(2.44163 -0.0791978 2.24522e-19)
(0.680397 0.619434 0)
(1.51607 -0.532638 1.16559e-19)
(1.00956 0.105462 1.79288e-19)
(1.00542 -0.00598661 0)
(-0.598603 0.275946 2.58318e-19)
(0.897366 -0.179586 4.35618e-20)
(0.642006 -0.420467 0)
(0.681254 -0.393491 1.94171e-19)
(1.22982 0.553377 -3.20274e-20)
(0.466021 0.439521 2.61032e-19)
(0.0184684 0.0164414 3.77533e-20)
(0.0327232 -0.0739148 8.71486e-20)
(0.759197 0.0592466 0)
(1.34574 -0.914906 -4.20847e-20)
(1.03206 -0.0450009 3.74133e-19)
(1.49613 0.348144 1.34284e-19)
(-0.198622 -0.146827 7.22937e-20)
(-0.712109 0.0980701 0)
(1.24349 -0.241117 -9.82242e-20)
(-0.0678546 -0.0718579 -2.00407e-19)
(-0.290985 0.551892 -3.48678e-20)
(-0.13134 0.0533236 -7.28746e-22)
(-0.200568 0.095361 2.73122e-19)
(0.281887 -0.0364483 -1.90112e-20)
(2.32933 -0.00646147 3.71372e-19)
(1.18352 0.458431 -2.78157e-19)
(0.859374 -0.0535608 0)
(1.89223 -0.109886 2.03748e-19)
(1.84434 0.0627319 1.1679e-19)
(0.928705 -0.780264 1.21235e-19)
(1.18032 -0.993807 -1.89734e-20)
(0.470225 0.436509 1.75411e-19)
(1.40196 0.34709 0)
(1.74562 0.57855 2.46833e-20)
(-0.0803269 -0.0925282 -4.07816e-19)
(0.873724 0.762148 0)
(1.76681 0.328748 0)
(0.3024 -0.301886 -3.96892e-21)
(0.316647 0.291792 0)
(-0.893595 0.201295 -3.14629e-19)
(-0.0179067 0.0980205 -1.08386e-19)
(1.7678 -0.430365 0)
(1.25132 0.0853847 1.82157e-19)
(-0.273954 0.573189 1.64132e-19)
(0.547761 -0.520421 -4.16606e-19)
(1.79741 -0.00796268 -4.79342e-20)
(0.626623 -0.568831 0)
(1.02979 0.123672 0)
(1.37952 -0.26604 0)
(1.11435 0.224465 -2.20252e-19)
(1.35072 0.107854 3.12105e-19)
(-1.03971 0.371316 0)
(0.885376 -0.0563922 0)
(2.17568 -0.0963613 -1.26831e-20)
(-0.0732235 0.0233136 9.26809e-20)
(2.42192 0.0917077 -2.86746e-19)
(1.10177 -0.523622 2.11055e-19)
(1.99104 0.0638852 -3.2439e-19)
(-0.42192 0.489411 -1.225e-19)
(1.95162 0.0892497 -1.73778e-19)
(1.0187 -0.0241604 3.81493e-19)
(1.5066 0.600877 0)
(-0.0856699 0.274957 2.9464e-20)
(1.02264 -0.844284 1.44504e-19)
(0.859291 -0.0236853 4.4485e-20)
(0.646942 -0.443359 0)
(1.93541 -0.534058 8.99319e-21)
(1.22063 -0.197652 1.27189e-19)
(1.76584 -0.485127 0)
(0.622598 -0.578533 3.82957e-19)
(1.68302 0.0484926 -7.87467e-20)
(2.29997 0.0829775 4.43828e-19)
(-0.0580045 0.0195221 -1.93855e-19)
(1.32254 0.6151 1.43605e-19)
(1.14147 0.403998 3.48848e-21)
(0.899206 0.367188 2.11796e-19)
(1.84584 0.304146 -1.73826e-19)
(-0.119427 -0.291906 -2.45458e-21)
(0.873366 -0.0894859 0)
(-0.136057 -0.110809 3.85734e-19)
(1.11591 -0.969868 0)
(1.08118 -0.663823 1.8598e-20)
(0.877089 0.0886281 -5.09729e-19)
(1.20329 1.15893 9.78598e-21)
(-0.5058 0.190075 -3.41379e-19)
(0.980564 0.479327 1.6593e-19)
(-0.888639 0.144638 2.55046e-19)
(0.693049 -0.0410656 0)
(2.07889 -0.0100608 0)
(1.34492 -0.078123 3.07202e-21)
(0.782986 -0.0078744 0)
(1.36469 -0.205084 -1.30877e-19)
(-0.670795 0.41198 3.96537e-19)
(1.91989 0.504179 7.42413e-21)
(1.04279 -0.0342767 0)
(0.563685 -0.361436 9.54258e-20)
(1.00947 0.0264537 1.81772e-19)
(0.0578213 0.290854 -1.12739e-19)
(-0.109665 0.62461 0)
(1.12341 -0.483483 4.21772e-19)
(2.03294 -0.111942 -7.13835e-22)
(1.11471 -0.506084 -1.83782e-19)
(2.30378 0.270812 1.35967e-19)
(1.27816 0.78514 0)
(0.871178 0.0215896 0)
(-0.230208 -0.0939653 -1.77549e-19)
(-0.023771 0.0163902 1.35893e-19)
(0.944137 0.362378 -1.96011e-19)
(0.0426457 -0.328308 -1.68676e-19)
(0.640429 0.399376 2.27876e-19)
(1.11281 0.536816 0)
(0.552444 -0.513702 0)
(-0.218819 -0.176633 -7.05604e-21)
(1.24781 -0.514897 -8.32485e-20)
(0.771144 -0.0701476 1.60436e-20)
(0.736891 -0.164294 1.09158e-19)
(-0.0827969 0.0311467 -2.43373e-19)
(0.953447 0.181374 1.9829e-19)
(0.651095 0.606837 0)
(1.26121 0.691679 0)
(1.61406 0.261987 0)
(-0.472166 0.000895259 -1.57903e-19)
(1.23942 0.555013 1.85717e-19)
(1.95273 0.0723037 4.677e-20)
(0.928875 -0.0109482 0)
(2.51857 -0.472621 0)
(2.14618 -0.0554578 -3.16979e-19)
(-0.150248 0.0343576 1.35808e-19)
(1.00514 0.00275503 -1.82043e-19)
(1.49288 0.479145 0)
(-0.0320355 0.593484 0)
(1.23558 0.316929 2.74431e-19)
(1.01606 0.523187 -1.23518e-19)
(1.06926 0.0254689 0)
(1.6511 0.220083 0)
(1.97184 0.670547 -2.72804e-19)
(-0.140114 0.11616 -2.6137e-22)
(0.996286 0.0124408 0)
(0.700934 0.464866 -3.14387e-20)
(0.954995 -0.841669 0)
(1.00122 0.015422 4.21912e-20)
(0.599178 -1.00654 -2.22266e-19)
(0.914453 -0.329682 2.74926e-19)
(-0.533274 -0.471833 1.39567e-19)
(2.10305 -0.0578657 3.71459e-19)
(1.71883 0.00163335 1.08795e-19)
(0.790725 -0.0217017 0)
(1.01576 0.00930939 0)
(-0.639627 0.0816784 0)
(0.655382 0.627326 -1.79288e-19)
(-0.0547737 0.0149187 1.64353e-19)
(1.16411 0.347575 -4.39621e-19)
(-0.203557 0.52872 0)
(0.820384 0.635213 1.58944e-19)
(1.0192 -0.340643 0)
(1.00547 -0.00180419 1.06599e-19)
(-0.525135 0.153853 3.78409e-20)
(1.02792 0.400793 2.43693e-19)
(1.31333 0.239057 0)
(2.19663 0.147467 -6.83882e-20)
(0.829288 -0.11953 -3.34128e-19)
(-0.884575 0.249082 -4.2056e-19)
(0.579358 0.159241 0)
(0.875046 0.236077 1.64377e-19)
(2.08535 -0.022635 0)
(0.768265 0.514005 3.42156e-19)
(-0.865014 0.415797 1.70049e-19)
(-0.0393077 -0.00132636 0)
(0.581594 0.552831 -6.68503e-20)
(1.04273 -0.65197 -1.30568e-19)
(0.48891 -0.26042 -1.13307e-19)
(1.02088 -0.01596 0)
(-0.0330103 0.580365 -1.48882e-19)
(0.651456 -0.580918 7.34869e-20)
(0.901561 0.283804 0)
(1.90512 -0.225812 2.45059e-19)
(0.972066 0.827896 2.31963e-20)
(0.14334 -0.704167 1.7161e-19)
(0.242048 -0.0497762 -2.96988e-19)
(0.237129 -0.0596259 -5.1556e-19)
(-0.14435 -0.193774 1.03294e-20)
(0.810569 0.351411 2.32519e-19)
(-0.0519078 0.129932 -4.83097e-21)
(1.43297 -0.657578 3.56281e-21)
(1.0241 0.00843125 -3.15159e-19)
(-0.529986 0.108045 0)
(1.03038 0.0329966 -3.75836e-19)
(1.96375 0.18662 1.44527e-19)
(0.878534 0.682011 2.67332e-19)
(1.13817 -0.0696378 1.44203e-19)
(1.00685 -0.0298669 1.45845e-19)
(1.06666 1.0354 -1.0302e-20)
(-0.14952 -0.115677 5.60064e-23)
(1.76224 -0.882396 1.5891e-20)
(1.1385 -0.134036 -6.41878e-20)
(0.805431 0.0517291 7.33399e-20)
(0.917864 -0.298899 8.13625e-20)
(1.63112 -0.0102062 0)
(0.952268 0.726498 0)
(-0.0603775 0.308949 -4.51538e-20)
(1.99558 0.189129 -1.96294e-20)
(-0.713887 0.235214 1.4762e-19)
(1.04458 -0.549105 -4.50013e-19)
(0.629481 -0.545502 3.54613e-19)
(1.1561 0.191319 -1.00398e-19)
(0.0979476 -0.245589 1.92297e-20)
(1.27101 -0.374793 0)
(0.751644 0.105433 -6.28528e-21)
(1.58748 -0.401135 -2.06087e-19)
(1.02953 0.753805 0)
(0.796778 -0.714666 0)
(0.681028 0.426115 0)
(-0.166293 -0.206924 -6.46929e-20)
(-0.119315 0.18597 0)
(0.983071 0.0150847 1.49334e-19)
(1.21838 0.179874 6.03618e-21)
(-0.989129 0.325938 2.16127e-19)
(1.6477 0.0117344 5.72096e-20)
(1.81758 0.45958 -5.79834e-20)
(2.11623 -0.299248 -4.02955e-20)
(-0.171839 0.022041 -1.9194e-19)
(-0.24796 -0.229436 4.68915e-21)
(1.6551 0.0519565 0)
(0.675575 -0.0356704 0)
(1.00065 -9.78145e-05 2.25099e-22)
(-0.51573 0.0859035 0)
(1.40736 0.0601309 -1.18725e-19)
(0.676922 -0.031989 0)
(1.05504 0.00544848 1.15777e-19)
(0.989087 0.0146346 -4.13266e-20)
(1.15395 0.249202 1.25713e-19)
(1.06056 -0.0186594 -8.58094e-22)
(0.955735 -0.196001 -4.92136e-20)
(1.02608 -0.0325973 3.3742e-19)
(0.685105 -0.622729 1.65245e-19)
(-0.792779 0.157007 -2.80195e-19)
(1.84125 0.109622 6.46624e-20)
(-0.0280143 0.0176519 0)
(1.11484 0.787049 0)
(1.03047 -0.00687153 0)
(1.01866 -0.786996 -8.8844e-20)
(1.06037 -0.907818 2.04329e-20)
(1.97724 0.450321 -2.62142e-20)
(-0.795961 0.0983243 -5.55272e-19)
(0.112521 0.14143 -1.42718e-20)
(0.597135 -0.394586 -5.803e-19)
(1.99889 -0.0773644 -1.16936e-19)
(-0.323474 -0.173062 1.81533e-19)
(2.10462 -0.29463 1.28754e-19)
(1.61976 0.0831968 -6.50105e-20)
(-0.20473 -0.206016 -1.30783e-19)
(1.10537 0.548033 1.88166e-19)
(-0.175322 -0.252348 0)
(-0.131133 -0.17872 3.90258e-19)
(-0.141357 -0.166183 -1.41844e-22)
(1.02654 -0.0458738 3.06355e-19)
(1.02488 0.000611277 -7.82203e-21)
(1.1056 -0.0105777 -8.46326e-20)
(1.14408 0.937414 -2.76694e-20)
(1.62119 0.319751 5.82607e-20)
(0.410404 -0.384877 -2.87073e-19)
(1.5459 0.494183 3.07477e-20)
(1.03625 0.00164215 -2.22569e-19)
(2.22789 0.255773 -6.661e-20)
(1.19774 0.934889 0)
(1.10129 0.586527 -3.52955e-19)
(1.00263 -0.00461961 8.69753e-20)
(0.666218 0.595375 2.443e-19)
(1.07476 -0.287619 6.24871e-22)
(1.06428 -0.0108885 -2.80014e-20)
(1.12389 0.0151074 7.92646e-22)
(2.33976 0.134578 1.54515e-20)
(1.59105 0.129213 0)
(1.04277 -0.0411332 0)
(1.0487 -0.0352216 5.36264e-19)
(1.00249 -0.00307877 0)
(-0.113749 -0.135001 0)
(0.983202 -0.595744 0)
(1.00102 -0.00103174 -5.05768e-19)
(1.17425 -0.693559 6.86619e-20)
(1.02416 -0.00404667 1.05755e-20)
(1.3299 0.947641 -2.62179e-20)
(1.51178 0.995555 6.00601e-21)
(-0.0718261 -0.491052 2.51213e-20)
(1.34894 0.305255 1.33655e-19)
(1.54638 -0.0746658 0)
(-0.179269 0.230379 0)
(2.13656 0.155967 3.76116e-19)
(1.34973 -0.635852 0)
(0.99984 -0.00531039 -1.56917e-19)
(1.0107 -0.00118332 3.04798e-19)
(1.45237 0.142394 -6.60392e-20)
(0.00686017 -0.115338 2.99212e-19)
(0.976991 0.00118715 1.66e-19)
(1.09611 0.141294 -1.69205e-22)
(0.88565 -0.00121025 -3.08504e-20)
(1.14194 0.966143 -1.85623e-22)
(0.931188 0.017376 -1.65754e-19)
(1.00367 0.00362954 1.96398e-19)
(1.00031 -0.000781926 1.16097e-20)
(0.789016 -0.0134756 0)
(0.72638 -0.0272298 0)
(0.721802 -0.0276471 6.27439e-22)
(0.697731 -0.0299832 0)
(1.41705 -0.195924 0)
(0.958841 -0.102 0)
(0.752746 -0.0171752 2.83279e-20)
(0.869149 0.0270069 -1.7189e-20)
(1.46241 0.060758 0)
(1.27537 0.780309 4.33259e-20)
(1.03204 0.885087 0)
(0.668889 0.0817181 0)
(0.955884 0.210028 0)
(1.35301 0.22497 1.66212e-20)
(1.67781 0.0538941 1.40283e-19)
(0.777701 0.023355 0)
(0.786415 0.0200751 0)
(0.96884 0.0201947 -2.04491e-19)
(0.814432 0.00787902 3.82802e-19)
(1.00797 -0.00130028 0)
(1.00021 -0.000586976 3.63061e-19)
(1.00021 -0.000697516 -3.74388e-22)
(0.785595 0.0223487 3.24472e-19)
(0.996436 -0.00549168 -1.90538e-19)
(0.72252 0.123501 0)
(0.798102 -0.0417609 3.0874e-20)
(1.00067 -0.00171872 -1.83735e-19)
(0.99949 0.000650544 -3.14912e-19)
(0.729147 0.594334 0)
(0.999096 0.00149195 0)
(0.999676 0.000149737 0)
(1.59706 -0.25652 1.04884e-20)
(0.248069 0.345708 -2.91985e-20)
(1.78815 0.301462 0)
(-0.104298 0.275864 1.98268e-19)
(-1.08742 -0.00254068 -2.52257e-19)
(1.0192 -0.016342 -2.44707e-19)
(-0.28249 -0.233898 -1.1197e-19)
(1.01947 0.0022334 -1.9647e-19)
(1.17931 -0.221326 -8.2032e-20)
(0.810752 -0.482532 2.73225e-19)
(-0.105593 -0.124869 -9.74982e-20)
(1.03153 0.0115511 0)
(1.05489 -0.0125953 -5.39794e-20)
(0.854664 0.0206495 0)
(-0.0938382 0.0542233 2.39845e-19)
(1.02789 -0.669268 0)
(-0.366105 -0.0147473 -2.72803e-19)
(1.42248 0.131246 -1.69066e-20)
(1.64376 0.682469 -1.16737e-20)
(-0.0657389 0.0142071 0)
(1.05222 -0.0384707 1.65819e-19)
(-0.377174 0.0343695 -3.12761e-21)
(0.927715 -0.0130614 2.60532e-19)
(1.01175 -0.00894787 -1.6689e-19)
(1.66062 0.85715 3.30265e-20)
(0.513886 0.482127 0)
(0.438005 0.391269 1.90776e-19)
(2.38552 -0.349503 -9.18413e-21)
(1.14465 0.124819 1.82978e-19)
(1.10342 -0.723427 0)
(1.02244 0.00318196 0)
(0.999696 -0.018608 -3.84574e-19)
(1.01916 0.0150668 -3.7324e-19)
(-0.156955 -0.222534 0)
(1.2106 0.814679 -1.25092e-19)
(1.02986 -0.0935802 -6.65275e-22)
(1.016 0.00332277 1.44048e-19)
(1.01222 0.0128009 -1.80332e-19)
(-0.346375 0.101477 -2.6726e-20)
(-0.264657 0.0548997 9.62115e-20)
(1.01791 -0.0149005 6.15135e-19)
(1.32306 -0.10269 0)
(1.84431 0.646677 -3.91493e-20)
(1.01541 -0.0116498 -1.91414e-19)
(1.91604 0.0844748 -1.22387e-19)
(1.06068 0.00842655 -4.43647e-22)
(1.00923 -0.0103744 3.83461e-20)
(2.0829 -0.143631 -3.08679e-19)
(1.01646 0.00640945 1.85255e-19)
(0.362623 0.198014 2.29323e-20)
(1.01866 0.00254826 0)
(0.931328 0.145991 4.63628e-20)
(-0.919694 0.530122 4.5004e-21)
(1.00061 0.0217353 1.83952e-19)
(1.04116 0.0206894 -6.31106e-22)
(0.723242 -0.267306 -1.12424e-20)
(1.25379 0.315568 3.94132e-19)
(0.997032 0.0153676 1.26269e-19)
(1.01657 -0.0143414 4.44423e-22)
(1.73838 0.253891 -2.3166e-20)
(1.75166 0.933697 -9.67744e-20)
(0.79072 -0.70964 4.99695e-20)
(0.459851 -0.335605 -2.82209e-19)
(1.00693 -0.0106259 0)
(1.02099 0.00267905 4.60384e-20)
(1.01088 -0.00939274 9.73075e-20)
(0.521105 0.486038 1.74695e-20)
(1.01473 0.00518544 -1.92861e-19)
(1.03008 -0.0241317 2.19768e-19)
(1.00764 -0.00891731 -1.81981e-19)
(1.01372 0.004861 -4.81963e-22)
(1.01296 0.00189953 -3.2633e-22)
(1.02602 0.0133019 1.8452e-19)
(0.900551 0.0808181 4.74246e-19)
(1.30213 -0.185664 0)
(0.190065 0.298588 1.68919e-19)
(1.01171 -0.00405229 0)
(1.02083 -0.0185308 -5.36439e-20)
(1.52504 0.442272 -8.11037e-20)
(1.58673 0.0393523 0)
(2.36056 -0.163388 -1.95613e-19)
(0.747426 -0.038548 -2.76431e-20)
(0.757774 -0.0177178 0)
(1.99713 0.0945267 0)
(-0.701727 -0.0456488 -1.46408e-19)
(1.11144 0.866792 -9.67386e-21)
(1.01757 -0.00495322 -1.94569e-19)
(1.13278 -0.572887 -5.17598e-20)
(-0.181839 -0.12617 -1.20537e-20)
(0.385434 0.0558226 0)
(1.47452 -0.300416 0)
(1.83167 -0.154462 0)
(-0.157938 0.110022 7.01225e-20)
(0.704691 0.661761 -2.0355e-19)
(-1.05818 0.167946 0)
(0.124873 0.541985 -1.92348e-19)
(1.68516 0.961064 -4.85271e-20)
(1.00825 -0.0033026 -3.80056e-19)
(0.673374 0.759173 -1.59143e-20)
(1.02146 0.00733032 2.51398e-19)
(0.688654 -0.0431766 0)
(-0.152621 -0.212321 -3.03465e-20)
(0.607494 0.425224 -3.21322e-19)
(1.27099 -0.0841137 1.14562e-19)
(0.0911242 0.442317 0)
(0.795479 0.0765061 6.70901e-20)
(0.511514 0.488946 4.88365e-20)
(1.17548 0.876946 -3.387e-20)
(-0.0808747 -0.0830156 1.48904e-19)
(1.02069 0.0116512 0)
(0.648735 0.36512 -1.47597e-19)
(1.01199 -0.0025791 1.42792e-19)
(2.29472 0.179308 0)
(1.01235 0.00698575 2.39272e-19)
(-0.046087 -0.244148 -1.8761e-19)
(1.01874 0.00989423 -1.48158e-19)
(1.48756 0.678671 0)
(2.57078 -0.146635 7.72029e-22)
(1.00905 0.00288742 -9.94228e-20)
(0.995798 -0.0302942 2.62568e-19)
(1.08851 0.0954151 -2.30888e-21)
(0.31527 -0.173248 1.34875e-19)
(-0.122361 -0.127907 3.92386e-19)
(1.98894 0.254314 1.44265e-19)
(-0.0494033 -0.476806 -1.47864e-19)
(0.79939 0.014727 -3.58676e-19)
(0.807914 0.0278036 0)
(0.286599 0.0557816 -6.94217e-20)
(1.02085 -0.0155191 -2.8847e-20)
(0.972059 0.0251286 0)
(1.05001 0.00177599 -1.8358e-19)
(-0.076376 -1.02954 1.46118e-19)
(-0.974156 0.305598 1.8676e-19)
(2.18312 -0.575622 0)
(-0.659041 0.375319 -6.65019e-19)
(1.52834 -0.347861 0)
(1.03968 -0.0183464 5.37777e-20)
(0.95806 0.629474 -1.4374e-21)
(1.01433 -0.00227409 1.54238e-19)
(-0.650706 0.503193 3.56218e-19)
(1.01907 0.00167543 0)
(0.994165 0.0036084 -3.73036e-19)
(1.00875 0.00710755 1.96258e-19)
(1.56147 -0.0339226 0)
(0.479433 0.2622 9.12313e-21)
(0.956189 -0.00126436 -1.68007e-19)
(-0.225503 -0.283297 4.07693e-19)