/*--------------------------------*- C++ -*----------------------------------*\
| =========                 |                                                 |
| \\      /  F ield         | OpenFOAM: The Open Source CFD Toolbox           |
|  \\    /   O peration     | Version:  2306                                  |
|   \\  /    A nd           | Website:  www.openfoam.com                      |
|    \\/     M anipulation  |                                                 |
\*---------------------------------------------------------------------------*/
FoamFile
{
    version     2.0;
    format      ascii;
    arch        "LSB;label=32;scalar=64";
    class       volScalarField;
    location    "4.5";
    object      p;
}
// * * * * * * * * * * * * * * * * * * * * * * * * * * * * * * * * * * * * * //

dimensions      [0 2 -2 0 0 0 0];

internalField   nonuniform List<scalar> 
2186
(
0.747026
-0.361231
-0.0460716
1.05254
-1.30135
0.0106096
0.665881
-1.4866
-1.51996
1.29703
1.00282
-0.881208
-1.39842
1.01594
-0.565333
1.01043
1.03759
-1.16137
0.00534352
-1.13218
1.38491
-0.92787
1.02159
-1.01145
1.00674
1.02851
1.21139
0.884548
0.526413
1.0237
-1.05737
1.00562
-1.43551
-0.0981429
-1.18053
0.0230087
-0.112311
1.3719
-0.893866
0.0081346
-1.42685
-0.93274
-0.715742
-0.970557
0.860279
1.28073
0.3404
0.510471
-0.00729378
-1.85153
-1.07717
0.842018
-0.664878
1.2992
-1.30859
0.933296
-0.782186
0.959869
-0.908663
0.786771
-0.0438164
0.584841
0.487539
0.0154236
0.524027
0.451853
0.604513
1.27421
1.17082
-1.15405
-1.53729
-0.0259422
1.24538
0.987478
1.15492
1.13606
-0.0397511
1.02744
-1.20724
-1.11031
-1.20594
0.0232149
1.00985
0.569155
1.00942
1.00415
1.27619
0.0098294
0.0310237
-1.08033
0.937507
-1.60481
0.944393
1.15189
1.01447
0.353162
-0.172668
0.526817
-1.50141
0.973715
-0.311813
-0.558467
0.595903
0.942595
1.04058
-1.88687
1.1833
-0.53161
0.924906
0.146507
-0.968162
-1.784
0.534297
1.29492
-1.55819
-1.02653
0.0276246
0.0267158
-1.09046
1.25031
-0.126132
-2.13941
0.800594
-0.786297
1.01099
0.0255165
-1.51439
1.12843
-1.00034
0.647368
1.36925
1.22003
0.229625
0.639358
-0.812271
-2.14106
0.905606
-0.740073
-0.394454
-1.39883
0.740831
-0.210963
-1.44628
0.690309
0.916134
0.950116
-0.563485
-1.28878
0.604054
-1.09687
-1.64136
0.572299
1.02926
1.1667
1.03093
0.520154
1.26929
0.401095
0.28585
0.415225
-1.36329
-1.78761
0.977658
0.978587
0.00451307
0.0082581
-0.808914
-0.815635
0.0339108
0.0283602
0.296441
0.980474
1.03698
1.09414
0.349465
-0.282127
-1.16938
0.980721
-0.53624
0.811513
-0.858974
1.01352
-1.2228
0.484639
0.453392
-1.13597
-0.87185
1.10073
-0.419851
-1.26794
-0.915188
1.24191
-0.281449
0.974005
-1.28237
0.122858
-0.0243626
1.16061
1.03314
-0.993918
-2.25677
0.104349
0.0722236
1.02936
-1.01155
-1.43561
-1.01367
0.032734
0.947681
-0.19441
0.515293
0.0258675
1.28191
0.771518
0.872662
0.941047
1.15392
1.01733
0.886293
1.06815
0.395952
-0.959935
-1.62646
0.0165252
0.181372
-1.29675
-1.45623
1.00035
1.12464
-1.21276
-0.845944
0.130976
0.364651
0.645409
0.777543
0.886551
1.10383
-0.292315
0.880618
-1.47463
-1.74594
-0.998436
0.958846
0.667462
1.12054
1.16893
1.07815
1.05598
-1.62337
0.814054
1.09265
-1.60302
0.944844
0.717624
0.130129
-1.69662
-1.92072
1.12229
1.03006
-1.35451
-0.343625
0.0481496
0.941578
-0.742483
0.695078
1.03776
0.911504
-2.17911
-1.20813
0.978004
0.599419
-0.337292
-0.369232
1.32589
-1.45166
-1.55128
0.905134
1.16991
1.00449
-1.376
-0.183954
-0.735986
0.882025
-1.54327
0.539867
0.982216
1.01706
-0.194083
-0.290309
0.965132
-2.47306
0.925193
1.17952
1.03106
1.03385
0.0573947
-2.31697
-1.11182
-0.0688381
0.0509661
-0.136489
0.372202
-0.545509
0.538464
1.1556
1.17991
0.883095
-0.607973
1.126
-2.52491
0.0173897
-1.90348
-1.35719
-1.20593
0.344907
-1.66947
-1.44
0.0649477
0.902603
0.0297314
0.2971
-1.87116
0.0338261
-1.13089
-1.68004
1.20774
-0.122571
0.0291985
-1.56198
0.779808
0.515234
-0.35052
0.544038
0.0986984
-1.29866
0.594648
1.02205
1.03998
0.121037
1.14192
0.877887
0.303568
1.23106
1.00455
0.956723
0.381076
0.00481327
-1.39706
0.82457
-1.14484
-1.79589
-2.33689
-0.91079
-1.05945
1.34872
0.0429724
-1.13782
-1.72544
1.00261
-1.12426
0.0351602
-2.45427
0.751901
0.0166861
-1.10429
1.23938
1.30114
1.11281
-1.4488
0.0335983
1.36403
1.01093
-0.902647
0.384132
-1.51109
0.164829
1.16224
0.950241
0.880773
1.29402
-0.526153
-0.00132674
0.0235979
-0.0743996
-1.41069
-0.888324
0.0196444
1.29014
-1.57273
-1.03899
1.00098
0.577962
-1.75174
-0.171021
-1.42514
-1.69048
-1.68231
-1.28054
-1.97629
-1.39982
1.18213
0.0305864
-0.990643
1.01635
-2.19881
1.24944
-0.564284
0.167366
-2.54688
1.0047
-1.01268
1.02359
0.838915
0.0650322
1.0395
-2.29435
-1.18515
-2.2037
1.0007
0.957313
-2.11499
-1.59281
-1.77252
0.949312
-1.53475
-0.219038
0.434962
0.928781
0.928911
0.765952
-2.10061
-0.210203
0.821524
-0.23778
0.818049
0.117672
1.0269
-0.120386
1.12108
-1.09407
0.843085
0.667373
1.04037
-2.59975
0.998841
-0.0410879
-1.17914
1.00218
0.14415
0.117658
-0.947213
-0.156319
1.00607
0.148667
0.288493
1.00339
0.158866
-0.0602474
0.0125608
-1.1298
0.273213
-1.39159
0.659506
-0.971745
1.03868
1.12082
-1.73177
-1.26956
0.0158803
-0.997132
0.375239
-1.0937
0.785677
0.022239
-1.35511
1.08048
0.0286773
0.288975
0.291017
0.00674205
0.745462
0.259415
-0.000117032
0.087124
0.0339988
-0.802395
1.03143
0.107426
1.10248
1.21682
1.20458
0.599612
1.14063
-1.38434
-1.37685
0.908089
0.214263
0.998154
-0.777898
-1.26049
-0.312724
0.779714
-1.19451
0.0826157
-1.04597
-1.10153
0.0087152
-0.353308
0.688288
0.69078
-0.325949
-0.304904
0.743578
0.0662109
1.1086
0.0662146
-0.260609
-1.22168
0.706174
0.0230435
1.15966
1.38009
-0.115398
-1.43712
-0.811657
0.227203
-0.46689
1.02629
-0.275321
0.98337
0.73207
-0.949811
0.849159
0.813596
0.158463
0.918367
-0.107453
-1.37745
-0.136593
-0.999769
-0.145336
-0.556083
-0.347797
1.0084
0.144066
-1.59371
0.586301
1.14031
1.20294
-0.337439
0.757201
0.0371677
0.769775
0.020911
-0.121248
-1.50331
0.434583
0.77071
1.03422
-0.082636
-2.19701
-1.43678
-1.04733
-0.128321
0.727829
-0.214933
0.0106982
-1.14297
0.906732
0.0989711
0.960015
-0.0345951
-0.0348748
0.974468
0.700676
-0.184874
-0.28245
0.974398
1.28304
1.03297
0.0829518
-1.61226
0.803647
-0.0131006
0.786149
-0.68917
0.377176
0.966354
-1.20662
-1.14259
0.991398
-2.66758
1.21955
0.0145833
0.868319
0.0286996
0.621231
-1.20956
1.23014
-1.25434
-0.350212
0.924467
0.46013
0.439686
-1.52219
-1.06229
-0.251315
0.774255
0.0272201
-0.28415
0.0777434
1.02076
0.332511
-1.88202
0.71065
0.856155
0.98449
-0.0307259
-0.915772
-1.7196
1.01989
1.15036
0.488459
1.00975
0.0425647
1.05284
0.0315927
-0.607748
-0.0078995
0.941046
0.993922
-0.834168
0.80681
-1.24658
0.773762
-1.20622
0.967001
0.956736
1.03371
0.0867668
0.887727
-0.608144
-0.478235
1.16043
0.00182472
0.0694773
1.0972
-0.803583
1.07767
0.000546846
-1.3394
1.01315
0.778937
1.35136
1.00457
-1.20112
1.0729
1.06426
0.0391301
0.576077
0.0398395
-1.86169
1.4841
-1.47739
1.11046
-1.63228
0.307042
1.00307
-1.29507
0.993501
-0.0854589
0.886807
0.972621
1.01774
0.016111
-1.182
-0.642356
0.635502
0.767667
1.0625
0.0133716
0.784783
0.0603465
-0.306041
-0.329342
0.835446
1.13571
-1.49026
-2.54783
0.0254571
1.22482
0.0336604
0.684897
0.0350232
-0.12637
-1.50484
-0.94652
0.0570599
0.784088
0.146612
0.0332943
-0.407827
-0.528818
-1.07433
-2.13679
0.0109255
0.976281
1.02765
-1.38756
-0.241581
0.993471
0.937988
1.02763
-0.253685
0.989999
1.05649
1.00245
1.04992
0.121786
0.0247961
-1.16685
0.561114
1.00338
0.704592
0.148888
0.0172227
0.112018
0.0228577
1.25064
0.0215447
0.0246419
-0.63349
0.0217706
-1.42603
0.745373
-1.33558
-2.24735
-1.19972
1.00837
1.00622
1.00977
0.0079444
0.283084
1.22611
0.00966468
1.00897
0.0288531
0.0114147
0.717665
1.02582
1.06493
0.0231863
0.978831
0.984741
-0.230217
0.0240655
1.01291
1.04034
1.0212
-1.27503
-1.08246
1.03305
0.60937
1.00767
0.122683
-0.237032
0.0264751
0.0203243
0.00679192
-2.05517
-0.266997
0.0415757
1.03252
1.03992
0.732823
-1.05273
1.00552
0.0191218
0.00766399
-0.000927765
1.01518
1.03011
1.02771
1.04192
1.01072
1.01368
1.00368
0.0271879
0.0178232
0.0192174
0.0174409
0.00502787
-0.00313839
-0.00345298
0.0146429
0.0137976
0.0217085
0.0235635
1.0127
1.02383
1.00961
1.04005
1.03886
1.02444
1.03026
1.01093
1.01136
0.012553
0.019924
1.02679
1.02987
0.00168883
1.02636
1.02598
0.0166706
0.0199571
0.0221756
-1.14497
0.122021
1.00607
-1.62762
1.016
0.688449
1.07154
-1.38592
1.00856
0.961636
0.96855
-1.15358
0.0452725
-1.326
0.0218093
-0.120202
-1.05839
1.01604
0.0251221
1.0884
1.00579
-0.280696
1.15806
1.31275
0.0242493
0.871485
0.665356
1.00533
1.03271
1.0079
-1.57654
0.420997
0.0169171
1.0075
1.02277
-1.1169
0.0179115
1.0066
0.0148678
-0.427885
1.01233
-0.187017
0.990447
1.03205
-0.685972
1.01597
0.0244817
1.01864
1.06866
0.151604
1.02114
1.04011
0.0136312
0.655606
1.01124
1.00771
0.0508801
-0.921688
0.714707
1.3429
1.02094
1.01423
1.02277
0.021258
1.01434
1.00611
1.02075
1.01705
1.01735
1.01502
1.10131
0.045809
-0.121269
1.00493
1.01144
0.238709
-0.141296
0.0148734
0.052368
0.888851
-0.432676
0.0710637
0.00791068
1.01833
0.730369
0.0132091
0.0317084
0.023154
0.0234491
-2.39967
0.0199963
0.0814553
-1.97376
-0.456082
1.01553
0.0231349
1.00143
0.943506
-1.48874
1.23252
0.0414839
-2.52614
0.787897
1.11678
0.390869
-1.14011
1.00708
0.0281294
1.01588
-0.463504
1.01508
-2.4663
1.01414
0.0270734
-0.00329811
1.01401
1.02829
0.94137
0.0329531
-1.07305
-1.04696
0.0318009
1.0349
0.923189
0.0297938
1.0053
1.04593
1.0031
0.0368929
0.0836258
-0.644383
0.13856
0.377299
1.0068
0.00715909
1.02091
-0.0489958
1.00999
1.03995
1.01892
-0.00107982
0.000690743
1.04725
-1.85226
1.02422
1.02293
0.0331856
-1.41726
0.919318
1.12579
1.01018
1.00237
0.0334981
0.0495768
0.98126
0.414885
1.01171
0.843955
-1.07554
-1.46917
0.848106
1.24418
1.00809
0.345488
0.0588454
0.0353858
0.110679
0.0714375
0.990024
-0.0961931
0.999696
-0.584693
-1.31537
-1.3939
0.432825
-2.50544
0.0525932
0.0605221
1.00772
-1.12119
0.889627
-1.43586
-0.183074
0.0398015
0.0126493
0.0646675
0.976314
0.0312634
-0.945275
0.0512703
-0.868647
1.00539
0.079224
0.0129534
0.00182427
1.07216
0.041921
-1.46752
1.07184
0.996114
0.99077
0.517783
-0.876156
1.01082
1.0309
0.0440177
-1.4899
1.0041
0.794391
1.24182
1.02826
0.0207098
0.0810377
-1.72968
-1.01289
-1.03328
-1.19737
0.0276319
-2.60226
0.799639
-0.0267614
1.01906
1.20232
1.00478
-1.05907
-2.38167
1.00544
0.080478
0.0566706
0.995187
-0.168726
-1.01233
0.0567105
0.0353984
0.960399
0.939769
0.0449259
0.847701
0.649129
0.108783
0.99687
-1.53866
0.817618
-1.7947
0.989954
0.100291
0.429897
1.01023
1.0813
-0.0124773
-0.172411
0.839569
1.36724
1.02976
1.00366
0.0953028
1.23675
-1.5977
0.0478448
-0.804356
0.473871
0.0430903
1.10856
1.15498
-1.46131
0.0236792
1.00377
-0.458024
0.857175
1.03932
0.967452
-0.0677652
1.00907
0.00551499
1.03922
0.00287596
0.0516174
-0.235157
1.00952
0.00622139
-0.529778
0.0559666
1.0018
0.0586665
1.1799
0.26519
1.31687
0.97241
-0.67784
1.00093
-1.49779
0.982262
0.980622
0.0420556
0.0603455
1.1139
0.998208
1.21524
0.972249
0.0927195
0.972402
1.00413
0.857804
1.01524
-2.2459
-1.3518
0.0964025
1.1003
-0.0337386
0.0627358
-1.33142
0.00616297
0.0499174
0.0210671
0.850522
0.0482905
0.974378
1.01425
-1.52411
-1.22596
-0.53706
-0.486704
-1.23603
-1.38651
1.00916
0.0912204
1.02285
1.23086
1.06088
-0.253212
1.03486
0.957754
-0.117378
0.972461
0.987741
-1.01848
0.996701
0.928711
0.0115107
-0.309066
1.45341
0.0763466
-0.720522
-1.53586
0.238472
0.994793
-0.73905
0.0341342
-1.06419
1.13087
0.0737797
0.83903
1.01481
0.995852
-0.265605
0.984529
0.0773392
1.01532
1.04833
-0.580243
1.02475
0.467316
0.998681
0.716429
-0.00407275
0.00249528
0.00740552
0.0252167
1.23193
0.0194539
1.03474
1.38854
0.0108755
0.00194932
1.07023
0.00377715
1.06864
-0.000578788
0.00654462
1.06908
1.07492
0.428848
-1.89144
0.745887
-1.12706
-1.99996
-0.788495
1.02675
1.00787
1.41711
-1.11833
0.0708959
0.742013
-1.22382
1.07398
0.982015
1.00665
1.00025
0.968659
0.0647686
-1.24818
-1.41314
0.808463
0.934774
0.0964043
-1.44191
-1.64666
1.02446
1.04296
-0.0530646
-0.100063
1.03931
0.0768713
0.236405
0.757799
0.912424
0.0211545
-1.48424
-0.252473
-1.15292
-0.730274
-0.111721
0.0849287
1.36664
1.36145
-1.09674
-1.03796
1.03311
1.00096
-1.14986
-0.0350931
-0.379327
0.633773
1.09495
-1.12238
1.01724
0.0542548
-1.58733
-0.755672
-0.776776
-1.16002
0.990116
-1.11947
-0.696631
1.35738
-1.19033
1.00872
1.22104
-1.45565
1.04098
1.24563
-1.30916
1.24021
-1.26366
-1.80726
1.01595
0.0380828
1.01161
1.02685
-1.32069
1.06322
0.161451
0.114188
1.0448
1.02923
-0.967705
-1.16611
0.950743
1.01369
-1.43664
0.0745327
1.28041
-1.36965
0.918039
0.0316738
0.96253
-1.05519
0.12771
-1.44097
-1.24481
1.08874
1.04117
1.28333
1.20351
0.972181
1.06669
1.05958
-1.41295
1.12995
1.13906
-1.43291
-1.4174
-1.00966
1.32152
0.0720938
-1.92158
0.0347381
0.931022
-1.4113
-1.01243
1.01605
1.01841
-1.45323
-1.44012
-1.80448
0.0139075
0.0518556
-1.35842
-1.37482
0.88324
0.894597
-1.3493
-0.445134
-0.929562
0.832798
-1.39115
-1.17611
-1.33266
0.945104
-1.21821
-1.45089
1.32369
0.913508
0.445916
1.19218
0.0425379
0.979579
1.0195
1.12297
1.2047
0.0352967
0.668053
1.00266
0.271432
-1.28443
1.42238
0.968269
0.917633
1.06599
-1.44938
-0.681958
0.8676
0.79355
0.988713
-0.0628416
0.121173
1.00214
-1.59078
0.836415
0.0361855
1.41365
-1.23751
0.724957
0.744093
-1.21876
-1.20622
-1.67067
1.06291
-1.26138
-1.17101
0.70663
0.602112
-0.80997
1.07036
0.847791
-1.30304
-0.898298
0.96372
-0.0327973
-1.16921
-2.02605
-1.00911
-0.462148
0.980912
1.02017
0.163091
0.627548
1.01889
1.3398
0.28651
0.258578
-0.0159456
0.892665
-0.458379
-1.18288
0.0512714
-0.637255
-1.15408
1.00019
-1.40029
0.142789
-1.14187
0.530781
0.578946
-1.11871
0.646806
-0.0155925
0.507017
-1.09078
0.45212
-1.1795
0.401767
-1.09616
0.363951
-1.06489
0.822859
-0.846209
-1.04615
-1.03726
-1.30171
1.03042
0.094645
-1.0691
-1.03895
0.00197411
0.15619
-1.33955
-1.49926
-1.12549
-0.119256
-1.04783
-0.171312
-1.0933
-0.393045
-1.21989
-0.300688
0.907161
0.00266669
-0.242841
0.986623
-0.0461618
0.0209773
0.459512
1.0034
-1.11386
0.15352
-1.0501
-0.4331
0.906539
1.41552
-0.0271126
0.0377994
0.0463529
-1.15383
-0.323926
-0.344351
0.976822
-1.01364
0.972482
-0.287504
1.48319
0.503978
1.41575
-1.41873
1.18675
-0.537406
1.01732
-0.474714
-1.07334
1.07319
1.00398
-0.178469
-1.14449
-1.02761
0.96914
-2.35801
0.992498
-0.613442
-2.03186
-1.46125
1.30223
1.03818
1.10967
1.01988
1.03146
0.0409745
-0.432761
1.2024
-0.223433
-1.01921
1.41376
-1.69066
0.928336
0.961123
1.37023
1.42439
-1.98042
-1.73236
1.04381
0.24278
-0.478493
-0.951342
0.0333958
0.148372
-1.47802
0.624131
-0.583405
1.19769
-0.145559
1.03889
1.13172
1.03616
-0.718398
-1.67871
-1.0541
1.09301
-0.994129
1.17082
-0.709357
-0.904782
1.23467
1.30124
-0.952727
0.0525329
0.964969
-0.907115
-0.971773
0.676904
1.27038
1.2234
-1.63922
0.892523
0.83702
-1.0711
1.23562
0.259722
-1.38514
0.0405418
0.0193818
0.0102
1.11013
-0.937561
0.231499
0.0253661
0.0300736
-0.878773
-1.36268
0.998453
-0.393269
1.02054
-0.163453
0.0956054
0.722523
0.303516
-1.02023
-0.736283
-1.27349
0.0247008
0.0113528
-0.563475
0.927127
-0.520077
-0.369862
1.00692
-1.21269
-1.47487
1.02469
-2.1194
0.96377
0.013859
-1.7286
-0.299024
0.800165
-1.10996
-1.025
0.897427
-1.8426
1.07728
-0.616058
-0.96262
-1.07944
-1.10871
1.48229
0.100653
1.12715
0.0176921
0.971132
1.18336
0.730403
1.03191
1.15524
-0.136307
-0.0129116
0.987498
1.09476
1.35755
-1.15309
1.05062
0.657977
-1.22819
0.795868
1.20444
-0.680855
1.34148
0.110023
-1.05308
0.840007
-1.29181
-1.04804
0.955237
-0.571001
1.06558
1.05278
0.960686
-1.13678
0.897258
1.25987
-1.24176
-0.403932
0.124088
-1.40692
-0.998542
-1.16307
1.34664
0.75482
-1.27807
0.909961
-1.34782
-0.958485
1.26543
1.2227
-0.651133
-0.754716
-1.11914
-1.7961
0.981364
-1.33625
0.104972
-1.3243
-0.530187
1.07436
-1.43019
1.3878
1.05331
0.887116
1.0272
1.30072
-0.888202
-1.39808
1.02241
1.14373
-0.882476
1.0132
0.148865
-1.43053
-1.45822
1.07892
1.1092
-1.45227
-1.37049
0.55789
-0.0395308
-1.64013
0.993206
0.953969
-0.56267
0.99505
1.03857
-2.21643
-1.42195
-1.21045
-1.3998
-1.46344
1.3074
0.0440189
0.906324
-1.38912
1.30338
0.898433
0.856107
0.93848
0.116647
-0.0215465
-1.35633
0.504196
-1.44953
0.917873
0.300094
-0.710271
0.85697
1.00137
1.04962
1.01371
0.00305699
1.05134
-0.00013857
0.426716
0.799511
-0.583135
-1.44402
-1.15876
-0.735232
1.02211
0.965272
1.0213
-1.06973
-0.862709
-1.31477
-0.919916
1.02046
1.28222
1.02932
-1.45287
-0.929333
-0.797123
-0.632532
-1.12271
-1.11086
-0.280964
1.00609
-0.964091
-1.32923
0.0118482
-0.0926125
0.701161
0.149027
-1.27589
-2.41386
0.935706
1.42718
0.018363
1.1019
1.48294
0.636791
1.20079
-1.47192
0.0267153
1.39104
-1.23446
0.324884
-1.43206
-1.46996
-1.02315
-1.24696
0.985114
0.734346
1.18742
1.14887
0.00487608
0.779724
-0.0124906
0.0176445
-1.18852
1.11059
0.703162
1.03025
1.04521
0.00935498
0.00765301
1.04178
-0.207454
-1.0806
-1.28618
-1.0503
0.609076
-1.20514
0.970258
0.672048
-1.22827
1.22546
-1.49823
-0.428623
1.00559
-0.906969
-1.02253
-0.411982
0.568735
-1.37072
-2.44875
0.901891
1.03967
0.0321408
0.0764833
-0.204464
-1.15707
0.0560807
-1.94413
-0.164846
0.605803
-0.9256
-1.1742
1.25845
0.206218
0.314491
-1.13733
-1.46313
1.01236
1.04061
0.493504
0.541449
-1.10436
-1.10233
-0.883064
0.411591
0.450545
-1.07905
0.858806
0.0808266
-1.05219
1.44165
-1.03743
-0.645301
-1.4563
-0.986947
0.84257
-1.04401
-1.28973
-1.03384
0.00531063
-1.09317
-0.0742298
-1.07268
0.0125103
1.16952
-1.16797
-0.186498
-1.07171
-0.267243
1.33668
1.38988
1.22442
1.02637
1.20087
-0.856098
1.01074
-1.45117
1.03859
-1.04002
-1.61376
1.25672
-0.723595
0.516807
-1.4676
1.39569
-0.0837774
1.33314
0.567087
0.763786
-1.40494
-1.45004
-1.08665
-2.39043
1.30764
1.18679
1.00387
0.668394
1.00609
0.866375
0.793302
-1.01341
-1.85668
0.184023
0.0150754
0.766526
1.02774
-0.0328968
-1.54043
-1.02803
-1.83297
-1.06141
-0.0409107
1.33711
1.04179
1.01209
0.00667619
0.00814147
1.04335
0.0146855
-1.13778
0.016111
-1.22298
0.754593
-1.31225
-1.11606
-0.312337
1.00554
-1.1744
-1.47085
1.00917
0.613627
0.757986
1.00823
-1.13276
0.848141
1.18649
0.837799
-1.1053
1.00583
0.361892
0.411301
-0.948061
-1.22574
1.44075
0.273377
-1.17878
0.0514814
0.886841
0.958938
-1.07054
-0.891734
0.0198061
-2.01213
-0.974266
-1.27826
0.0174041
1.00194
-1.44873
0.989662
1.27472
1.08575
0.982036
1.07219
1.13452
1.01369
-0.69703
-0.707262
-0.534711
-1.12581
-1.28606
-1.09728
1.13987
1.03585
-1.35859
0.971388
-0.934041
0.0462704
-1.05683
0.0338261
0.567576
-2.22656
0.996977
0.883938
-2.03988
-0.429222
1.33153
-1.35093
0.0598978
-2.20025
-1.25685
-1.01552
1.04768
0.744992
1.09454
-1.11811
-0.00260864
-0.985619
-0.452927
-1.33531
-0.286669
-0.825995
-0.490942
0.889857
-0.983123
1.44687
-1.31692
-0.558428
-1.06009
-1.07413
0.938564
-1.03509
-1.03949
-1.79352
-0.27427
1.18304
1.21744
0.0157335
0.00265408
0.796736
-1.0601
-1.31029
1.10313
-1.17184
-0.124095
-1.93705
0.720695
-0.412649
-1.29882
1.00064
-0.0189008
-1.64121
1.00744
-0.94062
-0.490288
-1.39027
-1.14254
-0.0613279
-1.29947
1.30715
-1.24583
0.193851
-1.04914
0.763874
-1.44186
-0.950164
0.610347
0.776484
1.06174
0.971415
1.16837
-1.06029
0.856714
0.577125
-0.972012
0.923343
-0.491246
-1.79348
-0.805432
1.17682
1.16398
-1.4224
-0.940936
-0.957226
0.995678
-0.979182
0.0762926
-1.81727
-1.11322
1.27087
0.995887
-1.43074
-1.14631
-1.54716
-1.3653
0.910108
-1.52191
0.960725
0.174555
0.673406
0.80933
-0.974757
-0.952447
0.920732
-1.09293
0.0112548
1.27465
-1.34902
-1.35083
0.791031
-1.1301
-1.22343
-0.172681
-1.07875
1.35034
-0.648345
0.173213
-1.44673
1.2971
-1.45689
-1.11358
0.605113
-1.72593
-1.06145
1.33278
0.636764
1.00236
-1.26312
1.22033
0.0283675
-1.04954
-1.32248
-1.32582
-1.45853
1.25327
0.533249
-1.49538
-1.46169
-1.2396
1.11467
-0.985996
1.27331
-1.06847
0.699476
-1.27597
0.316233
0.493906
0.45758
0.371552
0.188966
-1.0373
0.992902
-1.34529
-0.840272
-1.85476
0.299187
1.31401
-0.277287
-1.20406
-1.54983
-1.30172
0.203292
-1.29491
-1.25054
0.842627
0.219715
-1.39525
1.37969
-1.27117
-0.348855
1.35542
-1.33813
0.0820518
-0.972256
-1.07941
-1.21469
1.35422
-1.02024
1.27455
-1.19033
-0.975302
1.16171
-0.214975
-1.05829
0.522797
-1.10586
-0.0612274
-0.423768
-1.25855
0.816773
-2.36198
-1.29388
-1.0944
-1.07074
-1.03813
0.852972
-0.245707
-0.38232
-1.41475
1.30151
-0.906583
-1.19009
-1.00242
-0.171736
-1.20146
-0.974731
-1.38714
-0.0926062
1.23535
-1.50189
-1.02449
-1.56352
-0.892384
-0.330671
-1.04955
1.38716
1.3205
0.36291
-0.943701
-1.04301
0.272145
-1.03681
1.39863
0.144112
1.06686
0.664441
1.27829
0.018758
-1.20361
-0.934646
-0.145244
-1.34561
-0.144054
-0.107583
-1.20165
1.29638
-0.249011
0.157265
-0.334707
-0.98191
-0.960279
)
;

boundaryField
{
    frontback
    {
        type            empty;
    }
    Top
    {
        type            zeroGradient;
    }
    outlet
    {
        type            fixedValue;
        value           uniform 0;
    }
    bottom
    {
        type            zeroGradient;
    }
    Inlet
    {
        type            zeroGradient;
    }
    rectangle
    {
        type            zeroGradient;
    }
}


// ************************************************************************* //
