/*--------------------------------*- C++ -*----------------------------------*\
| =========                 |                                                 |
| \\      /  F ield         | OpenFOAM: The Open Source CFD Toolbox           |
|  \\    /   O peration     | Version:  2306                                  |
|   \\  /    A nd           | Website:  www.openfoam.com                      |
|    \\/     M anipulation  |                                                 |
\*---------------------------------------------------------------------------*/
FoamFile
{
    version     2.0;
    format      ascii;
    arch        "LSB;label=32;scalar=64";
    class       volScalarField;
    location    "49";
    object      p;
}
// * * * * * * * * * * * * * * * * * * * * * * * * * * * * * * * * * * * * * //

dimensions      [0 2 -2 0 0 0 0];

internalField   nonuniform List<scalar> 
2186
(
1.0366
0.171589
0.429294
1.31793
-1.81051
-0.106592
1.01753
-0.578338
0.167267
1.48111
0.863609
-0.385145
-0.592993
1.09704
-0.0207782
1.05539
1.10826
-2.08156
0.00618833
-1.91148
1.43559
-1.82625
1.09926
-0.434165
1.09078
1.29882
1.30461
1.19358
0.262356
1.09501
-1.87671
1.09071
-1.95832
-0.0958865
-0.380217
-0.388945
0.210954
1.405
-1.03132
-0.166339
-0.588763
-1.78121
-0.115315
-1.96977
0.739269
1.4616
0.754997
0.893667
0.435101
-2.08532
-1.90002
0.655268
-0.118421
1.29217
-1.97006
1.23019
-0.160419
1.25188
-0.965918
1.05331
0.430482
0.36933
0.233516
0.0424478
0.283844
0.845121
0.364628
1.33624
1.228
0.110973
-0.589997
0.459767
1.34795
1.25894
1.15939
1.38407
0.32469
1.09983
-0.384913
-1.4251
-1.4329
-0.0915837
1.08834
0.34164
1.09238
1.09089
1.29481
0.168209
0.377982
-0.346569
1.22872
-1.91543
1.10138
1.31738
1.09784
0.037935
0.325786
0.313381
-1.95132
1.26076
-0.756199
-0.996943
0.395506
1.12091
1.11136
-1.92061
1.10569
0.187831
1.2033
-2.00983
-1.40592
-1.98606
0.912513
1.26112
0.0953324
-0.74122
-0.198398
0.415276
-0.348971
1.36694
-0.585243
-2.25873
0.604004
-1.92718
1.06307
-0.213779
-1.9272
1.37119
-2.01833
1.0037
1.54015
1.44484
0.664078
0.997249
-1.09646
-2.14636
1.20885
0.0350679
-0.505967
-0.395084
0.526779
0.30384
-0.560644
1.03802
1.11246
1.143
0.178703
-1.80801
0.963224
-1.91774
-1.91738
0.9431
1.10328
1.40085
1.29469
0.90031
1.26607
0.164797
0.049441
0.816535
-0.35937
-0.451401
0.986478
1.24509
0.185935
-0.0786643
-0.352712
-0.481253
0.318249
0.562228
-0.0277113
1.26304
1.108
1.34894
0.0353107
-0.469976
-1.70979
0.983505
-0.962389
0.642103
-0.460052
1.10065
-1.90562
0.211038
0.162002
-1.69059
-0.967711
0.992711
-0.578174
-0.60596
-1.25424
1.29663
-0.238283
1.22255
-0.320366
-1.81368
-0.463165
1.20047
0.903295
-1.93879
-0.610818
-1.41736
0.529826
1.13465
-0.353058
-1.86934
-0.409562
0.580822
0.927724
-0.0195258
0.895727
0.540926
1.25413
0.567322
0.695848
1.22612
1.06959
1.08947
1.19106
0.982559
0.802732
-0.811946
-1.9243
-0.395355
0.62126
-2.1519
-1.88982
0.862263
1.30047
-0.527635
-0.338125
-0.946438
0.773029
0.998202
1.04462
1.19385
1.36229
-1.64109
1.17354
-0.490549
-2.06158
-0.780601
0.809829
0.435303
1.02385
1.27398
0.970418
0.93383
-0.591547
1.13753
1.0828
-0.615117
0.788755
0.498353
-1.09989
-0.3912
-0.337612
1.02283
1.08903
-0.578904
-0.108629
0.413937
1.23781
-1.94999
0.500169
0.942614
1.08115
-0.389451
-1.90708
1.09777
0.403149
0.202147
-0.490767
1.33004
-1.88048
-0.578369
1.06119
1.40717
1.09712
-1.89263
-0.0467384
0.031189
0.781503
-0.602525
0.916578
1.08798
1.25742
0.322804
0.284761
0.952148
-0.38848
1.19568
1.41741
1.08771
1.08575
0.156466
-2.06525
-0.401661
0.329774
0.406429
0.0119961
0.779022
-0.00240481
0.271147
1.39787
1.09815
0.768346
0.0885367
1.13443
-0.378355
0.218717
-0.537653
-0.350416
-0.608803
0.760668
-1.92471
-1.90739
-0.340836
0.820178
-0.0990838
-0.0373248
-1.983
0.520697
-0.639673
-1.95806
1.27708
-0.584961
-0.192224
-1.91014
1.11121
0.314789
-0.498514
0.904115
-1.27846
-0.570613
0.341932
1.12088
0.917654
-1.5624
1.21231
1.18741
-0.0244198
1.44999
1.04435
1.0919
0.798878
0.675465
-0.389423
0.666799
-2.03712
-0.417853
-0.433438
-0.892244
-0.379826
1.32622
0.22795
-1.90337
-0.648985
1.04548
-1.65725
0.243351
-2.0506
1.08904
0.582633
-0.600137
1.2573
1.33229
1.36768
-0.568745
-0.147846
1.33821
1.0573
-1.38689
0.102861
-0.513994
0.609618
1.15023
0.833032
1.09581
1.45657
0.123948
0.679844
-0.139489
0.119934
0.0142409
-1.81189
0.11552
1.23935
-2.30662
0.0771084
1.02762
0.948179
-0.446168
-1.57925
-0.416777
-2.16419
-0.517453
-0.32576
-1.85047
-1.85056
1.32565
0.484092
-0.769612
1.10099
-0.365943
1.46163
-0.973387
-1.89383
-2.0582
1.08789
-0.481286
1.08835
1.15596
0.246314
1.24736
-2.28168
-0.293273
-0.623075
1.28061
1.09476
-0.489023
-0.549595
-0.520715
0.823095
-0.474903
-0.603814
0.137027
0.861176
1.07758
1.00304
-0.565977
-0.142835
0.706287
0.14385
1.05318
-1.96682
1.1053
-0.568645
1.35974
-0.339744
1.16017
0.490559
1.09429
-0.45446
1.02567
0.247184
-0.28919
1.09064
-1.43012
-0.211914
-0.845757
-0.39223
1.061
0.627931
0.719566
1.03263
-0.213926
0.480972
0.268372
-1.90452
0.717953
-0.563251
0.463081
-1.24765
0.912746
1.37507
-0.633712
-0.307192
0.758968
-1.89071
0.104086
-0.664685
0.583709
0.53944
-0.598351
1.0466
0.657102
-0.0500505
0.714152
0.655035
0.532791
-0.0861093
0.527965
-1.42536
0.0771609
-1.82302
1.0868
-1.81991
1.27432
1.43293
1.41696
0.362667
1.04382
-1.84373
-1.85085
1.07836
0.649835
1.02975
-1.62873
-0.612581
-1.00842
1.07241
-0.287592
-1.64354
-1.9885
-2.05833
-0.492371
0.0137116
0.485253
0.523441
-0.396504
0.112028
1.08109
0.526468
0.999802
-1.42531
-0.75227
-0.284898
0.482681
-0.160721
1.40272
1.35877
-1.16991
-1.8726
-0.314152
-0.0138881
-1.72702
1.30206
0.111881
1.26947
0.599041
-0.489308
0.740403
0.704647
-1.71749
1.07637
0.169112
-1.90743
0.0932553
-0.315252
0.0746054
-1.72469
-0.360238
1.09459
-0.223196
-1.93473
0.954416
1.23241
1.42612
0.199028
1.044
0.157225
1.10343
-0.0219243
0.10627
-1.9084
0.14403
0.600644
0.947063
-0.727959
-0.616438
0.0538876
-0.360118
0.365096
1.06455
-0.666523
-0.114719
-0.65293
0.762519
-1.42698
0.949061
0.529981
0.312906
1.09269
0.984536
-1.46693
-0.707447
0.974525
1.47868
1.10637
-1.00908
-2.29297
1.11175
0.593963
1.09682
-0.911817
0.0693544
0.969183
-0.617561
-1.90332
0.89421
-0.179467
1.16727
0.20132
1.18211
-1.13954
0.974385
-0.325637
1.36295
-1.90523
-0.396136
0.762028
0.176275
0.197037
-0.534323
-1.9752
0.116541
0.638179
0.177751
-0.239689
-0.972328
1.08941
0.0462355
-2.29166
0.535669
0.69614
1.00343
-1.06346
-1.72245
-1.92098
1.09781
1.07086
0.874395
1.09624
-0.803307
1.27707
-1.0568
0.157665
0.205408
1.09293
1.10223
-0.679593
0.609911
-1.90754
0.6224
-1.78546
0.822263
1.19657
1.08697
-1.68131
0.755712
-0.774251
-0.556989
1.28791
-1.36433
-1.24432
1.05774
0.0312745
0.974857
-1.40077
-1.90818
0.877461
1.10253
1.51974
1.08535
-2.1133
1.3363
1.00379
0.584349
0.316721
-0.883031
-0.243335
1.57073
-0.429497
1.04017
-1.91794
0.729449
1.0866
-0.602119
1.01227
-0.505524
0.717898
1.11164
1.11198
-0.329301
-0.653635
-0.0544291
0.933212
0.979407
1.2736
-0.0810254
0.586381
-1.53224
-0.531086
-1.19393
1.13802
1.38265
-1.39712
-0.193991
-0.501361
1.25905
-0.138319
0.459284
-0.301529
-0.73075
-0.551147
-1.87055
-0.562007
0.658153
-1.8625
0.00453057
-0.869768
0.135562
-2.01998
-0.521972
-0.0160019
0.986173
1.09652
-0.55018
0.320107
1.0152
1.09982
1.10258
-0.375374
1.00615
1.24134
1.10781
1.31913
-1.2864
0.0980925
-1.90469
0.302075
1.11133
1.04924
0.595324
0.00424808
-2.05675
-0.959243
1.45793
-0.0405722
-1.18824
0.0522662
0.0202794
-0.583111
0.556052
-0.420553
-0.244752
-0.312421
1.0493
1.09142
1.06352
-0.0585214
-0.00395361
1.45223
0.0748387
1.10056
-0.0259606
0.0397585
0.51262
1.0894
0.945876
-0.714499
0.986752
0.996423
-0.163946
0.0564204
1.06572
1.08439
1.08968
-0.297813
-0.395848
1.09298
0.970782
1.08853
-0.26519
-0.740155
-1.04756
-1.07187
0.178227
-1.92899
-0.370718
-0.0256
1.09268
1.09618
0.587915
-0.355907
1.04807
0.159085
0.609301
-0.0401704
1.09673
1.10348
1.09372
1.09544
1.06696
1.05507
1.03793
0.551963
0.698845
0.0401607
0.0696838
-0.0679662
-0.0299637
-0.0214021
0.355089
0.243869
0.110705
0.0291192
1.09545
1.10363
1.10028
1.1153
1.10914
1.09546
1.09242
1.0982
1.06238
0.310695
0.378116
1.09122
1.09643
0.00313337
1.09997
1.09254
-0.453112
-0.964337
0.025909
-1.67929
-1.77399
1.07059
-0.605576
1.08244
0.969356
1.32095
-0.37299
1.0872
0.933959
1.08152
-1.89936
-0.295548
-0.556298
0.0392061
-0.580397
-1.91827
1.07548
-0.925698
1.16209
1.06989
-0.783833
1.06696
1.2704
0.0323898
0.773613
1.01581
1.0598
1.08041
1.09191
-0.471763
0.124417
-0.531416
1.07219
1.09613
-0.640301
-0.799343
1.07035
-0.216615
-0.987809
1.07603
0.10769
1.02081
1.0833
0.0762722
1.0949
-0.970948
1.08224
1.06036
-1.97264
1.10621
1.11107
-0.7391
0.466533
1.09181
1.07501
-0.244081
-1.70134
1.05785
1.52499
1.07948
1.09065
1.08163
-0.847345
1.0854
1.09849
1.07789
1.07973
1.07716
1.08913
1.12715
-0.0809982
-1.08847
1.08825
1.06663
-0.062007
0.0871811
0.671318
-0.318098
0.814009
-0.218254
-0.688679
-0.0953306
1.07812
1.06124
-0.263895
-0.588205
-0.441508
-0.0792258
-1.98924
-0.833786
-0.88233
-2.34916
-1.0357
1.09041
-0.574395
1.07639
0.895543
-0.401745
1.17762
0.0841316
-2.19704
1.02884
1.01184
0.0821645
-0.312733
1.05042
-0.837344
1.08468
-0.458377
1.08789
-0.130171
1.07276
-0.620386
0.639511
1.0858
1.10739
0.884711
-0.903785
-0.358591
-1.25958
-0.99031
1.11036
0.867236
-1.10609
1.06254
1.11523
1.04022
-0.817913
-1.43725
-0.0950602
-1.34266
0.771385
1.06768
0.157684
1.08717
-1.39068
1.06671
1.10599
1.09079
-0.0960236
0.0442467
1.12119
-0.66415
1.09375
1.09346
0.495555
-0.570952
0.757241
1.06886
1.07178
1.04378
-0.818993
-0.610557
1.09131
0.813929
1.089
1.15718
-1.5786
-0.54722
0.777612
1.39108
1.05906
0.760858
-0.373534
-1.14965
-0.573344
-0.712616
1.09847
0.18662
1.02663
-1.58886
-0.32848
-1.85124
0.168202
-0.409842
-0.187512
-0.550015
1.0696
-0.333544
0.719325
-0.43513
0.318803
-0.726926
-0.22535
-0.594919
1.00192
-1.03065
-0.33583
-0.612503
-0.852832
1.09683
-0.671528
-0.136739
-0.523801
1.00512
-0.0286545
-0.448314
1.13562
1.09376
1.09729
0.872545
-0.384492
1.0576
1.06545
-0.682255
-1.90024
1.07115
1.12075
1.20439
1.08081
0.537784
-0.584935
-1.94205
-0.733141
-1.59844
-0.291822
-0.754967
-0.0840199
1.12384
0.449308
1.10119
1.20004
1.05174
-0.356587
-0.56507
1.06862
-0.271526
-0.280931
1.09421
0.39647
-1.47222
-1.40156
-0.494532
0.931834
0.89276
-0.465948
1.07404
0.423272
-0.883131
1.1009
-0.430314
0.705423
-1.85843
1.21167
-0.519131
0.828179
1.0722
0.965697
-0.115183
-1.21997
0.744612
1.43586
1.08998
0.871961
-0.866733
1.45891
-0.197412
-0.414221
-0.255582
0.862323
0.0102578
1.16985
1.37815
-0.478605
-0.499407
1.05369
-0.496761
1.14395
1.09734
0.948932
0.0364918
1.06771
0.122897
1.11183
0.0799822
-0.560932
-0.738673
1.07384
0.0197511
-1.17203
-0.279645
1.17427
-0.572347
1.11593
0.690269
1.28631
0.82498
-0.761298
1.10671
-1.90871
0.979605
1.00558
-0.463808
-0.514395
1.0258
1.03073
1.14917
0.965527
0.559066
0.94909
1.11387
0.75869
1.07002
-0.123198
-1.91523
-0.726515
1.25187
-0.427594
-0.398121
-1.90884
-0.661686
-0.272844
-0.0942924
0.669643
-0.458281
1.09947
1.16735
-1.90187
0.114191
-0.568345
-0.0953703
-1.23661
-1.90411
1.04815
-0.126871
1.08282
1.42633
1.13628
-0.607046
1.08915
0.927262
-0.366258
1.12024
1.01487
-1.45599
1.02143
0.773905
-0.0385624
-0.276787
1.55782
0.128704
-1.22357
-0.569149
0.669111
1.0926
-1.59403
-0.0420732
-1.90312
1.15771
-0.366181
0.657553
1.04876
1.1208
-0.154922
1.1442
-0.274019
1.07468
1.09214
-0.898125
1.08674
0.178263
1.12396
1.04178
-1.06098
-0.169644
-0.0451389
-0.930815
1.21299
0.208053
1.05233
1.40453
0.0922459
-0.00941047
1.15229
-0.00387228
1.14948
0.166056
0.353357
1.12908
1.13401
0.824329
-0.260392
0.538073
-1.78373
-1.9967
-1.52379
1.08041
1.14339
1.57168
-0.319602
-0.181645
1.0809
-0.580021
1.08268
0.889605
1.15012
1.04066
1.09403
-1.42209
-0.319855
-0.590856
0.671001
0.891359
-0.614409
-1.9022
-0.539333
1.0996
1.16412
-0.112288
-1.33114
1.09771
-0.0195833
-0.0814194
0.548494
0.746849
-0.0292487
-0.539926
-0.559182
-0.658006
-1.59046
-0.935381
0.00517409
1.55163
1.32742
-1.64092
-0.72869
1.09515
1.07557
-1.78321
0.456498
0.160453
0.39565
1.13696
0.0290916
1.0707
0.436709
-0.550785
-0.786699
-1.40129
-2.10985
1.13008
-0.681486
-0.130755
1.35454
-0.648161
1.07364
1.18671
-1.90089
1.313
1.46665
-1.80666
1.17147
-0.625439
-0.582329
0.941154
-0.604701
1.29133
1.08181
-0.606237
1.20085
0.607778
-1.64249
1.09306
1.30439
-0.301699
-0.627142
0.917109
1.06424
-0.549548
-0.646369
1.223
-0.588247
0.870645
-0.495175
1.11856
-0.42567
-1.86337
-0.441727
-1.76194
0.974039
1.17702
1.49355
1.12454
0.823186
1.11436
0.937093
-0.396793
1.02849
1.38769
-1.88059
-0.573946
-1.4672
1.27585
0.210968
-0.620492
-1.13047
0.769542
-1.86746
-1.56282
0.879775
1.29652
-0.484241
-1.9033
-0.641932
-0.495011
-0.92723
-1.83824
-0.354751
0.708239
1.20194
-1.90854
-1.05371
-0.265284
0.642792
-0.580815
-1.70805
-0.320736
1.24188
-0.498349
-1.89914
1.52212
1.08345
0.824648
1.42437
-0.757232
1.2674
1.05981
1.25501
1.43625
0.0144327
0.433252
0.874875
0.698687
-0.295522
1.48014
1.15251
1.15386
1.21997
-1.89265
-0.546191
1.10821
0.646695
1.09933
-1.13805
-1.53402
1.09085
-0.460992
1.09831
-0.259245
1.39418
-0.285084
0.506337
1.08184
-1.90688
-0.281497
-1.69908
1.30537
-1.90793
-0.333243
1.05302
0.349289
-0.919571
1.10767
1.1278
-1.90822
-1.55266
0.919234
-1.18394
-0.292354
-0.693825
-1.90269
0.122017
0.947397
1.14446
-2.00879
0.987476
1.09277
1.36514
0.714696
-0.0906349
-0.394706
1.18712
0.0897503
-1.9056
0.404385
-1.12132
-1.90477
1.01978
-1.9195
-0.241565
-0.304075
0.258138
0.950386
-1.90418
1.00247
-1.14835
0.891682
-1.90703
0.1579
-1.90398
0.802759
-0.336123
0.0444556
-1.91611
1.14698
-0.679434
-1.93559
-1.96931
-0.352879
1.08921
0.55218
-2.02307
-0.359471
-0.427652
-0.17365
-1.92362
-0.38739
-2.07899
0.37157
-0.370219
-0.659194
-0.39729
-0.960864
-2.17099
0.226318
0.822697
0.196934
-0.998922
0.977636
-0.31554
0.0359839
0.852211
1.10085
-1.87092
-1.68903
-0.354506
-1.08226
1.13361
1.42656
0.156605
-0.054708
0.507709
-0.665776
-0.626329
0.176195
0.945816
-1.45401
1.10738
-0.227476
1.47977
0.864148
1.58183
-1.90618
1.42227
-1.21328
1.26868
0.0912011
-0.347756
1.33751
1.11912
-1.07921
-0.312578
-1.97885
0.891771
-1.993
1.02879
-0.596247
-0.665683
-0.465321
1.35302
1.01411
1.36364
0.996883
1.1036
-0.173351
0.231473
1.12622
-0.943098
-0.737287
1.40301
-1.92365
0.878135
1.18197
1.4573
1.55608
-1.93764
-0.158087
1.14587
0.678664
0.0790593
-1.94313
-0.20457
-1.89332
-1.90259
0.927607
-1.25467
1.432
-0.148214
0.925879
1.09922
0.988739
-0.808682
-0.404172
-0.695728
1.18197
-0.781333
1.08189
-1.43321
-1.11013
1.17089
1.50107
-0.427634
-0.353864
1.09342
-0.812168
-1.58978
1.0085
1.21421
1.38685
-2.08899
0.82284
0.666611
-0.37171
1.40645
-0.0817571
-1.90732
0.54199
-0.00748807
-0.119015
1.0274
-0.913691
-0.124244
-0.516645
-0.654916
-1.15408
-0.406694
1.0018
-1.40541
0.980324
-0.536152
0.549921
1.02679
0.724941
-0.403362
-1.43442
-0.544233
0.0591636
-0.37563
-0.540976
0.775287
-0.848149
-0.499922
0.941825
-0.586668
-1.88511
1.09357
0.0841139
0.82558
0.0159272
-0.49993
0.237822
1.09322
-0.192607
-0.151346
1.15549
-0.641413
1.20101
-0.0242105
-0.862468
-0.701783
-0.341932
1.61974
-1.45701
1.32676
-0.615057
1.09563
1.2119
1.04902
1.20007
1.06504
-0.414716
0.354121
1.11977
1.32364
1.51058
-0.66281
1.05944
0.430887
-0.635476
1.11296
1.43625
-1.34989
1.30094
-0.238031
-1.60378
1.15049
-0.616957
-1.94732
1.11522
-1.18711
1.17421
1.32265
0.910293
-1.67727
0.77859
1.19667
-1.94239
-0.778474
-1.17243
-2.38745
-0.770313
-0.300723
1.53856
1.0882
-1.78774
1.21306
-0.599693
-0.871111
1.48134
1.14892
-1.45766
-0.804896
-0.320794
-0.594614
1.16435
-1.82552
0.567054
-1.65969
-0.841545
1.1677
-0.564566
1.36128
1.07301
1.13973
1.02112
1.2487
-1.00834
-0.581207
1.20726
1.36083
-1.34129
1.12989
-1.55168
-0.422784
-0.532796
0.960932
1.00129
-0.467978
-1.84248
0.924811
0.457567
-1.52317
0.99831
0.798826
-1.08512
0.852469
0.909238
0.0219834
-1.87421
-1.73757
-0.375189
-0.5117
1.50066
-0.00314153
0.737904
-1.85705
1.50807
0.816655
0.673179
0.83666
-1.70793
-0.0461809
-0.333973
0.231464
-1.90288
1.21986
0.719937
-1.01395
0.731436
1.28415
1.10866
1.02249
0.0100774
1.1281
0.264585
0.82454
0.673742
-1.19469
-1.88915
-2.08726
-1.49413
1.09216
1.25763
1.09401
-0.275377
-0.225452
-0.303321
-1.88796
1.07209
1.23707
1.08817
-1.89754
-1.10903
-1.04253
-1.28805
-0.316279
-0.332585
-0.776029
1.01282
-1.52648
-1.90903
-0.25323
0.398174
0.475452
-2.15293
-0.285159
0.186003
0.836961
1.51148
-0.507165
1.2215
1.52128
0.393174
1.1818
-1.8804
-0.479681
1.56815
-0.279492
0.743899
-1.90612
-0.525897
-1.97036
-1.90815
1.18568
1.07611
1.10317
1.05333
-0.0249383
1.11015
-0.366401
-0.182577
-0.282922
1.21242
0.478546
1.08642
1.10214
0.39653
-0.0159808
1.12033
0.00269406
-0.360666
-1.90902
-1.96499
0.956668
-1.90682
1.09081
1.0237
-0.293006
1.45178
-1.89218
-0.997111
1.09382
-1.01533
-0.721302
-0.634414
0.306587
-1.90908
-2.12523
0.733399
1.09446
-0.234555
0.555043
-0.997993
-0.295457
-0.134633
-2.22378
0.359764
0.972203
-0.869002
-1.90595
1.20212
-0.158628
-0.0185487
-1.90408
-0.533488
1.08341
1.31405
0.210581
0.919818
-1.90434
-0.689591
-0.136254
0.105868
0.84327
-1.90857
0.757693
-0.322916
-1.92159
1.43317
-1.9468
-0.263298
-0.51081
-1.86744
1.16048
-1.99165
-1.78739
-0.362759
0.475238
-2.0509
-0.529025
-1.60439
0.0991674
1.11009
-2.11704
0.318972
-0.383302
-0.789169
1.30027
1.55371
1.15467
1.08308
1.12264
-1.74523
1.05485
-1.8834
1.30998
-0.357352
-0.226153
1.47239
0.0817714
0.881366
-2.00734
1.52837
-0.440599
1.48062
0.304929
0.618107
-1.90761
-1.89659
-0.344019
-1.99834
1.39537
1.14132
1.03894
0.978396
1.08183
1.17927
0.594085
-1.90729
-0.57043
-0.0878561
-0.520747
0.558661
1.0764
0.442448
-1.911
-1.93979
-0.0519631
-0.351559
0.290197
1.52829
1.0975
1.07195
0.365436
-0.0708083
1.11625
-0.132796
-0.304581
-1.4257
-0.638081
0.542686
-1.90499
-1.90051
0.209886
1.00308
-0.472038
-0.504856
1.07666
0.977753
1.01719
1.05592
-0.3119
0.671714
1.35812
1.15914
-0.329388
1.09521
0.770455
0.106531
-0.956372
-1.90498
1.47457
0.717272
-1.09989
0.554457
0.728958
0.891298
-0.704989
-0.711354
0.0414593
-1.8241
-0.282137
-1.78259
-0.259222
1.04495
-2.00261
0.975255
1.43325
1.34729
0.931523
0.980494
1.06526
1.06478
-0.947971
-0.101806
-1.15379
-0.420039
-0.00904842
-1.90471
1.10107
0.927784
-0.589881
1.16566
-1.32067
-0.624727
-1.93053
-0.0113322
0.920809
0.0952597
1.03429
0.710873
-2.09668
0.123905
1.39937
-0.282309
0.00473685
0.183136
-1.77203
-1.95329
1.16243
0.545004
1.3118
-0.644186
0.131554
-0.32029
-1.01337
-0.599279
-0.293981
-1.74701
-0.825966
0.728097
-0.0784055
1.59753
-2.28934
0.0121294
-0.372596
-1.90509
1.14777
-0.395419
-0.700625
0.0263557
0.308175
1.09923
1.40618
-1.40428
-0.248814
0.611511
-0.366023
-0.166091
1.2997
-1.11786
0.012811
-1.73013
0.511612
0.149123
-0.610402
1.04502
-0.289383
-1.57459
1.02998
-1.24153
-1.43694
-2.03827
-2.107
0.476061
-0.603127
1.26769
-0.292116
0.641009
-0.356345
0.563871
-1.61929
-0.954435
0.360367
1.06574
1.15051
1.11864
1.13482
-2.01863
1.09015
0.922504
-1.75069
0.84602
-1.08225
-1.83767
-0.596795
1.37515
1.35503
-1.51504
-1.06954
-0.785309
0.85446
-1.32813
-0.183022
0.189
-1.89806
1.22692
0.876497
-1.90234
-1.67765
-1.91122
-1.90619
0.849387
-1.90254
0.826455
-0.192381
0.4406
0.623227
-1.90398
-1.17422
0.775638
-1.89919
-0.17171
1.35677
-0.345056
-1.90448
0.589227
-1.9479
-1.73792
0.375401
-0.698704
1.45301
-0.0171504
0.645529
-1.90042
1.50106
-1.89116
-1.64824
0.353547
0.202505
-0.356835
1.46421
0.393995
1.28366
-1.76965
1.14755
0.0733248
0.0120363
-1.80968
-1.81196
-1.8883
1.19043
0.261877
-0.529485
-1.89611
-0.629904
1.06141
-1.51649
1.48376
-0.352635
0.52913
-1.90658
-0.0147301
0.212085
0.16596
0.0561691
0.630111
-1.55645
0.878637
-1.82389
-1.5674
0.170272
0.719203
1.51176
0.295678
-1.72582
-1.90558
-1.9068
-0.161088
-2.22441
-1.90578
1.16174
0.653862
-1.9028
1.5556
-0.618355
-1.41701
1.47413
-1.90519
-0.31979
-1.42515
-1.91161
-1.9055
1.53793
-2.00117
1.41861
-1.90507
-1.30974
1.11681
0.402904
-1.56475
0.248369
-0.67806
-0.509468
0.188336
-1.90595
1.09684
-0.585803
-1.90531
-1.90649
-1.9195
-0.359598
1.1145
-0.756305
0.23295
-1.90264
1.4317
-0.267959
-1.71177
-1.79319
0.33211
-2.13264
-1.92777
-1.90559
0.475493
1.1675
-1.89063
-0.351987
-2.17441
0.00713787
-0.865101
-0.362235
1.50465
1.42165
0.0454233
-1.17584
-0.358072
-0.0711773
-0.35293
1.49499
-0.238211
1.33339
0.428596
1.48547
-0.402712
-2.12221
-1.05504
-0.620931
-1.82275
-0.620064
0.38233
-1.90301
1.41177
0.3885
-0.219999
0.316475
-0.349576
-1.31368
)
;

boundaryField
{
    frontback
    {
        type            empty;
    }
    Top
    {
        type            zeroGradient;
    }
    outlet
    {
        type            fixedValue;
        value           uniform 0;
    }
    bottom
    {
        type            zeroGradient;
    }
    Inlet
    {
        type            zeroGradient;
    }
    rectangle
    {
        type            zeroGradient;
    }
}


// ************************************************************************* //
