/*--------------------------------*- C++ -*----------------------------------*\
| =========                 |                                                 |
| \\      /  F ield         | OpenFOAM: The Open Source CFD Toolbox           |
|  \\    /   O peration     | Version:  2306                                  |
|   \\  /    A nd           | Website:  www.openfoam.com                      |
|    \\/     M anipulation  |                                                 |
\*---------------------------------------------------------------------------*/
FoamFile
{
    version     2.0;
    format      ascii;
    arch        "LSB;label=32;scalar=64";
    class       surfaceScalarField;
    location    "49";
    object      phi;
}
// * * * * * * * * * * * * * * * * * * * * * * * * * * * * * * * * * * * * * //

dimensions      [0 3 -1 0 0 0 0];

oriented        oriented;

internalField   nonuniform List<scalar> 
3181
(
-1.0048
0.387239
0.617565
-0.369853
0.347981
0.021872
0.496161
-0.34159
-0.154572
0.109441
-0.183663
0.0742227
-0.0632986
0.0883306
-0.025032
0.383537
1.59704
-1.98058
0.136788
-0.131081
-0.00570616
-0.034897
-0.0261171
0.0610141
0.491752
-0.661239
0.169488
-0.0766904
0.123558
-0.046868
-0.0113774
-0.0573261
0.0687035
0.110137
0.0522186
-0.162355
0.0497208
0.0217099
-0.0714307
-1.09494
0.153588
0.94135
-0.312374
0.667181
-0.354806
-1.12753
0.644506
0.483025
0.0822922
-0.928307
0.846015
-0.00623816
-0.104563
0.110801
-1.30446
0.339788
-0.0101024
0.0600842
-0.0499817
0.0606193
-0.10093
0.0403111
0.0289495
-0.0372056
0.00825611
1.06038
-1.03836
-0.0220234
0.0461868
0.0291599
-0.0753467
-0.954387
0.329651
0.624735
-0.103998
0.213438
0.29971
-0.26294
-0.0367701
0.0267518
0.0563064
-0.0830582
-0.441882
0.360475
0.081407
-0.0345532
-0.00290594
-0.00623894
0.00914488
-0.0413967
-0.91299
0.13612
-0.0877953
-0.0483249
0.0221893
1.43183
-1.45402
-0.100072
0.0362819
0.0637904
0.207575
0.282582
-0.490157
1.28581
-1.26362
0.0807711
-0.0201518
1.52296
-0.948733
-0.574222
-0.617614
1.00115
0.0720385
-0.0223176
0.0127742
0.0161753
-0.387359
0.0749845
-0.10931
0.122084
-0.661549
0.130189
0.531361
-0.133452
0.0567613
-0.156755
0.160347
-0.0035914
-0.254811
-0.0744843
0.329296
0.0740134
0.55377
-0.627783
0.0429684
0.108852
-0.15182
-0.0130084
-0.112271
0.119238
-0.0069672
0.492654
0.174526
-0.0947137
0.16042
-0.0657061
0.0492258
0.0868944
-0.15874
0.182418
-0.0236788
0.154122
0.0524108
-0.206533
0.0985533
-0.103995
0.00544211
0.910994
0.611962
-0.832975
-0.171828
-0.136738
-0.679901
0.81664
0.582051
0.238455
-0.820506
-0.478009
-0.211473
0.689481
-1.21013
0.592517
-0.276977
0.859028
-0.304479
-0.101094
0.405574
-0.224114
-0.217768
-0.179203
0.174988
0.0042148
0.163545
0.273166
-0.436711
-0.190642
0.682393
0.0663266
-0.101224
-0.959107
0.822369
0.16371
0.136
-0.161576
-0.109827
0.271403
-0.266838
0.374473
-0.107635
-0.0715115
0.0797445
-0.00823297
-0.885094
-0.921243
0.0134407
0.907802
0.0361913
-0.136264
-1.24291
0.749385
0.493521
0.436064
-0.812474
0.37641
-0.97548
-0.234651
1.09702
-0.943434
-0.754985
1.14205
-0.200702
1.05562
0.187063
-0.170061
-0.0170019
1.5026
0.0944478
2.06765
-2.06765
-0.00876605
-0.0036754
0.0124414
-0.195477
-0.0525839
0.248061
0.0987719
-0.0681717
-0.0306002
-0.454912
0.813091
-0.358179
-0.0404426
-0.208465
0.248908
-1.08007
0.0417037
0.359893
0.0715
-0.431393
0.126309
-0.894165
1.13262
0.0614155
0.0668872
-0.128303
-0.0179613
-0.140778
-0.371178
0.820533
-0.449355
-0.853939
0.482761
0.113344
-1.00751
0.310531
-0.765443
0.923138
-0.840846
0.0270719
0.0513239
-0.0783958
0.0955609
0.0569192
-0.15248
-1.28157
-0.10893
1.3905
-0.224236
0.3873
-0.163064
0.54638
-0.0442754
-0.502104
-0.473479
-0.769427
0.118263
-0.0752944
-0.141727
0.13646
0.00526684
-0.0815703
-0.0216423
0.103213
-0.514485
-0.146754
0.0378542
-0.0135902
-0.024264
-0.292342
0.0867667
0.205575
0.543026
0.010744
-0.0253301
0.0165641
0.0131978
0.150513
-0.210545
0.418121
-0.0533065
0.0455865
0.00772001
0.150773
0.0755428
-0.226316
0.228005
-0.529088
0.301082
-0.595034
-0.532497
-0.23637
-0.0559718
-0.0595523
0.120968
-0.0924037
0.169583
-0.0771796
0.221767
0.02266
0.114128
-0.0550752
0.059234
-0.00415882
-0.0857266
-0.0177384
0.103465
0.0682612
-0.0682612
-0.173721
0.196382
-0.417875
0.055545
0.0964779
0.0859405
-1.17694
0.986293
-1.22503
-0.103119
1.32815
-0.0576017
0.0427561
0.0148456
-0.0299351
-0.0582664
0.0882015
0.511858
-0.0189342
-0.492923
0.0678914
-0.0636047
-0.0042867
-0.186651
0.0129295
0.168165
0.644926
-0.349133
0.517298
-0.124921
-1.15665
-0.109055
0.0457563
0.461307
-0.284512
-0.176795
0.120518
-0.102911
-0.0176071
0.0462931
-0.301105
0.0214423
-0.942685
0.0467862
-0.13919
-0.265574
-0.378963
0.0923491
1.39369
-0.941635
-0.452055
1.04509
0.348605
0.0637995
0.265496
-0.0659445
0.00834274
-0.307724
0.276537
0.0311873
-0.249177
-0.601988
0.851164
-0.334063
0.198138
1.48156
-1.14178
0.156324
0.0277213
-0.0267028
-0.00101849
-1.19998
-0.681467
1.88145
0.320743
-1.52073
-0.340013
0.699906
-0.906865
-0.0140799
-0.000233127
-0.286705
0.286938
1.24965
-1.44965
0.2
-0.0929181
-0.0161369
0.585346
-0.834523
-0.364018
-0.137557
0.501575
-0.312279
-0.128624
0.440904
0.184045
-1.00785
-0.0722158
-0.0272604
-0.0227213
-0.594535
0.383063
-0.269389
0.0221263
0.247263
-0.0071999
-0.0857182
-0.0429384
0.0429384
-0.132681
0.146053
-0.0133722
-0.0252444
-1.19979
-0.0207076
-0.0272866
0.0479942
-0.160268
0.0884678
0.0717998
-0.236395
0.0571929
0.973636
0.156668
-1.1303
-0.170117
0.423705
-0.253588
-0.0302944
0.025715
0.00457943
0.800461
-0.254081
-0.21079
-0.00308267
0.213872
-0.158699
0.322244
-0.114559
0.112655
0.00190368
0.0757311
0.0678866
-0.143618
-0.0677082
0.0882185
-0.0205103
-0.838705
-0.412612
1.25132
-0.207204
-0.0475124
0.254716
-0.678067
0.661647
0.0164197
-0.0153656
0.0445254
0.0495367
-0.0509989
0.00146225
-0.029898
-0.0454486
0.400651
0.142375
0.170672
-0.89566
0.724988
-0.152565
1.13403
-0.98147
0.360213
0.860928
1.20672
0.0788495
0.222627
-0.0718545
-0.080402
-0.0318689
0.218819
0.173836
-0.0782748
0.732483
-0.402832
0.0578486
0.190212
0.0608901
-0.181862
0.120972
-0.737925
-0.124409
0.862334
0.0299646
-0.0299646
-0.0607234
-0.30804
0.590622
0.0112876
-0.218492
-0.14103
0.036467
0.0380166
-0.0975689
0.149739
-0.161116
-0.347415
0.306973
0.0434505
-0.0440291
0.000578567
0.373131
-0.320912
0.110361
0.0627821
-0.173143
-0.19381
0.25761
0.179103
-0.463616
-0.201164
0.588403
0.154327
-0.0289612
0.0289612
-0.75257
0.125791
0.626779
0.35853
0.0287698
0.0642677
-0.0693148
0.00504715
-0.0849327
0.0391938
-0.00133968
-0.0531903
0.202929
-0.196078
0.263332
-0.0672535
0.144438
0.0293981
-0.378504
0.115564
0.209521
-0.0650833
-0.0510606
-0.0634981
0.0547852
-0.0800049
0.0252196
0.135533
-0.0968356
-0.0386976
-0.0380113
0.421473
-0.383462
0.0954489
-0.0291222
0.117284
-0.122228
0.00494365
0.0265493
0.720174
-0.609813
-0.0384407
0.103688
-0.0652474
-0.0337242
0.200932
-0.167208
-0.103283
0.0950051
-0.719885
0.62488
0.0513308
-1.42505
-0.443727
1.86877
-0.812517
1.08565
-0.273131
0.0748745
0.0203669
-0.549455
0.293038
0.271862
-0.5649
-0.215952
0.276842
0.127063
-0.859067
0.732004
-0.156944
0.12322
-0.0337772
0.00651679
-0.97944
0.439034
0.540406
0.941635
-0.828292
-1.55336
1.44443
-1.24965
1.14653
0.0359088
-0.101615
0.012009
0.0375276
-0.0464384
0.764721
-0.637659
0.110338
-0.0635522
0.41015
0.731902
-0.0825464
-0.946296
0.793731
-0.64453
-0.532405
-0.24674
-0.414809
0.0731312
-0.154908
0.201201
-0.56929
-0.348544
0.178427
0.737628
-0.225771
-0.825113
-0.728248
0.756018
-0.10152
-0.0554246
0.260642
0.0325152
-0.0325152
0.667196
0.152936
-0.820132
-0.229181
0.896377
0.972998
-0.540532
-0.432466
0.0990224
-0.0434774
0.00678137
0.00495263
-0.011734
-0.679901
-0.19548
0.206224
0.334708
0.638929
-0.0326341
-0.124121
-0.231277
0.723931
-0.214169
-0.0552196
-0.00250174
-0.0690098
-0.0614428
0.118362
0.394724
-0.264535
-0.769451
-0.304849
-0.203869
0.0293903
0.174479
-1.11928
1.98021
-0.122821
0.199997
-0.0771757
-0.0235045
-0.04244
0.0150874
0.00842133
-0.0235087
0.0100449
0.395529
0.0820087
0.0385097
0.0199646
0.0200516
-0.0400162
-0.0233505
-0.187439
-0.752714
0.389735
0.36298
0.345064
-1.0529
0.707831
0.151782
-0.176614
0.0248325
-0.00777561
0.126038
-0.379225
-1.68842
0.0113358
0.00375154
-0.111321
0.0360266
0.168916
-0.379461
-0.309599
-0.0999053
0.409504
0.0380485
0.0853343
0.0501989
-0.737925
-1.61238
0.773675
-0.0324219
0.0408433
0.0491624
-0.641857
-0.0362098
0.0661242
0.143397
0.387849
0.0150781
-0.451789
0.112692
0.383411
-0.311911
-0.102101
0.0163745
0.22206
0.844236
-1.0663
0.105986
-0.70152
0.595534
-0.899432
0.775023
-1.03237
-0.335303
1.36768
0.0421916
-0.0448587
0.00266709
0.183769
-0.496049
0.276996
-0.166448
-0.110548
0.0769577
0.123975
0.00803965
-0.211909
-0.0129739
0.0145336
-0.0444317
0.0200416
0.0960868
-0.116128
0.160481
0.00479976
-0.00535955
0.000559796
-0.0790036
0.0498814
0.866566
0.0635327
-0.0796696
0.351541
-0.547021
0.121984
-0.0229617
0.00654675
0.0787875
-1.36768
1.68842
0.322212
-0.0521997
-0.270012
-0.271803
0.101742
0.121767
-0.138769
-0.00105234
0.0807968
0.0417743
-0.716141
0.406542
-0.0571603
0.0772019
0.743611
-0.260586
-0.126935
-0.0333328
0.349468
0.00363633
0.0606314
-0.00726405
0.0755252
0.140517
0.233955
0.16138
-0.354107
0.192727
0.100971
0.543955
-0.0232547
-0.110197
0.87866
-0.233587
-0.645073
-1.03237
-0.348496
0.693561
1.28581
0.0475374
0.22794
-0.275477
0.476984
-0.0388016
-0.438182
0.490264
-1.46574
-0.0853868
0.0869375
-0.00155078
0.145973
0.150992
-0.296965
0.473712
-0.849276
0.375563
0.039778
0.665343
-0.70512
-0.0414738
-0.100253
-0.106599
0.0681585
-0.650755
-0.101815
0.0409242
0.00126735
-0.0126625
0.0212827
-0.00862024
-0.0597296
-0.247995
0.0188767
-0.0423812
0.189133
-0.137809
-0.0441407
-0.00685819
0.208238
-0.416703
0.709748
0.3759
-0.0162058
-0.0137588
-0.988189
-0.0196608
0.284577
-0.0653712
-0.0367299
-0.440184
0.0761656
-0.403727
0.0739921
0.329735
-0.0788338
0.200818
-0.933639
-0.00979413
0.0167477
-0.651091
0.746096
-0.0158566
0.170183
-0.681445
0.140913
0.189842
-0.421677
0.231835
0.189057
-0.14347
-0.00511113
0.00255425
0.00255688
0.0119117
-0.0796199
-0.0186511
-0.122127
0.736996
-0.63101
0.0166209
-0.0763685
-0.182551
0.332973
-0.171592
0.353399
1.31759
-0.452993
-0.864592
-0.132606
0.154732
-0.51748
-0.235235
-0.548536
0.579385
-0.563557
-0.0158277
-0.0395482
0.0561691
-0.946296
0.560113
-0.560113
-1.62903
1.62903
0.764721
1.07723
-0.728115
-0.349117
-0.898639
-0.0895492
0.686046
-0.373069
-0.312977
0.144026
-0.221206
-0.0176318
-0.00769835
-0.923313
-0.0841955
-0.933883
0.213998
0.0711819
-0.0417916
0.698407
-0.0994821
-0.598925
0.796299
0.489508
-0.0145415
0.00943036
-0.955663
-0.0297167
0.0924987
-0.161731
-0.578221
0.739952
0.02622
-0.824801
-0.624848
0.222203
-0.817237
-0.862334
1.27558
-0.413241
-0.133379
0.265874
-0.132495
-0.0371664
0.735573
-0.106746
-0.942642
0.942642
-0.739404
-0.171995
0.911398
-0.00126807
0.00606783
0.0189089
-0.461947
0.971249
-0.221864
-0.0949922
-0.0300135
-0.053784
-0.0223106
-0.00798389
0.810978
-1.14628
-0.432576
0.508307
-0.680565
1.06234
-0.381772
0.0160051
-0.00466928
0.137814
-0.0622711
0.332933
-0.0149247
0.0366346
0.363282
0.0581909
0.049969
-0.272588
0.222619
0.129029
0.0313172
0.107879
0.20175
0.948841
-0.126472
0.190568
1.41276
-1.60333
-1.45244
0.770971
0.491184
-0.3691
0.07056
-0.763822
0.693262
1.2678
0.105658
-0.453073
-0.0742044
0.122815
-0.0486111
0.113096
-0.1873
-0.481302
-0.113233
-0.0819421
0.0856426
-0.00370049
-0.00416064
-0.0399801
0.308263
-0.221369
0.637659
-0.595534
-0.0421244
-0.275541
0.286829
0.884014
0.842579
-0.365595
0.0117627
-0.0390493
-0.595327
0.45777
0.157687
-0.552733
0.395046
-0.000954574
0.00350882
0.738406
-0.0814689
-0.656938
0.0206154
-0.0281894
0.00757401
-0.0410672
0.0340574
0.00700982
-1.99054
2.08499
-0.144523
-1.28053
-0.20944
-0.828292
1.14653
1.44443
-0.180104
-0.160883
0.113371
-0.0722703
0.079079
-0.00680869
-0.36303
1.5319
-1.16886
0.550614
0.135432
-0.0148312
0.0138766
0.134428
-0.336276
0.0300135
-0.0618516
0.00469123
-0.148792
-0.446534
-0.0633826
0.101399
-0.22545
0.598581
1.04509
-0.630388
-0.0542785
0.000734951
0.0535436
1.77356
-0.329124
-0.0555155
-0.0484799
-1.00136
0.173073
0.404042
-0.219997
-0.494031
-0.142995
0.637025
0.840943
-0.376283
-0.46466
-0.630616
0.226889
-0.793731
0.11383
-0.0146864
-0.0409663
0.0556527
0.362771
0.771263
-0.157144
0.163926
0.426874
1.42689
-0.280362
-0.671673
0.0433315
0.628342
0.391866
0.00964673
-0.363426
0.506351
0.775252
-1.07654
0.0691609
-0.018962
-0.129757
-0.0876299
0.217387
0.697479
0.0715665
-0.0516018
-0.0483304
-0.381131
0.120678
-0.33663
0.932486
0.385099
0.0226361
-0.0621842
0.292043
-0.244506
-0.0298793
0.0145137
0.103117
-0.136978
0.0338604
-0.281902
0.293256
-0.0113539
0.39164
-0.844633
-0.345765
-0.836057
1.18182
0.188606
-0.177994
-0.0106114
0.292287
0.0406855
-0.598662
-1.01372
-0.669062
0.669062
0.81664
0.796299
-0.70152
0.306988
0.468264
0.167104
0.459675
0.996323
-0.445709
0.010022
-0.883773
0.873751
0.113982
0.00957606
0.0244986
-1.80747
1.20881
0.00494247
-0.165241
-0.110078
0.275319
-0.215735
-0.48451
0.319269
-0.973978
-0.312145
-0.65904
0.0244855
-0.00480093
-0.000558622
-0.233429
-0.0111408
0.185619
0.0320867
-0.162321
0.130234
-0.0381278
-0.701276
-0.00490695
0.0612134
-1.12943
0.920385
0.209049
-0.535486
0.358691
-0.147963
0.103934
0.221436
-0.0111222
-0.022655
-0.776662
0.93333
0.0383715
0.0789129
-0.122773
-0.0597783
0.261347
0.0156488
-0.441251
1.50222
0.480596
-0.39471
0.864056
-0.793496
0.826723
-0.477255
-0.644151
0.182204
0.163663
-0.801819
0.780088
0.0217307
1.46498
-0.532496
-0.281602
-0.150974
-0.0869681
0.0187964
0.946821
-0.837921
-0.1089
-0.202275
0.124
0.0252436
0.111217
0.874605
1.42023
-0.306064
-1.11417
-0.311864
-0.0366796
-0.93145
-0.197984
0.128888
1.26162
0.478253
0.318046
0.161114
0.54843
-0.709543
0.449375
0.056967
-0.0193513
0.00822911
-0.536591
-0.10756
0.0928648
-0.100065
-0.204391
0.1512
-0.504209
0.250621
-0.993003
-1.09114
-0.303322
-1.19454
1.16106
0.167091
-0.301138
-0.729037
0.580245
-0.0714321
0.322222
0.0410599
1.24086
-0.767147
-0.208354
0.143271
0.565966
-0.977101
0.411135
-0.0270118
0.0123254
0.055329
-0.0601549
-0.221747
-0.101943
0.698052
-0.426279
-0.271773
-0.398463
0.121336
-0.0880256
-0.0333106
0.250175
0.0720476
0.413174
-0.686305
-0.105764
0.154926
0.751795
0.668438
-0.0286031
-0.138605
-0.0293519
0.00834253
0.0210094
-0.0252914
0.0680475
-0.260131
0.0782682
-0.0668846
-0.526651
0.393272
0.0263785
0.0073307
0.181275
-0.70147
1.6957
-1.3106
0.016884
-0.209984
0.1931
-0.146335
-0.52387
0.670205
0.0632847
-0.705142
-1.30797
0.962202
0.028943
0.00062229
-0.0295653
-0.233237
-0.579385
-0.15854
-0.122022
-0.129757
-0.251041
0.179187
-0.352738
-0.999788
-0.131704
0.475429
-0.343725
0.248452
0.102105
0.22357
0.731928
-0.955499
-0.162735
0.0612154
1.35913
-0.230258
-1.12887
-0.21461
-0.807204
1.57818
-0.26208
0.194826
-1.34133
0.534123
0.215431
0.605102
0.0297707
-0.0762091
-0.0760072
1.34483
-1.73954
0.75024
0.0907027
-0.563345
-0.152796
0.346139
0.650184
0.882513
-0.00385357
-0.0204518
-0.478253
-0.65904
-0.71043
0.72387
-0.115442
-0.825113
0.665343
0.59066
-0.92747
0.483975
-0.00240906
-0.79941
-0.316019
0.638182
-0.760791
0.122609
0.0734317
0.0479045
0.480348
-0.000475513
0.468537
-0.468061
0.000166123
-0.00496706
-0.285844
0.230624
0.701467
0.207709
-0.19478
-0.168147
0.231041
-0.144274
-0.519362
0.170246
0.250378
1.27573
-1.52611
-0.708487
0.620857
1.10672
-0.186335
0.113062
0.216911
-0.217387
-0.0104166
0.231464
0.0775363
0.224642
0.0599348
0.0361723
-0.0290052
-0.00716705
-1.03149
-0.0348076
0.306204
-0.809286
0.469528
1.08536
-1.55488
0.397341
0.664996
-0.0428482
0.0455444
-0.00269621
0.076101
0.15494
-0.717459
0.132261
1.0586
-0.589069
0.337347
-0.105883
-0.581782
-0.411222
-1.67246
1.92284
-0.0544345
-0.886182
-1.25392
0.272447
0.216911
0.0510006
-0.860286
0.831973
-0.647846
-0.184128
-0.981954
0.400173
-0.00343382
0.104734
-0.000353484
-0.10438
-0.971477
0.560255
-0.19986
0.911022
-0.920817
0.206536
-0.229887
-0.10132
0.270236
1.48478
0.296117
-0.101357
-1.39502
0.530432
0.179285
-1.25582
-0.551798
-0.519253
1.07105
0.448202
0.0154804
-0.0105277
-0.739928
0.70512
0.280999
-0.204898
-1.20672
0.584799
0.621919
-0.376927
1.46228
0.769992
-0.804545
-0.494286
-0.448399
-0.472684
-0.498792
0.804723
-0.804723
0.688927
-0.688927
-0.739928
-0.350148
0.350148
-0.584799
-0.647125
0.38812
-1.30563
-0.609199
0.609199
0.280999
-0.204898
0.769992
0.762842
-0.762842
0.804545
0.758004
-0.758004
0.505714
0.527316
0.480747
-0.3282
-0.501208
-0.551601
1.07892
0.402087
-2.19138
0.518916
-0.207885
1.3146
-0.012013
-0.0203808
0.0839135
-0.885814
0.0891726
0.796641
0.0507217
0.0224095
-0.992759
0.589928
0.879563
-0.572575
-0.121548
-0.030013
-0.00196763
-0.819317
-0.076343
-0.540406
-0.0121195
0.0186363
-1.16204
-0.0367467
0.07759
0.217553
0.0012683
-0.0236925
0.0224242
-0.814398
0.0683326
0.746065
1.58206
-0.0972774
-0.525852
0.430519
0.0953332
0.917075
-0.747532
-0.169543
0.105287
0.312833
-0.0150794
-0.0668627
-0.0717061
-0.0136806
0.832247
-1.95153
-0.870314
0.0933955
-0.747042
0.79627
-0.049227
0.118398
-0.900629
0.782231
-0.804335
0.900389
-0.0960543
0.0600391
-0.0853305
0.0253257
-0.312031
-0.164983
2.08782
-0.0900097
-0.795804
0.913235
-0.086888
-0.826347
0.0650013
-0.0489962
1.37418
0.827065
-2.14556
0.537744
-0.402313
0.0967472
-0.892551
1.26362
0.365414
-0.798381
-0.00102886
1.01743
-0.899033
1.11518
0.706536
-0.106551
-0.599985
-0.882154
-0.110605
-0.43441
0.0509482
0.445657
-0.115923
-0.782502
0.782502
-0.638302
-0.0810578
-0.863893
0.11636
-1.0136
0.851871
0.0670813
-0.233529
-0.0522939
0.0472683
0.0119657
0.183739
0.833692
0.819332
0.776191
0.133295
-0.909486
0.334412
0.980193
-0.783667
-0.100455
0.884122
0.162832
-0.880291
-0.680153
0.88512
-0.788373
-0.101485
0.463548
-0.002073
-0.461475
0.372893
0.994444
-1.36734
0.493594
-0.667059
0.173464
-0.885152
-0.830324
0.083281
0.524961
0.301763
-0.733106
1.71772
-0.59184
0.59184
-0.797133
-0.597891
-0.632215
1.84102
-1.57349
0.737434
0.784665
-0.188297
1.92281
0.162187
0.525911
-0.297794
-0.228117
0.203358
-1.25625
0.110299
1.04095
-0.87525
1.64892
-0.107908
0.346624
-0.241336
0.782487
-0.878541
-0.743902
1.72409
-0.144688
0.734615
0.592719
-0.592719
0.026053
-0.068493
0.12247
-0.0903832
0.999225
-0.00478106
0.0573475
-0.00448814
0.0115083
-0.00702017
-0.676853
0.693389
-0.0165359
0.306349
-0.4129
0.102665
-0.891038
-0.825776
0.773321
0.0524554
0.213501
0.873838
-0.125416
0.431765
-0.757743
0.61463
-0.650839
-0.682353
0.164874
0.113011
0.0310977
0.397026
-0.636958
0.749969
0.000878979
-0.786321
0.0631395
0.73313
0.688412
-0.0737828
0.0723197
0.794247
-1.24343
0.967801
0.275633
-0.163071
0.498481
0.0895587
-0.905691
0.692611
0.21308
-0.685585
-0.131652
0.886603
0.704212
-0.806027
-0.0336825
0.485681
0.514319
-0.772228
-0.106313
-0.354026
-0.329357
-1.28869
0.00449481
0.401151
0.598849
0.0469438
0.00293762
-0.859116
-0.0542416
-0.596598
-0.151465
-0.233864
0.385328
0.0417634
1.08448e-05
0.123406
0.0795236
-0.129601
-0.13053
0.763233
-0.650098
0.722417
0.48277
-1.11973
0.760663
0.6713
-1.43196
-0.743656
-0.186059
0.929715
-0.226444
0.216055
-0.0258421
-0.0727432
-0.0129749
-0.0338339
0.726628
-0.134788
0.105401
0.116035
-0.736402
0.0595487
1.08551
-0.0363512
-0.145363
-0.0277805
0.965772
-0.282263
1.01417
-0.00413435
0.159575
0.267298
0.0340578
-0.0675432
0.0157573
-0.289899
1.3754
-1.5174
0.864981
0.652423
0.846514
-0.0566234
0.0232395
0.0333839
0.14029
0.041696
-0.000771741
0.203262
-0.100145
-0.781028
-0.792462
-0.785067
-0.732338
0.00630246
0.256079
1.53628
-1.13301
1.03704
0.0959676
-0.773362
0.824009
-0.0506478
0.863858
-0.502134
0.717566
-0.0864555
0.709326
-0.471031
-0.0548213
0.27051
0.436406
0.178409
-0.614815
0.378584
0.0293625
0.664026
-0.572641
0.578317
-0.00567517
1.51595
-1.58738
-0.0428244
0.0539294
-0.011105
0.701826
-0.00992105
-0.0834712
0.0175753
0.274178
-0.461418
1.32528
0.0742331
-0.226019
0.0480248
0.0459311
0.0620023
-0.107933
0.0179073
0.018265
0.972302
-1.20256
0.0228844
0.206133
-0.0236066
-0.0768003
0.242259
0.0935133
0.00121846
0.0464269
0.764966
-0.907635
0.320469
0.587166
0.77036
-1.28082
0.510456
0.637951
0.117529
-0.0625511
-0.0246936
0.0872447
-0.272889
0.521978
-0.819772
-0.0118018
0.76782
0.725867
-0.223587
0.362612
0.117736
0.800783
0.264216
0.0891829
-0.905911
0.170454
-0.272374
0.217249
-0.166438
0.698012
0.0669532
0.0155809
0.143444
-0.645578
-0.578239
0.166516
0.00750815
-0.108439
0.419959
-0.0609937
0.789899
-0.0605865
0.0753307
1.46811
-0.697745
-0.146386
0.494985
-0.0212701
-0.10811
-0.0467431
-0.00244744
0.0491905
-1.63744
0.0500559
-0.00327152
0.880698
-0.223869
-0.627527
0.661123
-0.0335957
-0.161603
0.757561
-0.885886
-0.546077
0.0927052
-0.194025
0.640338
0.117223
0.843825
1.13638
-0.260177
0.797922
0.652452
0.722953
-0.582885
0.352866
0.230019
-1.61822
-0.0720406
0.0391181
0.0744445
-0.0535245
1.07808
0.732107
0.0686759
0.639329
0.211835
-0.87988
-0.0843543
-0.683875
0.682846
-0.0300103
-0.553846
0.402382
0.854715
0.6697
-0.0773897
0.0103184
-0.129444
-0.323629
1.34132
0.354379
-0.628394
0.0329977
1.14383
-0.420875
0.576208
-0.370632
-0.0860262
0.597751
-0.723564
0.91581
-0.192247
-0.414742
-0.168143
-0.0604316
-0.166882
0.0549225
0.835533
0.027108
-0.00705637
0.62686
-0.200355
0.172575
0.615458
-0.130539
0.217382
0.685257
0.333718
-1.01898
0.275749
-0.923595
0.108479
-1.41908
-0.161657
0.747157
-0.585499
-0.679739
-0.0853222
0.012579
-0.0587837
-1.6553
0.00192372
-0.0312756
0.00586902
-0.144324
-0.140647
0.284971
0.0696306
-0.56929
0.271259
-0.111684
-1.16398
-0.00962873
0.010897
0.696882
-0.0579413
-0.605538
0.0328965
0.565918
0.288797
0.980127
0.888648
-0.225786
-0.388978
0.614763
0.667559
-0.620595
0.620595
-0.0791636
-0.983902
1.06307
0.0342685
-0.166875
0.666802
-0.100884
-0.216217
-0.0474933
-0.758533
1.12555
-0.12381
-0.553811
0.194652
-0.102303
-0.366327
0.483873
0.0944435
0.0802196
0.000551542
-0.938207
-0.382929
-0.230378
0.693126
0.306874
-0.382929
0.693126
-0.771373
-0.753719
-0.771373
-0.696589
0.696589
0.303411
-0.0129045
0.324151
-0.0828928
0.269815
0.0825611
-0.541779
0.636781
-0.021322
0.640528
-0.505145
-0.135382
-0.0430867
0.0378551
0.00523162
-0.0266053
0.0221171
1.01735
0.016867
0.0282546
-0.436483
-0.37741
0.143981
0.0385425
0.823257
-0.274827
0.0799909
0.500254
-0.0713865
-0.0667199
-0.0052302
0.694901
0.0729191
0.0577464
-0.0388999
-0.00111636
-0.0163294
0.0814549
0.548254
-0.48162
-0.0666337
1.78621
0.562998
-0.0942788
0.922302
0.0131577
-0.0714241
0.117895
-0.0149259
0.0178117
1.13256
-0.447307
-0.005119
0.0296045
0.885234
0.12297
0.0166755
-0.0166755
0.0256747
-0.0256747
-0.0308719
0.0308719
-0.0162058
0.368486
0.462843
-0.0541335
-0.680725
0.454954
0.176335
0.0269264
-0.0910176
-0.482746
0.667606
0.114221
-0.799806
-0.271214
0.412127
0.0874423
0.0260192
0.00803822
0.0106387
-0.0106387
0.0697153
0.0100164
-0.0100164
0.70204
0.111181
-0.0281023
-0.0107976
0.00578277
-0.0600613
-0.0187641
0.0187641
-0.0214643
0.0214643
-0.0263782
0.0263782
0.00878856
-0.00878856
0.0102666
-0.305363
-0.0741666
0.216224
0.0105708
-0.0105708
-0.380111
0.493831
-0.11372
0.474147
-0.208273
-0.492383
0.572374
0.557323
-0.336732
0.0859378
0.575185
0.566479
0.0180874
-0.0180874
0.775312
0.0296197
-0.0296197
0.0138116
-0.0138116
0.780839
-0.181388
0.0530296
0.405564
-0.487032
-0.0207561
0.0207561
0.0254676
-0.0254676
0.0213256
-0.0213256
0.0190658
-0.0190658
-0.0276186
0.0276186
0.0406147
-0.0406147
0.502501
-0.0369066
0.0369066
0.0215278
-0.0215278
0.0281343
-0.0281343
-0.0138373
0.0138373
-0.0138007
0.0138007
-0.0233199
-0.0311705
0.0311705
0.128839
-0.0693533
-0.0455584
0.0455584
0.0123751
-0.0123751
0.0330676
-0.0330676
0.0388102
-0.0388102
0.0221688
-0.0221688
-0.0183086
0.0183086
-0.00831646
0.00831646
-1.53636
0.727819
-0.0192333
0.0192333
0.0188607
-0.0188607
-0.0440692
0.0440692
-0.0244909
0.0244909
0.00440788
-0.00440788
-0.39243
0.73857
0.23891
-0.037102
0.037102
0.0313468
-0.0272726
0.0272726
0.014816
-0.014816
0.0326746
-0.0326746
-0.350041
0.439224
0.0102923
-0.0102923
-0.0183928
0.0183928
-0.469285
0.0399127
-0.838536
-0.0272325
0.0272325
-0.430582
0.029097
0.0164474
0.124779
-0.688124
-0.0426683
0.0426683
-0.217742
0.156748
-0.036944
0.0102366
-0.0102366
-0.0209631
0.0612741
0.26563
-0.320768
-0.256562
0.57733
0.170202
-0.0121575
0.0121575
-0.145817
0.564801
-0.418984
0.742419
-0.370293
-0.372127
-0.488691
-0.654888
0.54875
-0.0484959
0.608306
-0.771377
-0.574088
-0.0592775
0.189686
-0.41323
0.0209834
-0.0209834
0.00434383
-0.00434383
0.0358027
-0.0358027
0.0231378
-0.0231378
-0.00191099
0.00191099
0.000835012
-0.000835012
-0.776745
-0.0357287
0.155636
-0.277184
0.00269773
-0.00269773
-0.0400048
0.0400048
-0.0468674
0.0468674
0.225079
-0.159774
-0.0653053
0.0197557
0.291454
-0.515323
-0.00357892
0.00357892
-0.0361533
0.0361533
-0.107168
0.150618
0.398131
-0.00172186
0.00172186
-0.0175727
0.00993633
0.932491
-0.49205
-0.0957378
0.587788
-0.617003
0.113799
0.331859
-0.0342986
0.0342986
-0.673398
0.263034
0.0583483
-0.0583483
-0.693629
0.380652
0.247589
0.114744
-0.00140737
0.00140737
-0.84859
-0.000848749
0.000848749
0.325731
0.409843
0.0710462
-0.0634844
0.0634844
-0.00413205
0.00413205
-0.0493293
0.0493293
-0.048173
0.048173
-0.00140854
0.00140854
-0.0534399
0.0534399
-0.00289963
0.00289963
-0.0532899
0.0532899
-0.0119533
-0.0405354
0.0405354
0.00794202
-0.00794202
0.056437
-0.056437
-0.00549966
0.00549966
0.0420997
-0.0420997
0.0993343
-0.0086309
0.0086309
-0.0101309
0.0101309
-0.0351952
0.0755252
-0.0177049
0.0177049
0.00507672
-0.00507672
-0.0710039
0.0710039
0.34408
-0.0247147
0.0247147
-0.0519187
0.0519187
-0.00674396
0.00674396
-0.0810619
0.0810619
-0.0120875
0.0120875
-0.0980028
0.0980028
-0.02671
0.02671
-0.0857791
0.0857791
-0.70544
0.409274
-0.546298
0.512702
-0.824801
-0.449304
-0.534275
0.367837
0.301059
-0.699521
0.00485657
-0.00485657
0.0352455
-0.691061
0.0528871
-0.0523356
-0.718699
1.20821
0.834105
0.240283
0.023824
0.132776
-0.37374
-0.599218
-0.075526
0.39194
-0.857857
-0.0299479
0.0299479
-0.721023
0.0135742
-0.0135742
-0.00671805
0.00671805
0.405491
-0.348034
-0.00426662
0.00426662
0.0163861
0.0125751
0.600583
-0.153431
-0.00336581
-0.0190563
-0.00139556
-0.1106
0.517843
-0.407243
0.485617
-0.375318
0.00310702
1.08949
0.0050634
0.0362191
-0.413343
0.464291
-0.509081
-0.936263
-0.220389
-0.0816098
0.0201671
-0.222036
-0.445022
-0.027349
-0.00896444
-0.0127349
0.798786
-0.528935
-0.0499956
0.0575038
-0.041163
0.208565
0.115586
0.411951
0.249697
-0.160574
0.198207
0.0942103
-0.0263237
-1.38757
0.0258271
0.242601
-0.383248
-0.0160679
-1.34554
-0.0744715
0.275015
-0.357771
0.415962
-0.231638
-0.962899
0.0587273
-0.0414856
-0.00751058
-0.359456
0.454789
-0.0162181
0.0102091
0.00600896
-0.0318348
0.0318348
0.110021
-0.475616
0.0196031
0.0688647
-0.0920047
0.0619945
-0.0568443
-0.00349812
0.0603424
-0.0464671
-0.172925
-0.000940027
-0.141266
-0.2808
-0.333341
0.614141
0.0184114
0.0685261
0.148208
-0.0428076
-0.06365
0.0753982
-0.169447
0.33311
-0.00656243
0.0399463
-0.0132542
0.161463
0.00726745
0.279671
0.00560486
-0.00560486
0.211388
0.36482
0.101439
-0.185794
-0.0190491
0.0452691
-0.353094
0.784859
0.0656751
-0.0227366
-0.537566
-0.00873214
-0.783819
0.10652
-0.724732
0.279024
-0.0547608
0.358456
-0.639256
0.200411
0.4922
-0.112069
0.112069
-0.000353484
-0.687854
1.10398
-0.416127
-0.229456
0.170673
0.508609
-0.342765
-0.501868
-0.0871873
-0.0441761
0.0561851
0.928742
0.0724268
-0.149817
-0.072708
0.336456
-0.925525
0.00888094
-0.260001
0.766353
0.549558
-0.258104
-0.292851
0.54893
-0.204214
0.432153
-0.264702
-0.0487206
-0.452939
0.339219
0.112706
-0.112706
0.0577037
-0.0385512
-0.0191525
-0.00556708
0.00448534
0.00834254
-0.817377
0.544489
0.210184
-0.18495
-0.0252337
0.523068
-1.07215
-0.0696952
-0.477326
0.680737
-0.10368
-0.173504
-0.0216973
-0.0802459
-0.503629
0.0671458
-0.308786
-0.00122787
-0.0160679
0.413705
-0.0054958
0.0021957
0.0017822
0.0296894
-0.0160709
-0.0136185
-0.0952379
-0.0288995
-0.189652
0.218551
-0.107622
-0.345317
0.0163861
0.352553
0.00359924
-0.397289
0.0939668
0.00324152
0.0254849
-0.0796184
-0.0134573
0.0134573
-0.00171727
0.00400331
-0.00818368
0.00324084
-0.00884002
0.00030172
-0.00124044
0.288707
-0.212541
-0.00459965
0.00459965
-0.06505
0.49565
0.00223106
-0.278343
0.763336
1.19584
-0.467078
0.312628
-0.441935
-0.125197
0.144801
0.207049
-0.21179
0.0295218
-0.039954
0.00612012
-0.00923827
-0.175583
-0.366979
0.821932
0.0313991
-0.808144
0.277847
-0.00180449
0.0669126
0.146589
0.00180499
-0.00634128
-0.0336127
-1.09534
0.00148915
-0.00067306
0.739396
-0.663997
-0.253308
0.0853419
1.06751
-0.00404473
0.0019758
-0.036944
-0.00506367
0.81773
-0.434007
0.528451
-0.559735
0.905723
-0.749224
0.549014
-0.181178
0.727728
0.00167985
0.00199535
0.0240239
-0.0701245
0.135246
-0.350031
0.00832538
0.0182031
0.0735933
-0.0607638
-0.0128294
0.00186523
-0.0225325
0.0649997
-0.0424672
-0.128074
0.0110407
0.000467591
0.00334237
0.530386
-0.442739
0.00308568
0.000828963
0.592682
0.511298
0.366592
-0.00686565
-0.00589272
0.0101696
0.0127148
-0.0522387
-0.0913627
-0.00893851
-0.00419904
0.139956
0.0572231
-0.00310132
0.38844
0.00159841
0.0119673
-0.0119673
-0.00635328
-0.012703
0.000786735
-0.321887
-0.00421621
0.0813359
-0.108134
-0.162174
-0.0327815
-0.0648773
0.000881189
0.00149996
0.438558
0.000503621
-0.00426124
-0.0561703
-0.00246191
0.00119698
-0.409401
0.466748
-0.709597
0.448398
-0.815377
-0.294404
-0.00241019
-0.584886
0.323112
-0.43102
0.561931
-0.0138744
0.106249
-0.00513601
-0.0019113
-0.556175
-0.0039606
-0.00149108
0.0182569
0.898989
-0.520405
-0.00314718
-0.00260003
-0.0075195
-0.00313124
0.110373
-0.019584
0.019584
-0.0501615
0.0541648
-0.00166723
-0.010058
0.0666223
-0.0644266
-0.179566
0.107525
-0.00534353
-0.0169409
0.0336963
-0.0196153
0.0710789
-0.0509118
-0.62631
0.577083
0.0392075
-0.000220149
0.296571
-0.22124
-0.0602848
-0.650463
-0.0628603
-0.103501
-0.105801
0.103339
0.722498
0.00111319
0.0276823
-0.0257065
0.0762161
0.0722194
-0.140215
0.0679953
-0.0683855
-0.615461
0.82672
-0.529796
0.022645
0.0144571
-0.0137562