/*--------------------------------*- C++ -*----------------------------------*\
| =========                 |                                                 |
| \\      /  F ield         | OpenFOAM: The Open Source CFD Toolbox           |
|  \\    /   O peration     | Version:  2306                                  |
|   \\  /    A nd           | Website:  www.openfoam.com                      |
|    \\/     M anipulation  |                                                 |
\*---------------------------------------------------------------------------*/
FoamFile
{
    version     2.0;
    format      ascii;
    arch        "LSB;label=32;scalar=64";
    class       volVectorField;
    location    "49";
    object      U;
}
// * * * * * * * * * * * * * * * * * * * * * * * * * * * * * * * * * * * * * //

dimensions      [0 1 -1 0 0 0 0];

internalField   nonuniform List<vector> 
2186
(
(1.28184 -0.0589038 2.4544e-19)
(1.5373 -0.899301 3.09793e-20)
(1.39194 -0.875379 1.07474e-20)
(0.698293 -0.535998 -1.57447e-19)
(-0.367884 0.499598 -3.78273e-19)
(1.76723 -1.1449 0)
(0.673478 -0.619989 0)
(0.459024 0.285945 7.0438e-20)
(1.22269 -0.116871 -2.49928e-20)
(0.514862 -0.248124 -1.41123e-21)
(0.745707 0.671723 0)
(0.771355 -0.289826 -5.3092e-20)
(0.412797 0.238014 -2.87003e-20)
(1.20656 0.0251433 -3.49762e-19)
(1.71863 -0.679307 2.10573e-20)
(1.0219 -0.00247619 1.57853e-19)
(0.975272 0.0155065 0)
(-0.278799 -0.482892 0)
(0.980691 -0.393836 0)
(0.00180208 0.195425 -1.5407e-19)
(0.501061 0.185718 -1.03794e-19)
(0.102826 0.000999843 2.1292e-19)
(1.19497 0.0293019 2.87027e-19)
(-0.216254 -0.138354 3.80036e-21)
(1.02586 0.010759 -2.26063e-19)
(0.7499 -0.515756 0)
(0.761447 0.0226346 1.38056e-19)
(0.564552 -0.542713 -1.90798e-19)
(1.30189 0.755939 0)
(0.952501 0.0240768 -3.08164e-19)
(-0.0353346 -0.00597447 0)
(1.02185 -0.00738033 1.06678e-20)
(-0.0502327 0.386404 0)
(2.4101 0.247811 2.11105e-20)
(-0.45848 0.095818 -1.02399e-20)
(1.68583 0.773538 -8.08815e-20)
(1.52051 0.169899 -2.49073e-20)
(0.533894 0.232295 -3.05093e-19)
(1.98889 -0.309684 -4.88893e-19)
(1.16316 -0.19679 7.62916e-21)
(0.422136 0.142246 0)
(0.128969 -0.0169736 0)
(1.78571 -0.850903 3.21357e-20)
(-0.2423 0.231251 0)
(1.16167 0.303213 1.11039e-19)
(0.565396 -0.230826 2.79258e-19)
(0.864574 -0.736018 0)
(1.13701 -0.750102 1.46107e-19)
(1.04015 -0.0734534 0)
(-0.239081 0.424063 4.04353e-19)
(0.0361009 0.0708056 2.27717e-19)
(0.70261 0.645515 4.8679e-20)
(1.9993 -0.736278 1.2412e-20)
(0.630261 0.345524 -2.38421e-19)
(-0.320583 0.308039 8.04203e-20)
(0.717829 -0.607361 0)
(1.56622 -0.919482 1.55094e-20)
(0.534252 -0.495427 0)
(2.08529 -0.212141 1.22677e-19)
(1.11063 -0.156245 -3.9636e-19)
(0.916884 0.0342424 -6.4144e-20)
(1.41306 0.302209 -9.53033e-20)
(1.41898 0.56635 0)
(0.954939 -0.279442 -8.35814e-21)
(1.42166 0.399934 -4.05809e-20)
(1.20222 -0.69497 -2.1481e-19)
(1.25385 0.69157 2.62524e-20)
(0.684116 0.12739 -5.07677e-19)
(0.831355 0.1008 0)
(2.01332 -0.182577 3.50751e-21)
(0.490118 0.333701 -8.16727e-20)
(1.1727 0.156679 8.11433e-20)
(0.721808 0.0170757 -2.28494e-19)
(0.837051 -0.47711 0)
(0.848545 0.226466 -7.93281e-20)
(0.502141 -0.461298 -3.11012e-19)
(0.934543 -0.0507767 0)
(1.00684 0.0122773 3.33172e-19)
(-0.486475 0.224855 0)
(2.38346 -0.0381033 0)
(1.40539 -1.13072 1.40985e-19)
(1.24988 -0.514498 2.94092e-21)
(1.01809 0.00829502 3.75688e-20)
(1.40008 0.401267 1.21862e-20)
(0.959257 0.0254575 3.9588e-19)
(1.03259 0.0309441 -9.31974e-21)
(0.691327 0.238833 -2.92985e-19)
(1.28234 -0.682813 5.64134e-21)
(1.95192 -0.265333 0)
(-0.0878672 -0.0969821 3.67024e-20)
(0.820506 -0.581916 -1.83198e-19)
(-0.102532 0.347137 -9.94112e-22)
(1.09302 -0.0601681 2.5042e-19)
(0.798332 -0.137101 0)
(0.96335 0.0240527 3.74479e-20)
(1.46604 0.649869 0)
(1.55618 -0.909805 0)
(1.36847 0.2362 0)
(-0.26906 0.511875 0)
(0.748152 -0.621148 3.17944e-19)
(0.548521 -1.3482 -1.22632e-19)
(1.00008 -1.27036 1.71305e-19)
(1.5865 0.159881 0)
(1.12882 -0.0934084 -2.28931e-19)
(1.12421 0.0242867 1.65555e-19)
(-0.047537 0.167043 2.83111e-19)
(0.696752 0.566811 0)
(2.02095 -0.116805 2.38234e-20)
(0.925731 -0.437939 8.87647e-20)
(0.76238 0.216782 2.87081e-19)
(2.02662 0.0668402 2.44594e-19)
(-0.12552 0.469321 -5.94826e-19)
(0.765467 -0.69342 0)
(0.61726 0.416599 1.40679e-19)
(1.53485 -0.115232 4.54151e-20)
(0.137619 0.192725 -3.76784e-19)
(0.313009 -0.0550434 6.75455e-20)
(0.727142 -0.043996 0)
(-0.117153 -0.126702 -1.0883e-19)
(0.698198 -0.0132914 7.38217e-20)
(1.72258 0.920581 0)
(0.125969 0.0923299 -5.71676e-19)
(0.962887 0.825192 -1.72953e-19)
(-0.194614 -1.02327 5.55713e-19)
(1.03314 -0.0208028 0)
(0.250482 0.0130504 -8.511e-20)
(-0.270653 0.50737 0)
(0.660011 -0.450196 -1.12073e-19)
(-0.35718 -0.84795 -3.31704e-19)
(0.740308 -0.671041 0)
(0.393815 -0.199364 4.05118e-19)
(0.494138 -0.404257 2.85952e-19)
(0.381111 -0.343775 0)
(0.933657 -0.740804 -1.61e-19)
(0.975272 -1.18265 0)
(0.0737885 0.323184 -3.16726e-19)
(0.764382 -0.65199 1.56504e-19)
(2.18357 -0.23481 -1.92765e-20)
(1.87153 -0.181341 0)
(0.156138 0.387133 0)
(0.761946 0.706484 -1.93444e-19)
(1.73019 -0.60523 -3.82004e-20)
(0.3555 0.294628 0)
(0.938467 -0.763685 -1.69677e-20)
(1.12411 -0.0915198 0)
(1.06858 -0.108415 4.00708e-19)
(2.01647 -0.145651 3.28921e-20)
(-0.366747 0.5078 0)
(1.17464 -0.524559 -6.84575e-20)
(0.0193001 0.320605 -1.00525e-19)
(-0.221318 0.457736 0)
(1.0454 -0.772427 9.64332e-21)
(1.00687 0.00743678 -5.56548e-19)
(0.608381 -0.430109 -1.08837e-20)
(0.776521 -0.471098 0)
(1.15167 -0.692662 -1.21286e-19)
(0.694282 0.299322 2.23379e-19)
(1.24397 0.1692 0)
(1.48521 -0.0198919 1.02719e-21)
(1.14608 -0.814329 -2.97838e-19)
(0.0487518 0.359749 -3.97119e-20)
(0.0969045 -0.943533 -6.48618e-20)
(1.08136 0.0175046 1.96682e-19)
(0.881024 -0.42512 -1.11636e-19)
(1.30863 -0.651319 -5.2213e-21)
(1.39778 -1.05121 2.84995e-20)
(0.713473 -0.195418 5.17428e-20)
(-0.0993107 -0.0632858 -1.4158e-19)
(1.50597 0.402991 0)
(1.91396 0.425318 -9.73267e-20)
(1.54601 0.667391 8.66547e-21)
(0.768636 -0.572996 -2.31863e-19)
(0.995938 0.0100758 1.14156e-20)
(0.67764 -0.488632 3.08324e-19)
(1.41664 0.828374 1.76032e-20)
(1.61967 -0.0865709 2.65548e-20)
(-0.401886 0.425662 0)
(1.09517 0.0561429 -1.99819e-19)
(-0.259479 -1.39425 -1.84812e-19)
(1.1315 0.515972 5.23575e-20)
(0.130541 -0.145096 8.55713e-20)
(1.16301 0.0295819 -3.97745e-20)
(-0.0374307 0.247748 -3.75429e-19)
(1.38859 0.589864 -2.03332e-20)
(1.23772 0.94919 0)
(-0.391552 0.391686 -1.73445e-19)
(0.191264 0.30486 0)
(0.717742 0.618107 -2.09604e-19)
(1.79543 -0.166298 -2.97263e-20)
(0.261966 0.171472 1.00014e-19)
(-0.446584 -0.364338 -7.78101e-19)
(0.736584 0.136172 2.22579e-19)
(1.40796 -0.468437 -3.97885e-21)
(0.946493 -0.313824 -3.19217e-20)
(0.102605 0.22526 0)
(0.60133 0.838857 4.11981e-19)
(1.48916 1.04973 9.54317e-20)
(0.85808 0.122133 -1.18893e-19)
(0.619006 0.58 1.42802e-19)
(0.9257 0.203221 0)
(0.0105472 -0.320716 -1.37226e-19)
(0.775221 1.45863 2.395e-19)
(1.23553 -0.91109 8.99015e-22)
(0.981034 -0.012702 -1.76101e-19)
(-0.131844 -0.19892 4.87864e-21)
(-0.263113 0.320241 3.25438e-19)
(-0.219411 -0.251341 -8.3864e-20)
(0.526303 -0.073502 0)
(1.14299 0.046084 -2.62184e-19)
(1.28641 -0.315826 -7.44321e-21)
(1.22855 -0.588024 1.36622e-19)
(1.65125 -0.129837 -2.31359e-20)
(0.639969 0.400546 0)
(1.01811 0.804142 -9.72871e-21)
(0.756584 0.694601 1.19799e-19)
(0.857378 -0.523783 1.64626e-19)
(0.742306 0.556633 0)
(1.01791 0.00566603 7.48576e-21)
(0.839783 -0.623203 2.35768e-19)
(0.885592 0.46906 -3.54428e-19)
(1.16733 -0.109977 0)
(0.132929 0.192816 -3.01071e-19)
(-0.155704 0.298018 -2.35058e-19)
(1.72695 0.725573 0)
(1.29065 -0.89591 -7.69217e-22)
(-0.0741938 -0.354893 0)
(-0.340538 0.553773 2.4203e-19)
(0.800004 0.710729 -6.952e-20)
(0.836284 -0.180011 0)
(-0.160741 0.277613 0)
(1.54043 -0.46174 0)
(-0.18005 0.0750953 3.90454e-19)
(1.15836 -0.841441 1.94306e-19)
(1.13224 -0.569007 7.60443e-20)
(1.03813 -0.159793 -1.85779e-19)
(0.835062 -0.654089 -1.88315e-19)
(0.162731 -0.165969 0)
(-0.445794 -1.51344 0)
(0.962776 -0.479377 1.99888e-19)
(0.345966 0.425272 0)
(-0.256948 0.329034 0)
(0.0817406 0.190946 3.28805e-19)
(0.855652 0.725404 6.0342e-20)
(1.09246 0.848269 0)
(0.753724 0.608356 -6.49325e-20)
(0.82761 0.000782349 -2.07148e-19)
(0.803524 0.615446 -1.71726e-19)
(0.655139 0.610349 -1.22812e-19)
(0.38338 0.370698 6.66354e-21)
(0.673041 -0.602322 0)
(0.923007 0.211263 -2.68615e-19)
(0.464193 0.196792 3.92154e-20)
(0.671848 0.621452 2.62001e-19)
(1.03474 0.856969 0)
(-0.210082 -0.887248 3.13281e-19)
(-0.402079 0.351225 1.49259e-19)
(-0.448879 0.387991 -6.75562e-20)
(0.724684 0.627721 -1.12833e-20)
(0.970481 -0.0053892 5.30098e-20)
(0.341853 0.142306 0)
(2.28277 -0.0419983 -1.08977e-20)
(0.754218 0.739833 1.64095e-19)
(0.602696 -0.555039 -8.33238e-20)
(-0.0485707 -1.07619 1.71536e-20)
(1.26399 0.477172 1.00502e-19)
(0.933159 0.454355 0)
(1.02721 -0.162072 1.98708e-19)
(-0.519671 0.0895231 -1.728e-20)
(-0.0590708 0.178671 8.7039e-19)
(0.911818 0.018 -4.96315e-20)
(1.15769 0.171696 0)
(1.83006 -0.0791777 9.13575e-20)
(1.51765 -0.109262 0)
(0.578464 0.332153 -3.97334e-19)
(-0.264815 0.35732 0)
(0.444567 0.358718 1.5765e-19)
(0.674151 0.11252 0)
(0.576998 -0.465767 -1.88043e-19)
(1.13615 0.0189698 1.95787e-19)
(-0.312856 0.400566 8.44233e-20)
(1.07471 -0.051935 -1.93382e-20)
(2.00901 -0.181379 3.25866e-21)
(1.15741 0.246358 -1.62504e-19)
(0.457685 0.158119 -7.17074e-20)
(1.0266 -0.808133 0)
(0.804824 0.0184779 -1.42198e-19)
(0.89711 -0.337627 -2.99493e-19)
(1.64155 -0.554424 7.40847e-21)
(1.57038 0.0388301 -1.38177e-19)
(1.09739 0.000956123 3.20128e-19)
(-0.438247 0.0715172 -6.5321e-20)
(0.962698 -0.40286 -1.38159e-19)
(0.170946 -0.163764 2.63961e-19)
(1.00868 -0.00329741 0)
(1.00479 -0.00156207 0)
(0.691675 0.881851 -8.78167e-21)
(0.0819916 0.280704 -2.18333e-19)
(0.158544 -0.112652 -5.86579e-20)
(0.714296 0.0078271 2.17181e-20)
(-0.0459166 -0.295991 0)
(1.27484 -0.597138 2.17575e-20)
(0.887473 -0.769796 -1.17462e-19)
(1.71763 -0.557784 -9.37325e-21)
(1.19558 0.889927 0)
(0.427002 -0.406612 0)
(0.665522 0.577852 -1.39002e-19)
(1.14223 0.29224 -2.84964e-19)
(2.10889 -0.221893 -7.49002e-23)
(0.879378 0.195004 1.17205e-19)
(-0.17995 -0.664265 -1.56289e-19)
(1.73003 -0.735111 3.45944e-20)
(0.143995 -0.764327 0)
(-0.0295993 0.341566 0)
(0.135282 0.0499939 0)
(1.28591 -0.692423 -1.41526e-19)
(-0.214883 0.463731 -4.91622e-19)
(-0.146954 0.263014 0)
(1.43203 1.05087 2.6897e-20)
(1.15751 0.161123 -3.14029e-19)
(1.31327 0.588387 -5.9567e-21)
(1.1932 1.00691 -9.82402e-21)
(-0.138182 0.474719 3.06123e-19)
(1.78004 -0.0548212 0)
(0.0843243 0.0260911 -2.29712e-19)
(-0.238111 0.524169 5.74868e-19)
(0.781513 0.0792774 1.67137e-19)
(1.71082 0.973087 1.58014e-19)
(0.329503 0.418439 -6.16913e-20)
(-0.114627 0.353881 5.54241e-22)
(0.693708 -0.632002 -4.3163e-20)
(1.10269 -0.0893099 0)
(1.45136 0.0490131 0)
(1.00264 0.052626 0)
(1.33808 1.60387 -2.84183e-19)
(0.173643 -0.0510305 6.51038e-20)
(1.13309 0.904277 0)
(0.994329 0.0162713 4.73351e-19)
(0.827948 0.65846 -1.68106e-19)
(0.605149 0.905857 -2.52348e-19)
(0.866074 0.0548427 -3.74912e-20)
(0.669744 -0.606251 -2.4485e-19)
(1.49537 0.712676 9.14818e-21)
(0.516762 -0.393895 -2.938e-19)
(1.13886 -0.000228315 -4.05215e-19)
(0.794204 0.0580647 4.375e-20)
(1.49358 -0.149286 1.13024e-19)
(1.31425 0.0923056 1.04423e-19)
(0.241725 0.312668 3.98113e-21)
(1.13972 0.506061 -1.80138e-19)
(1.72055 0.687407 1.98689e-19)
(-0.544747 0.437997 0)
(0.0334519 -0.773778 6.44461e-20)
(0.1486 0.331234 1.30815e-19)
(-0.18066 -0.211909 -5.37256e-20)
(0.536084 0.398756 0)
(0.665927 0.891144 0)
(-0.0315806 0.0277497 -3.16891e-19)
(0.361626 0.195985 -4.29513e-20)
(1.05206 -0.0269809 1.60644e-19)
(-0.445927 0.538642 -8.74676e-20)
(0.599948 -0.443993 6.47774e-20)
(0.140925 0.276793 0)
(0.784509 -0.692467 -3.53301e-19)
(1.62027 0.0422349 -1.83071e-19)
(-0.0364822 -1.04888 9.36448e-20)
(0.747504 0.218157 2.84807e-19)
(0.644252 0.214962 9.34028e-20)
(0.45547 -0.428515 2.1042e-19)
(0.384968 0.289983 -8.40301e-20)
(0.346807 0.598489 0)
(0.451929 0.427433 -1.63709e-19)
(1.03028 -0.0115017 -2.57607e-19)
(-0.518468 -0.400448 3.08499e-19)
(1.5185 0.444784 -7.41525e-21)
(0.38486 0.421714 -2.94731e-20)
(0.638497 -0.581754 -1.07631e-19)
(0.849898 0.226829 -1.7151e-19)
(1.02636 0.461821 1.62398e-20)
(1.1216 -0.115678 3.62944e-20)
(0.580695 -0.167488 -2.93297e-19)
(1.95615 -0.317439 3.69289e-20)
(1.18292 0.146362 0)
(1.07725 0.26504 -8.5109e-21)
(1.53305 0.308306 -3.1235e-21)
(0.596393 -0.445898 2.22655e-21)
(1.74548 0.21905 -4.07091e-19)
(1.44833 -0.886984 -6.88429e-21)
(0.477996 0.453835 -2.07208e-19)
(0.158596 -0.538935 4.51577e-19)
(1.75868 -0.243621 0)
(0.93638 0.00454008 0)
(0.820628 -0.722385 7.35836e-20)
(-0.391694 0.310028 -1.635e-19)
(-0.189349 -1.41838 -2.82272e-19)
(0.299094 0.359452 -9.97604e-20)
(-0.129165 0.0760225 -3.26365e-19)
(-0.0852061 -0.916161 0)
(-0.0810209 0.269002 1.42275e-20)
(0.467004 -0.0370366 -2.16194e-19)
(-0.287402 0.344858 -7.40455e-19)
(0.781995 -0.0666689 0)
(0.974445 0.842283 -6.65654e-20)
(0.127192 0.226355 0)
(0.987647 0.0259723 3.3714e-19)
(-0.0549359 -0.901779 2.39675e-20)
(0.492476 -0.363921 3.93992e-19)
(-0.513316 -1.3284 3.04881e-19)
(0.0250351 -0.688904 0)
(0.355388 0.150688 2.49046e-19)
(0.997465 0.0263668 -1.01572e-20)
(-0.0986014 0.0445945 0)
(1.00617 -0.00642918 -5.14918e-20)
(0.816133 -0.682593 -3.2666e-19)
(0.455533 0.702221 0)
(0.907963 -0.231796 2.12076e-19)
(0.247697 -0.0559458 4.76535e-19)
(-0.030159 0.0337374 0)
(0.0815272 -0.484716 -3.42569e-21)
(0.681705 -0.587814 -4.52697e-19)
(0.953577 -0.0345715 -2.60266e-19)
(-0.478286 0.244784 2.24097e-19)
(0.289742 0.423547 9.72857e-20)
(0.0449727 -0.80229 0)
(1.00899 0.51098 0)
(-0.0670305 -1.05411 8.5636e-20)
(1.9994 -0.139492 -5.55109e-20)
(1.17469 0.969605 4.59809e-21)
(1.09589 0.229826 -9.80554e-20)
(1.12491 0.0199126 -2.28098e-19)
(1.00151 -0.0757695 -8.87631e-20)
(-0.240137 0.187893 -2.37011e-19)
(1.04272 -0.126549 7.8093e-20)
(0.696008 0.024394 1.50891e-19)
(1.84572 -0.0762974 -1.89153e-20)
(1.02072 -0.146978 0)
(1.51265 0.408926 5.1209e-19)
(1.14381 0.0271404 -4.56741e-19)
(1.88023 0.579641 -9.69927e-20)
(0.700071 -0.407642 -1.64392e-19)
(-0.126107 -0.115781 8.17752e-20)
(0.749329 -0.653972 4.24887e-19)
(1.29423 0.216357 4.55152e-20)
(1.00751 -0.00659046 2.28017e-19)
(-0.217815 -0.418237 -9.0077e-20)
(1.03311 0.0267242 0)
(1.20829 0.0510339 6.79348e-20)
(-0.0822531 0.0263442 0)
(1.00872 0.0162054 -1.37276e-19)
(0.0384415 -0.301378 -5.10476e-19)
(1.71239 0.168088 -3.06708e-20)
(0.0836162 0.280176 1.7622e-19)
(1.5055 0.0363564 -5.18929e-20)
(1.01788 -0.0165794 4.66239e-20)
(1.25242 -0.0904343 0)
(1.3896 -0.586892 -2.17816e-19)
(1.02777 0.0461578 -1.34182e-19)
(1.56682 0.821984 8.26958e-20)
(1.29368 -0.0181281 0)
(0.742694 -0.717202 5.44683e-20)
(-0.0452718 0.0292557 0)
(1.28903 0.0416635 0)
(0.291063 -0.0064236 0)
(1.29417 0.475332 0)
(2.14204 -0.0752853 9.63646e-20)
(0.803623 0.67001 2.93793e-19)
(0.258027 -0.257953 -2.49199e-19)
(0.285169 0.280036 -2.51119e-19)
(0.0492152 0.2238 0)
(1.48302 0.438642 -1.18042e-19)
(1.91594 0.465723 0)
(1.53277 0.266711 0)
(0.0446907 -0.079944 9.7809e-20)
(0.885138 0.776944 7.42552e-20)
(1.59029 -0.0253659 0)
(0.331967 0.208403 5.58657e-20)
(0.94268 0.25941 1.57409e-19)
(1.07377 0.453329 8.75165e-20)
(1.35814 0.987636 6.62973e-22)
(0.862781 -0.774682 -5.64418e-20)
(1.5554 0.228394 8.69019e-20)
(0.874703 0.786272 7.18681e-20)
(1.29805 0.995942 0)
(0.862161 0.122064 -9.00573e-20)
(2.23755 1.32902 0)
(1.40076 0.844548 5.88638e-21)
(1.47242 0.0238309 4.46172e-19)
(1.00509 -0.00014826 0)
(1.21687 0.983183 4.77026e-19)
(0.865335 -0.129723 4.7329e-20)
(0.590444 -0.355696 0)
(0.630553 -0.325934 2.1161e-19)
(1.31891 0.585285 -1.6301e-20)
(0.535176 0.505901 2.14756e-19)
(-0.316353 0.411985 8.66471e-20)
(0.903583 -0.0791812 2.43074e-19)
(0.73772 0.0802125 0)
(1.26615 -0.858449 -1.48288e-19)
(1.03575 -0.0418544 3.54268e-19)
(1.87107 0.197219 3.21093e-19)
(0.246786 0.197245 4.65294e-20)
(-0.259771 -1.19652 0)
(1.19543 -0.220765 -1.2694e-19)
(-0.00481956 0.0684019 -5.72288e-20)
(1.16522 -0.308522 -5.09778e-20)
(-0.230977 0.156755 -2.50032e-21)
(-0.291247 0.212361 7.19915e-19)
(1.64996 -1.48179 7.18244e-21)
(2.22748 -0.0354823 1.45963e-20)
(1.26273 0.459796 -1.62092e-19)
(0.852098 -0.0695269 0)
(1.30064 0.0685381 1.27181e-19)
(1.61863 0.143126 -2.7299e-20)
(0.863935 -0.720767 1.64767e-19)
(1.09181 -0.917848 -8.30741e-20)
(0.539813 0.501593 1.39973e-19)
(2.32709 0.759922 0)
(1.91947 0.475919 1.32798e-19)
(-0.00910637 0.120421 -1.1919e-19)
(0.965091 0.837023 0)
(0.262842 0.346704 0)
(0.257029 -0.256525 -2.73478e-21)
(0.385467 0.387653 0)
(-0.378429 -1.30312 -3.22881e-19)
(-0.315101 0.503007 -2.59464e-19)
(1.68374 -0.437387 0)
(1.22881 0.10522 -4.4385e-21)
(0.0577284 -1.53445 2.39983e-19)
(0.487773 -0.459523 -4.92728e-19)
(1.85748 -0.107277 6.75446e-21)
(0.562506 -0.50789 0)
(1.07317 0.133038 0)
(1.35779 -0.200933 0)
(1.16043 0.253157 -1.69999e-19)
(1.36186 0.0958632 2.35584e-19)
(-0.133299 -1.02652 0)
(0.869056 -0.0693708 0)
(0.94665 -0.0174519 2.10735e-20)
(-0.120624 0.250453 2.4003e-19)
(1.12914 -0.254829 1.28345e-20)
(0.984234 -0.476164 6.71812e-20)
(0.855134 -0.0481767 2.13277e-20)
(-0.468319 -1.06489 -2.43348e-19)
(1.35079 -0.166435 -1.05101e-19)
(1.01392 -0.0130228 3.81515e-19)
(1.64033 0.569374 0)
(-0.282016 0.497724 7.01189e-20)
(0.951755 -0.783179 2.16274e-19)
(0.856862 0.0257268 4.3821e-20)
(0.590866 -0.3801 0)
(1.85461 -0.51167 -7.911e-21)
(1.17551 -0.18378 1.71198e-19)
(1.10182 0.873727 0)
(0.56206 -0.518732 5.14827e-19)
(0.245131 -0.100679 7.47246e-22)
(1.22533 -0.336928 -2.55632e-20)
(-0.149734 0.318353 -4.91014e-19)
(1.43129 0.642717 3.90306e-20)
(1.21328 0.42959 2.34378e-21)
(0.953426 0.41654 1.74621e-19)
(2.09105 0.0303163 -1.01855e-19)
(-0.253353 0.0809635 -1.98172e-21)
(0.437671 -0.35126 0)
(-0.125786 -0.147933 1.38634e-19)
(1.02456 -0.889951 0)
(1.01454 -0.61577 2.52206e-20)
(1.2813 -0.302085 -2.83225e-19)
(0.959319 -1.07464 4.65166e-20)
(-0.196282 -0.795876 -2.35238e-19)
(1.04991 0.520531 1.2107e-19)
(1.10967 1.40162 3.13871e-19)
(0.701407 -0.0391581 0)
(0.887591 0.103221 0)
(0.997173 0.186577 -3.22407e-21)
(0.767575 -0.0215772 0)
(1.3244 -0.18533 -1.76162e-19)
(-0.493271 -1.38003 5.08902e-19)
(2.02743 0.385832 1.58776e-19)
(1.05092 -0.0323249 0)
(0.507446 -0.287624 1.06551e-19)
(1.00532 0.0284347 1.80714e-19)
(1.93423 1.6536 -1.98191e-19)
(0.0938763 -0.572627 0)
(1.07702 -0.454417 5.55308e-19)
(1.08677 0.105975 3.89047e-22)
(1.05779 -0.458921 -2.41239e-19)
(2.05754 -0.0871597 2.5692e-19)
(1.38797 0.839479 0)
(0.876455 0.0218963 0)
(0.199908 0.181008 -1.24146e-19)
(-0.0272844 0.0336733 3.56585e-19)
(0.997363 0.402172 -1.55986e-19)
(-0.136726 -0.518717 2.96551e-21)
(0.698371 0.471463 1.98045e-19)
(0.693898 -0.571228 0)
(0.491219 -0.45536 0)
(1.04472 -0.31967 -2.36811e-20)
(1.18228 -0.473987 -1.18233e-19)
(0.701764 0.13144 4.33632e-21)
(0.72515 -0.0944342 1.13286e-19)
(-0.0853384 0.192451 -6.36517e-19)
(1.23964 -0.971516 7.02771e-20)
(0.734717 0.684151 0)
(1.3675 0.718012 0)
(1.65223 0.229016 0)
(0.062881 -0.629046 -8.59569e-20)
(1.63074 0.652404 5.09901e-19)
(1.77218 0.101844 -6.59113e-21)
(0.941076 -0.0135127 0)
(2.35224 0.135525 0)
(1.26549 -0.0644226 -7.40791e-20)
(1.43094 1.28334 2.3057e-19)
(1.00486 0.0102496 -1.78945e-19)
(1.55588 0.490363 0)
(-0.148467 -0.12515 0)
(1.30634 0.318918 1.80229e-19)
(1.08669 0.563749 -8.48393e-20)
(1.08294 0.0259373 0)
(2.22379 0.212675 0)
(2.34859 0.572077 -7.32176e-19)
(-0.102999 0.40489 -1.95467e-21)
(0.994115 0.0170482 0)
(0.764014 0.532508 -2.60758e-20)
(0.878206 -0.770956 0)
(0.996169 0.0195069 4.20563e-20)
(0.982116 1.15556 -2.88172e-19)
(0.870758 -0.283896 3.17466e-19)
(1.24839 0.183571 3.50536e-19)
(2.06767 -0.133645 -7.26689e-20)
(0.749371 0.182467 -4.00686e-20)
(0.775371 -0.0410473 0)
(1.00194 0.0137784 0)
(-0.189313 -1.20422 0)
(0.742588 0.709817 -1.16582e-19)
(-0.0699156 0.143726 4.2816e-19)
(1.21733 0.370385 -2.9461e-19)
(-0.374188 0.233651 0)
(0.892281 0.696348 1.19708e-19)
(0.972589 -0.295474 0)
(1.00625 0.00294846 1.04397e-19)
(1.36729 0.304774 5.79283e-20)
(1.08948 0.433783 1.72744e-19)
(1.49626 -0.758895 0)
(1.75258 -0.194083 -5.76563e-20)
(0.82099 -0.0622547 -3.44443e-19)
(-0.403011 -1.41575 -4.68378e-19)
(1.75198 0.80897 0)
(0.912442 0.280039 1.43463e-19)
(1.87955 -0.228979 0)
(0.833116 0.575399 2.74084e-19)
(-0.552727 -1.67665 1.94991e-19)
(-0.105309 0.19953 0)
(0.658686 0.627066 -5.07355e-20)
(0.981265 -0.601414 -1.7563e-19)
(0.43335 -0.1669 -1.18343e-19)
(1.02071 -0.00737296 0)
(0.238661 -1.12419 -3.09117e-19)
(0.591129 -0.52057 8.48418e-20)
(0.9477 0.326941 0)
(0.606794 0.499977 -8.44269e-20)
(1.0739 0.906659 1.18315e-20)
(1.12183 1.00868 3.03837e-19)
(-0.38898 0.344284 -6.79938e-20)
(0.187916 0.116191 -5.14478e-19)
(0.194437 0.405597 4.66245e-21)
(0.869068 0.40433 1.92621e-19)
(-0.228675 0.485506 -1.19371e-20)
(1.35699 -0.613842 2.80482e-21)
(1.02054 0.0176496 -3.14947e-19)
(-0.140456 -0.820735 0)
(1.04643 0.0428164 -3.48208e-19)
(2.33121 0.412331 8.46828e-20)
(0.953089 0.7427 1.86228e-19)
(1.12086 -0.0654705 1.56334e-19)
(0.999467 -0.0166866 1.46001e-19)
(1.14204 -1.42768 -4.44126e-20)
(0.160027 0.179344 2.19627e-22)
(1.64633 -0.835169 1.31029e-20)
(1.08383 -0.135611 -9.09078e-20)
(0.771666 0.065925 1.05752e-19)
(0.887253 -0.258124 9.01067e-20)
(0.117708 0.00841597 0)
(1.03395 0.787815 0)
(1.52299 -0.0690925 -6.89816e-20)
(1.91469 0.0559299 -4.03618e-20)
(-0.649247 -1.33605 1.81643e-19)
(0.984466 -0.497899 -5.72284e-19)
(0.570336 -0.484393 4.00454e-19)
(1.98363 -0.475403 -1.64101e-19)
(-0.57395 -0.095322 2.4819e-21)
(1.73429 -0.0244375 0)
(0.770252 0.172312 -5.97998e-21)
(1.47419 0.560035 -4.17602e-20)
(1.11833 0.812165 0)
(1.09807 1.02087 0)
(0.65525 -1.21998 0)
(0.460706 0.390271 -3.82988e-20)
(0.467554 0.00046245 0)
(1.95778 1.33885 1.44125e-19)
(1.25964 0.199533 4.45118e-21)
(0.21682 0.238287 2.44363e-19)
(0.619308 0.437053 -2.7973e-21)
(1.97313 0.303418 -2.21716e-19)
(2.01281 -0.268497 1.58211e-21)
(-0.261433 0.109171 -5.16921e-19)
(0.00372687 -0.723484 2.54611e-21)
(0.340597 0.193161 0)
(0.686915 -0.0340071 0)
(1.00022 0.00386496 1.27791e-22)
(-0.0148887 -0.705029 0)
(1.41942 0.0241906 7.71491e-20)
(0.689587 -0.030435 0)
(1.04313 0.0246852 1.24688e-19)
(0.984432 0.0190184 -4.10719e-20)
(1.00044 -0.756901 5.3245e-20)
(1.07472 -0.0136201 -7.97744e-22)
(0.927027 -0.157575 -5.3471e-20)
(1.02009 -0.0162601 3.44315e-19)
(0.624212 -0.559267 1.94104e-19)
(0.258475 0.678762 -2.57428e-19)
(0.506248 0.0641122 -5.06137e-21)
(-0.0332651 0.0529973 0)
(1.21508 0.845148 0)
(1.01936 0.00640834 0)
(0.957785 -0.731842 -1.26613e-19)
(0.977253 -0.837067 8.94223e-20)
(0.150686 -0.146684 6.90669e-21)
(1.06505 0.237753 -1.00184e-18)
(1.46145 -0.530698 -1.18622e-19)
(0.536666 -0.318833 -6.2804e-19)
(0.963116 -0.0713402 -7.09576e-21)
(1.28826 -0.61672 3.9325e-19)
(2.00476 -0.262953 -1.82608e-20)
(0.297047 -0.0451125 4.02781e-21)
(0.424245 0.261846 -8.06659e-20)
(1.17996 0.590362 1.13608e-19)
(-0.532365 0.210069 0)
(0.120055 -0.843748 7.93508e-20)
(-0.223199 0.138907 2.47214e-21)
(1.03037 -0.0412967 2.92658e-19)
(1.019 0.0104804 -7.80972e-21)
(1.11686 -0.00959466 -8.14861e-20)
(1.04364 -1.0672 -4.15835e-20)
(1.68239 0.291994 -6.61211e-21)
(0.351478 -0.326051 -3.17985e-19)
(0.206314 -0.134591 -2.11179e-20)
(1.02481 0.00990252 -2.26698e-19)
(0.294276 0.254124 5.20726e-21)
(0.644171 -1.05999 0)
(1.18413 0.627274 -2.07978e-19)
(1.00228 -4.79267e-05 8.54042e-20)
(0.741234 0.665342 1.94765e-19)
(2.07182 -1.12366 1.1788e-20)
(1.08224 -0.00294004 -2.55608e-20)
(1.13847 0.0143162 7.36899e-22)
(1.39269 -0.358079 3.19362e-21)
(0.185054 -0.0161668 0)
(1.04675 -0.0378729 0)
(1.04967 -0.0326571 5.20203e-19)
(1.0028 0.000207631 0)
(-0.0185367 0.225841 0)
(0.882859 -0.533448 0)
(1.00148 0.00295786 -4.96624e-19)
(1.10781 -0.643316 1.07149e-19)
(1.02027 -0.000230909 1.05554e-20)
(1.48277 1.00781 2.79595e-20)
(1.69928 1.06306 -4.02449e-19)
(1.5671 -0.886013 1.93155e-19)
(1.96843 0.353712 1.277e-19)
(0.494392 0.173199 0)
(0.107569 0.316414 0)
(2.11463 -0.178296 1.5813e-19)
(0.726524 1.22471 0)
(1.00038 -0.00294566 -1.52814e-19)
(1.01017 -0.000133818 2.97203e-19)
(1.45874 0.120698 -4.26834e-20)
(-0.00431267 -0.109255 1.06832e-19)
(0.974608 -0.00138995 1.58889e-19)
(0.322407 -0.0438444 -2.4097e-20)
(1.02032 -0.161001 7.91198e-20)
(0.898686 -1.13952 -2.22794e-22)
(0.921461 0.0191678 -1.6679e-19)
(1.00355 0.00568193 1.9412e-19)
(0.999806 0.00145089 1.1397e-20)
(0.791497 -0.0118724 0)
(0.734504 -0.0259316 0)
(0.732541 -0.0263707 1.1631e-21)
(0.710519 -0.0282264 0)
(1.84615 0.0835236 0)
(1.36126 -0.44487 0)
(0.260353 -0.132451 -1.01202e-20)
(0.63288 0.0294051 9.22501e-21)
(0.877435 -0.0854748 0)
(1.08023 -0.74034 -1.77613e-20)
(0.933473 -0.995319 0)
(0.57012 0.046296 0)
(0.294469 -0.0322431 0)
(0.152877 0.0453437 9.81281e-21)
(0.214101 0.0146576 -4.37322e-21)
(0.77499 0.0217858 0)
(0.782359 0.0200896 0)
(0.962364 0.021621 -2.05044e-19)
(0.812729 0.00880781 3.80334e-19)
(1.0092 -0.0012659 0)
(1.00047 4.29234e-05 3.57289e-19)
(1.00001 -0.0002296 -1.16855e-22)
(0.78158 0.021686 3.25992e-19)
(0.995443 -0.00723588 -1.82974e-19)
(0.577285 -0.263238 0)
(0.553052 -0.274563 -7.91483e-20)
(1.00056 0.000523976 -1.79637e-19)
(0.999579 0.00352336 -3.09906e-19)
(1.06588 -1.11506 0)
(0.998949 0.00267362 0)
(0.999825 0.00105151 0)
(2.1322 -0.620984 3.95427e-20)
(0.981988 -0.984227 -1.57181e-19)
(0.231659 0.0685673 0)
(-0.454688 0.519089 4.15029e-19)
(1.44807 1.04516 -4.67021e-19)
(1.0226 -0.0120787 -2.38653e-19)
(0.408261 -0.0444487 -6.68182e-20)
(1.01599 0.00764617 -1.94103e-19)
(1.12087 -0.209009 -1.34306e-19)
(0.758854 -0.424812 3.14529e-19)
(0.215469 0.330501 -3.54755e-20)
(1.02571 0.0175779 0)
(1.06694 -0.00983895 -4.80912e-20)
(0.844175 0.0315464 0)
(-0.0372202 0.105037 6.27505e-19)
(1.04277 1.19591 0)
(0.109828 -0.275964 -1.6856e-19)
(0.332729 -0.0389016 1.22291e-20)
(1.8152 0.638834 2.65958e-19)
(-0.147654 -0.0365671 0)
(1.0545 -0.0359954 1.60524e-19)
(1.34464 -1.05684 -2.16022e-20)
(0.930872 0.0198034 2.54449e-19)
(1.01498 -0.00234341 -1.61758e-19)
(1.86897 0.851316 1.93344e-19)
(0.58545 0.552441 0)
(0.508202 0.476645 1.69838e-19)
(2.40505 -0.292639 8.10727e-22)
(1.19114 0.137193 1.41238e-19)
(1.03742 -0.670913 0)
(1.02357 0.00973836 0)
(1.00116 -0.0151338 -3.72965e-19)
(1.01679 0.0205391 -3.69994e-19)
(0.0807165 0.435005 0)
(1.32334 0.869447 -1.79648e-20)
(1.89559 -1.16442 -1.25559e-20)
(1.01778 0.0116507 1.40512e-19)
(1.01088 0.0177776 -1.78443e-19)
(-0.0367443 -0.237818 -1.81379e-20)
(1.49673 -1.22707 3.46056e-19)
(1.02123 -0.0127097 5.96867e-19)
(1.56132 -1.25707 0)
(2.0848 0.572744 -2.10645e-19)
(1.01723 -0.00676422 -1.86964e-19)
(1.72662 0.197648 2.15643e-20)
(1.07364 0.00931368 -4.18349e-22)
(1.01204 -0.00563426 3.72533e-20)
(1.955 -0.216272 2.44357e-20)
(1.01428 0.0112531 1.83556e-19)
(0.755533 -0.341036 -2.44987e-20)
(1.01839 0.00796839 0)
(0.961032 0.179647 4.10939e-20)
(0.424324 -0.617499 6.08596e-21)
(0.997296 0.0227119 1.83307e-19)
(1.04034 0.0211378 -4.14499e-22)
(1.96672 -1.42034 5.18521e-20)
(1.31655 0.332691 2.27032e-19)
(0.992447 0.0195747 1.26138e-19)
(1.01928 -0.00942654 6.79844e-22)
(1.76864 0.150807 2.02825e-20)
(2.15909 1.03491 -2.36711e-19)
(0.72287 -0.646316 6.86597e-20)
(0.399513 -0.247184 -3.00463e-19)
(1.01019 -0.00710733 0)
(1.01789 0.00710611 4.56008e-20)
(1.01132 -0.0034865 9.48301e-20)
(1.04941 -1.09658 -2.95027e-20)
(1.01232 0.0110893 -1.90701e-19)
(1.02324 -0.0137903 2.22339e-19)
(1.0101 -0.00172193 -1.77183e-19)
(1.0141 0.0109877 -5.72112e-22)
(1.01473 0.00925786 -4.9968e-22)
(1.02203 0.0195902 1.83194e-19)
(0.919332 0.128468 4.43688e-19)
(1.36673 0.823181 0)
(1.0968 -0.536253 1.97545e-19)
(1.00918 0.0013039 0)
(1.02582 -0.014742 -5.23071e-20)
(1.62493 0.397822 1.48036e-20)
(1.66361 0.075731 0)
(0.871505 0.260119 1.23311e-19)
(1.50002 1.27861 -2.39338e-20)
(0.771633 -0.0153613 0)
(1.88779 -0.234769 0)
(1.12426 1.5599 -1.3996e-19)
(1.08807 -1.16343 3.07491e-20)
(1.01713 0.00174873 -1.91071e-19)
(1.0722 -0.52857 -6.9422e-20)
(1.52169 -1.54154 4.27638e-20)
(0.391538 0.387047 0)
(2.03205 -0.542734 0)
(1.20817 0.602219 0)
(0.528217 -0.18389 2.33648e-19)
(0.665551 -0.884971 -2.92941e-19)
(0.828679 1.72234 0)
(0.623621 -0.655321 -5.28773e-19)
(1.89581 1.00738 -2.83851e-19)
(1.00645 0.00246706 -3.75191e-19)
(0.962253 -1.42732 -7.34966e-20)
(1.02082 0.0146979 2.48369e-19)
(0.695386 -0.0420033 0)
(-0.14938 0.404656 -1.21121e-20)
(0.667471 0.497261 -2.77668e-19)
(1.34451 0.74338 -5.78511e-21)
(0.601057 -0.241043 0)
(0.755501 0.0688175 8.70082e-20)
(0.582773 0.558823 3.94433e-20)
(1.29103 0.941941 -5.16364e-22)
(-0.109755 -0.0522418 4.62158e-20)
(1.02269 0.0216515 0)
(0.415841 -0.149531 -1.7038e-19)
(1.01109 0.00371652 1.40165e-19)
(1.72446 -0.404741 0)
(1.00929 0.0136791 2.36154e-19)
(-0.0247457 -0.721487 -2.86191e-20)
(1.01988 0.016298 -1.45383e-19)
(0.338355 -0.210845 0)
(1.29258 0.314642 -4.20842e-22)
(1.00832 0.0100051 -9.79811e-20)
(0.994562 -0.00853251 2.58502e-19)
(1.13196 0.106503 -5.53033e-21)
(0.534537 0.33583 1.80386e-19)
(-0.123753 -0.167643 1.42621e-19)
(2.23917 -0.205874 2.87598e-19)
(0.728984 0.561 -1.98656e-19)
(0.796312 0.0153028 -3.57158e-19)
(0.822539 0.026131 0)
(0.769666 -0.28454 -2.17544e-19)
(1.0276 -0.00998588 -2.80325e-20)
(0.976554 0.047138 0)
(1.0603 0.0012599 -1.75125e-19)
(0.940468 1.03603 1.43118e-19)
(-0.419651 -1.51346 2.05925e-19)
(2.10353 -0.54931 0)
(-0.703722 -1.07144 -5.36416e-19)
(1.44467 -0.327812 0)
(1.04381 -0.0147637 5.19541e-20)
(0.996202 -0.736042 -2.82795e-21)
(1.01098 0.00324013 1.5251e-19)
(-0.416452 -1.70172 3.94621e-19)
(1.0205 0.00982264 0)
(0.99347 0.00398375 -3.62965e-19)
(1.00642 0.0138231 1.93709e-19)
(0.713725 0.0851248 0)
(1.31097 -0.88228 2.88939e-20)
(0.956879 -0.000424348 -1.6645e-19)
(0.285715 -0.0172536 2.70802e-19)
(1.00288 0.00369635 -1.8891e-19)
(1.00054 0.0386869 -4.44789e-19)
(1.59582 -0.580176 -3.14708e-20)
(0.304475 0.241317 -6.38345e-20)
(0.878346 0.756365 -1.18235e-19)
(0.841967 0.404961 0)
(1.0228 -0.00422676 3.95562e-19)
(1.04219 -0.0083805 2.04001e-19)