/*--------------------------------*- C++ -*----------------------------------*\
| =========                 |                                                 |
| \\      /  F ield         | OpenFOAM: The Open Source CFD Toolbox           |
|  \\    /   O peration     | Version:  2306                                  |
|   \\  /    A nd           | Website:  www.openfoam.com                      |
|    \\/     M anipulation  |                                                 |
\*---------------------------------------------------------------------------*/
FoamFile
{
    version     2.0;
    format      ascii;
    arch        "LSB;label=32;scalar=64";
    class       volScalarField;
    location    "17";
    object      p;
}
// * * * * * * * * * * * * * * * * * * * * * * * * * * * * * * * * * * * * * //

dimensions      [0 2 -2 0 0 0 0];

internalField   nonuniform List<scalar> 
2186
(
0.801494
-0.353024
-0.0436539
1.09997
-0.769515
-0.072532
0.690045
-1.01658
-1.02677
1.35758
1.10622
-0.957869
-1.02442
1.05832
-0.583248
1.06682
1.08907
-1.19693
0.00101679
-0.741454
1.4638
-0.721084
1.06893
-1.03879
1.0599
1.07432
1.28173
0.921582
0.649509
1.05971
-0.728767
1.06044
-0.67886
-1.17511
-0.950057
0.17679
-1.07849
1.45413
-0.711006
-0.130938
-1.0336
-0.706326
-0.696438
-0.819964
0.953585
1.34081
0.352485
0.527237
-1.60327
-0.878814
-0.733563
0.952953
-0.69282
1.38916
-0.693784
0.973312
-0.745942
1.00154
-0.817274
0.839779
-1.00606
0.686185
0.610248
-0.117374
0.623038
0.468868
0.724846
1.35065
1.24617
-1.06461
-1.02219
-1.08603
1.31632
1.0296
1.23793
1.18892
-1.32292
1.084
-0.95285
-0.672812
-1.5312
-0.19273
1.05466
0.672967
1.04827
1.05549
1.36009
-0.0240703
-0.112972
-0.971534
0.976567
-0.73514
0.965606
1.21146
1.06972
0.478395
-0.169724
0.636791
-0.841739
1.01648
-1.86436
-1.79636
0.691534
0.990582
1.09097
-0.733714
1.28159
-0.800669
0.962538
-1.7842
-0.640793
-0.816024
0.551928
1.38876
-0.980457
-0.928961
-0.128497
-1.7064
-0.972962
1.31735
0.0458896
-1.05528
0.912893
-1.44395
1.07142
-0.10542
-0.798388
1.18074
-1.26366
0.670152
1.43221
1.27696
0.240639
0.66213
-1.62091
-0.903583
0.943334
-1.06698
-0.670417
-0.981829
0.857044
-0.217426
-1.00232
0.715862
0.952219
0.995831
-0.727068
-0.78982
0.627772
-0.778502
-0.758447
0.590922
1.0869
1.22094
1.07661
0.538714
1.35825
0.48152
0.385617
0.429259
-0.982799
-1.32095
1.04278
1.01965
-0.00573585
0.0087717
-0.88601
-0.922721
-0.221513
-0.255248
0.419417
1.02293
1.08982
1.14436
0.486271
-0.316464
-0.773913
1.04319
-1.58975
0.917384
-0.919167
1.07499
-0.735267
0.605185
0.589534
-0.811395
-0.808319
1.20142
-0.571483
-1.01626
-0.991487
1.31975
-1.5958
1.01255
-0.978709
-1.66528
0.152756
1.23963
1.13577
-0.726529
-1.10459
-1.10907
0.0803259
1.08942
-0.972255
-0.758941
-0.970895
-1.50433
1.01036
-1.30055
0.533968
-0.152489
1.37481
0.885138
0.981637
0.978984
1.25333
1.06372
0.922091
1.16747
0.384044
-0.876848
-0.709248
0.164018
0.189744
-1.20016
-0.788806
1.104
1.18142
-0.937891
-0.904474
-2.05732
0.376549
0.672027
0.817333
0.922879
1.15498
-1.6158
0.91403
-0.991988
-0.884442
-0.91273
1.0641
0.787331
1.22085
1.23577
1.17975
1.15776
-1.01092
0.846891
1.17837
-1.03257
1.0508
0.834555
-2.08579
-0.964409
-0.935342
1.2225
1.08874
-1.0369
-1.2952
-0.665741
0.98212
-1.54653
0.808305
1.13636
0.905948
-0.988896
-0.731794
1.03508
0.676529
-0.742311
-0.564736
1.41365
-0.760888
-1.01092
0.885319
1.22449
1.05007
-0.83125
-1.10127
-0.91499
0.973416
-1.04543
0.557552
1.03464
1.05917
-0.21273
-0.579221
1.02742
-1.04045
0.963101
1.23501
1.08408
1.08124
-0.904143
-0.864026
-1.03875
-1.11619
-1.94672
-1.65736
0.385219
-0.582551
0.667539
1.20971
1.27847
0.978138
-0.76525
1.20882
-1.16093
-0.232699
-1.18881
-0.980435
-1.02926
0.359254
-0.759187
-0.747869
0.232115
0.988354
-0.375374
0.444983
-0.808117
-0.101627
-1.0021
-0.797842
1.28094
0.0548186
-0.0528553
-0.72412
0.810119
0.60552
-0.435088
0.546816
-0.991684
-1.06403
0.720132
1.08632
1.1427
-1.4411
1.21381
0.914625
0.437541
1.28839
1.06333
0.991393
0.374534
-0.385216
-0.988494
0.931149
-0.82068
-0.941731
-1.21335
-0.83668
-0.97665
1.44005
-0.716908
-0.732768
-1.039
1.06272
-0.75212
-2.00856
-0.857667
0.780474
-0.169396
-1.44254
1.32247
1.38408
1.16426
-1.0078
-0.0905824
1.45603
1.06692
-1.03298
0.510471
-0.998426
0.174505
1.2466
1.04995
0.916616
1.35522
-0.547461
-0.502983
-0.33795
-0.934422
-1.47695
-0.712654
-0.216386
1.3853
-1.29041
-1.30185
1.05414
0.597667
-0.972589
-1.68657
-0.991949
-1.0597
-1.30087
-0.97414
-0.719293
-0.75169
1.24571
-0.521419
-0.899993
1.07643
-1.29378
1.30758
-1.51236
-1.90529
-0.867383
1.05975
-0.918107
1.08719
0.872914
-1.19495
1.08765
-1.11063
-0.975714
-1.11704
1.04554
0.99633
-0.999047
-1.00147
-1.20851
1.04939
-1.46284
-1.82007
0.572861
1.01116
0.929627
0.745902
-1.01611
-1.05805
0.886064
-1.05763
0.850435
-1.89488
1.08233
0.0272858
1.1729
-0.973571
0.8778
0.757255
1.09439
-1.13021
1.06091
-0.83024
-0.974685
1.06287
-1.84358
0.181613
-0.868555
-0.140495
1.06941
0.0887978
0.298107
1.0687
0.305645
-0.176136
-0.109349
-0.733151
0.237723
-1.06173
0.762511
-0.613566
1.14139
1.17294
-1.02265
-0.979668
-0.500068
-0.7181
0.483065
-1.00728
0.899101
-0.0709604
-1.0164
1.16695
-0.428051
0.43714
0.302155
-0.229271
0.861396
0.409737
-1.02822
-1.66359
-0.202517
-0.648796
1.07931
-1.8795
1.15909
1.27365
1.2609
0.713235
1.24011
-0.755971
-0.651134
0.946905
0.222118
1.0543
-0.714655
-1.00685
-1.72229
0.826497
-0.974945
-2.03566
-0.739474
-0.777184
0.0154764
-1.13922
0.797619
0.762129
-0.711346
-0.93257
0.772011
0.0756527
1.2091
-1.89393
-0.111897
-0.976334
0.824376
-0.122973
1.2141
1.47107
-1.74817
-0.769472
-0.872565
0.340235
-1.68638
1.0728
-0.96715
1.02683
0.816249
-0.990081
0.932815
0.894043
-1.89681
0.924887
-1.13373
-0.736359
-1.4016
-0.937482
-1.11247
-1.47926
-0.859302
1.06273
0.277915
-0.788496
0.606365
1.20912
1.25898
-0.370601
0.78784
-0.362122
0.799631
-0.170903
-1.56693
-0.740234
0.559781
0.876967
1.13114
-1.79707
-1.03038
-1.42805
-0.981825
-0.117666
0.754338
-1.98478
0.035126
-1.23451
1.01
-1.26495
1.01798
-0.845503
-0.690829
1.0038
0.690968
-1.5989
-0.11066
1.02889
1.34265
1.08493
-1.04714
-1.25742
0.830116
-0.711138
0.817548
-0.574323
0.508438
1.02615
-1.0086
-0.73238
1.08914
-1.17659
1.31557
-0.166875
0.90404
0.216288
0.648391
-0.807823
1.29287
-0.735901
-1.61876
1.03093
0.584932
0.552999
-1.18631
-0.728455
-1.02711
0.834543
-0.158217
-0.999774
-1.18268
1.07961
0.451702
-1.10644
0.805874
0.961115
1.04831
-1.92786
-0.65685
-0.734135
1.07639
1.24943
0.50401
1.07244
0.0579672
1.09964
0.202809
-0.904289
-0.530741
0.976574
1.02454
-1.59839
0.919413
-0.738427
0.86978
-0.855189
1.07184
0.993015
1.08044
-1.86666
0.9917
-1.50161
-0.810258
1.22543
-1.84646
-1.6909
1.1864
-1.2882
1.17892
-1.76142
-0.742926
1.11633
0.807539
1.41389
1.06154
-1.49911
1.1222
1.15588
-0.86255
0.703489
0.0511838
-0.890664
1.55754
-0.990398
1.20769
-0.763564
0.313163
1.06197
-1.27101
1.05419
-1.64518
0.994596
1.00458
1.07479
0.0381027
-0.979982
-0.622163
0.612629
0.705022
1.11387
-0.23234
0.897346
-1.9819
-0.388754
-1.53458
0.865288
1.18854
-0.892035
-1.05306
-0.0970957
1.30467
-0.119853
0.802928
-0.106582
-1.87633
-1.0092
-0.739871
-1.00547
0.864644
-1.81045
-0.155336
-0.244687
-0.592126
-0.756375
-1.19346
-0.300471
1.03454
1.0825
-1.20457
-0.479126
1.04801
0.989316
1.08112
-1.78633
1.0466
1.10621
1.0561
1.09756
-1.52454
-0.178978
-0.733072
0.686899
1.06293
0.729931
0.158884
-0.171797
-1.9081
0.0779328
1.30886
-0.181622
0.276048
-0.714784
-0.138097
-1.01394
0.854396
-0.935376
-1.33558
-0.969391
1.06529
1.0635
1.0753
-0.0376711
0.40686
1.28307
-0.206044
1.05819
-0.18844
-0.0774243
0.830846
1.08215
1.16649
-0.0191609
1.04189
1.04011
-1.29798
-0.157752
1.07583
1.08773
1.08409
-0.977912
-1.01897
1.08329
0.63121
1.06483
0.283013
-0.0444982
0.140761
-1.79655
-0.445674
-0.747271
-1.63149
-0.373248
1.08962
1.09445
0.816488
-0.987093
1.0653
-0.218212
-0.251716
-0.0198676
1.06089
1.08765
1.08434
1.09818
1.07563
1.06933
1.05986
-0.0959707
-0.204291
-0.126462
-0.217611
-0.0135488
0.0119396
-0.00122977
-0.123003
-0.191055
-0.201013
-0.135093
1.05524
1.07629
1.07078
1.09359
1.09236
1.08417
1.08776
1.0657
1.07368
-0.17358
-0.244767
1.08529
1.08358
-0.019134
1.08569
1.08486
-0.0765879
0.156745
-0.210517
-0.736883
-1.68059
1.06757
-1.07205
1.06343
0.662365
1.11982
-0.988203
1.06397
1.00985
1.00512
-0.730811
-0.176318
-1.10112
-0.190497
0.0320018
-0.727046
1.08119
0.0969742
1.15545
1.0716
-0.0950082
1.25713
1.40712
-0.156271
0.943348
0.689071
1.06415
1.08275
1.07332
-0.98851
0.555118
-0.0180934
1.07005
1.07863
-1.06055
0.11942
1.0721
-0.0894321
-0.258106
1.07083
-1.12957
1.0532
1.08406
-1.03934
1.07576
0.204243
1.06651
1.15089
-2.00639
1.08083
1.08883
0.0294692
0.756405
1.06727
1.07371
0.230959
-0.64413
0.741623
1.40479
1.08034
1.06958
1.07471
0.200225
1.06985
1.05383
1.07687
1.07028
1.07327
1.06898
1.17894
-0.679695
-2.1587
1.07151
1.06603
0.354382
-1.10743
-0.730307
-0.777874
0.944247
-1.5475
-0.595389
0.0241313
1.06771
0.758166
0.0546965
0.0804268
-0.113225
-0.556992
-0.772186
0.163202
-0.650084
-1.31264
-0.247389
1.07463
0.0994693
1.06178
0.990384
-0.974304
1.32866
-0.447431
-1.01059
0.798356
1.21701
0.530906
-0.973365
1.06719
0.159565
1.07299
-1.07771
1.07339
-1.26842
1.0651
0.0747172
-0.806341
1.0754
1.09013
1.02019
0.179131
-0.971605
-0.65583
0.27489
1.08664
0.974453
0.20992
1.06656
1.10851
1.06007
0.343204
-1.83194
-0.686081
-1.88062
0.337525
1.07337
-0.117272
1.0684
-1.80693
1.0672
1.10573
1.07656
-0.0385018
-0.0507723
1.1024
-1.06611
1.07864
1.08246
0.0145446
-1.01512
1.02617
1.22053
1.06232
1.06135
0.382659
0.203182
1.03466
0.428245
1.07742
0.876703
-0.802423
-1.00683
0.921029
1.30588
1.06797
0.35842
-0.630367
0.434675
-2.04623
-0.495253
1.04882
-1.26682
1.0548
-1.34287
-0.981437
-0.765481
0.52877
-1.06174
-0.422808
-0.252167
1.0635
-0.971113
0.997547
-0.994598
-0.171729
0.142424
0.0376902
-0.328506
1.04138
0.247071
-0.812983
-0.118517
-1.02866
1.05339
-0.478163
0.0448822
-1.92495
1.16587
-0.319849
-0.991939
1.13642
1.05132
1.04047
0.50925
-0.929226
1.07308
1.10104
-1.32384
-0.747782
1.06299
0.825391
1.3359
1.08487
-1.24802
-0.702248
-0.766329
-1.27602
-0.924222
-0.974431
-0.0122752
-1.11965
0.83022
-0.0168786
1.07289
1.28862
1.06434
-0.976298
-1.1037
1.06604
-1.1478
-0.398318
1.04192
-0.325674
-0.724706
-1.82982
0.0756157
1.0216
0.9952
-1.09546
0.882962
0.765935
-1.57532
1.04752
-1.52766
0.889366
-0.668629
1.0325
-1.72998
0.444614
1.06636
1.18227
-2.01854
-1.63648
0.907173
1.4428
1.08749
1.10744
-0.942439
1.29418
-0.905436
-0.193767
-0.840382
0.489272
-2.10432
1.17954
1.20871
-0.999599
-1.34665
1.06457
-0.889117
0.891749
1.09659
1.04022
-1.8928
1.06769
-0.0338375
1.09376
-0.0526157
-0.107309
-0.0412279
1.07091
-0.224258
-0.379251
-0.298613
1.05796
-0.173133
1.27729
0.274853
1.40976
1.07718
-0.875586
1.04429
-0.740858
1.0452
1.04345
-0.0714272
-0.363049
1.21371
1.05771
1.31246
1.02686
0.0941807
1.03168
1.05139
0.94812
1.07531
-1.00905
-0.874144
-1.17839
1.15721
-1.52754
-0.449758
-0.737988
-1.58065
-0.127546
-0.110803
0.960225
0.0809269
1.015
1.06761
-0.752205
-1.22796
-0.966414
-1.39118
-0.946927
-0.740712
1.07355
-2.12484
1.08468
1.28851
1.12303
-0.116153
1.09111
1.00625
-1.50141
1.01807
1.05244
-0.825333
1.05164
1.03488
-0.155231
-1.13776
1.52477
-1.98705
-1.21254
-1.08514
0.248615
1.04316
-1.21516
-0.722359
-0.725996
1.21023
-0.652761
0.948761
1.08541
1.04705
-1.35697
1.02705
-2.23407
1.08101
1.09596
-0.346833
1.08511
0.60324
1.05185
0.745102
-1.89025
0.0137569
0.011208
0.0709874
1.32281
-0.191085
1.10199
1.47438
-0.627432
-0.0371876
1.13126
-0.0560805
1.12879
-0.0353341
-0.0533255
1.13074
1.13528
0.442765
-1.4417
0.860214
-0.6383
-0.818952
-0.572052
1.09211
1.05707
1.48194
-0.973966
-0.788382
0.770211
-1.108
1.15088
1.07824
1.04865
1.06054
1.01847
-1.97598
-0.973037
-1.31222
0.900514
0.998736
-2.14159
-0.74407
-0.997382
1.0817
1.09566
-1.2571
-1.66161
1.10561
-1.26243
0.304835
0.873048
1.01961
-0.222976
-1.13683
-0.146998
-0.984805
-0.674954
-2.07771
-1.71193
1.42854
1.45434
-0.711245
-0.928509
1.08236
1.05863
-0.91273
-0.0612655
-0.360637
0.754399
1.16879
-1.44035
1.07633
-1.32383
-1.12236
-0.943383
-1.15295
-0.813291
1.04347
-0.969823
-1.56829
1.4459
-0.990798
1.07698
1.31448
-0.743371
1.08826
1.30342
-0.755688
1.33696
-1.00698
-1.14306
1.10793
0.130873
1.05697
1.07822
-1.01382
1.12003
0.158599
-1.94654
1.11334
1.07562
-0.914109
-1.39905
1.02518
1.06921
-1.01002
-1.91877
1.37611
-1.01563
0.989887
0.00767022
0.998567
-0.941557
-1.94577
-0.998696
-0.746913
1.18962
1.09391
1.34255
1.30117
1.07669
1.13221
1.16097
-0.993929
1.22951
1.19227
-0.759539
-1.01719
-0.880689
1.41597
-1.79133
-1.11439
0.133906
1.0373
-0.763308
-0.685246
1.11901
1.06429
-1.00364
-0.750143
-1.08359
0.0947586
-1.94243
-0.759468
-0.988878
0.991561
0.93206
-0.743036
-0.345416
-0.882848
0.944078
-1.01497
-0.733795
-0.98501
0.986237
-1.66442
-0.752866
1.38423
0.9543
0.41822
1.24784
0.159946
1.02293
1.08426
1.18421
1.26097
-0.220755
0.789517
1.10622
0.282002
-0.980752
1.50066
1.02104
0.960757
1.122
-0.75693
-1.94318
0.904929
0.897511
1.02688
-2.03316
-1.88046
1.05394
-0.981149
0.871092
-0.00879009
1.50411
-0.978037
0.842307
0.771814
-0.736998
-0.975987
-1.28886
1.11023
-0.739187
-0.971481
0.733022
0.728512
-1.25015
1.14195
0.883476
-0.740962
-0.638553
1.03607
-2.15503
-0.974252
-1.06871
-0.729787
-0.97514
1.06201
1.07349
-1.94261
0.649074
1.07407
1.42357
0.297976
0.411973
0.145422
0.926374
-0.452857
-0.735246
-1.59125
-0.476026
-0.733158
1.0675
-0.733147
0.305761
-0.972942
0.662696
0.598127
-0.730312
0.66932
-2.03511
0.523157
-0.727525
0.590185
-0.737039
0.413796
-0.971763
0.509077
-0.724866
0.856602
-1.70373
-0.725312
-0.731848
-0.963219
1.0855
0.104332
-0.760102
-0.980199
0.177318
0.218113
-0.72897
-0.97032
-0.802185
-0.109098
-0.995792
0.0200186
-1.02791
-0.178591
-0.878107
-0.283076
0.972582
-0.286621
-1.88394
1.05965
0.0116754
-0.176587
0.481398
1.03457
-1.58761
-1.91814
-0.9746
-1.47575
0.943945
1.50156
-0.932599
-0.188881
0.0327705
-0.974263
-0.300418
-0.365699
1.05302
-0.749766
1.01551
-1.44215
1.56971
0.485282
1.47943
-0.747828
1.2423
-0.42206
1.06117
-1.04355
-0.970995
1.12246
1.06075
-1.88725
-0.972981
-0.730704
1.06004
-0.771815
1.05707
-1.12794
-1.04008
-0.999307
1.38182
1.12013
1.16093
1.09723
1.08408
-0.0791944
-0.606613
1.3002
-2.1664
-0.921155
1.50297
-0.745429
0.991219
1.00652
1.44258
1.49178
-0.75668
-1.48424
1.10314
0.247231
-0.458547
-0.684846
-0.94773
-1.98305
-0.746739
0.589515
-1.3214
1.25359
-1.30665
1.1411
1.21859
1.12245
-1.37255
-0.950653
-1.06073
1.15643
-0.940934
1.26922
-0.593211
-1.00903
1.33149
1.36131
-0.965907
0.21452
1.00969
-1.23478
-1.01002
0.701489
1.36626
1.28331
-0.947548
0.961839
0.945187
-0.969193
1.29444
0.403276
-0.74511
-1.09446
-0.180386
-0.160356
1.20917
-0.840141
0.382448
0.0230309
-0.0204655
-0.741841
-0.954416
1.06685
-1.77147
1.10636
0.0237301
0.0986249
0.731488
0.274104
-0.958003
-0.481458
-1.1932
-0.15697
0.0358033
-1.29658
1.03295
-1.89941
-1.8926
1.09792
-1.15835
-0.760287
1.08228
-0.992124
1.06827
-0.0815077
-0.98504
-0.345597
0.833293
-0.821153
-1.65964
0.935412
-1.02175
1.13753
-0.58237
-0.994222
-0.952589
-0.972283
1.54938
-1.90794
1.17966
0.0768237
1.024
1.26419
0.761967
1.08365
1.25441
-0.0649342
-1.902
1.03331
1.14491
1.42126
-0.981246
1.12563
0.776271
-1.00219
0.825572
1.26036
-0.45357
1.43533
0.256268
-0.698104
0.871781
-1.01124
-0.729114
1.00501
-0.346167
1.12387
1.10038
1.04401
-0.724015
0.999259
1.35611
-0.991098
-0.231318
-1.93204
-1.05584
-0.994928
-0.973092
1.40794
0.782202
-0.753336
0.948727
-1.01622
-0.885686
1.32405
1.3199
-1.74907
-1.41717
-0.9719
-1.00722
1.03333
-0.75888
0.0841123
-0.701805
-0.369432
1.13232
-1.01533
1.47963
1.12279
0.926717
1.10312
1.39592
-1.07371
-1.01998
1.07196
1.19699
-0.692635
1.07215
-1.89532
-0.997323
-1.00372
1.17997
1.20932
-1.00255
-0.7743
0.581354
-0.0768566
-1.17366
1.05828
1.05928
-1.38252
1.09869
1.14066
-1.2998
-0.761883
-0.741023
-0.992647
-1.0053
1.36805
-0.442223
1.01355
-0.765168
1.36327
0.957935
0.965884
1.03668
-2.04556
-1.09441
-0.987906
0.632531
-0.752978
0.957228
0.309685
-0.50949
0.95658
1.04609
1.10946
1.08532
-0.0515771
1.10844
-0.0592724
0.440901
0.888979
-0.466374
-0.759612
-0.818921
-0.57409
1.08057
1.00754
1.0805
-1.72702
-0.815263
-0.983849
-0.667315
1.07971
1.3771
1.09296
-0.756288
-0.781092
-1.16978
-0.431295
-0.972918
-0.972908
-0.101275
1.07127
-0.667388
-0.742818
-0.00503784
-0.0925636
0.820229
-1.75271
-0.980721
-1.12192
1.02808
1.50045
0.0605184
1.16673
1.56348
0.760618
1.29043
-0.763346
-0.00519587
1.45376
-0.977522
0.331059
-0.750154
-1.00944
-0.726687
-0.738259
1.03342
0.761706
1.28546
1.24783
0.00585986
0.810472
0.143663
-0.0151206
-0.974873
1.17762
0.821879
1.08791
1.10412
-0.119683
-0.123529
1.09957
-1.22903
-0.976516
-0.740432
-0.735859
0.623041
-0.73628
1.02467
0.696274
-0.976127
1.28245
-0.750501
-0.217473
1.04962
-0.78077
-0.951168
-2.00813
0.697701
-0.74543
-1.05621
1.00925
1.09573
-0.1193
0.0389032
-2.1682
-0.973246
-0.577351
-1.36957
-0.209089
0.626
-1.07985
-0.73417
1.35442
0.363896
0.463431
-0.732067
-1.01424
1.07038
1.08766
0.628348
0.558871
-0.728925
-0.962236
-0.780514
0.552916
0.464423
-0.725608
0.920993
0.249089
-0.72173
1.53022
-0.725106
-1.75753
-1.00517
-0.679555
0.876481
-0.741401
-0.751091
-0.98542
0.0141927
-0.777757
0.107981
-0.711468
-0.169888
1.26623
-0.833428
-0.173501
-1.01215
-0.0664122
1.43008
1.45389
1.32163
1.0764
1.29874
-0.58828
1.06379
-0.75446
1.08552
-0.976004
-0.957552
1.31484
-1.13834
0.504333
-1.52401
1.46229
0.0349874
1.39669
0.695865
0.85872
-0.747359
-0.747287
-0.971302
-0.942972
1.3792
1.28131
1.06388
0.663467
1.0649
0.901997
0.906588
-0.727332
-1.00223
0.355529
0.0942731
0.881767
1.08042
-0.025324
-0.74247
-0.723
-1.42793
-0.97199
-1.70898
1.39826
1.09874
1.07529
-0.095093
-0.091403
1.09633
-0.978202
-0.973844
-2.2043
-0.993388
0.870443
-0.740413
-0.730268
-0.319652
1.08172
-1.73776
-1.00405
1.06481
0.634624
0.760502
1.06516
-0.972457
0.956918
1.24355
0.871692
-0.970755
1.05746
0.372349
0.552058
-0.940046
-0.737411
1.52277
0.257729
-1.06606
0.0209034
0.993124
1.05022
-0.94753
-1.36857
-0.14031
-0.701139
-0.916542
-0.755971
-0.0563978
1.0604
-0.939342
1.06576
1.33517
1.13562
1.07026
1.17191
1.23195
1.06837
-1.34475
-0.673187
-0.305117
-1.05361
-0.91293
-0.729636
1.23047
1.13727
-1.01116
1.01649
-0.709616
-0.013859
-0.727287
-0.398949
0.565122
-1.25037
1.05858
0.992102
-1.23642
-0.406299
1.40735
-1.63254
-0.856245
-1.10165
-0.762383
-0.698987
1.10601
0.858253
1.14451
-1.16782
-0.851399
-0.954162
-0.263034
-1.01063
-1.49711
-1.19166
-2.0281
0.996627
-0.76588
1.51238
-0.963931
-0.601127
-1.01191
-0.729084
0.980167
-1.03659
-1.11835
-0.949956
-0.383361
1.28132
1.27457
-2.19453
-1.1546
0.907556
-0.994645
-0.899309
1.15696
-1.20912
-1.88419
-0.947458
0.835519
-0.458316
-1.00839
1.06122
0.0982576
-0.807659
1.07568
-0.750191
-1.3774
-1.0017
-0.796365
-0.101724
-1.0068
1.40125
-0.977607
0.161869
-0.977314
0.876685
-0.594581
-0.880402
0.735587
0.79969
1.1216
1.02041
1.25966
-0.739794
0.892719
0.579704
-1.08337
1.01187
-0.272356
-0.6033
-1.90641
1.23185
1.21863
-0.681404
-0.830836
-1.14135
1.09926
-0.771617
0.13427
-1.27865
-0.73587
1.36564
1.09785
-0.747284
-0.728785
-0.747798
-0.743281
0.977164
-0.768566
1.06423
0.32355
0.794062
0.919627
-0.711652
-0.84464
1.02496
-0.731994
-0.0415656
1.34755
-0.984783
-0.741401
0.904763
-1.07352
-0.741599
-0.219504
-0.964339
1.41957
-0.655168
0.135674
-0.748822
1.35685
-0.749835
-0.725702
0.730895
-1.21504
-0.975518
1.39763
0.760227
1.04736
-0.748742
1.31762
-0.278253
-0.864363
-0.754741
-0.758855
-0.753114
1.34966
0.664457
-1.0018
-0.751767
-0.999935
1.20772
-0.684533
1.33209
-0.9756
0.797519
-0.739416
0.464398
0.628222
0.594536
0.515152
0.192966
-0.706096
1.09284
-0.756211
-0.577586
-1.13456
0.287187
1.3745
-0.347319
-0.748923
-0.765654
-0.741329
0.360637
-0.962301
-0.738372
0.876995
0.191562
-0.743351
1.44238
-1.00424
-1.49596
1.42266
-0.741796
0.249436
-0.709637
-0.727878
-0.73716
1.41613
-0.720684
1.33646
-0.735908
-0.810641
1.25519
-0.27019
-0.729368
0.654744
-0.966842
0.119166
-0.450742
-0.7387
0.846656
-1.06017
-0.737954
-0.729506
-0.72885
-0.983895
0.886131
-0.0484859
-0.524639
-0.745403
1.36606
-0.892934
-0.736356
-0.716674
-0.175059
-0.851717
-0.714396
-0.744794
-0.129968
1.33227
-0.754159
-0.973922
-1.07488
-0.778905
-0.127484
-0.989645
1.45513
1.38916
0.506549
-0.896603
-0.980685
0.423578
-0.981968
1.46949
0.30618
1.1155
0.786057
1.33754
0.191382
-0.8631
-0.948775
0.0427373
-0.756203
0.0431389
-0.118484
-0.73619
1.36306
-0.34352
0.317004
-0.487153
-0.976622
-0.920001
)
;

boundaryField
{
    frontback
    {
        type            empty;
    }
    Top
    {
        type            zeroGradient;
    }
    outlet
    {
        type            fixedValue;
        value           uniform 0;
    }
    bottom
    {
        type            zeroGradient;
    }
    Inlet
    {
        type            zeroGradient;
    }
    rectangle
    {
        type            zeroGradient;
    }
}


// ************************************************************************* //
