/*--------------------------------*- C++ -*----------------------------------*\
| =========                 |                                                 |
| \\      /  F ield         | OpenFOAM: The Open Source CFD Toolbox           |
|  \\    /   O peration     | Version:  2306                                  |
|   \\  /    A nd           | Website:  www.openfoam.com                      |
|    \\/     M anipulation  |                                                 |
\*---------------------------------------------------------------------------*/
FoamFile
{
    version     2.0;
    format      ascii;
    arch        "LSB;label=32;scalar=64";
    class       surfaceScalarField;
    location    "17";
    object      phi;
}
// * * * * * * * * * * * * * * * * * * * * * * * * * * * * * * * * * * * * * //

dimensions      [0 3 -1 0 0 0 0];

oriented        oriented;

internalField   nonuniform List<scalar> 
3181
(
-1.05815
0.418338
0.639815
-0.391971
0.368957
0.0230134
0.527171
-0.361974
-0.165197
0.124584
-0.205143
0.0805582
-0.0679907
0.0814307
-0.01344
0.837802
0.617264
-1.45507
0.150526
-0.144082
-0.00644404
0.0691073
0.00220537
-0.0713127
0.59059
-0.765309
0.174719
-0.0753247
0.1399
-0.0645754
-0.0102124
-0.0503303
0.0605427
0.126292
0.0479846
-0.174277
-0.00486846
-0.0584934
0.0633618
-1.09504
0.150423
0.944616
-0.329715
0.703068
-0.373353
-1.12137
0.637977
0.483394
0.0843184
-0.933511
0.849193
-0.352955
0.290764
0.0621905
-0.776688
-0.490228
0.0045307
0.0456636
-0.0501943
0.0339786
-0.0843608
0.0503822
-0.072425
0.0619751
0.0104499
1.06205
-1.03677
-0.0252769
0.0206908
0.0349996
-0.0556903
-0.956783
0.324756
0.632027
-0.108861
0.233446
0.309329
-0.242497
-0.0668321
0.030323
0.0632702
-0.0935931
-0.405628
0.334869
0.0707587
-0.0329943
-0.0139099
0.0139206
-1.06538e-05
-0.0367526
-0.92003
0.0638568
-0.0562931
-0.00756368
0.139796
1.47931
-1.6191
-0.0475194
0.0503605
-0.00284111
0.175885
0.273347
-0.449232
1.60978
-1.46998
0.0707714
-0.0367928
1.53311
-0.795273
-0.737839
-0.22234
1.06014
-0.114117
0.109249
-0.072931
0.000505992
-0.412091
0.0823765
-0.140142
0.0672109
-0.629562
0.127826
0.501736
-0.151395
0.0760708
-0.170142
0.174467
-0.0043249
-0.27448
-0.0765508
0.351031
0.113675
1.40535
-1.51903
0.0724649
0.168881
-0.241346
-0.00937921
-0.0983969
0.104393
-0.00599562
0.518131
0.184937
-0.0960643
0.138392
-0.0423276
0.0944783
-0.0306215
-0.1739
0.20089
-0.0269893
0.164753
0.0568531
-0.221606
0.111054
-0.117042
0.00598787
1.26336
0.269752
-0.865972
-0.192181
0.0825153
-1.71175
1.62924
0.546716
0.230839
-0.777555
-0.439223
-0.204201
0.643424
-0.760335
0.537995
-0.271372
0.818088
-0.328005
-0.102132
0.430137
-0.203729
-0.201899
-0.192517
0.165762
0.0267546
0.127604
0.286246
-0.41385
-0.171386
0.761977
-0.0154091
0.0845164
-2.02075
2.10327
0.191182
0.118147
-0.182177
-0.111194
0.293371
-0.269419
0.351665
-0.0822464
-0.0831528
0.0912014
-0.00804859
-1.90708
-0.918525
0.0089158
0.90961
-0.0567045
0.00918517
-1.05109
0.793259
0.257827
0.537985
-0.294842
-0.243143
-0.834213
0.0738789
1.10626
-0.955841
-0.710594
1.14407
-0.199451
1.06951
0.16489
-0.174923
0.0100333
1.40576
-0.788496
0.623336
-0.623336
-0.00813161
-0.000218131
0.00834975
-0.216391
-0.0525406
0.268931
0.0942572
-0.0669046
-0.0273526
-0.45105
0.838206
-0.387156
-0.0156546
-0.24048
0.256134
-1.0807
0.0439305
0.343687
0.0538976
-0.397584
0.1352
-0.849458
1.0803
0.0804684
0.0766981
-0.157166
-0.0170547
-0.156846
-0.394178
0.0682904
0.325887
-0.208472
-0.185706
0.119868
-0.969325
0.331939
-0.782989
0.921259
-0.83694
-0.00589783
0.181862
-0.175965
0.0815902
0.0513922
-0.132982
-1.39804
-0.0978051
1.49585
-0.249544
0.413576
-0.164032
-1.28158
0.600219
0.681357
-0.467883
-0.583202
0.158823
-0.0863583
-0.15447
0.148846
0.00562427
-0.0772374
-0.0125072
0.0897446
-0.541058
-0.224251
-0.112431
0.0452132
0.0672183
-1.10706
-0.206967
1.31402
1.80769
-0.402339
-0.0121272
0.00399557
0.0411873
0.149994
-0.198225
0.374109
0.0285773
0.23766
-0.266237
0.136819
0.0672086
-0.204028
0.318432
0.0354083
-0.353841
-0.595246
-0.526125
-1.13788
0.0308253
-0.0520438
0.132512
-0.10839
0.186704
-0.0783139
-0.0345226
0.0253139
0.125212
-0.0577214
0.0725054
-0.0147839
-0.0976401
-0.0224993
0.120139
0.0753279
-0.0753279
-0.186753
0.212067
0.329513
0.197459
0.106938
0.0939521
-1.27059
1.09921
-1.57231
0.119956
1.45235
0.0310206
-0.0260951
-0.00492558
-0.0261266
-0.0505076
0.0766341
0.542104
-0.0226702
-0.519434
-0.0384139
0.0396853
-0.00127133
-0.202674
0.0159208
0.157836
0.68037
-0.372874
0.530711
-0.163147
-1.2349
-0.0974751
0.0294844
0.490698
-0.309416
-0.181282
0.117636
-0.0997971
-0.0178386
0.0479116
-0.322392
0.0234853
-0.942011
0.0497256
-0.158115
-0.291038
-0.404556
0.0688255
1.38157
-0.929553
-0.452016
1.0864
0.295168
0.0666882
0.284343
0.0315423
-0.000521624
-0.120346
0.162227
-0.0418807
-0.25554
-0.584203
0.839744
-0.360738
0.629071
0.833156
-1.32338
0.146983
0.0294564
-0.053076
0.0236196
-1.60189
0.445436
1.15645
-0.298686
-1.3032
-0.301253
0.644939
-0.910026
-0.0184391
0.00561351
-0.264439
0.258825
1.46201
-1.57536
0.113355
-0.105772
0.00829676
0.569898
-0.825438
0.176883
-0.417736
0.240852
-0.291984
-0.116891
0.408875
0.176439
-1.0056
-0.0751039
-0.00686425
-0.0433301
-0.55037
0.346169
-0.243317
0.018027
0.22529
-0.0332652
-0.0725067
0.0396372
-0.0396372
-0.117819
0.129164
-0.0113453
-0.305139
-1.26717
0.0875836
0.026212
-0.113796
-0.149615
0.018744
0.130871
-0.219414
0.0268971
1.56967
-0.476668
-1.093
-0.194509
0.451199
-0.25669
0.0086663
-0.00815203
-0.00051427
-0.782657
-0.498919
-0.182446
-0.00482913
0.187275
-0.176935
0.304539
-0.10014
0.0984839
0.00165633
0.0747767
0.00948731
-0.084264
-0.125166
0.154366
-0.0291994
-0.626774
1.12358
-0.496803
-0.220759
-0.0514052
0.272164
-0.697073
0.661536
0.0355369
-0.00332513
0.0383247
0.0280233
-0.0280121
-1.11506e-05
-0.0014912
-0.0541992
0.91753
0.89016
0.174508
-0.885757
0.711249
0.00913065
2.06221
-2.07134
0.388566
0.438925
0.184411
0.0611545
0.201627
-0.0648077
-0.0702492
-0.0281477
0.240831
0.155315
-0.0737252
0.734883
-0.410127
0.0607034
0.208228
0.0473158
-0.162512
0.115196
-0.784964
-0.139922
0.924886
-0.0434521
0.0434521
-0.0621909
-0.26244
0.535787
0.0130564
-0.233816
0.156816
0.133948
0.0344597
-0.0865035
0.134089
-0.144301
-0.345696
0.330041
0.0378301
0.0607664
-0.0985965
0.385567
-0.337582
0.760278
-0.422544
-0.337734
-0.208547
0.275235
0.18645
-0.495866
-0.200494
0.618832
0.167641
-0.0342531
0.0342531
-0.260405
0.486001
-0.225596
0.388529
0.0250471
-0.0302975
0.0358682
-0.00557077
-0.164648
-0.069819
-0.0426125
-0.0487338
0.182823
-0.17838
0.238454
-0.0600739
0.127534
0.0277816
-0.39395
0.151454
0.188724
-0.0611901
-0.0452276
-0.0549126
-0.0701792
0.0663737
0.00380552
0.14942
-0.105898
-0.0435223
-0.0118305
0.391329
-0.379498
-0.116421
0.101012
0.102888
-0.107136
0.00424825
0.0232472
0.462623
0.297655
-0.088078
-0.0152883
0.103366
-0.0828378
-0.013955
0.0967928
-0.0900372
0.0989984
-0.720355
0.621356
-0.0265335
-1.52056
-0.456387
1.97694
0.666614
1.07453
-1.74114
0.0840645
-0.300876
0.336284
0.275239
0.247385
-0.522623
-0.205881
0.253197
0.141942
-0.891689
0.749748
0.0211337
-0.103971
-0.0146984
0.00783418
-0.990681
0.446731
0.54395
0.929553
-0.809686
-1.7016
1.60379
-1.46201
1.58197
0.0404159
-0.0827435
0.00937099
0.0186523
0.0143372
0.802089
-0.660147
0.124668
-0.0749426
0.409993
0.734074
-0.127682
-1.78259
1.79172
-0.672978
-0.597615
-0.239625
-0.389937
-0.00717224
-0.167605
0.215517
-0.580689
-0.377472
0.182963
0.778367
-0.236264
-0.902775
-0.798822
0.744406
0.149593
-0.128459
0.287167
0.0389732
-0.0389732
0.671505
0.147832
-0.819337
-0.22455
0.896055
0.402531
-1.18621
0.783675
0.240899
-0.0434406
0.0071141
0.00596153
-0.0130756
-1.71175
-1.13977
0.737429
1.0677
0.501963
-0.034792
-0.13535
-0.241866
0.759997
-0.195457
-0.0478596
-0.00317203
-0.0799808
-0.0523127
0.103705
0.374397
-0.246571
-0.836125
-0.281249
-0.114439
-0.0439394
0.158378
-0.589047
1.02797
-0.145344
0.145122
0.000221079
0.0318628
-0.000320527
-0.123546
0.0718176
0.0517284
0.00859714
0.42154
0.0871115
0.0305242
0.0142141
0.00510808
-0.0193222
-0.0156184
-0.166828
-0.720949
0.369588
0.351361
0.610271
-1.6096
0.999329
0.136336
-0.157054
0.0207177
-0.0105091
0.169332
0.184184
-0.80752
-0.114568
-0.0089784
-0.123183
0.0368251
0.141267
-0.339491
-1.62904
0.658361
0.970678
0.0320663
0.0940346
0.0553854
-0.784964
-0.0584201
-0.568354
0.126123
-0.0543052
0.0429962
-0.639304
-0.0577694
0.0603646
0.128359
0.340919
0.0478657
-0.461715
0.124275
0.342965
-0.289068
-0.120053
0.0224134
0.221723
0.84028
-1.062
0.10493
-0.714779
0.609849
-0.957132
0.81721
-1.361
0.254791
1.10621
-0.0119897
0.0128707
-0.000880927
0.166542
-0.458526
0.203643
-0.11916
-0.084483
0.0439132
-0.0578682
0.00642154
-0.12086
-0.00381489
0.0241655
-0.0256567
0.0209827
0.0756604
-0.096643
1.06915
-0.00113972
0.0014428
-0.000303081
0.0986053
0.00240646
0.8597
0.0512236
-0.0429269
-0.380978
-0.75879
0.215157
0.0257417
0.00809412
0.0859405
-1.10621
0.80752
0.182019
-0.191996
0.00997708
-0.24919
0.0742664
0.119536
-0.109503
-0.00154807
0.0927495
-0.0362086
-1.48871
-0.140326
-0.0410884
0.0620711
0.738834
-0.255439
-0.250839
0.101224
0.342171
0.00924674
-0.0395442
-0.00775934
0.0830872
0.147164
0.204501
0.155142
-0.326924
0.171781
0.116224
0.564146
-0.0419049
-0.109491
0.935815
-0.258189
-0.677626
-1.361
-0.447312
1.05758
1.60978
-0.103477
0.344193
-0.240716
0.353511
-0.0727972
-0.280714
-0.168435
-0.665779
-0.07132
0.0720373
-0.000717336
-0.0341791
-0.189853
0.224032
0.491663
-0.955851
0.464188
0.040319
0.657006
-0.697325
-0.0444615
-0.110008
-0.00921221
-0.0788658
0.288632
-0.549038
-0.0129977
0.00100792
0.1436
0.0221501
-0.16575
0.0269303
-0.147276
0.00194839
0.0299144
0.0485524
0.13331
-0.0243798
-0.00363235
0.195028
-0.435508
-0.47844
1.55297
0.0291605
0.0142917
-0.988518
-0.0170768
0.168648
-0.0738842
-0.0461693
-0.0753033
0.252187
0.858635
-1.06434
0.20571
0.175538
0.0396195
-0.941579
-0.0142615
-0.0152459
-0.648627
0.747625
-0.0183772
0.186018
-0.0220349
-1.16417
0.183399
-0.444693
0.261294
-0.00842659
0.246087
0.00243381
-0.00259101
0.000157194
-0.0242619
-0.100904
-0.0216082
-0.135237
0.747689
-0.642759
-0.113184
0.0756204
-0.118413
0.308022
-0.15288
0.140138
1.21088
-0.301092
-0.909788
-0.119024
0.137051
-0.503147
-0.217802
-0.559751
0.619919
-0.601595
-0.0183234
-0.0831402
-0.0300434
-1.78259
0.54428
-0.54428
-1.83647
1.83647
0.802089
-0.0542646
-0.158605
0.212869
-0.895397
-0.0931211
0.62315
-0.365167
-0.257983
0.166029
-0.244343
-0.0104213
-0.00170585
-0.887054
-0.082271
-0.933265
0.212911
0.0349081
-0.0788475
0.697249
-0.10936
-0.587888
1.16485
0.444926
-0.001046
0.00347982
-0.966856
0.464125
-0.886669
-0.0698132
-0.602863
0.672677
-0.0736339
-0.873184
-0.70218
0.216815
-0.812061
-0.924886
1.37646
-0.451578
-0.13846
0.281234
-0.142774
-0.0244109
0.72166
-0.106267
-1.02343
1.02343
-0.801343
0.399777
0.401566
0.000469713
-0.00160944
0.0995893
-0.435356
0.816197
-0.0229379
-0.0839365
-0.0358012
0.102411
0.00549567
0.00317063
1.78165
-1.52685
-0.324149
0.398926
-0.628281
1.00536
-0.377076
-0.0455483
-0.0690193
0.122308
-0.0550992
0.353032
0.00568242
-0.0641758
0.353245
0.0380831
0.041833
-0.244385
0.202552
0.140177
0.0342895
0.0961812
0.178169
1.62883
0.474433
0.153759
0.670894
-0.824653
-1.03679
1.48223
0.197569
-0.130358
0.0760451
-0.767137
0.691092
0.0994948
0.13217
-0.477866
-0.0746798
0.135702
-0.0610221
0.134263
-0.208943
-0.4436
-0.10677
-0.0707771
0.0738324
-0.0030553
-0.000612688
-0.0237671
-0.0235302
-0.00709134
0.660147
-0.609849
-0.0502983
-0.29294
0.305997
0.880599
0.598242
-0.24473
-0.0326942
0.0589062
-0.301837
-0.115899
0.175441
-0.584733
0.409292
-0.00246171
-0.000129302
0.0267927
0.0946678
-0.12146
0.00422939
-0.0102753
0.00604587
-0.0232023
0.0154127
0.00778961
-1.30495
0.516458
-0.141443
-1.37911
-0.196215
-0.809686
1.58197
1.60379
-0.19458
-0.173837
0.122432
-0.0624871
0.0681065
-0.00561946
-0.168507
0.963353
-0.794846
0.549471
0.0736791
0.00119977
-0.00366148
0.119428
-0.479522
0.0358012
-0.04576
0.00467164
-0.643529
0.341692
-0.049084
0.0835436
-0.232929
0.618496
1.0864
-0.0122438
-0.0624759
0.00153762
0.0609382
1.97792
-0.374124
-0.0618142
-0.0552274
-0.970055
0.16037
0.389309
-0.21287
-0.474692
-0.129963
0.604655
0.814945
-0.362706
-0.452239
0.0622689
0.796366
-1.79172
0.0799629
-0.0072079
-0.0237288
0.0309367
0.235098
1.82711
-0.171089
0.178204
0.13216
2.24484
-0.662874
-0.679424
0.0552743
0.62415
0.382499
0.00932876
-0.346085
0.536501
0.815256
0.516178
0.0770232
-0.0216378
-0.69897
0.206381
0.492589
1.3028
0.0510815
-0.0368674
-0.0514153
-0.356082
0.102356
-0.308237
0.822466
0.388414
-0.101173
0.0180331
0.302987
-0.406464
-0.0217483
0.0184232
0.111377
-0.148316
0.0369392
-0.300882
0.315883
-0.0150014
0.458722
-0.759814
-1.42438
0.116977
1.3074
0.104363
-0.198615
0.0942517
0.268355
0.0396667
-0.457844
0.399424
-0.657524
0.657524
1.62924
1.16485
-0.714779
0.331883
0.483373
-0.567047
0.341451
0.908923
-0.359452
0.00756815
-0.875369
0.8678
0.134906
0.00499382
0.0258615
-0.68594
0.228095
0.122637
-0.16637
-0.123362
0.289732
0.268242
-0.514792
0.348422
-1.10041
-0.283454
-0.649956
-0.0620672
0.00125726
0.000185548
-0.224568
0.0877048
0.0706735
0.0342941
-0.144155
0.109861
-0.394435
-0.406907
-0.00579492
0.0690651
-0.914121
0.530644
0.383477
-0.569493
0.388211
-0.100776
0.161542
0.236215
-0.00258914
-0.0121093
-0.928901
0.452233
0.0339571
0.0689307
-0.151346
0.0329328
0.195678
0.00796427
-0.425775
1.34064
0.462252
-0.0150457
0.867425
-0.79138
0.783183
-0.441012
-0.610208
0.174853
0.151465
-0.791847
0.766613
0.0252342
1.13311
-0.310642
-0.194391
-0.129758
-0.0912359
0.0243313
0.955519
-0.842333
-0.113185
-0.180917
0.107192
0.0278216
0.121024
0.880415
0.52998
-0.779624
0.249644
-0.326327
-0.0511453
-0.147123
-0.766998
0.123464
1.37239
1.14628
0.0185681
0.170828
0.552298
-0.723126
0.048856
0.0492933
-0.00389104
0.0013019
-0.509678
-0.10053
0.1315
-0.164765
-0.185341
0.136607
-0.533319
0.276629
-0.991688
-0.327112
-0.286745
-0.599388
1.54349
-0.0911405
-0.284054
-0.329503
-0.314025
0.1387
0.295886
0.0573599
1.33348
-0.84182
-0.188159
0.126969
-0.490369
-0.263313
0.753683
-0.00909095
0.00188305
0.0481536
-0.0590334
-0.241848
-0.122297
0.697662
-0.41901
-0.278652
0.146432
0.136564
-0.0981805
-0.0383835
0.241067
0.0548182
-0.370221
-1.37092
-0.0947791
0.137775
0.902698
-0.372718
0.00283578
0.093957
-0.0209074
0.0207291
0.00017826
0.0107811
-0.0368762
-0.240153
0.0776409
-0.062972
-0.560242
0.421782
0.0182378
0.0858813
0.0184819
-0.693564
1.64591
-1.25749
0.0153958
-0.191154
0.175759
-0.13764
-0.53984
0.67748
0.0783131
-0.717617
-1.17724
-0.247144
-0.0643662
-0.00114165
0.0655078
-0.247339
-0.619919
-0.165045
-0.142927
-0.69897
-0.228864
0.164056
-0.300319
-1.15382
-0.528328
0.386042
0.142285
0.265168
0.11662
0.5064
0.157544
-0.663944
0.0974487
0.0521444
0.831418
0.336384
-1.1678
-0.222292
0.44453
1.0377
-0.239263
0.179189
-0.701982
1.14651
0.118447
-0.0501569
-0.0269724
0.0413096
-0.0108221
1.12422
-1.13927
0.726684
0.0882602
-1.36811
-0.120603
0.232732
0.676191
0.918158
0.0176573
-0.018973
-1.14628
-0.649956
-0.713523
0.722439
-0.0654647
-0.902775
0.657006
0.610049
-0.935454
0.77812
-0.00588398
-0.785963
-0.312523
0.635384
-0.772158
0.136774
0.0818849
0.0546792
-0.54575
-0.236499
1.19634
-0.959837
0.00057926
0.000677995
-0.260634
0.212775
0.713697
0.224616
-0.208695
-0.181597
0.650745
-0.857712
0.200084
0.0127855
0.457603
0.788275
-1.24588
-0.874059
1.08044
0.937619
-0.406975
0.0820333
0.25609
-0.492589
-0.00795087
0.212659
-0.0546833
0.0996714
0.0689769
0.00162759
-0.0270696
0.025442
-1.02511
-0.0368934
0.315874
-0.808295
-0.644835
1.58937
-0.944537
0.36952
0.635837
-0.0507019
0.0542894
-0.00358747
-0.0445988
0.695344
-0.716884
0.716814
0.595024
-1.23986
0.310499
-0.0978399
-0.584795
-0.406893
-0.846732
1.30433
-0.0588258
-0.881253
-1.90585
-0.165489
0.25609
0.0498165
-0.858111
0.833444
-0.647059
-0.186385
-0.98145
0.396655
0.00744406
0.114236
-0.000342042
-0.113894
-0.971251
0.564358
-0.218106
0.910212
-0.924473
0.189642
-0.20526
-0.094544
0.235811
1.17175
0.338263
-0.150223
-1.44295
0.533162
1.32254
-0.806363
-0.552641
-0.518667
1.07131
0.447359
0.0181247
-0.0121632
-0.734219
0.697325
0.0705928
-0.115192
-0.184411
0.0628063
0.121605
0.926705
0.662667
0.780139
-0.813134
-0.492615
-0.449395
-0.471368
-0.499882
0.802961
-0.802961
0.684402
-0.684402
-0.734219
-0.136685
0.136685
-0.0628063
-0.502056
-0.487111
-0.507138
-0.125394
0.125394
0.0705928
-0.115192
0.780139
0.769203
-0.769203
0.813134
0.760419
-0.760419
0.507385
0.528632
0.481333
-0.0548015
-0.500118
-0.550605
1.07924
-0.500654
-1.45291
0.606174
0.471468
0.466151
-0.140898
-0.00752948
0.0587531
-0.885903
0.0958322
0.790071
-0.118345
0.111172
-0.99591
0.585783
0.932392
-0.600508
-0.125009
0.00794509
-0.00981847
-0.808975
-0.0767822
-0.54395
-0.00232023
0.0101544
0.620558
-0.14717
0.0928651
0.17062
0.00376638
-0.0109823
0.00721589
-0.813662
0.0678258
0.745836
0.637603
0.534149
-0.53221
0.409947
0.122262
0.916991
-0.742222
-0.174769
0.0783294
0.29578
-0.0136677
-0.0571094
-0.0568461
-0.0144739
0.621487
-1.21053
-0.837398
0.0977765
-0.741111
0.796248
-0.0551374
0.121394
-0.89834
0.776946
-0.801773
0.902977
-0.101204
-0.0663031
0.0770842
0.0190951
-0.283534
0.533529
0.770805
-0.0944167
-0.791487
0.914958
-0.0916101
-0.823348
0.0855802
-0.131128
1.10907
0.822574
-0.921537
0.452515
-0.378836
0.100549
-0.892035
1.46998
0.366492
-0.7898
0.00383738
1.01685
-0.895458
1.22267
1.13554
-0.806481
-0.329058
-0.879207
-0.116703
-0.410837
0.0313394
-0.631893
0.837603
-0.78628
0.78628
-0.602702
-0.0864416
-0.863029
0.120807
-0.931005
0.861192
0.0747344
-0.193894
-0.0581414
0.0612273
0.0112781
0.18835
0.828502
0.816536
0.771228
0.14124
-0.912468
-0.64728
1.11343
-0.78195
-0.107076
0.889025
0.172112
-0.888996
-0.674679
0.887641
-0.787093
-0.107938
0.458184
-0.0268842
-0.4313
-0.0189828
1.33579
-1.3168
0.15224
-0.325304
0.173064
-0.889887
-0.830323
0.089212
0.525463
0.25772
-1.89708
1.10524
-0.576919
0.576919
-0.877096
-0.565854
-0.096984
0.325079
-1.00052
1.1175
0.780566
-0.206134
1.11446
-0.598005
0.959328
-1.16996
0.210635
-0.107679
-1.50192
0.22409
0.48826
-0.432781
-0.135573
0.215605
0.297733
-0.219403
0.780742
-0.881946
0.698376
0.415054
-0.151843
0.737626
0.580742
-0.580742
-0.0694686
0.069148
0.109206
-0.074912
1.18817
0.147621
0.285706
-0.000283417
0.00351056
-0.00322714
-0.669688
0.693605
-0.0239168
0.340099
-1.14658
0.109146
-0.896238
-1.09278
1.4436
-0.350821
0.187376
0.876398
-1.21214
1.55224
-0.754999
0.601758
-0.659527
-0.654238
0.151091
-0.187252
0.028161
0.0783576
-0.590372
0.403119
0.00382315
-0.736034
0.0702329
0.726015
0.693983
-0.092225
0.0762962
0.783404
0.104273
0.480037
-0.58431
-0.819873
0.527067
0.524892
-0.961061
0.738843
0.222219
-0.684453
-0.127608
0.9948
-0.428331
-0.120707
-0.0402517
0.485906
0.514094
-0.76952
-0.112426
-0.558086
-0.298795
-0.494147
-0.238528
0.402641
0.597359
-0.117532
0.119938
-0.86113
-0.0708227
-0.588704
-0.154615
-0.249706
0.404321
-0.032209
-0.00399952
0.111469
0.0713537
-0.128694
-0.111459
0.759695
-0.641057
0.717353
-0.00647567
-0.583896
-0.0977971
-0.00780397
0.105601
-0.74657
-0.193998
0.940568
-0.243339
0.232258
-0.0240296
-0.0853876
0.0128809
0.0127129
0.707601
-0.130682
0.125214
0.111001
-0.736594
0.0669056
1.00825
-0.332914
-0.215609
-0.122125
-0.107701
-0.288891
1.02297
-0.00639646
0.360443
-0.228283
-0.00867365
-0.0496966
-0.0935513
0.0729788
0.935274
0.206205
-0.247749
0.0415437
0.848907
-0.0226009
0.000662068
0.0219389
0.126865
-0.0123141
-0.000683595
0.218344
-0.106968
0.208921
-1.20944
0.468705
-0.2625
0.00705002
0.288533
-0.255553
-0.960062
1.29219
-0.332131
-0.78062
0.839525
-0.0589046
0.333132
0.260511
-0.142064
-0.0671694
1.26115
-0.454885
-0.0773249
0.276395
0.458379
0.189785
-0.648165
0.405627
0.0414089
0.652196
-0.575343
0.562415
0.012928
1.29228
-1.15358
-0.0257203
0.0330557
-0.00733531
0.697063
-0.00856136
-0.0830003
0.0197823
1.39196
0.695754
-0.362622
0.0766024
-0.0804793
-0.118136
0.128542
0.0506113
-0.179154
0.0102714
-0.00864384
1.11018
-0.773794
0.168122
0.223696
-0.0258841
-0.093467
0.221431
0.097777
0.00641275
0.0755182
0.767296
0.378938
0.0239036
-0.402842
0.749284
0.189451
-0.938735
0.645527
0.120656
-0.0671569
0.0110033
0.0561536
-0.691644
-0.0579679
-1.11199
-0.000344508
0.74475
0.715072
0.153018
0.0321396
-0.577889
0.817639
0.132904
0.00723427
-0.878014
0.10978
-0.272026
-0.18347
-0.171676
0.692055
0.0752417
0.0131939
0.56558
-0.305069
-0.186636
0.16332
0.0284472
-0.112808
0.422682
-0.0569818
0.198951
-0.0732012
0.164378
0.159065
0.590219
-0.152646
0.184602
-0.0517678
-0.110079
0.0178848
-0.000653608
-0.0172312
-1.46524
0.311653
-0.0105783
0.88062
-0.227626
-0.616392
0.634336
-0.0179438
0.473051
0.75896
0.23778
-0.132179
0.0771128
-0.171657
0.629242
0.129718
0.544174
0.483797
-0.26564
0.718155
0.132421
0.802853
-0.603527
0.348147
0.25538
-0.0247197
-0.0710562
0.0414192
0.0631532
-0.0465934
1.17222
0.735293
0.0823452
0.616736
0.223008
-0.874203
-0.0809675
-0.672759
0.676597
-0.0237763
-0.586941
0.432326
0.872068
0.670651
0.146101
0.0038182
-0.163599
-0.314267
1.12697
0.518933
0.230995
0.0188274
0.774043
0.0288099
0.684733
0.629291
-0.0771631
0.641864
-0.744423
0.932453
-0.18803
-0.411334
-0.192193
-0.0435589
-0.193874
-0.212158
0.776152
0.00803599
-0.00292791
0.627785
0.123888
-0.246013
0.599828
-0.132872
0.239098
0.751827
0.235754
-0.987581
0.276984
-0.924043
0.165332
-1.42282
-0.180005
0.771618
-0.591613
-0.66833
-0.118103
0.032715
-0.054547
-1.08997
0.0233745
-0.0442818
0.861317
0.147362
-0.35194
0.204577
-0.0187552
-0.580689
0.103477
0.256966
-1.42448
0.000123425
0.00364295
-0.131627
-0.0531056
-0.589515
0.0141721
0.567558
0.304509
1.08728
0.889663
-0.250155
-0.384462
0.634617
-0.0614105
-0.616576
0.616576
-0.241166
-0.911945
1.15311
0.0296709
-0.148695
0.684772
-0.117214
-0.22107
-0.377407
0.2567
0.630388
0.800265
-0.1357
0.17393
-0.105104
-0.449237
0.48697
0.0754448
0.0562272
0.0145442
-1.48335
-0.147192
-0.228693
0.694629
0.305371
-0.147192
0.694629
-0.104772
-0.183661
-0.104772
-0.696072
0.696072
0.303928
-0.014326
0.201881
-0.075206
0.190478
0.125892
-0.460032
0.638098
-0.0382701
0.661489
-0.504767
-0.156722
-0.0589815
0.058569
0.000412408
-0.0098875
0.00960408
-0.107724
0.0188818
-0.0615901
-0.437722
-0.349314
0.124747
0.0445935
0.830789
-0.278491
-0.60349
0.289465
0.00284478
-0.128794
-0.00794215
0.678736
0.0660144
0.236245
-0.0176374
-0.00168481
0.0093173
0.0862616
0.564065
-0.475299
-0.0887663
1.99824
0.545873
-0.424877
0.894983
0.0110622
-0.0615697
0.105311
0.183525
0.125798
1.12405
-0.372228
0.012268
-0.0743352
0.610962
-0.608347
0.0227415
-0.0227415
0.0198113
-0.0198113
-0.0151401
0.0151401
0.0291605
0.365713
0.458974
-0.0362232
-0.723062
0.486798
0.189267
0.0290773
-0.0814459
-0.483068
0.767175
0.112276
-0.796728
-1.14313
-0.0210411
0.107043
0.0187016
-0.00328888
-0.0204718
0.0204718
0.201321
-0.0193302
0.0193302
0.700894
0.0909295
-0.012079
-0.0055584
0.00673141
-0.0692073
-0.0230554
0.0230554
-0.0102596
0.0102596
-0.0218631
0.0218631
-0.0147078
0.0147078
0.107264
-0.294496
-0.0834225
0.221376
-0.0136396
0.0136396
-0.371872
0.512264
-0.140392
0.504023
-0.222789
-0.364118
-0.239372
0.558801
-0.118817
0.0718595
0.562476
0.567135
-0.00712585
0.00712585
0.094181
0.0243189
-0.0243189
-0.0123967
0.0123967
0.750596
-1.18131
0.0351146
-0.262333
0.357001
0.00371928
-0.00371928
0.0126763
-0.0126763
0.017995
-0.017995
0.0238928
-0.0238928
-0.0230317
0.0230317
0.0344055
-0.0344055
0.481476
-0.0311889
0.0311889
-0.00303569
0.00303569
0.0236145
-0.0236145
-0.00514716
0.00514716
0.00839718
-0.00839718
-0.0674913
-0.0250363
0.0250363
0.25297
0.00635946
-0.0386537
0.0386537
0.00515831
-0.00515831
0.0142649
-0.0142649
0.0328453
-0.0328453
0.0261432
-0.0261432
0.00437289
-0.00437289
-0.00179854
0.00179854
-0.511067
-0.283226
-0.00879066
0.00879066
-0.00215476
0.00215476
-0.0373352
0.0373352
-0.0283133
0.0283133
-4.47125e-05
4.47125e-05
-0.41225
0.644982
0.26058
-0.0313396
0.0313396
-0.0401599
-0.0136115
0.0136115
-0.0014262
0.0014262
0.037842
-0.037842
-0.185622
0.192856
0.00281842
-0.00281842
-0.0236923
0.0236923
-0.502682
0.0451968
-0.334666
-0.0318541
0.0318541
-0.447653
0.034784
0.0195054
-0.0376354
-1.33047
-0.0358425
0.0358425
-0.197873
0.140891
-0.0410383
-0.000911926
0.000911926
0.00420501
0.0461772
0.261742
-0.323658
-0.282464
0.606122
0.197997
-0.00393825
0.00393825
-0.195168
0.397694
-0.202526
0.775271
-0.403307
-0.371965
-0.456611
-0.662078
-0.0743156
0.36378
-0.473486
-0.346387
-0.573122
0.00761565
0.190539
-1.25232
0.0151397
-0.0151397
-0.000421073
0.000421073
0.0301254
-0.0301254
0.0264234
-0.0264234
0.000698447
-0.000698447
-0.000291771
0.000291771
0.0190414
-0.313883
0.177775
-0.302784
-0.000585545
0.000585545
-0.0453053
0.0453053
-0.0393318
0.0393318
0.193745
0.0357417
-0.229487
-0.0015913
0.316974
-0.5446
0.00035612
-0.00035612
-0.00853706
0.00853706
-0.091762
0.0949161
-0.169232
-0.000448965
0.000448965
0.0907388
0.0144266
0.998262
-0.484878
-0.0792986
0.564177
-0.63202
0.0622491
-0.694142
-0.0388612
0.0388612
-0.682171
0.278766
0.0481936
-0.0481936
-0.640219
0.382237
0.265878
0.121619
0.000818546
-0.000818546
-0.824369
0.000632998
-0.000632998
0.310969
0.410691
0.0508937
-0.0520158
0.0520158
-0.00070164
0.00070164
-0.0412893
0.0412893
-0.0540649
0.0540649
0.000936079
-0.000936079
-0.0596892
0.0596892
0.000896193
-0.000896193
-0.0444932
0.0444932
-0.00174097
-0.0453632
0.0453632
0.00250635
-0.00250635
0.0469106
-0.0469106
0.000144948
-0.000144948
0.0480612
-0.0480612
-0.136766
-0.00188963
0.00188963
-0.00397617
0.00397617
-0.0538597
0.0830872
-0.010022
0.010022
0.00553919
-0.00553919
-0.0575873
0.0575873
0.29212
-0.0178117
0.0178117
-0.0572031
0.0572031
-0.00780431
0.00780431
-0.065157
0.065157
-0.0134177
0.0134177
-0.0778762
0.0778762
-0.0210443
0.0210443
-0.0941423
0.0941423
-0.686307
0.247881
-0.525625
0.507682
-0.873184
0.130105
-0.568047
0.396371
-0.00859385
0.155025
0.00388999
-0.00388999
0.310739
-0.726964
0.0422466
-0.0277024
-1.05677
1.50169
1.22351
0.254317
-0.0520982
-0.0297611
-0.396023
-0.57664
-0.054276
0.392612
-1.25849
-0.0186531
0.0186531
-0.767347
0.0211415
-0.0211415
-0.00100191
0.00100191
0.305905
-0.38085
-0.00228821
0.00228821
0.0194118
0.0148413
0.596483
0.206543
-0.00922543
-0.0100183
-0.00895465
-0.0940399
0.490784
-0.396744
0.196588
0.027502
0.00826709
0.941371
-0.0104346
0.056259
-0.408059
0.439398
-0.487357
-1.01322
-0.221678
-0.0700298
0.0177171
-0.225363
-0.0999414
0.0595048
-0.0035134
-0.0146335
0.781086
-0.55449
-0.0361804
0.0646276
-0.035607
0.0611649
0.140716
0.426178
0.235358
-0.165159
0.212281
0.0115266
-0.00203934
-1.27147
0.0209767
-0.0964859
-0.255454
-0.0194679
-1.45377
-0.0709039
0.26186
-0.350453
0.388536
0.317118
-0.916505
0.0454982
-0.0342328
-0.0968957
-0.344524
0.466786
-0.0802971
-0.0313347
0.111632
-0.0266698
0.0266698
0.179387
-0.424117
-0.10423
0.122974
-0.0777476
0.0539713
-0.0662211
-0.00673057
0.0729517
-0.0305795
-0.14985
0.113266
-0.0779294
-0.290224
-0.359948
0.650172
0.0142357
0.0578017
0.152761
-0.0275464
-0.142498
0.0642888
-0.154628
0.306093
-0.00453507
0.0264739
-0.0284193
0.18118
0.00270833
0.256117
0.000465708
-0.000465708
-0.246107
0.93084
0.0874113
-0.168379
-0.0496138
-0.0240201
0.859386
0.692851
-0.0133169
-0.0263203
-0.533976
0.00835078
0.194299
0.0889452
-0.674356
0.314904
-0.0559775
0.383714
-0.673938
0.221838
0.517004
-0.0868217
0.0868217
-0.000342042
-1.34765
0.585464
0.762182
-0.209459
0.154912
0.111115
-0.172331
-0.587482
-0.127055
-0.0324488
0.0418198
0.930071
0.249672
-0.103571
-0.0685682
-0.523933
-0.715926
-0.0712502
-0.267734
0.804236
0.581018
-0.264044
-0.265295
0.553829
-0.0419685
0.386162
-0.26797
0.0919763
-0.467344
0.326952
0.12322
-0.12322
0.11453
-0.119657
0.00512701
0.00868866
-0.000817256
0.0207291
-0.241665
-0.449979
0.230976
-0.187114
-0.0438619
0.546144
-1.07441
0.216224
-0.975014
0.697122
-0.122954
-0.17983
-0.0425617
-0.0797352
-0.485379
0.0476571
-0.283345
0.00462235
-0.0194679
0.372467
-0.00522493
-0.000875196
0.00106825
0.0123618
-0.0117963
-0.000565499
-0.105509
-0.0164075
-0.163297
0.179704
-0.129933
-0.337412
0.0194118
0.346375
0.00152856
-0.368959
0.0822148
0.00245579
0.170482
-0.206705
-0.011851
0.011851
-0.000950861
0.00241671
-0.00952864
0.00124286
-0.0809485
0.000837452
-0.00116851
0.236953
0.0152338
-0.00084759
0.00084759
0.101294
0.517122
0.0014689
-0.290735
0.448304
1.12335
-0.474456
0.338152
-0.4397
-0.240319
0.13609
0.233621
-0.233033
-0.021854
0.0163968
-0.00368395
-0.00507276
-0.179836
-0.381509
0.868307
0.472484
-0.453443
0.214253
-0.00156018
0.179551
0.00782505
0.00093527
0.000930998
0.0154658
0.262783
0.00131846
-0.000200471
0.714694
-0.650405
-0.244213
0.117628
0.941473
0.000728565
0.00101987
-0.0410383
-0.00571084
0.818022
-0.433214
0.508659
-0.527488
0.902729
-0.422189
0.582947
-0.186576
0.692915
0.00120892
0.00323262
0.015469
-0.118212
0.138691
-0.237136
0.00932527
0.000704519
0.0635119
-0.0486793
-0.0148326
0.00111983
0.0503404
0.0122692
-0.0626096
-0.0875645
0.00336461
0.00014595
0.00165876
0.4664
-0.424863
-0.00572784
0.000311407
1.19168
-0.606216
0.389517
-0.00571713
0.000490851
0.206677
-0.038555
-0.0400768
-0.120701
-0.0184748
-0.00348931
0.116327
0.0510948
-0.00159997
0.417787
0.00079663
-0.00344189
0.00344189
0.00458041
-0.0145987
0.000112902
-0.320869
-0.00363812
0.070917
-0.106889
0.0206226
-0.0105067
-0.065789
0.000229427
0.00208654
0.470336
0.0001201
-0.00428754
-0.0392714
-0.00195746
0.000510422
0.0993101
0.186396
-0.711132
0.484766
-0.866276
-0.00502528
-0.000252675
-0.675952
0.0881181
0.127487
0.600573
-0.0152037
0.0164328
-0.0038222
-0.00128296
-0.552453
-0.00320392
-3.9886e-05
-0.0434095
0.93155
-0.525923
-0.00241741
-0.000751244
-0.00557159
-0.00203458
0.0659203
-0.0225184
0.0225184
-0.0308964
0.0333131
-0.00226513
-0.00756964
0.0344034
-0.0352786
-0.161794
0.090738
-0.00561336
-0.0127193
0.0437851
-0.0160585
0.0607475
-0.0430304
-0.62466
0.569523
0.0198612
-0.0016492
0.327822
-0.163444
-0.0723637
-0.689258
-0.0781687
-0.12164
-0.092077
0.0901196
0.684973
0.000536199
0.0103781
-0.00935818
0.295898