/*--------------------------------*- C++ -*----------------------------------*\
| =========                 |                                                 |
| \\      /  F ield         | OpenFOAM: The Open Source CFD Toolbox           |
|  \\    /   O peration     | Version:  2306                                  |
|   \\  /    A nd           | Website:  www.openfoam.com                      |
|    \\/     M anipulation  |                                                 |
\*---------------------------------------------------------------------------*/
FoamFile
{
    version     2.0;
    format      ascii;
    arch        "LSB;label=32;scalar=64";
    class       volVectorField;
    location    "17";
    object      U;
}
// * * * * * * * * * * * * * * * * * * * * * * * * * * * * * * * * * * * * * //

dimensions      [0 1 -1 0 0 0 0];

internalField   nonuniform List<vector> 
2186
(
(1.33514 -0.0826474 1.93281e-19)
(1.63527 -0.95855 -9.74414e-20)
(1.48057 -0.935491 7.33677e-22)
(0.762948 -0.607937 -1.30781e-19)
(-0.375863 0.425753 -1.5992e-19)
(1.30899 -0.0374815 0)
(0.74076 -0.685598 0)
(-0.277977 -0.426489 1.2191e-19)
(1.4542 -0.274582 1.95235e-19)
(0.573167 -0.339234 -2.44897e-21)
(0.660156 0.595119 0)
(0.822422 -0.279979 -1.42314e-19)
(-0.330197 -0.503281 -4.91455e-20)
(1.19467 0.0222422 -3.36616e-19)
(1.82388 -0.700961 -1.04336e-19)
(1.01318 -0.00454077 1.59401e-19)
(0.985768 0.0130676 0)
(-0.698068 0.479294 0)
(1.26426 0.0108207 0)
(-0.0821298 0.207996 -5.96301e-20)
(0.483247 0.058606 -1.0664e-19)
(-0.218016 0.161142 8.12772e-20)
(1.18216 0.0265443 2.78374e-19)
(-0.21133 -0.00111779 5.07162e-21)
(1.03414 0.00254673 -2.18893e-19)
(0.813136 -0.582993 0)
(0.765466 -0.0521266 1.3263e-19)
(0.630008 -0.610664 -1.4838e-19)
(1.18653 0.701408 0)
(0.96629 0.0227755 -2.98944e-19)
(-0.0336169 0.0474774 0)
(1.02544 -0.0118708 1.03484e-20)
(-0.0793109 0.204647 0)
(2.62599 0.163414 2.46017e-19)
(-0.105402 -0.196924 3.39926e-21)
(1.50398 0.766521 6.7166e-20)
(1.88445 0.136252 1.51835e-19)
(0.506736 0.10754 -3.18028e-19)
(1.87649 0.317504 -3.01387e-19)
(1.11964 0.0452991 1.65236e-20)
(-0.363094 -0.547355 0)
(-0.176737 0.125292 0)
(1.90067 -0.898931 9.45213e-20)
(-0.409702 0.143567 0)
(1.09607 0.271484 1.42044e-19)
(0.614776 -0.319367 2.58057e-19)
(0.940008 -0.802267 0)
(1.20977 -0.811286 8.90526e-20)
(2.38436 -0.205939 0)
(-0.33989 0.589491 1.70269e-19)
(-0.0234684 0.0960586 8.81311e-20)
(0.613026 0.566057 7.48997e-20)
(2.09528 -0.78181 1.1669e-19)
(0.584939 0.246386 -2.56145e-19)
(-0.272123 0.0300204 3.07466e-20)
(0.786902 -0.674925 0)
(1.68385 -0.985462 1.86645e-20)
(0.601164 -0.561989 0)
(2.28459 0.284401 9.73209e-20)
(1.15983 -0.184137 -3.13109e-19)
(1.98453 -0.114108 1.78762e-19)
(1.33852 0.302401 -1.63992e-19)
(1.31869 0.524322 0)
(0.783619 0.0805553 -1.80999e-20)
(1.34125 0.384361 -9.91302e-20)
(1.27427 -0.755864 -1.20657e-19)
(1.1465 0.652577 4.90322e-20)
(0.677593 0.0477579 -5.1388e-19)
(0.816224 0.0350442 0)
(2.11393 -0.256136 -7.13796e-20)
(-0.273122 -0.468867 -1.42248e-19)
(2.07686 -0.232543 -1.72881e-19)
(0.730219 -0.0624998 -2.25609e-19)
(0.895556 -0.54101 0)
(0.816174 0.15686 -8.36411e-20)
(0.570795 -0.533817 -2.67215e-19)
(2.62341 -0.211963 0)
(1.00448 0.00868118 3.28298e-19)
(-0.0934459 -0.274854 0)
(1.93513 0.415901 0)
(0.782137 0.453416 1.22819e-19)
(0.848048 0.0252818 -3.05654e-20)
(1.03117 0.00559936 3.63227e-20)
(1.29891 0.417665 2.51537e-20)
(0.970645 0.0199093 3.80783e-19)
(1.04223 0.0253927 -9.04069e-21)
(0.661031 0.150633 -3.07931e-19)
(1.27501 0.0132643 -4.86921e-22)
(0.666056 -0.161222 0)
(-0.0685158 -0.0380885 1.02667e-19)
(0.883917 -0.648036 -1.43516e-19)
(-0.0788073 0.350365 -9.09439e-22)
(1.12655 -0.0838695 2.20395e-19)
(0.829644 -0.202605 0)
(0.975327 0.0233526 3.64654e-20)
(1.33846 0.63948 0)
(1.64777 -0.973211 0)
(1.28604 0.221238 0)
(-0.407659 0.54002 0)
(0.816416 -0.692814 2.56718e-19)
(0.441689 0.30707 -3.88034e-19)
(0.737829 0.333983 2.42963e-19)
(1.53648 0.196694 0)
(1.15382 -0.109247 -2.01477e-19)
(1.11596 0.0233939 1.62566e-19)
(-0.0499133 0.504422 1.08848e-19)
(0.619585 0.484278 0)
(2.2266 -0.192577 -1.42409e-19)
(0.984549 -0.500237 7.19598e-20)
(-1.56677 0.105636 2.41804e-19)
(1.69144 0.31668 1.0704e-19)
(-0.238476 0.61582 -2.43343e-19)
(0.834805 -0.760029 0)
(0.550393 0.322497 1.55734e-19)
(1.67206 -0.276328 -5.63348e-19)
(-0.461346 -0.437093 -4.63716e-19)
(1.30166 0.283594 3.77243e-20)
(1.99785 -0.322962 0)
(-0.0903946 -0.0421442 -3.07415e-19)
(0.716394 -0.0964113 7.12258e-20)
(1.5239 0.866224 0)
(-0.306706 0.677423 -2.71492e-19)
(0.864899 0.743697 -2.52453e-19)
(-0.937829 0.422722 4.1991e-19)
(1.02877 -0.0255862 0)
(1.43422 0.312771 -4.7536e-20)
(-0.325514 0.536737 0)
(0.720255 -0.520632 -9.55993e-20)
(-0.836863 0.437906 -2.22453e-19)
(0.808029 -0.739086 0)
(0.45748 -0.312566 3.77074e-19)
(0.566801 -0.484823 2.51447e-19)
(0.421453 -0.381767 0)
(1.00665 -0.803944 -1.03891e-19)
(0.762087 0.375763 0)
(-0.152439 0.689368 -1.3356e-19)
(0.835402 -0.723346 1.21486e-19)
(2.4583 -0.281855 3.16467e-19)
(2.27576 0.185476 0)
(-0.100981 -0.184672 0)
(0.666301 0.6196 -3.13845e-19)
(1.80779 -0.644256 1.70434e-20)
(-0.181237 -0.236958 0)
(1.00774 -0.83067 -1.14521e-20)
(1.15952 -0.105356 0)
(1.10044 -0.139633 3.49996e-19)
(2.15922 -0.195084 -1.36835e-19)
(-0.411637 0.418837 0)
(1.247 -0.574717 -4.54079e-20)
(-0.268309 0.286071 -3.83762e-20)
(-0.188822 0.44771 0)
(1.11711 -0.837649 1.26007e-20)
(1.00582 0.00574521 -5.48404e-19)
(0.675141 -0.507223 -9.43197e-21)
(0.838911 -0.540327 0)
(1.2241 -0.753587 -7.56303e-20)
(0.646019 0.212304 2.40029e-19)
(1.22014 0.113699 0)
(1.47454 0.0999519 -2.14944e-19)
(1.22077 -0.878694 -1.49396e-19)
(-0.0876152 -0.164703 -1.13331e-19)
(-0.0631446 -0.46854 -2.07644e-19)
(1.06684 0.002996 2.06223e-19)
(0.939492 -0.485721 -9.04886e-20)
(1.28761 -0.0146576 4.50818e-22)
(1.27296 -0.0176925 -6.74713e-21)
(0.730202 -0.105444 1.26119e-19)
(-0.184175 -0.0408942 -2.75742e-19)
(1.52147 -0.480093 0)
(1.54198 -0.535386 5.46336e-20)
(1.41857 0.641883 1.23591e-19)
(0.832348 -0.640352 -1.87274e-19)
(0.995553 0.00730199 1.12372e-20)
(0.745326 -0.557653 2.62783e-19)
(1.27469 0.788891 1.14044e-19)
(1.84313 0.114568 1.88574e-20)
(-0.456372 0.319374 0)
(1.08237 0.0497037 -2.13819e-19)
(-0.778209 -0.16608 -2.94974e-19)
(1.05058 0.477998 7.31804e-20)
(0.0548927 -0.0942639 1.66615e-19)
(1.15147 0.0261016 -3.888e-20)
(-0.155104 0.147043 -1.44446e-19)
(1.26802 0.577021 -7.00252e-20)
(1.11009 0.867798 0)
(-0.513234 0.31437 -8.654e-20)
(-0.222711 -0.222782 0)
(0.635299 0.543804 -2.56077e-19)
(2.03279 0.248845 -2.197e-20)
(-0.412788 -0.543353 1.65052e-19)
(-0.812341 0.120378 -6.11738e-19)
(0.722621 0.0487981 2.25689e-19)
(2.10481 0.128317 -6.13024e-20)
(0.997516 -0.361986 -2.66964e-20)
(-0.0348762 -0.0533694 0)
(-1.09442 0.0505161 3.79264e-19)
(1.29111 0.948771 -1.51978e-20)
(0.833102 0.0504753 -1.23509e-19)
(0.539748 0.506214 1.78111e-19)
(0.411708 0.190746 0)
(-0.102336 -0.493457 -2.35833e-19)
(-0.629919 0.040947 2.17441e-19)
(1.31935 -0.977138 2.05205e-22)
(0.990881 -0.0450508 -1.70246e-19)
(-0.174836 -0.137391 7.57907e-21)
(-0.131943 0.173898 1.32365e-19)
(-0.309466 -0.133345 -1.99844e-19)
(1.98481 -0.362706 0)
(1.1297 0.0437083 -2.8745e-19)
(2.27692 0.150337 2.6639e-19)
(1.30008 -0.642373 7.83576e-20)
(0.318248 -0.149059 1.23326e-20)
(0.579726 0.301954 0)
(0.921526 0.733698 -1.49217e-20)
(0.665234 0.612065 1.6907e-19)
(0.919836 -0.588279 1.2998e-19)
(0.667727 0.481015 0)
(1.02182 -0.00194303 7.30143e-21)
(0.906204 -0.689602 1.84762e-19)
(0.822668 0.402787 -4.19339e-19)
(1.25248 -0.115254 0)
(-0.212243 -0.241538 -3.151e-19)
(-0.0166076 0.320647 -8.80538e-20)
(1.55456 0.714531 0)
(1.3742 -0.959161 -1.75634e-22)
(-0.703292 0.511926 0)
(-0.340962 0.48949 1.01096e-19)
(0.716517 0.634062 -9.00624e-20)
(0.860982 -0.236289 0)
(-0.176945 -0.173861 0)
(1.61873 -0.46843 0)
(-1.0887 -0.0761167 6.65299e-19)
(1.23655 -0.904996 9.798e-20)
(1.20107 -0.628334 5.04207e-20)
(1.07389 -0.18787 -1.41889e-19)
(0.903754 -0.719648 -1.4508e-19)
(0.19431 -0.198901 0)
(-1.1849 0.265275 0)
(1.02388 -0.533169 1.51064e-19)
(-0.14945 -0.248185 0)
(-0.335722 0.588662 0)
(-0.439674 -0.413048 3.95685e-19)
(0.772408 0.652541 7.81332e-20)
(0.988888 0.77717 0)
(0.678338 0.533455 -7.81268e-20)
(0.836008 -0.0650171 -2.024e-19)
(0.727783 0.543612 -2.08802e-19)
(0.574277 0.533425 -1.53411e-19)
(-0.241973 -0.464037 1.66588e-21)
(0.739148 -0.664975 0)
(0.893931 0.155572 -2.93637e-19)
(-0.30726 -0.534616 6.4356e-20)
(0.58632 0.543695 3.45188e-19)
(0.933163 0.77871 0)
(-0.867188 -0.0332903 4.62811e-19)
(-0.085244 -0.399917 3.44095e-19)
(-0.00376737 -0.299776 -1.77462e-19)
(0.64498 0.549672 -1.35814e-20)
(0.970075 -0.00922914 5.31194e-20)
(-0.372155 -0.56037 0)
(2.40833 -0.0496097 -3.41511e-19)
(1.81733 -0.672137 -2.35154e-19)
(0.673262 -0.625621 -6.55782e-20)
(-0.535513 0.368167 1.50927e-20)
(1.16908 0.452571 1.6411e-19)
(0.868197 0.392268 0)
(1.06962 -0.179895 1.69136e-19)
(0.0766066 -0.408271 -6.4044e-21)
(-0.065339 0.0811574 3.35178e-19)
(0.92977 0.0221929 -4.6993e-20)
(1.11145 0.138101 0)
(1.97914 -0.0682425 -3.29861e-19)
(1.90931 0.133378 0)
(0.536372 0.225704 -4.21215e-19)
(-0.140677 0.20604 0)
(-0.256659 -0.428196 2.79155e-19)
(0.702697 0.108523 0)
(0.64593 -0.542518 -1.62058e-19)
(1.13115 0.0155432 1.86802e-19)
(-0.454067 0.463728 3.78154e-20)
(2.18636 -0.103262 4.83498e-21)
(2.11958 -0.284863 -1.43841e-19)
(1.10207 0.222349 -1.98127e-19)
(-0.316149 -0.558208 -1.25706e-19)
(1.09831 -0.873485 0)
(0.806804 0.0201613 -1.36017e-19)
(0.94649 -0.395016 -2.56044e-19)
(1.75788 -0.589789 -8.40658e-21)
(1.76434 0.0332512 2.98352e-19)
(1.07646 -0.00890962 3.43974e-19)
(0.0400017 -0.4015 -1.70522e-19)
(1.01296 -0.45642 -1.09626e-19)
(0.20527 -0.197987 2.2915e-19)
(1.0082 -0.00963582 0)
(1.00566 -0.00664266 0)
(1.06056 -0.59619 1.05236e-19)
(-0.0552896 0.663661 -9.03902e-20)
(0.178772 -0.121177 -1.4913e-19)
(2.02301 -0.0862042 1.06565e-20)
(1.241 -0.133052 0)
(1.98804 0.102156 -1.76856e-19)
(0.96278 -0.839327 -5.96225e-20)
(1.81968 -0.572161 -8.8134e-20)
(1.07864 0.819417 0)
(0.492739 -0.476157 0)
(0.586383 0.497128 -1.62819e-19)
(1.08251 0.273388 -3.65579e-19)
(2.31074 -0.278187 4.64279e-22)
(0.851343 0.137235 1.2604e-19)
(0.0178114 -0.452345 -5.03304e-19)
(1.04971 -0.351408 -3.12872e-20)
(-0.175808 -0.474615 0)
(-0.100194 -0.197655 0)
(-0.458342 -0.515102 0)
(1.36545 -0.74508 -5.84246e-20)
(-0.190852 0.452322 -1.93882e-19)
(-0.050543 0.131592 0)
(1.25349 0.951104 -2.93655e-20)
(1.10054 0.144345 -3.79732e-19)
(1.87309 0.483729 -4.45052e-20)
(1.04922 0.897748 7.39243e-20)
(-0.199241 0.614384 1.25259e-19)
(0.583058 -0.164472 0)
(-0.468021 -0.465115 -3.42309e-19)
(-0.268849 0.580504 2.34706e-19)
(0.774218 0.00917426 1.66062e-19)
(1.49333 0.928645 1.61644e-21)
(1.70266 0.514334 -4.55502e-21)
(-0.112879 0.318743 -2.09141e-21)
(0.765547 -0.700356 -3.12396e-20)
(1.10656 -0.0029084 0)
(1.71448 -0.0870509 0)
(1.04935 0.0553792 0)
(-1.36546 0.483364 -2.37847e-19)
(-0.393819 -0.52005 1.24884e-19)
(1.02024 0.824446 0)
(1.00402 -0.00984455 4.57395e-19)
(0.748759 0.58564 -2.09264e-19)
(-1.7764 0.0792265 -2.08779e-19)
(0.85772 -0.00268598 -3.71279e-20)
(0.735271 -0.673719 -1.87949e-19)
(1.35432 0.698916 -2.81014e-20)
(0.588095 -0.480852 -2.61988e-19)
(1.12614 -0.00174094 -4.12599e-19)
(0.81912 0.0420535 3.9774e-20)
(1.57012 -0.182249 4.64041e-20)
(1.34688 -0.134265 -4.84292e-20)
(-0.0609212 -0.0839131 -7.67334e-23)
(1.05621 0.451728 -2.43496e-19)
(1.27465 0.595335 6.95341e-20)
(-0.0557507 -0.372961 0)
(0.0342465 -0.4638 1.8677e-19)
(-0.296614 -0.340361 1.32153e-19)
(-0.198994 -0.0783127 -1.42521e-19)
(0.459194 0.2845 0)
(1.39077 -0.669318 0)
(0.0104462 -0.00727239 -1.22015e-19)
(-0.259245 -0.541792 -6.96293e-20)
(1.04552 -0.0281465 1.63509e-19)
(-0.386156 0.303125 -3.90114e-20)
(1.56896 -0.10985 -6.08461e-19)
(-0.0687009 0.686629 0)
(0.853994 -0.759486 -2.51999e-19)
(0.963871 -0.140201 5.90495e-20)
(-0.353576 -0.33263 1.85435e-19)
(0.711171 0.135293 2.99967e-19)
(0.618264 0.108955 9.72985e-20)
(0.521748 -0.495997 1.79436e-19)
(-0.203407 -0.292501 -1.48451e-19)
(1.44931 0.478183 0)
(0.37545 0.315977 -1.7927e-19)
(1.02652 -0.0157668 -2.60155e-19)
(-0.88142 0.123869 2.37886e-19)
(1.39051 0.483449 -1.05736e-19)
(-0.171705 -0.304489 -5.61818e-20)
(0.700871 -0.640291 -2.55928e-20)
(0.802513 0.16315 -1.87966e-19)
(0.956314 0.40582 2.08258e-20)
(1.16656 -0.154777 3.01579e-20)
(0.622246 -0.256119 -2.70737e-19)
(2.03855 -0.377301 -1.86496e-19)
(1.55695 -0.16399 0)
(1.47763 0.401897 -2.91183e-20)
(1.85115 0.106136 -1.92561e-20)
(0.843685 -0.285383 1.43582e-19)
(0.888248 0.345714 -1.68048e-19)
(0.901092 -0.0464971 5.16551e-20)
(0.40223 0.367565 -2.32215e-19)
(-0.232763 0.372121 2.52595e-19)
(1.95755 -0.227519 0)
(0.928517 0.00368886 0)
(0.89246 -0.791218 4.71446e-20)
(-0.0935926 -0.442391 -3.76568e-19)
(-0.898373 0.21206 -2.952e-19)
(-0.0838435 -0.124753 -2.41545e-19)
(-0.479998 0.614878 -1.599e-19)
(-0.247228 -0.450365 0)
(-0.0816737 -0.153354 4.28088e-20)
(0.175227 0.467446 -8.30811e-20)
(-0.151228 0.196607 -3.02221e-19)
(0.813164 -0.131344 0)
(1.55236 -0.681851 9.38843e-20)
(-0.264098 -0.326849 0)
(0.996351 0.0233226 3.29875e-19)
(-0.0427506 -0.503225 2.34704e-20)
(0.563637 -0.452388 3.51113e-19)
(-0.827697 -0.19126 4.88871e-19)
(-1.55952 0.0819567 0)
(0.229198 0.636844 1.00697e-19)
(1.00776 0.0237037 -9.91563e-21)
(-0.151563 -0.138694 0)
(1.00574 -0.0108146 -5.1458e-20)
(0.88337 -0.750231 -2.4419e-19)
(1.51414 -0.664043 0)
(0.945907 -0.284844 1.82938e-19)
(0.0905452 0.650249 2.26763e-19)
(-0.016941 -0.0157075 0)
(-0.121601 -0.482936 -6.78745e-21)
(0.749212 -0.658549 -3.7109e-19)
(0.965367 -0.0275252 -2.35608e-19)
(-0.0960517 -0.45661 4.6557e-19)
(-0.212956 -0.401066 1.71316e-19)
(-0.208027 -0.485047 0)
(0.938155 0.456604 0)
(-0.272794 -0.499036 2.34126e-19)
(1.87353 0.0142647 -2.5336e-19)
(1.04609 0.874095 1.67647e-20)
(1.05983 0.205782 -1.11543e-19)
(1.149 0.00561991 -1.94145e-19)
(1.07404 -0.0741295 -6.74355e-20)
(-0.0925822 -0.470259 -4.27197e-19)
(2.01473 0.102221 5.09651e-19)
(0.669129 0.0251672 1.85941e-19)
(2.02516 -0.105247 1.67678e-19)
(1.0645 -0.165024 0)
(-0.106249 0.406459 4.8063e-19)
(1.13383 0.0249864 -4.4709e-19)
(1.71338 0.614913 5.04152e-21)
(0.761532 -0.47815 -1.43083e-19)
(-0.0724566 -0.0371612 2.29872e-19)
(0.818804 -0.721467 3.22256e-19)
(1.22396 0.192338 6.6533e-20)
(1.00505 -0.00797341 2.27998e-19)
(0.0560972 -0.458947 -1.86197e-19)
(1.02119 0.0139615 0)
(1.63385 0.144067 -2.30285e-19)
(-0.028772 -0.0232847 0)
(1.02126 0.0124416 -1.34044e-19)
(-1.46249 -0.0952571 -7.32354e-19)
(1.67432 0.319444 2.74527e-20)
(-0.414438 -0.3714 1.6384e-19)
(1.60706 -0.00648795 -1.24156e-20)
(1.01142 -0.019759 4.71952e-20)
(1.35103 -0.094484 0)
(1.47341 -0.628208 -9.6287e-20)
(1.01843 0.027908 -1.39829e-19)
(1.4094 0.776586 -4.76361e-20)
(1.40528 -0.0597792 0)
(0.67191 -0.0406398 -1.71777e-20)
(0.00909593 -0.00791008 0)
(1.37198 0.0506416 0)
(-0.375088 -0.540315 0)
(1.22104 0.432887 0)
(1.8254 0.308907 4.77627e-20)
(0.721917 0.597792 3.66734e-19)
(0.303338 -0.30563 -2.12374e-19)
(-0.245817 -0.51152 -4.08405e-19)
(-0.035206 -0.0560473 0)
(1.74877 -0.492195 1.02093e-19)
(1.28678 0.509044 0)
(1.43172 0.300925 0)
(-0.496328 -0.430658 1.5104e-19)
(0.786989 0.696024 1.1713e-19)
(1.71545 -0.0279031 0)
(-0.338683 -0.461702 9.40012e-20)
(0.897164 0.201 1.72383e-19)
(1.88406 -0.456444 -4.59174e-20)
(1.21048 0.907565 4.03201e-20)
(0.939352 -0.846011 -2.32057e-20)
(1.21718 -0.195808 -1.37757e-20)
(0.77301 0.699174 1.20119e-19)
(1.14744 0.904356 0)
(2.45123 -0.314339 1.9198e-19)
(1.16231 0.703958 0)
(1.36849 -0.638262 2.71569e-20)
(0.902037 0.101246 1.70893e-19)
(1.00564 -0.00626016 0)
(-0.00493313 0.308742 4.72389e-19)
(0.898369 -0.188819 4.25948e-20)
(0.651239 -0.433789 0)
(0.68854 -0.405355 1.89762e-19)
(1.21327 0.547628 -3.04026e-20)
(0.46052 0.433596 2.54787e-19)
(-0.179924 0.263738 3.57807e-20)
(0.0102626 -0.00916179 8.63773e-20)
(0.765116 0.0617232 0)
(1.34631 -0.921118 -3.95468e-20)
(1.03761 -0.0421405 3.62797e-19)
(1.4488 0.335989 1.33209e-19)
(-0.369114 -0.50198 8.13686e-20)
(-0.89534 -0.181772 0)
(1.24596 -0.250754 -9.63099e-20)
(-0.0161515 -0.0183228 -1.97429e-19)
(-0.0180523 0.155665 -5.8165e-20)
(-0.125095 0.0386815 -5.41091e-22)
(-0.196403 0.0866694 2.73342e-19)
(1.34232 -0.114352 -3.59945e-21)
(2.43071 -0.0670392 4.57272e-19)
(1.16969 0.455034 -2.64635e-19)
(0.855671 -0.0400499 0)
(1.91417 -0.142511 2.66954e-19)
(1.88501 0.128399 1.374e-19)
(0.933354 -0.787858 1.17924e-19)
(1.17542 -0.99217 -1.75476e-20)
(0.464971 0.431165 1.70775e-19)
(1.48522 0.38225 0)
(1.72233 0.576266 2.98419e-20)
(-0.0229419 -0.0339999 -4.02155e-19)
(0.862073 0.753081 0)
(1.32522 0.414505 0)
(0.305252 -0.305436 -3.93407e-21)
(0.308458 0.277032 0)
(-1.21235 -0.00320458 -4.54185e-19)
(-0.260034 0.414879 -1.05672e-19)
(1.75912 -0.431028 0)
(1.25058 0.100832 1.52434e-19)
(-0.696031 0.237744 2.46661e-19)
(0.55252 -0.526286 -4.06185e-19)
(2.01953 -0.10005 -5.89709e-20)
(0.63119 -0.57514 0)
(1.02042 0.116498 0)
(1.38232 -0.24523 0)
(1.10632 0.219834 -2.10986e-19)
(1.32718 0.10527 2.97891e-19)
(-1.37144 0.104299 0)
(0.890987 -0.0590508 0)
(2.14279 -0.129109 -2.94749e-22)
(-0.0620101 0.136912 9.27481e-20)
(2.61847 -0.0528848 -3.51589e-19)
(1.07858 -0.521699 2.07321e-19)
(2.03745 0.000966785 -3.63835e-19)
(-1.1303 0.288571 -1.86839e-19)
(1.98868 0.141316 -2.26588e-19)
(1.01861 -0.02811 3.71536e-19)
(1.4884 0.600418 0)
(-0.306958 0.535875 2.82589e-20)
(1.02541 -0.849767 1.40254e-19)
(0.859868 -0.0353652 4.33984e-20)
(0.65654 -0.457192 0)
(1.9272 -0.554356 8.97959e-21)
(1.22677 -0.199216 1.24741e-19)
(1.65798 -0.660497 0)
(0.623643 -0.580329 3.7247e-19)
(0.679279 0.0836171 -2.62546e-20)
(2.45379 -0.0233994 6.17869e-19)
(-0.0910139 0.231817 -1.90729e-19)
(1.30621 0.610852 1.34332e-19)
(1.12832 0.395488 3.34188e-21)
(0.88898 0.352816 2.05474e-19)
(1.96066 0.115362 -2.80757e-19)
(-0.104457 -0.482514 -4.39174e-21)
(0.830195 -0.220426 0)
(-0.155412 -0.09974 3.79956e-19)
(1.10885 -0.965664 0)
(1.08583 -0.67523 1.814e-20)
(1.17009 -0.129364 -7.72037e-19)
(1.44648 0.0827059 -7.95633e-21)
(-0.570191 -0.280399 -4.2979e-19)
(0.969052 0.468414 1.60099e-19)
(-0.208176 0.515584 2.63089e-19)
(0.692297 -0.0372597 0)
(1.85017 -0.133564 0)
(1.50364 0.16513 2.48156e-20)
(0.776503 -0.0114157 0)
(1.38335 -0.214717 -1.28357e-19)
(-1.57496 0.220615 5.73263e-19)
(1.89523 0.495978 1.62551e-20)
(1.04202 -0.0332572 0)
(0.573361 -0.376653 9.31665e-20)
(1.00808 0.0268651 1.77091e-19)
(0.524522 0.83064 -2.27214e-19)
(-0.498748 0.635271 0)
(1.13076 -0.496556 4.1313e-19)
(1.71389 -0.121124 -4.79175e-22)
(1.11731 -0.514993 -1.80031e-19)
(2.31924 0.264713 1.73224e-19)
(1.26135 0.778248 0)
(0.861459 0.0178673 0)
(-0.418642 -0.531859 -2.0365e-19)
(0.00942299 -0.00737067 1.37266e-19)
(0.933217 0.35006 -1.89565e-19)
(0.215965 -0.386523 -1.67429e-19)
(0.633434 0.387728 2.22937e-19)
(0.872574 -0.00701817 0)
(0.553916 -0.515863 0)
(0.901911 -0.224058 4.51738e-21)
(1.25174 -0.526241 -8.15602e-20)
(0.650289 -0.0209044 1.43178e-20)
(0.740469 -0.175801 1.06714e-19)
(-0.0431814 0.069727 -2.45687e-19)
(1.2953 0.195804 3.10311e-19)
(0.643647 0.60014 0)
(1.24492 0.686673 0)
(1.59007 0.264021 0)
(-0.3344 -0.438935 -1.85605e-19)
(1.21179 0.541449 1.87226e-19)
(2.04087 0.0794213 5.75171e-20)
(0.925185 -0.00567105 0)
(1.45196 -0.47457 0)
(2.20266 -0.104015 -3.89737e-19)
(0.581899 0.354069 2.59961e-19)
(1.00551 0.00562589 -1.77181e-19)
(1.46754 0.465478 0)
(-0.36292 0.607894 0)
(1.23078 0.31645 2.60554e-19)
(1.00264 0.513546 -1.18632e-19)
(1.06797 0.0239218 0)
(1.73043 0.179993 0)
(1.92562 0.664582 -2.77951e-19)
(-0.0850676 0.442439 -1.86081e-21)
(0.997108 0.0113239 0)
(0.693529 0.454314 -3.06384e-20)
(0.954001 -0.842383 0)
(1.00853 0.0171624 4.11105e-20)
(0.921955 -0.529641 2.56613e-20)
(0.918142 -0.336574 2.69021e-19)
(0.95798 -0.298467 -7.515e-20)
(2.2292 -0.148872 4.01202e-19)
(1.29649 0.126771 9.38988e-20)
(0.787057 -0.0259322 0)
(1.019 0.00748552 0)
(-0.596835 -0.335699 0)
(0.647914 0.620634 -1.72591e-19)
(-0.0173825 0.0328773 1.65754e-19)
(1.1533 0.339057 -4.17969e-19)
(-0.585899 0.343805 0)
(0.811032 0.626637 1.54035e-19)
(1.0182 -0.345664 0)
(1.00511 -0.00306366 1.03739e-19)
(0.12551 0.0773669 6.99098e-20)
(1.01609 0.391131 2.34261e-19)
(1.40214 0.245857 0)
(2.15762 0.201146 -9.08681e-20)
(0.831678 -0.130421 -3.26415e-19)
(-1.21814 0.0213389 -6.204e-19)
(1.08384 0.274119 0)
(0.867895 0.221842 1.59869e-19)
(2.05499 -0.190193 0)
(0.760497 0.504705 3.32754e-19)
(-1.61744 0.193437 2.469e-19)
(-0.0263554 0.0709311 0)
(0.575134 0.546737 -6.48513e-20)
(1.04684 -0.662865 -1.27635e-19)
(0.498374 -0.277928 -1.10729e-19)
(1.0192 -0.0177175 0)
(-0.484028 0.377189 -2.41094e-19)
(0.659745 -0.591966 7.17076e-20)
(0.892294 0.268692 0)
(1.66682 -0.633543 1.2921e-19)
(0.958538 0.817937 2.21131e-20)
(1.02067 -0.493344 -2.26632e-20)
(0.23492 -0.228366 -2.75504e-19)
(0.243413 -0.0894532 -5.05065e-19)
(-0.129757 -0.246988 1.0437e-20)
(0.802281 0.337883 2.26052e-19)
(-0.213698 0.488818 -4.79816e-21)
(1.43821 -0.669906 3.38931e-21)
(1.0254 0.00683533 -3.06893e-19)
(-0.427834 -0.403245 0)
(1.02873 0.0302248 -3.64012e-19)
(2.199 0.226345 2.33423e-19)
(0.868484 0.674184 2.57894e-19)
(1.13935 -0.0765567 1.40987e-19)
(1.00708 -0.0363983 1.42051e-19)
(1.51771 0.108215 7.3036e-21)
(-0.338367 -0.405449 -6.62502e-22)
(1.75161 -0.887682 1.55284e-20)
(1.16351 -0.128639 -6.36454e-20)
(0.820646 0.0529057 7.26388e-20)
(0.922083 -0.305756 7.9586e-20)
(0.908585 0.189841 0)
(0.941614 0.719058 0)
(0.745829 0.300396 -8.3354e-20)
(2.06667 0.183096 -2.86606e-20)
(-1.1288 -0.0229055 2.09789e-19)
(1.04862 -0.560339 -4.4021e-19)
(0.639039 -0.558259 3.4614e-19)
(1.17878 0.24622 -1.45762e-19)
(0.259595 -0.385242 1.93022e-20)
(1.44409 -0.488757 0)
(0.747273 0.0913414 -6.13818e-21)
(1.47431 -0.586591 -5.12519e-20)
(1.01778 0.746689 0)
(1.29753 -0.616447 0)
(0.534801 0.164061 0)
(-0.201969 -0.324281 -6.77821e-20)
(-0.141884 0.168238 0)
(1.51955 0.663048 2.94997e-19)
(1.21 0.176173 5.75495e-21)
(-1.28753 0.132531 2.70242e-19)
(1.73595 0.574225 1.3797e-20)
(1.79107 0.468379 -6.59818e-20)
(2.17462 -0.336453 -4.17901e-20)
(-0.168036 0.00736787 -1.92347e-19)
(-0.131225 -0.505463 5.05704e-21)
(0.985885 0.0994623 0)
(0.676829 -0.0335698 0)
(1.00132 -0.00137853 1.90364e-22)
(-0.364146 -0.427712 0)
(1.55872 -0.00176701 -1.34843e-19)
(0.677984 -0.0309043 0)
(1.06484 0.00462973 1.13069e-19)
(0.998494 0.0147227 -4.02452e-20)
(1.18277 0.216668 1.96532e-19)
(1.06007 -0.0185541 -8.31205e-22)
(0.957251 -0.202087 -4.81209e-20)
(1.02595 -0.0369589 3.28953e-19)
(0.693382 -0.634064 1.612e-19)
(-0.94437 -0.198758 -2.79548e-19)
(1.13949 0.406214 2.64187e-20)
(0.00899054 -0.00193443 0)
(1.1017 0.780095 0)
(1.02916 -0.0115319 0)
(1.02342 -0.796519 -8.6461e-20)
(1.05666 -0.906452 1.88978e-20)
(0.839964 0.181867 -3.36615e-20)
(-0.0411889 0.188782 -9.44878e-19)
(1.29615 -0.388236 1.42482e-20)
(0.606973 -0.40946 -5.66801e-19)
(1.23432 0.41201 -4.20544e-20)
(0.940969 -0.108977 -8.32539e-20)
(2.09311 -0.342186 1.30061e-19)
(0.409831 0.0960851 -2.22711e-20)
(-0.305959 -0.450559 -1.41685e-19)
(1.09072 0.538776 1.79678e-19)
(-0.0541208 -0.351655 0)
(0.197297 -0.484067 4.2151e-19)
(-0.0831113 -0.133893 -1.93873e-22)
(1.03106 -0.044897 2.9753e-19)
(1.02235 -0.000926968 -7.61734e-21)
(1.10597 -0.0129665 -8.22523e-20)
(1.40526 0.0318785 -7.69375e-21)
(1.60325 0.320705 5.02412e-20)
(0.418023 -0.393524 -2.80241e-19)
(0.809129 0.109393 6.23676e-20)
(1.03291 -0.00074439 -2.16951e-19)
(1.04031 0.277815 -2.71955e-20)
(1.3544 0.0643754 0)
(1.08675 0.579784 -3.36814e-19)
(1.00288 -0.00523059 8.46217e-20)
(0.657322 0.586239 2.3783e-19)
(1.30642 -0.247797 3.53748e-22)
(1.06638 -0.0104913 -2.70855e-20)
(1.12882 0.0116895 7.67809e-22)
(2.52808 0.061994 2.19117e-20)
(0.281569 0.0813979 0)
(1.05038 -0.0397262 0)
(1.05551 -0.035831 5.2156e-19)
(1.00136 -0.00195214 0)
(-0.0560888 -0.0920584 0)
(0.965127 -0.588827 0)
(0.99993 -0.000717001 -4.92149e-19)
(1.17831 -0.704543 6.68173e-20)
(1.02255 -0.00606208 1.03043e-20)
(1.30999 0.936597 -2.30316e-20)
(1.4882 0.983489 -1.0772e-20)
(1.15518 -0.185233 -2.15195e-20)
(1.53092 0.283049 2.47071e-19)
(1.3236 0.255789 0)
(0.0256716 0.547844 0)
(2.20326 -0.0834464 5.59355e-19)
(1.25638 -0.776367 0)
(1.00121 -0.0033712 -1.52691e-19)
(1.00907 -0.00140234 2.96551e-19)
(1.42471 0.141879 -6.2391e-20)
(0.00128764 -0.126294 2.93498e-19)
(0.968794 -0.00200615 1.61261e-19)
(0.209123 -0.0268908 3.74155e-20)
(0.215572 -0.00465447 -3.97667e-20)
(1.4636 0.0494071 -1.30784e-22)
(0.927149 0.0169422 -1.61594e-19)
(1.00228 0.00346849 1.91289e-19)
(1.00041 -7.18009e-05 1.12977e-20)
(0.789487 -0.0123239 0)
(0.727505 -0.0269079 0)
(0.724373 -0.0271856 6.81051e-22)
(0.699325 -0.030015 0)
(0.858726 -0.178534 0)
(0.178339 -0.0107779 0)
(0.0191276 -0.0454465 4.8183e-20)
(0.262884 0.125937 -2.88961e-20)
(1.1358 0.0596745 0)
(1.31345 0.0298687 3.6718e-21)
(1.4334 0.0361976 0)
(0.0603163 0.0351112 0)
(-0.0581172 0.00305743 0)
(0.0384439 0.0363117 -2.28097e-21)
(0.616471 0.152165 4.74204e-20)
(0.791397 0.0236572 0)
(0.793985 0.0203412 0)
(0.966336 0.0190871 -1.99343e-19)
(0.821536 0.00764852 3.7298e-19)
(1.00664 -0.00103578 0)
(1.00002 -0.000918533 3.53372e-19)
(0.999215 -0.00115691 -3.38738e-22)
(0.795767 0.0223539 3.16319e-19)
(0.990751 -0.00761937 -1.85174e-19)
(0.21991 0.00645675 0)
(-0.0622259 -0.00565631 3.97988e-20)
(1.0012 -0.000299286 -1.78766e-19)
(0.999971 0.00109383 -3.06509e-19)
(1.16678 -0.0577932 0)
(0.999445 0.00222859 0)
(0.999411 -0.000407449 0)
(1.43484 -0.381345 1.88937e-20)
(0.94779 -0.0822465 1.77937e-20)
(0.970225 0.274135 0)
(-0.348018 0.314093 1.8201e-19)
(-0.741428 0.490364 -4.62349e-19)
(1.01945 -0.0189174 -2.37953e-19)
(-0.298191 -0.549609 -1.28461e-19)
(1.02004 0.00138059 -1.91129e-19)
(1.19581 -0.221465 -7.98595e-20)
(0.817176 -0.493746 2.67059e-19)
(-0.0661646 -0.0965292 -9.76681e-20)
(1.0301 0.0113203 0)
(1.05278 -0.00962685 -5.20915e-20)
(0.860688 0.0204226 0)
(-0.0363924 0.0391486 2.42477e-19)
(1.22589 -0.654982 0)
(-0.416828 -0.468637 -3.26424e-19)
(0.255786 0.0112772 -3.2118e-20)
(1.62146 0.678162 3.13866e-21)
(-0.0556426 -0.0319412 0)
(1.06 -0.0377579 1.6118e-19)
(1.2094 -0.193519 2.59816e-21)
(0.924969 -0.0227309 2.53774e-19)
(1.01377 -0.00780613 -1.62274e-19)
(1.63487 0.849574 3.84993e-20)
(0.507121 0.474677 0)
(0.429352 0.377891 1.87367e-19)
(1.42653 -0.415799 -3.95104e-21)
(1.13798 0.121452 1.75277e-19)
(1.10709 -0.733541 0)
(1.02087 0.00174308 0)
(0.997939 -0.0179211 -3.74057e-19)
(1.01654 0.0156751 -3.63443e-19)
(-0.17118 -0.354999 0)
(1.19534 0.807277 -1.16427e-19)
(1.4117 -0.222024 -3.76622e-22)
(1.01446 0.00435804 1.40069e-19)
(1.01063 0.0121251 -1.75566e-19)
(-0.527917 -0.401965 -3.20432e-20)
(1.15326 -0.0703977 -5.43904e-20)
(1.01754 -0.0152548 5.98066e-19)
(1.24332 -0.0984075 0)
(1.81744 0.645822 -4.73298e-20)
(1.01653 -0.00944258 -1.86178e-19)
(2.02152 0.120275 -1.52558e-19)
(1.05824 0.00645187 -4.30383e-22)
(1.00947 -0.00925234 3.73083e-20)
(2.10135 -0.274167 -3.32937e-19)
(1.01426 0.00833156 1.80389e-19)
(1.16448 0.189104 4.66824e-21)
(1.01689 0.00234902 0)
(0.929124 0.137859 4.4985e-20)
(-1.40239 0.124418 6.53565e-21)
(0.999087 0.0201712 1.79244e-19)
(1.03887 0.0200302 -5.80776e-22)
(1.28743 -0.119061 -1.91063e-21)
(1.23934 0.311712 3.71371e-19)
(0.998804 0.0148662 1.22991e-19)
(1.01504 -0.0147297 4.52904e-22)
(1.71254 0.263957 -1.81615e-20)
(1.71677 0.91639 -9.66521e-20)
(0.791896 -0.712427 4.85843e-20)
(0.471157 -0.353889 -2.75641e-19)
(1.00607 -0.0107532 0)
(1.01932 0.00174435 4.4787e-20)
(1.01108 -0.0104109 9.46452e-20)
(1.14772 0.0605712 3.12193e-21)
(1.01257 0.0044185 -1.87719e-19)
(1.02922 -0.0229681 2.14093e-19)
(1.00787 -0.00800774 -1.76991e-19)
(1.0157 0.00634269 -4.62142e-22)
(1.01092 0.00364498 -3.44732e-22)
(1.02266 0.01224 1.79729e-19)
(0.895303 0.0691638 4.61557e-19)
(1.71063 0.60329 0)
(0.48447 -0.0629186 2.90198e-19)
(1.01308 -0.00431838 0)
(1.02145 -0.0205249 -5.21446e-20)
(1.51583 0.450627 -6.94463e-20)
(1.87648 -0.00964813 0)
(2.20287 -0.388264 -1.06637e-19)
(1.27704 0.580876 -4.82515e-20)
(0.760352 -0.0132715 0)
(1.95342 -0.120431 0)
(0.108688 0.285295 -1.56314e-19)
(1.339 0.0548563 -5.74599e-21)
(1.01649 -0.00542682 -1.89312e-19)
(1.1377 -0.584387 -5.06573e-20)
(1.23142 -0.0524789 -1.57172e-20)
(1.4571 0.469613 0)
(1.31688 -0.402161 0)
(1.83031 0.458824 0)
(0.142356 0.525204 8.60463e-20)
(1.29072 0.154701 5.64261e-20)
(0.0204861 0.340298 0)
(-0.107248 0.578713 -2.96015e-19)
(1.65797 0.949445 -5.65742e-20)
(1.00956 -0.00327748 -3.70004e-19)
(1.23292 0.0733046 1.29265e-20)
(1.02119 0.00444134 2.44564e-19)
(0.689205 -0.0386618 0)
(-0.143545 -0.326555 -2.983e-20)
(0.599481 0.413039 -3.14133e-19)
(1.74573 0.624114 8.12769e-20)
(0.0889821 0.629886 0)
(0.804805 0.0623159 6.61216e-20)
(0.505667 0.482649 4.75993e-20)
(1.15964 0.868125 -3.14203e-20)
(-0.0353979 -0.0240836 1.45877e-19)
(1.01911 0.0125241 0)
(1.38154 0.276036 3.42546e-20)
(1.01289 -0.00238621 1.38904e-19)
(2.41597 0.169043 0)
(1.01095 0.00671317 2.32959e-19)
(0.202672 -0.457881 -1.99151e-19)
(1.02033 0.00879718 -1.44076e-19)
(1.40217 0.274697 0)
(1.95063 -0.398654 5.18263e-22)
(1.01192 0.000669321 -9.6786e-20)
(0.995356 -0.0356184 2.55601e-19)
(1.08298 0.0913551 -2.36848e-21)
(1.17864 0.293288 -4.31819e-20)
(-0.155905 -0.0675638 3.83343e-19)
(1.95309 0.328564 1.78773e-19)
(0.687942 0.143674 5.02135e-20)
(0.805526 0.0158775 -3.49507e-19)
(0.800095 0.0253026 0)
(0.812031 0.0117374 4.82057e-20)
(1.02208 -0.0182578 -2.805e-20)
(0.973324 0.0198432 0)
(1.04957 -0.000796027 -1.78248e-19)
(0.433691 -0.517514 -4.35401e-20)
(-1.50733 0.10838 2.80234e-19)
(2.17549 -0.598783 0)
(-0.998013 0.0653558 -8.51806e-19)
(1.54016 -0.354817 0)
(1.03875 -0.0180957 5.22951e-20)
(1.07056 -0.00943219 2.02658e-21)
(1.01541 -0.00404598 1.50126e-19)
(-1.06974 0.17504 5.08146e-19)
(1.01764 0.000548714 0)
(0.991046 0.00381805 -3.62941e-19)
(1.00603 0.00810218 1.91045e-19)
(0.867265 0.118976 0)
(0.744743 -0.12637 -9.4894e-21)
(0.959663 -0.00109958 -1.63708e-19)
(-0.232283 -0.530636 4.40093e-19)
(1.00323 -0.000362143 -1.86453e-19)