/*--------------------------------*- C++ -*----------------------------------*\
| =========                 |                                                 |
| \\      /  F ield         | OpenFOAM: The Open Source CFD Toolbox           |
|  \\    /   O peration     | Version:  2306                                  |
|   \\  /    A nd           | Website:  www.openfoam.com                      |
|    \\/     M anipulation  |                                                 |
\*---------------------------------------------------------------------------*/
FoamFile
{
    version     2.0;
    format      ascii;
    arch        "LSB;label=32;scalar=64";
    class       volScalarField;
    location    "11";
    object      p;
}
// * * * * * * * * * * * * * * * * * * * * * * * * * * * * * * * * * * * * * //

dimensions      [0 2 -2 0 0 0 0];

internalField   nonuniform List<scalar> 
2186
(
0.676022
-0.405008
-0.109107
0.986427
-1.14366
-0.000340954
0.595502
-1.04452
-1.07792
1.22781
0.909424
-0.993673
-1.06189
0.912861
-0.627304
0.912119
0.938892
-1.73622
9.36924e-05
-1.05072
1.30479
-1.00971
0.92048
-1.07077
0.912096
0.961549
1.13182
0.818068
0.437014
0.911136
-1.03447
0.912418
-0.977581
-0.936208
-0.988817
-0.0607431
-0.773164
1.29114
-1.05459
-0.00342718
-1.0933
-1.00269
-0.734134
-1.1083
0.76897
1.20946
0.27253
0.438184
-1.12225
-1.349
-1.04099
0.749133
-0.733107
1.21727
-0.964909
0.866968
-0.781039
0.894162
-1.19088
0.708431
-0.567302
0.482677
0.396579
-0.00641595
0.414555
0.381298
0.516348
1.19381
1.08942
-1.12502
-1.05271
-0.647557
1.1676
0.916531
1.07152
1.0722
-0.891171
0.93114
-0.993292
-0.994495
-2.0511
-0.00833332
0.906638
0.467249
0.901097
0.905546
1.19468
0.00177845
-0.117903
-0.996324
0.868327
-1.0597
0.832781
1.07564
0.9189
0.258475
-0.229774
0.435588
-1.28767
0.907861
-2.31681
-2.30339
0.504656
0.852813
0.940459
-1.10056
1.09494
-0.820262
0.849565
-1.2197
-0.93139
-1.25131
0.463185
1.21054
-1.01958
-0.938047
-0.0472007
-1.04651
-0.999277
1.17161
-0.198703
-1.59768
0.708103
-1.93265
0.917361
-0.0530175
-1.21419
1.0622
-1.78134
0.576717
1.30163
1.15607
0.164225
0.568858
-2.08572
-1.39286
0.838277
-1.0927
-0.832209
-1.00774
0.649355
-0.275466
-1.01913
0.620085
0.820032
0.863064
-0.753972
-1.17367
0.53037
-1.0901
-1.12462
0.49958
0.935765
1.10092
0.962043
0.448618
1.18759
0.280492
0.174767
0.344647
-1.01084
-1.56852
0.882235
0.905112
0.000725406
0.00630281
-0.92561
-0.962008
-0.176059
-0.270534
0.197369
0.912965
0.939482
1.02851
0.265236
-0.547665
-1.13177
0.883868
-2.01769
0.721448
-0.956085
0.924866
-1.03908
0.390357
0.371583
-1.17959
-0.746295
1.00949
-0.787424
-1.06111
-1.27873
1.16142
-1.76773
0.892713
-1.00779
-1.05706
-0.088223
1.07975
0.940554
-1.02225
-1.25537
-0.391293
0.0100684
0.943446
-0.995627
-1.11618
-1.003
-0.799343
0.847473
-1.09283
0.442518
-0.118891
1.19839
0.679549
0.779213
0.868897
1.06595
0.915077
0.816899
0.982778
0.290692
-0.836673
-1.01951
-0.0735568
0.115174
-1.75507
-1.18814
0.90767
1.04829
-0.970461
-0.938395
-1.44963
0.294364
0.573608
0.695033
0.818451
1.04046
-1.98643
0.804045
-1.01201
-1.3642
-0.927955
0.866323
0.578022
1.03136
1.08912
0.988858
0.963555
-1.0384
0.746221
1.01005
-1.08752
0.851618
0.626791
-1.70499
-0.988943
-0.929052
1.03215
0.936215
-1.10376
-1.25915
-0.239621
0.875786
-2.04491
0.607873
0.950771
0.777775
-1.01816
-1.0388
0.890681
0.488484
-0.737621
-0.778827
1.24409
-1.11963
-1.03497
0.762726
1.1052
0.901377
-1.25712
-0.972915
-0.941919
0.793324
-1.11708
0.468306
0.888858
0.938125
-0.270916
-0.583599
0.866058
-1.10384
0.846398
1.11608
0.933726
0.928394
-0.18019
-1.3315
-1.05944
-0.692293
-1.23308
-1.65508
0.303556
-0.62639
0.453269
1.09191
1.09078
0.793714
-0.797416
1.04433
-1.3355
-0.0847657
-1.38408
-1.01133
-1.09513
0.277082
-1.12724
-1.07408
-0.00373321
0.81206
-0.311568
0.220262
-1.22531
-0.212224
-1.0627
-1.20996
1.12628
-0.189839
-0.0941528
-1.03811
0.711152
0.407304
-0.67115
0.438783
-0.20823
-1.16026
0.507689
0.938411
0.949252
-0.597284
1.0603
0.811072
0.215312
1.1662
0.909398
0.852596
0.28253
-0.274535
-1.0124
0.736741
-1.13236
-0.963537
-1.4178
-0.795275
-1.00423
1.26324
-0.206817
-1.03883
-1.10102
0.907025
-1.088
-1.55446
-1.31775
0.682713
-0.281128
-1.78145
1.15744
1.22027
1.04898
-1.02619
-0.108003
1.27786
0.912131
-1.36968
0.291667
-1.0199
0.100737
1.07674
0.86227
0.787171
1.21994
-0.58929
-0.289153
-0.361981
-0.671533
-1.68456
-0.991644
-0.0240838
1.20233
-1.82691
-1.38082
0.897911
0.507048
-0.996095
-2.09596
-1.01574
-1.60572
-1.53583
-1.00535
-1.0921
-1.10995
1.10551
-0.17474
-0.865676
0.924409
-1.53304
1.18424
-1.89408
-1.633
-1.34619
0.910483
-0.959773
0.93443
0.770549
-0.30463
0.959153
-1.65116
-1.00546
-1.27268
0.935389
0.854442
-1.03263
-1.02327
-1.41592
0.859719
-1.78438
-1.77201
0.353641
0.837318
0.804567
0.643158
-1.06104
-0.998073
0.716057
-0.919521
0.726967
-1.29055
0.929238
-0.214297
1.05306
-1.00044
0.775654
0.573206
0.941864
-1.28512
0.90418
-0.514946
-1.00429
0.915491
-1.09933
-0.0489269
-0.865854
-0.366808
0.91745
0.0129509
0.219034
0.911962
0.0754161
-0.219983
-0.00627391
-1.03919
0.148718
-1.15433
0.562569
-0.946882
0.94692
1.05767
-1.06548
-1.00892
-0.323388
-1.01354
0.256568
-1.08976
0.693127
-0.126551
-1.04975
0.99454
-0.268248
0.212124
0.223908
-0.274366
0.653958
0.183353
-0.543526
-1.03141
-0.0997005
-0.906587
0.926096
-1.17168
1.02481
1.1499
1.13581
0.505705
1.0497
-1.11869
-0.937357
0.810697
0.146202
0.900133
-0.98256
-1.0341
-2.18111
0.706784
-1.0056
-1.85576
-1.04213
-1.08779
0.0074452
-1.12052
0.596398
0.577629
-0.879241
-0.887569
0.674138
0.00602289
1.01693
-1.47838
-0.358102
-1.00666
0.615679
-0.127166
1.09648
1.29346
-2.15817
-1.15229
-0.908014
0.106371
-2.14972
0.962137
-0.893909
0.918187
0.631408
-1.02178
0.753935
0.715198
-1.70045
0.796726
-0.838325
-1.04732
-1.12337
-0.962037
-0.900855
-1.89467
-0.978628
0.915828
0.048783
-1.19296
0.515278
1.06042
1.13683
-0.422378
0.676597
-0.0837914
0.701131
-0.302218
-1.36235
-1.06829
0.342994
0.681639
0.947815
-1.62484
-1.08167
-1.58486
-1.00752
-0.179579
0.655158
-1.96487
0.00251139
-1.45966
0.81711
-0.545665
0.857917
-0.412527
-0.411859
0.862717
0.591948
-1.97753
-0.35189
0.869634
1.21569
0.932268
-0.498352
-1.81637
0.72143
-0.347736
0.70797
-0.851001
0.289172
0.866495
-1.05234
-1.03905
0.904905
-1.34049
1.13461
-0.0131359
0.801408
0.0512084
0.548678
-0.827602
1.15098
-1.04216
-1.96101
0.830647
0.369695
0.344341
-1.3731
-1.03845
-0.922378
0.661945
-0.167993
-1.01763
-0.677057
0.927288
0.230184
-1.65244
0.611257
0.766025
0.890109
-1.74463
-0.946245
-1.06409
0.924665
1.06353
0.417292
0.922058
0.126815
0.976014
0.0890537
-0.924861
-0.335281
0.839478
0.881174
-2.00292
0.714093
-1.04993
0.67874
-1.25865
0.875139
0.870364
0.927922
-1.48634
0.801466
-1.96747
-1.00582
1.08213
-2.18117
-1.12617
1.01162
-1.33813
0.989477
-2.00367
-1.06093
0.920179
0.705561
1.28222
0.910289
-2.05165
1.00869
0.978201
-0.37291
0.489769
0.0802511
-0.891692
1.40997
-1.01751
1.0257
-1.13949
0.233231
0.913082
-1.50183
0.896373
-1.36777
0.794537
0.867122
0.927903
0.00632293
-0.992029
-0.663145
0.511745
0.616642
0.987122
-0.314063
0.693172
-1.78356
-0.600192
-1.94753
0.75627
1.07143
-1.35259
-1.11722
-0.0351309
1.14316
-0.0521716
0.595167
-0.0123872
-2.3916
-1.0313
-1.02619
-0.542388
0.686271
-1.17228
-0.151707
-0.489626
-0.630982
-1.06248
-1.39836
-0.303734
0.876034
0.931385
-1.4022
-0.495375
0.89185
0.850125
0.928697
-2.08609
0.889481
0.973848
0.910313
0.985315
-0.73789
-0.203428
-1.04143
0.474364
0.916581
0.63302
0.0858372
-0.0758471
-1.39855
0.0116157
1.1842
-0.309151
0.0478924
-0.750492
-0.237593
-1.04144
0.654955
-0.959915
-1.59313
-1.00403
0.911622
0.91281
0.920936
0.00217825
0.170401
1.16263
-0.0477144
0.910739
-0.14127
-0.00108011
0.628251
0.930809
0.972901
-0.00689374
0.883476
0.882088
-1.21242
-0.169498
0.921835
0.933127
0.932891
-1.00852
-1.04332
0.934236
0.536645
0.914385
0.0504465
-0.295987
0.0319561
-1.4384
-0.307227
-1.12954
-1.56378
-0.0213604
0.936282
0.941987
0.636675
-1.01027
0.909928
-0.0517481
-0.0495174
-0.00027736
0.910964
0.936627
0.934213
0.944932
0.920574
0.914667
0.904588
-0.238748
-0.0859887
-0.00619167
-0.0158998
-0.000714356
0.000969783
-2.99655e-05
-0.00111476
-0.0282941
-0.0828426
-0.272272
0.905064
0.925652
0.921083
0.942531
0.941357
0.932678
0.936612
0.915049
0.919548
-0.0164831
-0.0268057
0.933361
0.931913
-0.000938082
0.935771
0.932394
-0.0316382
0.0298149
-0.113825
-1.06854
-0.875458
0.915247
-1.17829
0.914915
0.565548
1.00209
-1.01386
0.912422
0.848412
0.863999
-1.03691
0.0461026
-1.22888
-0.134511
-0.212119
-1.03029
0.925795
0.022033
1.0042
0.921755
-0.347271
1.06762
1.2259
-0.087511
0.768082
0.592637
0.910081
0.92781
0.92383
-1.01007
0.336732
0.00135935
0.918668
0.926907
-1.18201
0.0220247
0.919581
-0.00522187
-0.519485
0.919363
-0.933911
0.896788
0.931884
-1.05893
0.924659
0.0346533
0.916723
0.983675
-1.71823
0.929169
0.9383
0.0100464
0.559506
0.918042
0.921959
-0.0239783
-0.938426
0.645144
1.27656
0.92586
0.919059
0.922812
0.0225742
0.919651
0.906567
0.922738
0.919211
0.920557
0.917846
1.01854
-0.38231
-2.23808
0.921502
0.913947
0.12956
-0.882413
-0.375976
-0.349426
0.779444
-1.55112
-0.253077
0.00499709
0.916624
0.654831
0.0097578
0.00845369
-0.056732
-0.357818
-1.21252
0.0206002
-0.0580809
-1.90529
-0.509981
0.923763
0.0168773
0.910524
0.828046
-1.00167
1.14663
-0.253874
-1.5233
0.685262
1.0253
0.310564
-1.00141
0.912292
0.023713
0.922403
-1.26315
0.921934
-1.47739
0.913624
-0.000982587
-0.418353
0.924655
0.940326
0.848693
0.0460026
-0.996595
-1.01435
0.0856561
0.935692
0.812095
0.054691
0.913734
0.957155
0.905142
0.185232
-2.07452
-0.726613
-1.79807
0.255823
0.920607
-0.00174611
0.918847
-2.10366
0.915652
0.953815
0.925439
-0.000134991
-0.000103582
0.953183
-1.16934
0.925915
0.932607
-0.0510826
-1.03707
0.826314
1.04159
0.911125
0.906151
0.138971
0.367851
0.885738
0.344222
0.926895
0.773155
-1.12508
-1.02637
0.754854
1.16653
0.915565
0.27676
-0.207171
0.10077
-1.27217
-0.00235939
0.900095
-0.952968
0.898469
-1.74688
-1.01007
-1.13579
0.31288
-1.14698
-0.0989072
0.433655
0.913222
-1.00436
0.796838
-1.01691
-0.231936
0.165177
0.00938081
0.287868
0.884203
0.104279
-0.851023
0.288515
-1.35888
0.905271
0.303039
0.00911466
-2.17774
0.986281
-0.154434
-1.0135
0.985259
0.902086
0.890934
0.41477
-0.964413
0.919066
0.944541
-0.88776
-1.09058
0.912249
0.724989
1.15812
0.93002
-0.624404
0.0385388
-1.14712
-1.53263
-1.28876
-1.00597
0.00988581
-1.22348
0.729068
-0.0828116
0.925128
1.1196
0.909426
-1.00093
-1.25166
0.91331
-0.307064
0.172696
0.894473
-0.360576
-0.976911
-2.02189
0.0402137
0.858292
0.832646
-0.650532
0.749656
0.559988
-0.624909
0.901863
-1.88291
0.713684
-1.00116
0.905646
-0.740001
0.357275
0.915167
0.989109
-2.07266
-2.03131
0.736706
1.28769
0.93417
0.9129
-0.105857
1.17315
-0.900411
0.182529
-0.875136
0.402889
-1.84315
1.02542
1.08539
-1.01877
-0.939108
0.91106
-1.06507
0.776661
0.944743
0.87542
-1.98279
0.91463
-0.00219558
0.942933
-0.00152662
0.233828
-0.292675
0.917767
-0.0534978
-0.647851
0.0279127
0.922328
0.341477
1.09453
0.19684
1.23164
0.87924
-1.20595
0.89948
-1.06074
0.883841
0.88519
0.108074
0.109738
1.02691
0.902433
1.12785
0.866588
0.0239848
0.867814
0.9056
0.76847
0.922135
-1.02499
-1.3188
-0.425708
1.01933
-1.15369
0.234092
-1.04763
-1.19293
0.0670153
-0.022475
0.757664
0.142581
0.872311
0.93067
-1.10273
-1.3012
-1.19956
-1.40018
-1.36811
-1.06081
0.918785
-1.37388
0.932011
1.15978
0.974099
-0.35869
0.937075
0.84517
-1.29189
0.877976
0.894907
-1.11572
0.896435
0.837087
-0.0210917
-1.18745
1.38018
-1.13221
-1.55023
-1.20129
0.171973
0.895573
-1.62796
-0.385412
-1.02877
1.0491
0.207103
0.7473
0.929098
0.902825
-1.25266
0.889641
-1.8238
0.925622
0.941687
-0.587517
0.933763
0.38523
0.908477
0.638022
-2.25793
0.0031815
0.00226511
0.027573
1.14928
-0.0176812
0.943271
1.30666
-0.396316
-0.00440941
0.981067
-0.00202913
0.978852
-0.00263874
-0.000206993
0.977765
0.981686
0.358482
-1.73328
0.655179
-0.933043
-1.24348
-0.852357
0.937553
0.916015
1.35074
-1.00359
-0.0602047
0.672826
-1.24694
0.987776
0.895184
0.909135
0.906297
0.874565
-2.26656
-1.00747
-1.5635
0.713453
0.835299
-1.84724
-1.07016
-1.02095
0.929607
0.953246
-0.918987
-2.02764
0.952232
-0.492785
0.0815423
0.666001
0.81889
-0.313207
-1.29246
-0.384425
-1.01217
-0.940342
-2.05362
-0.755485
1.30331
1.27342
-1.01022
-0.90278
0.930576
0.9065
-1.3297
-0.126036
-0.412752
0.545227
1.01219
-1.55483
0.921053
-0.474897
-1.26689
-1.27046
-1.51218
-1.12812
0.902232
-0.963642
-1.65792
1.27414
-0.999308
0.924838
1.13787
-1.07462
0.976812
1.18265
-1.11577
1.15052
-1.02597
-1.30329
0.928781
0.108869
0.946781
0.923826
-1.0369
0.980106
0.0854443
-2.04323
0.959094
0.964766
-0.941252
-1.69213
0.857747
0.915102
-1.03187
-2.13533
1.19143
-1.03919
0.823859
-0.0259314
0.862883
-0.982053
-1.80362
-1.02077
-1.09657
0.996096
0.955221
1.22033
1.11331
0.878272
0.978229
0.966814
-1.01762
1.03813
1.07583
-1.11575
-1.04137
-1.19365
1.23328
-0.914056
-1.2607
0.072593
0.837157
-1.12739
-0.935924
0.92258
0.954046
-1.02433
-1.08722
-1.20668
0.0132466
-2.14011
-1.12204
-1.01454
0.78934
0.828221
-1.06373
-0.599388
-0.909243
0.739671
-1.03953
-1.06534
-1.01235
0.87974
-2.07596
-1.097
1.26057
0.818832
0.330452
1.12806
0.195293
0.914847
0.928667
1.04234
1.14124
-0.166111
0.579138
0.912921
0.204551
-1.00938
1.34322
0.886505
0.833403
0.98362
-1.10828
-2.24312
0.779066
0.706784
0.882178
-2.39153
-1.92431
0.905026
-1.00569
0.748188
-0.0150432
1.32647
-1.00768
0.634115
0.674742
-1.04785
-1.00568
-1.82224
0.990621
-1.0525
-1.00674
0.636962
0.515586
-1.54201
0.984979
0.76599
-1.0569
-0.799448
0.867617
-2.40352
-1.00347
-1.17629
-1.03539
-0.969176
0.892513
0.931099
-1.53727
0.556683
0.924145
1.25867
0.218682
0.184922
-0.090879
0.818044
-0.500938
-1.04415
-0.800169
-0.745496
-1.04095
0.907738
-1.04552
0.073389
-1.00166
0.446995
0.50782
-1.03606
0.574387
-1.89173
0.435844
-1.03168
0.371373
-1.04485
0.330963
-0.997433
0.286581
-1.02664
0.755425
-2.14532
-1.02695
-1.03355
-0.999312
0.934762
0.0335706
-1.06607
-1.00366
-0.0619689
-0.00658912
-1.03707
-1.00487
-1.11312
-0.171136
-1.01918
-0.228237
-1.05038
-0.439039
-1.19443
-0.338473
0.801183
-0.0426392
-2.32423
0.896094
-0.227839
-0.118049
0.391366
0.888057
-2.16005
-1.87927
-0.99851
-1.86521
0.815478
1.33253
-0.587055
-0.0842026
-0.0345328
-0.984952
-0.535387
-0.417752
0.885826
-1.00374
0.875958
-1.63055
1.39758
0.38982
1.35166
-1.07878
1.1232
-0.690044
0.943254
-1.04049
-0.995265
1.00964
0.916045
-2.34773
-1.00352
-1.03578
0.881146
-1.23222
0.900565
-1.41344
-1.10548
-1.02101
1.22216
0.950996
1.04511
0.929042
0.932663
-0.00754905
-0.631808
1.11325
-2.35457
-0.899771
1.32765
-1.0914
0.827513
0.878297
1.29199
1.35391
-1.13481
-1.76883
0.955729
0.170267
-0.506218
-0.976756
-0.532161
-1.60843
-1.08072
0.498193
-1.69843
1.1343
-1.112
0.950473
1.04482
0.949192
-1.83279
-0.971016
-1.20761
1.00894
-1.02725
1.08004
-0.866455
-1.26238
1.14687
1.23633
-1.00208
-0.0209166
0.865171
-1.49209
-1.39463
0.59578
1.18257
1.14667
-1.45977
0.793594
0.747347
-1.00123
1.15997
0.177866
-1.06979
-0.470378
-0.024085
-0.0406932
1.02403
-0.883632
0.155039
0.000119121
0.0468641
-0.775146
-0.991024
0.905182
-2.285
0.934131
-0.219846
0.0277456
0.623516
0.194151
-0.992994
-0.761643
-1.21143
-0.228107
0.0073836
-1.59977
0.836248
-2.34587
-2.00149
0.920953
-1.33083
-1.12576
0.930943
-1.0234
0.873837
-0.00756318
-1.0116
-0.397876
0.718107
-0.846582
-1.89502
0.813918
-1.06405
0.995078
-0.625012
-1.15866
-0.937673
-1.00014
1.41649
-1.93834
1.05087
0.00916588
0.882484
1.10183
0.652657
0.947883
1.06529
-0.303135
-1.62075
0.892513
1.02232
1.28597
-0.983323
0.963544
0.569257
-1.01656
0.720617
1.14139
-0.728642
1.25344
0.0261087
-0.975962
0.767185
-1.03277
-1.03073
0.86656
-0.615018
0.979647
0.988898
0.871353
-1.04191
0.811966
1.17046
-1.47019
-0.470972
-1.95332
-1.37719
-1.12254
-1.00452
1.28344
0.682837
-1.10999
0.843889
-1.04058
-0.972091
1.2026
1.13276
-2.28767
-1.75269
-0.998606
-1.04097
0.898429
-1.12099
0.0136349
-1.00756
-0.605729
0.985241
-1.04029
1.30028
0.963747
0.801812
0.938492
1.21205
-1.31689
-1.04559
0.939345
1.07201
-0.787994
0.928479
-1.84114
-1.02074
-1.02249
0.986393
1.01681
-1.02449
-1.15641
0.48468
-0.141627
-1.67335
0.897735
0.85999
-1.75027
0.901239
0.945292
-1.50024
-1.12101
-1.08337
-1.01747
-1.02461
1.24122
-0.0588343
0.812255
-1.13237
1.24034
0.791429
0.762436
0.85207
-2.0705
-0.73199
-1.01469
0.418109
-1.09478
0.852112
0.231315
-0.781633
0.769769
0.936905
0.957104
0.924878
0.000776581
0.958652
0.00272174
0.352589
0.708125
-0.730388
-1.11472
-1.13364
-0.85289
0.928437
0.900245
0.928399
-2.02684
-0.849186
-1.01228
-0.958634
0.92397
1.1963
0.938407
-1.10505
-0.901728
-1.45732
-0.701581
-1.00103
-0.999581
-0.353462
0.911855
-0.885042
-1.06168
0.00188115
-0.154925
0.611078
-1.07258
-1.00981
-1.21282
0.845686
1.35029
0.0112334
1.02272
1.40352
0.548992
1.11768
-1.13919
-0.0401017
1.32739
-1.00704
0.248843
-1.08497
-1.03102
-1.02894
-1.05074
0.901616
0.664937
1.0969
1.05739
0.000754197
0.711318
-0.0931584
0.00525691
-1.00434
1.03097
0.6129
0.93424
0.950652
-0.00187921
-0.00420141
0.949198
-1.06176
-1.0058
-1.05605
-1.03896
0.523441
-1.04646
0.880554
0.601704
-1.00676
1.16255
-1.1039
-0.478991
0.901725
-0.840413
-1.00917
-2.23475
0.483489
-1.06857
-1.56961
0.807979
0.942528
-0.0776435
-0.0325691
-2.47343
-1.00172
0.0745836
-1.94018
-0.267251
0.534791
-1.28217
-1.04293
1.17106
0.134499
0.238859
-1.03904
-1.03706
0.919901
0.976553
0.411169
0.470167
-1.03404
-0.958718
-0.81351
0.332449
0.379395
-1.02907
0.749862
0.0137774
-1.02303
1.35586
-1.02588
-1.88587
-1.02627
-0.980361
0.77509
-1.0444
-1.10749
-1.00901
-0.0531628
-1.08643
-0.135159
-1.00097
-0.0358891
1.08501
-1.14688
-0.232907
-1.03517
-0.319918
1.2496
1.32336
1.13572
0.92368
1.11133
-0.869755
0.910792
-1.1067
0.973442
-0.999543
-0.977624
1.19295
-1.17066
0.411431
-2.08778
1.32302
-0.201784
1.25932
0.481664
0.673114
-1.07562
-1.08464
-0.996002
-1.44229
1.22813
1.10305
0.907996
0.562888
0.915189
0.799452
0.700648
-1.0313
-1.03761
0.102466
0.0155885
0.674613
0.925126
-0.0914225
-1.07631
-1.02499
-1.66896
-0.995976
-1.3569
1.27302
0.946824
0.923645
0.000232636
-0.00185821
0.947686
-0.595571
-1.00363
-2.24308
-1.01275
0.663058
-1.05644
-1.03573
-0.372996
0.918702
-2.13082
-1.02512
0.914623
0.542827
0.654223
0.912419
-0.999668
0.756814
1.1087
0.770373
-0.996582
0.907847
0.29128
0.331726
-1.10606
-1.0479
1.35935
0.173364
-1.47142
-0.0510447
0.796776
0.872902
-0.944307
-1.66586
-0.0144127
-1.13958
-0.939211
-1.11678
-0.00851223
0.906045
-1.43085
0.901245
1.19877
1.02182
0.896166
0.98584
1.04946
0.916021
-1.67701
-0.711641
-0.573625
-1.07588
-0.94547
-1.0338
1.05493
0.948263
-1.03391
0.882692
-0.874814
0.260323
-1.02895
-0.290358
0.469674
-1.39587
0.904275
0.790419
-1.7619
-0.456305
1.25175
-1.95285
-0.0871814
-1.16264
-1.12213
-1.00374
0.960431
0.655797
1.01921
-1.35983
-0.523765
-0.977098
-0.525179
-1.0343
-1.35927
-1.65858
-2.41381
0.79893
-0.797002
1.38124
-1.28474
-0.643593
-1.03336
-1.03345
0.847288
-1.05769
-1.29987
-0.971743
-0.425249
1.09302
1.14405
-2.33326
-0.78136
0.706999
-1.01742
-0.920828
1.02779
-1.67495
-1.82695
-1.44465
0.63131
-0.505932
-1.03092
0.906437
-0.149993
-1.24035
0.917143
-0.914486
-1.77539
-1.51285
-1.11186
-0.166269
-1.03408
1.22108
-1.00717
0.0857278
-1.0009
0.673332
-0.923002
-1.00524
0.523166
0.685347
0.974664
0.87871
1.08443
-1.04847
0.767057
0.481884
-1.5267
0.835324
-0.53696
-0.987072
-2.29921
1.10279
1.08777
-1.0649
-0.973595
-1.3551
0.902097
-0.993524
-0.0902518
-1.39673
-1.03979
1.18542
0.907537
-1.07984
-1.05073
-1.08977
-1.06464
0.81251
-1.15137
0.871303
0.0941845
0.583968
0.718522
-1.0104
-1.0448
0.830956
-1.03702
-0.0053455
1.19543
-1.01157
-1.05805
0.698727
-1.56414
-1.08545
-0.276256
-0.997402
1.27211
-0.694401
0.0543856
-1.08499
1.23351
-1.09357
-1.03824
0.518174
-1.3038
-0.999418
1.25682
0.54871
0.937894
-1.10167
1.13089
-0.24317
-0.899302
-1.11551
-1.12844
-1.10143
1.16458
0.448929
-1.0192
-1.09369
-1.01848
1.03003
-0.921012
1.20937
-1.00034
0.607532
-1.0535
0.240093
0.411183
0.376093
0.29324
0.11834
-0.974056
0.904266
-1.11823
-0.864069
-1.20784
0.206677
1.24979
-0.395756
-1.09134
-1.13957
-1.05712
0.131244
-1.27752
-1.05073
0.775331
0.115349
-1.06778
1.31498
-1.02598
-1.91454
1.27874
-1.06014
0.0142773
-0.923802
-1.0312
-1.04743
1.28928
-1.0249
1.19719
-1.04485
-1.04711
1.07784
-0.32074
-1.01682
0.438812
-0.987974
-0.122975
-0.497091
-1.04998
0.728853
-1.14521
-1.05099
-1.03334
-1.0321
-1.00735
0.762485
-0.300309
-0.557411
-1.07356
1.22412
-0.91916
-1.07175
-1.01128
-0.233973
-1.16871
-1.01249
-1.06898
-0.191531
1.1465
-1.11524
-0.997672
-1.6166
-0.814968
-0.383255
-1.01273
1.31205
1.241
0.284349
-1.12299
-1.00459
0.197405
-1.00531
1.32156
0.0739995
1.00288
0.575615
1.21366
-0.0468651
-1.17822
-1.15598
-0.203663
-1.12367
-0.203724
-0.179872
-1.04388
1.21757
-0.3814
0.0856111
-0.515271
-1.00171
-1.19641
)
;

boundaryField
{
    frontback
    {
        type            empty;
    }
    Top
    {
        type            zeroGradient;
    }
    outlet
    {
        type            fixedValue;
        value           uniform 0;
    }
    bottom
    {
        type            zeroGradient;
    }
    Inlet
    {
        type            zeroGradient;
    }
    rectangle
    {
        type            zeroGradient;
    }
}


// ************************************************************************* //
