/*--------------------------------*- C++ -*----------------------------------*\
| =========                 |                                                 |
| \\      /  F ield         | OpenFOAM: The Open Source CFD Toolbox           |
|  \\    /   O peration     | Version:  2306                                  |
|   \\  /    A nd           | Website:  www.openfoam.com                      |
|    \\/     M anipulation  |                                                 |
\*---------------------------------------------------------------------------*/
FoamFile
{
    version     2.0;
    format      ascii;
    arch        "LSB;label=32;scalar=64";
    class       surfaceScalarField;
    location    "11";
    object      phi;
}
// * * * * * * * * * * * * * * * * * * * * * * * * * * * * * * * * * * * * * //

dimensions      [0 3 -1 0 0 0 0];

oriented        oriented;

internalField   nonuniform List<scalar> 
3181
(
-1.04642
0.430072
0.616345
-0.383847
0.361242
0.0226048
0.516113
-0.354547
-0.161566
0.118596
-0.196978
0.0783813
-0.0964714
0.123442
-0.0269711
0.769544
0.438547
-1.20809
0.146537
-0.140273
-0.00626349
0.0924
-0.00138173
-0.0910183
0.582963
-0.762725
0.179762
-0.075149
0.133989
-0.0588397
-0.0100499
-0.052356
0.0624059
0.123448
0.0475417
-0.17099
-0.00329027
-0.0746955
0.0779857
-1.08868
0.149887
0.938795
-0.322218
0.688141
-0.365923
-1.12046
0.636128
0.484329
0.0872056
-0.936331
0.849125
-0.348292
0.264027
0.084265
-0.625058
-0.44859
-0.00497889
0.0718417
-0.0668628
0.0420994
-0.0895873
0.0474878
-0.0768138
0.0642959
0.0125179
1.05203
-1.03076
-0.0212709
0.0213836
0.034075
-0.0554586
-0.953513
0.32942
0.624092
-0.107418
0.226014
0.304823
-0.248281
-0.0565425
0.0292596
0.0613816
-0.0906412
-0.41523
0.342505
0.0727252
-0.0366502
-0.00835023
0.0111207
-0.00277049
-0.0387695
-0.914743
0.106212
-0.0699149
-0.036297
0.036274
1.38271
-1.41898
-0.042821
0.0397956
0.00302534
0.181974
0.278422
-0.460396
1.35524
-1.31897
0.0742001
-0.0321006
1.60133
-0.848262
-0.753066
-0.254008
1.02355
-0.143611
0.140321
-0.076503
-0.000310843
-0.402846
0.0806276
-0.157141
0.0806382
-0.636444
0.122903
0.51354
-0.144982
0.0698334
-0.165867
0.170031
-0.00416409
-0.268096
-0.0753864
0.343482
-0.225966
1.50629
-1.28033
0.0866996
0.204574
-0.291273
-0.0133291
-0.101238
0.107453
-0.00621531
0.506961
0.181181
-0.0962852
0.145745
-0.0494599
0.0852995
0.0209124
-0.168621
0.194487
-0.0258661
0.160654
0.0556385
-0.216293
0.107329
-0.113173
0.0058438
1.27921
0.322123
-0.85546
-0.190956
0.222656
-1.29702
1.07436
0.555869
0.23487
-0.790738
-0.44811
-0.207756
0.655866
-0.937884
0.683876
-0.275002
0.83087
-0.320311
-0.100837
0.421148
-0.208356
-0.206874
-0.1888
0.168939
0.0198607
0.140505
0.280601
-0.421106
-0.188222
0.771184
-0.00856776
0.100968
-1.52103
1.74369
0.181411
0.123412
-0.173953
-0.111546
0.285499
-0.269955
0.359759
-0.0898041
-0.0793565
0.0876012
-0.00824472
-1.747
-0.920202
0.011524
0.908678
-0.0438926
0.00107161
-1.09536
0.82284
0.272521
0.604673
-0.400068
-0.204605
-0.973848
0.0359639
1.1115
-0.961613
-0.723112
1.13785
-0.19906
1.07273
0.171861
-0.174352
0.0024913
1.18492
-0.746374
0.601183
-0.601183
-0.00831162
0.000204689
0.00810694
-0.208365
-0.0531423
0.261507
0.149468
-0.0988817
-0.0505866
-0.43803
0.817109
-0.379079
-0.0244874
-0.226185
0.250672
-1.07701
0.0462544
0.349868
0.0570309
-0.406899
0.132266
-0.852975
1.08784
0.108577
0.109049
-0.217626
-0.0176492
-0.150972
-0.521732
0.321182
0.20055
-0.364945
-0.156788
0.114408
-0.967383
0.321211
-0.759241
0.916249
-0.829043
-0.036703
0.248354
-0.211651
0.0870207
0.0529295
-0.13995
-1.35058
-0.113471
1.46406
-0.238325
0.404011
-0.165686
-0.919587
0.446312
0.473275
-0.485835
-0.609526
0.200316
-0.113617
-0.150561
0.145086
0.00547533
-0.0788786
-0.0155812
0.0944599
-0.542448
-0.220277
-0.121382
0.0568012
0.064581
-1.08066
0.121887
0.958772
1.63648
-0.130189
-0.0107141
0.00240247
0.0317091
0.149702
-0.2022
0.384174
0.00635436
0.256077
-0.262432
0.140964
0.0688697
-0.209834
0.364444
-0.0659901
-0.298454
-0.596524
-0.523933
-0.801714
-0.278944
-0.0776816
0.186259
-0.102419
0.180367
-0.0779478
0.0161517
0.0245782
0.121958
-0.056751
0.067994
-0.011243
-0.0933559
-0.0208657
0.114222
0.0732057
-0.0732057
-0.182238
0.206817
0.239728
0.210928
0.103109
0.0913785
-1.24418
1.05596
-1.54451
0.0795358
1.46498
0.0209581
-0.0165237
-0.00443443
-0.0268128
-0.0519617
0.0787745
0.530667
-0.0218481
-0.508819
-0.0420285
0.0441802
-0.00215174
-0.197275
0.0150362
0.159057
0.658052
-0.369716
0.528773
-0.147647
-1.20294
-0.153024
0.0565523
0.477634
-0.299227
-0.178407
0.181521
-0.153645
-0.0278769
0.0470906
-0.315186
0.0218589
-0.942061
0.0487027
-0.151122
-0.281371
-0.395697
0.0755755
1.41843
-0.972231
-0.446195
1.10868
0.30975
0.065341
0.278141
0.0226374
-0.00167925
-0.110626
0.19611
-0.0854842
-0.252738
-0.588058
0.840796
-0.349871
0.559863
0.709856
-1.15845
0.144832
0.0283826
-0.0615367
0.0331541
-1.07849
0.114641
0.963845
-0.0813898
-0.997097
-0.309049
0.658917
-0.914472
-0.0166104
0.00492853
-0.270342
0.265414
1.48313
-1.60756
0.124431
-0.147648
-0.00537586
0.565189
-0.817926
0.15254
-0.462511
0.309971
-0.295148
-0.122481
0.417629
0.173214
-0.999896
-0.0771191
-0.0197713
-0.0470915
-0.562914
0.355158
-0.249164
0.0187421
0.230422
-0.0259406
-0.121707
0.0253574
-0.0253574
-0.12233
0.134574
-0.012244
-0.266927
-1.27759
0.100684
0.0352332
-0.135917
-0.206473
0.0339179
0.172555
-0.224059
0.035259
1.65793
-0.339132
-1.3188
-0.18285
0.441922
-0.259072
0.0040059
-0.003492
-0.000513904
-0.556384
-0.363204
-0.187746
-0.00468828
0.192434
-0.169982
0.310487
-0.103817
0.102179
0.00163805
0.0755962
0.0127558
-0.088352
-0.160756
0.219336
-0.0585801
-0.280213
0.549177
-0.268963
-0.215807
-0.0502257
0.266033
-0.682731
0.661292
0.0214388
-0.00378672
0.0378617
0.0526948
-0.0532733
0.000578489
0.00299851
-0.0584571
0.617005
1.01948
0.165591
-0.882476
0.716886
-0.110288
1.96163
-1.85134
0.376797
0.0936592
0.507523
0.0668665
0.206771
-0.0658066
-0.0724539
-0.0287843
0.232356
0.161466
-0.0744449
0.734956
-0.405535
0.0598752
0.201632
0.0527533
-0.168442
0.115689
-0.782296
-0.123853
0.906149
-0.0424434
0.0424434
-0.106618
-0.271064
0.549487
0.012754
-0.228561
0.133352
0.130675
0.0553131
-0.132995
0.139227
-0.149277
-0.341199
0.316712
0.0593496
0.043623
-0.102973
0.377864
-0.330323
0.365374
0.041136
-0.40651
-0.203675
0.269016
0.183587
-0.482814
-0.184567
0.614639
0.162984
-0.0329198
0.0329198
-0.399985
0.539008
-0.139023
0.376646
0.0273651
-0.0238308
0.0303958
-0.00656499
-0.182225
-0.0550341
-0.066348
-0.0491856
0.188412
-0.183056
0.244253
-0.0611976
0.133845
0.0276207
-0.384695
0.136414
0.195219
-0.0613737
-0.046578
-0.0572387
-0.0915393
0.0702925
0.0212469
0.145306
-0.103106
-0.0421999
-0.0214704
0.401495
-0.380025
-0.149286
0.140718
0.106351
-0.110681
0.00432964
0.023715
0.482789
-0.117415
-0.0893911
-0.0181935
0.107585
-0.103285
-0.00568363
0.108969
-0.0947096
0.0944841
-0.717976
0.623492
-0.0429272
-1.50066
-0.386961
1.88762
0.601772
0.88677
-1.48854
0.0814631
-0.351693
0.285703
0.281971
0.252105
-0.534077
-0.206848
0.259602
0.126736
-0.870302
0.743565
0.0593074
-0.162593
-0.0260663
0.00629504
-0.988708
0.447489
0.541219
0.972231
-0.857823
-1.66379
1.55032
-1.48313
1.56266
0.0393515
-0.0888114
0.0158703
0.0368245
0.00942849
0.784182
-0.657445
0.119469
-0.070766
0.409213
0.728642
-0.161074
-1.64474
1.53445
-0.663487
-0.580696
-0.238351
-0.398093
-0.00896504
-0.163419
0.21051
-0.579495
-0.364755
0.181906
0.762668
-0.232001
-0.886801
-0.776989
0.730779
0.23693
-0.177623
0.276236
0.0372303
-0.0372303
0.669056
0.148027
-0.817083
-0.228974
0.89803
0.405281
-1.19358
0.788299
0.265725
-0.0547966
0.00662122
0.00635591
-0.0129771
-1.29702
-1.18986
1.05967
0.878326
0.779605
-0.0339554
-0.131911
-0.238222
0.745182
-0.20012
-0.0490436
-0.00293014
-0.0764264
-0.0556347
0.108564
0.378404
-0.255501
-0.811134
-0.291425
-0.137319
-0.0962962
0.233615
-0.752118
0.845777
-0.188245
0.169496
0.0187495
0.0188325
0.00380492
-0.138165
0.0665343
0.0716305
0.0085955
0.412553
0.129355
0.0521661
0.0275262
0.0133173
-0.0408436
-0.0167076
-0.171038
-0.727222
0.37626
0.350962
0.401932
-1.20349
0.801561
0.139566
-0.161028
0.0214611
-0.0125255
0.212842
-0.163543
-0.43764
-0.143716
0.00555139
-0.170144
0.0565271
0.14596
-0.34816
-1.24721
0.77778
0.469434
0.0428504
0.0914229
0.0538831
-0.782296
-0.189066
-0.091147
0.155325
-0.088791
0.0441332
-0.632404
-0.0503271
0.0612803
0.133938
-0.00720706
0.0352158
-0.456322
0.120638
0.352723
-0.295692
-0.113653
0.0202975
0.218179
0.835472
-1.05365
0.105875
-0.704146
0.598271
-0.934791
0.810938
-0.750577
0.231548
0.519029
-0.00806657
0.00888978
-0.000823211
0.173701
-0.468849
0.213001
-0.124753
-0.0882475
0.05486
-0.0605436
-0.00239454
-0.134925
-0.017086
0.0262279
-0.0232294
0.0206523
0.0826783
-0.103331
1.00705
-0.00129711
0.00186727
-0.000570161
0.123377
0.0173414
0.854307
0.0784474
-0.0838232
-0.116842
-1.07302
0.25219
0.0135353
0.00766478
0.0837581
-0.519029
0.43764
0.239194
-0.249496
0.0103025
-0.255942
0.0815897
0.120912
-0.118421
-0.00138038
0.0889816
-0.0434102
-0.932975
-0.314239
-0.0465501
0.0672023
0.740205
-0.255877
-0.31584
0.109366
0.346817
0.0177904
-0.0416211
-0.00753956
0.0807453
0.146395
0.213364
0.154009
-0.334015
0.180005
0.111895
0.546157
-0.0362251
-0.108757
0.911873
-0.251413
-0.660461
-0.750577
-0.38625
0.788182
1.35524
-0.164646
0.46351
-0.298864
0.367472
-0.0713675
-0.296104
-0.331736
-0.642112
-0.0760797
0.0771217
-0.00104194
-0.0285097
-0.166735
0.195245
0.451332
-0.960878
0.509546
0.0410135
0.66751
-0.708523
-0.0433973
-0.107164
0.00740475
-0.0967959
0.275399
-0.675385
-0.0103574
0.00229081
0.157589
0.0079183
-0.165508
0.0634677
-0.174093
-0.000172488
0.019005
0.104851
0.143503
-0.0462808
-0.0069925
0.197337
-0.423522
-0.297147
1.18392
0.0342958
0.00814759
-0.980638
-0.0192574
0.193715
-0.0707923
-0.0428611
-0.141359
0.2939
0.749744
-0.917325
0.167581
0.167635
0.084555
-0.943271
-0.0183419
-0.00218707
-0.649393
0.743877
-0.017532
0.180516
0.0104671
-1.20405
0.187663
-0.439575
0.251912
0.0381079
0.21797
0.000123814
-0.000129643
5.82814e-06
-0.0345708
-0.126185
-0.020475
-0.130497
0.743329
-0.637454
-0.155188
0.0880828
-0.124777
0.313633
-0.159624
0.15371
1.24639
-0.218692
-1.02769
-0.121889
0.140632
-0.501325
-0.225897
-0.549091
0.629961
-0.599614
-0.0303468
-0.0955001
-0.0596879
-1.64474
0.579502
-0.579502
-1.70888
1.70888
0.784182
0.144571
-0.387926
0.243354
-0.892834
-0.0878042
0.637539
-0.371539
-0.266
0.157653
-0.235601
-0.0102742
-0.000439894
-0.882578
-0.0848042
-0.933237
0.215261
0.0276561
-0.123952
0.703489
-0.109058
-0.594431
0.880479
0.474761
-0.000943518
0.00106733
-0.964542
0.471013
-0.429877
-0.08023
-0.606377
0.686607
-0.0721201
-0.896563
-0.710993
0.217634
-0.814158
-0.906149
1.34411
-0.437957
-0.135692
0.275083
-0.139391
-0.0328892
0.736378
-0.107674
-1.00184
1.00184
-1.03683
0.443272
0.593557
0.00185406
-0.00315117
0.112398
-0.441141
0.856005
-0.0331654
-0.0879964
-0.0343002
0.144624
0.00319755
0.000808355
1.29424
-1.0627
-0.338388
0.413984
-0.641649
1.02293
-0.381282
-0.0773943
-0.066322
0.125606
-0.0567359
0.34227
0.00615597
-0.0808514
0.356154
0.0453411
0.0433295
-0.250457
0.207127
0.136688
0.0333427
0.0987927
0.182896
1.13442
0.609266
0.160008
0.940188
-1.1002
-0.967144
1.08178
0.217608
-0.13697
0.0710357
-0.764832
0.693796
0.304579
0.12237
-0.463569
-0.0740615
0.130825
-0.056763
0.12672
-0.200781
-0.453465
-0.109449
-0.0739643
0.0772472
-0.00328294
-0.0028633
-0.0434174
0.0270532
-0.00614082
0.657445
-0.598271
-0.0591742
-0.286736
0.299491
0.876486
0.622805
-0.255333
-0.0388253
0.0740585
-0.347193
-0.115318
0.17955
-0.568527
0.388977
-8.99351e-05
-3.9707e-05
0.02886
0.222877
-0.251737
0.00302911
-0.0097557
0.00672658
-0.0241831
0.0159752
0.0082079
-1.08763
0.34126
-0.177147
-1.32351
-0.201359
-0.857823
1.56266
1.55032
-0.18961
-0.169604
0.119378
-0.0650032
0.0709385
-0.00593527
-0.0849926
1.10362
-1.01862
0.558393
0.0791463
0.0010041
-0.00109404
0.122508
-0.0239344
0.0343002
-0.0511304
0.0045803
-0.668386
0.321193
-0.0809306
0.136244
-0.229333
0.607197
1.10868
-0.0762938
-0.0601034
0.00124087
0.0588625
1.88603
-0.335713
-0.0598794
-0.0532936
-1.01782
0.159993
0.383938
-0.210724
-0.47208
-0.137909
0.60999
0.808737
-0.361962
-0.446775
-0.0132142
0.762958
-1.53445
0.237432
-0.0155034
-0.0437021
0.0592054
0.452067
1.50956
-0.166686
0.173307
0.240554
2.15103
-0.588373
-0.671643
0.0554674
0.616176
0.387852
0.0161153
-0.349479
0.524446
0.795895
0.216774
0.0748467
-0.0209636
-0.355722
0.0537011
0.302021
1.33039
0.0942887
-0.0667625
-0.0517412
-0.360376
0.109023
-0.315871
0.987691
0.258696
-0.150083
0.054583
0.308836
-0.473481
-0.0216651
0.0178784
0.108649
-0.144567
0.0359183
-0.294722
0.308374
-0.0136523
0.599326
-0.818018
-1.00972
0.0337898
0.975934
0.126663
-0.257553
0.13089
0.275471
0.038162
-0.24769
0.0586243
-0.674359
0.674359
1.07436
0.880479
-0.704146
0.325905
0.46999
-0.604525
0.465503
0.928426
-0.370033
0.0130919
-0.87763
0.864539
0.127555
0.00643337
0.0234146
-1.05877
0.81108
0.104842
-0.166168
-0.117086
0.283254
0.323786
-0.503028
0.33686
-1.11519
-0.290763
-0.661267
-0.0642865
0.00182282
4.44503e-05
-0.224992
0.159427
0.0741885
0.0332844
-0.15015
0.116866
-0.545492
-0.491337
-0.00558612
0.0669677
-1.16061
0.511076
0.649531
-0.553356
0.374949
-0.100933
0.144556
0.229046
-0.00739897
-0.0186674
-1.06666
0.727528
0.0353151
0.0710359
-0.190047
0.0652694
0.20462
0.00838121
-0.438314
0.800302
0.506294
-0.118582
0.861103
-0.790067
0.796405
-0.449588
-0.622301
0.18116
0.15299
-0.790501
0.765599
0.0249021
1.22137
-0.233677
-0.203896
-0.134492
-0.138953
0.0400711
0.959341
-0.846929
-0.112412
-0.187772
0.113327
0.0271204
0.117965
0.882222
0.894956
-0.809473
-0.0854831
-0.320347
-0.0444077
-0.640775
-0.519832
0.143048
1.32101
0.741972
0.138507
0.162927
0.559322
-0.722248
0.0604742
0.0507176
-0.00992323
0.00252427
-0.5153
-0.107001
0.179619
-0.20556
-0.190934
0.141748
-0.528778
0.269706
-0.993805
-0.472918
-0.288844
-0.826932
1.52072
-0.0557381
-0.287108
-0.309921
-0.358465
0.00341964
0.303664
0.0524904
1.31212
-0.86079
-0.194338
0.132965
-0.519272
-0.352423
0.871695
-0.0207642
0.00526079
0.0498226
-0.0600002
-0.234721
-0.115591
0.694935
-0.423587
-0.271348
0.118968
0.131229
-0.0946135
-0.0366157
0.242563
0.0611004
-0.395511
-1.09303
-0.0971657
0.141299
0.955823
-0.0608662
0.0138994
0.0950695
-0.0237055
0.0169751
0.00673048
0.0161629
-0.0326866
-0.245563
0.0771206
-0.0971174
-0.545288
0.409596
0.0232911
0.125725
0.000937776
-0.697117
1.54627
-1.28758
0.0148907
-0.196238
0.181348
-0.135064
-0.521357
0.656421
0.0706842
-0.703088
-0.932557
-0.0771671
-0.0789527
-0.00100527
0.0799579
-0.242192
-0.629961
-0.152335
-0.132685
-0.355722
-0.234557
0.16875
-0.444058
-1.15316
-0.588363
0.486453
0.10191
0.259561
0.111224
0.53173
0.227689
-0.75942
0.167685
0.0692458
0.905761
-0.0756785
-0.830083
-0.220683
0.0937333
0.988052
-0.244898
0.1837
-0.799764
0.893497
0.305935
0.0152467
-0.0318205
0.041249
-0.00707167
1.14273
-1.26131
0.722585
0.086152
-1.05056
0.117584
0.245208
0.683218
0.896918
0.0149551
-0.0211539
-0.741972
-0.661267
-0.711194
0.722718
-0.0643217
-0.886801
0.66751
0.608265
-0.934733
0.928078
-0.00157911
-0.788922
-0.317205
0.638007
-0.773653
0.135646
0.0791136
0.0521157
-0.437084
0.064633
0.827549
-0.892182
0.00180571
1.71128e-05
-0.266696
0.217652
0.708691
0.218923
-0.203886
-0.177143
0.836039
-0.714152
0.236848
0.00650646
0.707276
0.485666
-1.19294
-0.720897
0.774598
1.14489
-0.633816
0.0857845
0.366654
-0.302021
-0.0130326
0.21627
-0.0481126
0.0964352
0.09728
0.000965935
-0.0166804
0.0157145
-1.0236
-0.0300496
0.311369
-0.805967
-0.431719
1.2042
-0.772483
0.375184
0.647748
-0.0482532
0.0516071
-0.00335391
0.0680569
0.767982
-0.718185
0.803614
0.563177
-0.994896
0.317805
-0.101535
-0.587202
-0.406604
-0.36074
1.06802
-0.0523277
-0.87921
-1.85862
0.00728058
0.366654
0.0551513
-0.861119
0.837562
-0.651084
-0.186479
-0.982698
0.395496
0.00302506
0.111048
-0.000146276
-0.110901
-0.968577
0.561974
-0.21211
0.908929
-0.927271
0.193793
-0.2105
-0.0964808
0.242441
1.1352
0.202745
-0.198116
-1.45671
0.429015
1.10995
-0.89318
-0.552397
-0.518583
1.07098
0.447603
0.0183472
-0.0119913
-0.738573
0.708523
0.524173
-0.456117
-0.507523
0.54268
-0.0351563
0.635236
0.568966
0.778555
-0.815205
-0.491691
-0.450369
-0.469858
-0.498719
0.801121
-0.801121
0.683422
-0.683422
-0.738573
-0.578644
0.578644
-0.54268
-0.503996
-0.375258
-0.440616
-0.666417
0.666417
0.524173
-0.456117
0.778555
0.768951
-0.768951
0.815205
0.764794
-0.764794
0.508309
0.530142
0.481417
-0.142244
-0.501281
-0.549631
1.07977
-0.500577
-1.11191
0.751175
0.607006
0.537886
0.0894623
-0.0206213
0.0990687
-0.888939
0.0919432
0.796996
-0.153086
0.144121
-0.99401
0.588475
0.910198
-0.584292
-0.123718
0.00445536
-0.00581379
-0.812211
-0.0702654
-0.541219
-0.00584427
0.0121393
0.31019
-0.182417
0.0936262
0.177948
0.00677735
-0.0115526
0.00477526
-0.816788
0.0687795
0.748008
0.495437
0.639761
-0.529152
0.417298
0.111855
0.920162
-0.740613
-0.179549
0.081811
0.302363
-0.0138546
-0.0601097
-0.0619564
-0.0141234
0.206153
-0.958271
-0.834043
0.0962636
-0.74617
0.793634
-0.0474636
0.122738
-0.900914
0.778176
-0.802091
0.90033
-0.0982391
-0.0604805
0.0766433
0.0200351
-0.290377
0.620143
0.447873
-0.0944053
-0.794534
0.914503
-0.0914329
-0.82307
0.0849586
-0.162353
1.10244
0.825757
-0.587947
0.467252
-0.388106
0.0991031
-0.893637
1.31897
0.389918
-0.79135
0.00242801
1.01464
-0.891904
1.19901
1.10704
-0.565205
-0.541839
-0.8814
-0.11261
-0.419577
0.0395523
-0.560995
0.728576
-0.788208
0.788208
-0.609578
-0.0823197
-0.86095
0.120337
-0.957498
0.877268
0.0759089
-0.200662
-0.056515
0.0564809
0.0115131
0.182842
0.831799
0.81801
0.7733
0.140419
-0.913719
-0.528846
1.06673
-0.785153
-0.102061
0.887214
0.167932
-0.886117
-0.678108
0.879741
-0.780638
-0.109261
0.461408
-0.0154673
-0.44594
0.0793359
1.20427
-1.2836
0.0784091
-0.423605
0.345196
-0.894414
-0.832063
0.0858931
0.5309
0.265505
-1.45821
1.22207
-0.606749
0.606749
-0.925161
-0.531549
-0.134589
0.945669
-0.890213
0.924003
0.77768
-0.19956
0.971658
-0.630399
0.647541
-1.10769
0.460152
0.0471197
-1.25061
0.272486
0.578199
-0.246718
0.155571
0.233353
0.306569
-0.224758
0.785099
-0.883338
0.604957
0.461774
-0.149702
0.738177
0.604094
-0.604094
-0.0559566
0.0597615
0.113702
-0.0804175
1.13026
0.074009
0.302525
-0.00159338
0.00240164
-0.000808263
-0.670428
0.689264
-0.0188366
0.538807
-1.10401
0.109315
-0.889954
-1.095
1.35233
-0.257332
0.255862
0.869624
-0.650641
1.18945
-0.749535
0.599421
-0.649748
-0.658328
0.157003
-0.456472
0.0286303
0.102939
-1.09479
0.638313
-0.00265556
-1.17565
0.072552
0.721082
0.687706
-0.0882845
0.066476
0.787831
-0.531476
1.17812
-0.64664
-0.829193
0.515849
0.469575
-0.932665
0.712072
0.220593
-0.685841
-0.128317
1.00645
-0.427039
-0.248346
-0.0350673
0.485634
0.514366
-0.77177
-0.111567
-0.519555
-0.51445
-0.505872
-0.511725
0.406163
0.593837
-0.154893
0.172234
-0.863203
-0.0624698
-0.587279
-0.152084
-0.244195
0.396279
-0.0379567
-0.00545356
0.115262
0.0731502
-0.128367
-0.117196
0.757014
-0.651166
0.717642
-0.3604
-0.734385
0.891877
-0.269966
-0.621911
-0.743831
-0.184931
0.928762
-0.23763
0.226632
-0.0250002
-0.123318
0.00161035
0.0123597
0.745039
-0.13829
0.11754
0.111506
-0.732058
0.0616309
1.08748
-0.537341
0.150045
-0.556555
0.698951
-0.289948
1.01859
-0.00351883
0.42758
-0.187026
-0.00517125
-0.0837939
-0.149967
0.0296788
1.0578
-0.170077
0.59103
-0.420954
0.842907
-0.0187398
0.00371718
0.0150226
0.130153
-0.00948723
-0.000870147
0.213115
-0.104466
0.186788
-1.077
-0.13932
-0.0307568
0.00624277
0.283004
0.321065
-1.06081
1.34247
-0.281652
-0.782782
0.832126
-0.0493441
0.0162511
0.0822908
0.223644
-0.073308
1.15994
-0.456592
-0.0725602
0.274759
0.449944
0.176928
-0.626873
0.396474
0.0308183
0.658446
-0.577005
0.566256
0.0107488
1.26603
-1.26261
-0.0502888
0.0638927
-0.0136039
0.693205
-0.00909358
-0.0832834
0.0207745
1.22627
0.162787
-0.146536
0.11683
-0.112154
-0.1454
0.164201
0.0609009
-0.225102
0.0049951
-0.00402917
0.756952
-0.832631
0.241873
0.217539
-0.025189
-0.0869119
0.227985
0.0890395
0.00696524
0.0953839
0.765757
0.233836
0.575659
-0.809496
0.910342
-0.0515824
-0.85876
0.647195
0.115034
-0.0959995
-0.00207488
0.0980744
-0.779462
-0.263508
-0.844185
-0.00767553
0.738455
0.71423
0.00472036
-0.309424
-0.12766
0.815127
0.140445
0.0132644
-0.885089
0.170556
-0.276866
-0.159379
-0.168491
0.701505
0.0642518
0.0136998
0.76702
-0.684729
-0.26717
0.165537
0.0221898
-0.111777
0.421587
-0.0569952
-0.106177
-0.0691189
0.158456
0.499283
0.411059
-0.149142
0.650179
-0.0390239
-0.108881
0.0160522
-0.000876357
-0.0151759
-1.40328
0.140669
-0.0109768
0.932344
-0.226793
-0.612437
0.641175
-0.028738
0.243349
0.763136
-0.749513
0.127603
0.0796813
-0.176162
0.643317
0.119819
0.677269
0.168509
-0.270787
0.738039
0.0813194
0.976478
-0.605266
0.352578
0.252689
-0.78027
-0.070906
0.0404549
0.0670971
-0.0482747
1.22347
0.746637
0.0684902
0.620112
0.220684
-0.872967
-0.0810117
-0.678605
0.681033
-0.0262483
-0.572421
0.420337
0.882283
0.674135
0.164315
0.0185454
-0.150014
-0.313555
1.20054
0.345735
-0.472536
0.0405381
0.87029
0.106189
0.725469
0.233302
-0.079681
0.997892
-0.729239
0.919119
-0.18988
-0.416348
-0.188918
-0.0781657
-0.189694
-0.162654
0.853854
0.0193967
-0.00607935
0.625557
-0.0499346
-0.506621
0.611665
-0.130948
0.231114
0.760373
0.243265
-1.00364
0.277422
-0.928505
0.0652024
-1.35278
-0.172855
0.767621
-0.594766
-0.672215
-0.15436
0.0310423
-0.0544905
-0.919683
0.016476
-0.0401816
1.00974
0.13553
-0.439683
0.304153
-0.0406882
-0.579495
0.180309
0.247271
-1.23649
0.00329349
0.00348386
-0.619072
-0.0532092
-0.595617
0.0186125
0.582459
0.299823
0.963859
0.923763
-0.247473
-0.388542
0.636015
0.143558
-0.614642
0.614642
-0.236268
-0.926483
1.16275
0.0305527
-0.152442
0.688518
-0.106059
-0.216496
-0.398885
0.150538
0.548745
0.535318
-0.43599
0.180501
-0.104926
-0.687735
0.484725
0.0815305
0.0639791
0.010221
-1.11211
-0.494081
-0.253989
0.69858
0.30142
-0.494081
0.69858
-0.500356
-0.247893
-0.500356
-0.693758
0.693758
0.306242
-0.013946
0.237725
-0.0761474
0.211467
0.158045
-0.474683
0.641605
-0.0299394
0.663822
-0.515663
-0.148158
-0.0537684
0.0517703
0.00199815
-0.00776876
0.00617538
-0.0434123
0.0183316
-0.0974586
-0.435044
-0.358113
0.133121
0.0390368
0.827334
-0.268013
-0.563495
0.20503
0.00232454
-0.173155
-0.00175941
0.666726
0.0717288
0.0261431
-0.0383071
-0.00253644
0.0276024
0.0856084
0.558911
-0.475913
-0.0829987
1.72844
0.55332
-0.799028
0.906083
0.0114125
-0.0633742
0.108465
0.0672855
0.158896
1.13876
-0.378388
0.0182409
-0.0825274
0.677735
-0.958408
0.0210683
-0.0210683
0.0215731
-0.0215731
-0.032125
0.032125
0.0342958
0.368579
0.466829
-0.0413588
-0.70651
0.474509
0.184749
0.0283663
-0.0829955
-0.484964
0.818382
0.11311
-0.798951
-1.07081
-0.13324
0.118207
0.0195664
-0.00359129
-0.0261377
0.0261377
0.286833
-0.0251324
0.0251324
0.703482
0.097218
-0.0271733
-0.0111339
0.00648915
-0.0665925
-0.0219479
0.0219479
-0.0192843
0.0192843
-0.023038
0.023038
-0.0189422
0.0189422
0.136957
-0.297013
-0.0803544
0.219923
-0.01701
0.01701
-0.369993
0.504654
-0.134661
0.493188
-0.218105
-0.203357
-0.360138
0.564069
-0.162853
0.0821967
0.558978
0.56988
-0.0070336
0.0070336
0.249788
0.0257771
-0.0257771
-0.0146389
0.0146389
0.748923
-0.929585
0.0376086
-0.155635
0.378512
0.00296894
-0.00296894
0.024102
-0.024102
0.0187039
-0.0187039
0.0226332
-0.0226332
-0.0241828
0.0241828
0.0355897
-0.0355897
0.491509
-0.0324037
0.0324037
-0.00209879
0.00209879
0.0246392
-0.0246392
-0.0101954
0.0101954
0.00918533
-0.00918533
-0.093459
-0.0268191
0.0268191
0.0513312
0.0107717
-0.0399193
0.0399193
0.00961695
-0.00961695
0.0349174
-0.0349174
0.0340418
-0.0340418
0.0251823
-0.0251823
0.0038453
-0.0038453
-0.00390043
0.00390043
-0.472044
-0.149097
-0.0166094
0.0166094
-0.00127558
0.00127558
-0.0385013
0.0385013
-0.0274169
0.0274169
0.000663159
-0.000663159
-0.418949
0.664157
0.253935
-0.032286
0.032286
-0.0509892
-0.0269948
0.0269948
-0.000559692
0.000559692
0.0365951
-0.0365951
-0.190251
0.203516
0.00586978
-0.00586978
-0.0222863
0.0222863
-0.482721
0.0434556
-0.732123
-0.0307513
0.0307513
-0.437122
0.0329708
0.0186363
-0.107704
-0.942855
-0.0369425
0.0369425
-0.203573
0.146578
-0.039863
-4.57872e-05
4.57872e-05
-0.00368389
0.0511717
0.266299
-0.324753
-0.277015
0.601768
0.191099
-0.0079997
0.0079997
-0.308066
0.483982
-0.175916
0.750798
-0.395598
-0.3552
-0.467377
-0.660749
-0.122957
0.327987
-0.525219
-0.303975
-0.574748
0.0206867
0.182271
-1.15842
0.0169928
-0.0169928
0.000239897
-0.000239897
0.031042
-0.031042
0.025635
-0.025635
0.000594697
-0.000594697
0.000279603
-0.000279603
-0.0707987
-0.329269
0.167966
-0.291683
-0.000320963
0.000320963
-0.0439666
0.0439666
-0.0405466
0.0405466
0.253794
0.0176507
-0.271444
0.00654468
0.310058
-0.536851
-0.000147907
0.000147907
-0.0330591
0.0330591
-0.0993496
-0.0111246
-0.111832
0.000273775
-0.000273775
0.113654
0.0108099
0.985295
-0.486656
-0.0870787
0.573734
-0.624071
-0.0812132
-0.479782
-0.0377031
0.0377031
-0.67419
0.273162
0.0498718
-0.0498718
-0.653358
0.387358
0.259722
0.119051
0.000914543
-0.000914543
-0.845793
0.000870092
-0.000870092
0.318421
0.417957
0.0833885
-0.0539047
0.0539047
1.47023e-05
-1.47023e-05
-0.042594
0.042594
-0.0524978
0.0524978
0.00144025
-0.00144025
-0.0579731
0.0579731
0.0016291
-0.0016291
-0.0459326
0.0459326
-0.00403856
-0.0440271
0.0440271
0.00194704
-0.00194704
0.0484826
-0.0484826
0.000905868
-0.000905868
0.0465986
-0.0465986
-0.129777
-0.00153038
0.00153038
-0.00407566
0.00407566
-0.041568
0.0807453
-0.0108022
0.0108022
0.00558404
-0.00558404
-0.0597757
0.0597757
0.299707
-0.0190101
0.0190101
-0.0555562
0.0555562
-0.00772292
0.00772292
-0.067711
0.067711
-0.0131234
0.0131234
-0.0810187
0.0810187
-0.0222073
0.0222073
-0.0914745
0.0914745
-0.67704
0.212669
-0.537811
0.509073
-0.896563
-0.157969
-0.550596
0.382105
0.0672964
0.0516713
0.00386718
-0.00386718
0.345093
-0.720351
0.0457785
-0.0355576
-0.771959
1.24672
1.05223
0.248994
-0.0607117
-0.0143962
-0.387771
-0.586005
-0.0943892
0.397762
-1.31152
-0.0223446
0.0223446
-0.757863
0.0189732
-0.0189732
-0.00243599
0.00243599
0.31909
-0.338219
-0.00215173
0.00215173
0.0186932
0.0142267
0.602632
0.165785
-0.00405158
-0.00850346
-0.0126505
-0.101954
0.500196
-0.398242
0.27055
0.0019358
0.00881852
1.08513
-0.0364289
0.0505184
-0.411609
0.451161
-0.498687
-0.983573
-0.219364
-0.0739879
0.0183532
-0.379696
-0.0439092
0.0649487
-0.00535182
-0.0221231
0.785959
-0.553882
-0.0403029
0.0624927
-0.0372924
0.0217279
0.215997
0.419908
0.241384
-0.162825
0.207354
0.0127763
-2.05472e-05
-1.23176
0.0367194
-0.0592961
-0.380387
-0.018594
-1.35378
-0.0706086
0.265854
-0.353626
0.398967
0.226384
-1.05332
0.047041
-0.0274346
-0.134918
-0.348219
0.460074
-0.118476
-0.0141935
0.13267
-0.0279221
0.0279221
0.181637
-0.43697
-0.131524
0.165442
-0.0828542
0.0566059
-0.0629142
-0.00564675
0.068561
-0.025303
-0.154367
0.14164
-0.115735
-0.278459
-0.349509
0.627968
0.0158382
0.0612835
0.149687
-0.0321473
-0.174306
0.0718828
-0.159567
0.312557
-0.0123055
0.0273282
-0.0236805
0.173368
0.00337299
0.262041
0.00154323
-0.00154323
-0.0802467
0.805716
0.0924634
-0.173475
-0.0759984
0.00387833
0.442792
0.746656
0.0225149
-0.0478723
-0.539104
0.0012936
0.0894911
0.0975354
-0.687064
0.317031
-0.0550567
0.371466
-0.649925
0.206137
0.505935
-0.0904992
0.0904992
-0.000146277
-1.02099
0.550208
0.470782
-0.214807
0.160316
0.0828924
-0.104286
-0.713733
-0.16178
-0.0567683
0.0726386
0.930552
0.262814
-0.0984989
-0.068229
-0.314379
-0.680517
-0.0761092
-0.262062
0.786509
0.566005
-0.255947
-0.262883
0.545887
0.03661
0.4269
-0.267145
0.108195
-0.461187
0.326527
0.119841
-0.119841
0.145911
-0.166111
0.0201997
0.00815804
-0.00409881
0.0169751
-0.320478
-0.458984
0.220794
-0.184027
-0.036767
0.543677
-1.08938
-0.0500674
-1.02295
0.697585
-0.115297
-0.176387
-0.0360446
-0.0795462
-0.49127
0.0562257
-0.289869
0.0061902
-0.018594
0.382478
-0.00524597
0.00279242
0.00193228
0.012301
-0.0137517
0.0014507
-0.10282
-0.0176831
-0.168256
0.18594
-0.124278
-0.33691
0.0186932
0.347838
0.00513024
-0.377816
0.0889724
0.00273918
0.190593
-0.231952
-0.0124709
0.0124709
-0.00121804
0.00481766
-0.00917816
0.00237106
-0.0901919
0.000685245
-0.00114487
0.308253
-0.014353
-0.000347403
0.000347403
0.135797
0.518987
0.0026749
-0.286174
0.483989
1.14835
-0.472497
0.334624
-0.442462
-0.321804
0.190279
0.226472
-0.224178
-0.0105442
0.0162328
-0.00387304
-0.00955225
-0.175647
-0.373852
0.848361
0.481115
-0.551914
0.285797
-0.00154792
0.277136
-0.0212739
0.00289279
0.000684749
0.015548
0.113873
0.00141802
-0.000346846
0.719552
-0.647669
-0.244695
0.0183736
0.956482
0.00071589
0.00196935
-0.039863
-0.00556894
0.820607
-0.437864
0.519394
-0.768439
0.895257
-0.759618
0.566288
-0.184184
0.696142
0.00219573
0.00319714
0.0163693
-0.11788
0.140485
-0.271456
0.00893935
0.00570467
0.067016
-0.0529737
-0.0140423
0.00212992
0.0439939
0.0493727
-0.0933667
-0.092205
0.00203953
0.000362105
0.00159964
0.480311
-0.43657
-0.00185839
0.000515252
0.84965
-0.299441
0.38126
-0.00590055
0.000285685
0.280526
-0.0386527
-0.0438655
-0.110595
-0.0156142
-0.00360406
0.123059
0.0794754
-0.00209508
0.403464
0.00146444
-0.00316055
0.00316055
0.00897642
-0.0174799
0.000273735
-0.32741
-0.00373931
0.0728739
-0.107363
0.166061
0.0845631
-0.0662135
0.00046887
0.00254528
0.452321
0.000319847
-0.00705384
-0.0711118
-0.00204741
0.000880067
0.0536748
0.24885
-0.713245
0.469966
-0.843818
-0.0550338
-0.000259071
-0.744887
0.152934
0.0804193
0.586299
-0.0147946
0.0241683
-0.0040329
-0.0013892
-0.554372
-0.00333857
0.000188842
-0.0525537
0.914675
-0.518201
-0.00255004
-0.000723228
-0.00587101
-0.00243624
0.0701274
-0.0218308
0.0218308
-0.0554452
0.0602629
-0.00213888
-0.0079353
0.0697717
-0.0669793
-0.167261
0.0963546
-0.00540048
-0.0133077
0.0405273
-0.017382
0.063849
-0.0454958
-0.623852
0.576389
0.0390202
-0.00171686
0.318776
-0.16032
-0.0684337
-0.666904
-0.073337
-0.115771
-0.0946119
0.0925645
0.694382
0.000892769
0.0224618
-0.0204924
0.324225
0.0612586
-0.143273
0.0820143
-0.0700425