/*--------------------------------*- C++ -*----------------------------------*\
| =========                 |                                                 |
| \\      /  F ield         | OpenFOAM: The Open Source CFD Toolbox           |
|  \\    /   O peration     | Version:  2306                                  |
|   \\  /    A nd           | Website:  www.openfoam.com                      |
|    \\/     M anipulation  |                                                 |
\*---------------------------------------------------------------------------*/
FoamFile
{
    version     2.0;
    format      ascii;
    arch        "LSB;label=32;scalar=64";
    class       volVectorField;
    location    "11";
    object      U;
}
// * * * * * * * * * * * * * * * * * * * * * * * * * * * * * * * * * * * * * //

dimensions      [0 1 -1 0 0 0 0];

internalField   nonuniform List<vector> 
2186
(
(1.31399 -0.0961488 1.6304e-19)
(1.6013 -0.937505 -1.09421e-19)
(1.45013 -0.915679 -7.50668e-22)
(0.739389 -0.58044 -1.17283e-19)
(-0.543207 0.6815 -2.38795e-19)
(1.05661 0.0690258 0)
(0.721278 -0.66711 0)
(-0.319069 -0.55379 1.24957e-19)
(1.48674 -0.263674 2.03944e-19)
(0.551624 -0.309766 -2.28691e-21)
(0.681291 0.617901 0)
(0.813489 -0.279412 -1.4655e-19)
(-0.398835 -0.654558 -5.07871e-20)
(1.17388 0.0226677 -2.89804e-19)
(1.787 -0.687217 -1.15451e-19)
(1.01245 -0.0084118 1.3628e-19)
(0.987115 0.00695158 0)
(-0.721591 0.381721 0)
(1.07479 0.0174403 0)
(-0.0519227 0.270828 -8.44993e-20)
(0.489245 0.0969812 -9.48677e-20)
(-0.227534 0.172117 1.14822e-19)
(1.15343 0.0308844 2.39516e-19)
(-0.219065 -0.00528759 4.50937e-21)
(1.01925 0.0105555 -1.88121e-19)
(0.790527 -0.556389 0)
(0.759858 -0.0261752 1.17209e-19)
(0.611681 -0.591661 -1.31842e-19)
(1.21501 0.717668 0)
(0.976532 0.0245141 -2.57229e-19)
(-0.00299161 0.0514355 0)
(1.02767 -0.00866277 8.89193e-21)
(0.0156762 0.335066 0)
(2.27016 0.242155 1.87321e-19)
(-0.114333 -0.138817 2.80843e-21)
(1.54796 0.779581 3.24956e-21)
(1.66258 0.147952 1.08991e-19)
(0.51741 0.145114 -2.81469e-19)
(1.95047 0.267527 -4.52652e-19)
(1.05105 0.0503922 6.65686e-22)
(-0.461802 -0.684519 0)
(-0.192022 0.150561 0)
(1.8565 -0.87811 9.68019e-20)
(-0.431506 0.205416 0)
(1.11222 0.292565 1.14996e-19)
(0.595058 -0.291541 2.32549e-19)
(0.915945 -0.781926 0)
(1.18362 -0.792394 7.47051e-20)
(2.1431 -0.590379 0)
(-0.375002 0.721911 2.618e-19)
(0.0126061 0.11856 1.24945e-19)
(0.630849 0.583309 5.78052e-20)
(2.04955 -0.763653 1.24261e-19)
(0.601925 0.276804 -2.24217e-19)
(-0.245394 0.189718 4.28984e-20)
(0.764038 -0.651108 0)
(1.64343 -0.960253 1.77986e-20)
(0.582119 -0.542549 0)
(2.39548 0.212182 1.41075e-19)
(1.14563 -0.181778 -2.64481e-19)
(1.42298 -0.103976 1.06064e-19)
(1.35892 0.305856 -1.18604e-19)
(1.34549 0.535303 0)
(1.04491 0.0578683 -7.29324e-22)
(1.36698 0.389305 -6.35163e-20)
(1.2475 -0.736878 -9.84209e-20)
(1.17377 0.667945 3.55678e-20)
(0.680932 0.0709339 -4.53841e-19)
(0.816031 0.0593504 0)
(2.08386 -0.21182 -7.32032e-20)
(-0.288968 -0.6239 -1.459e-19)
(1.72184 -0.500584 -9.70767e-20)
(0.724405 -0.0345251 -2.00128e-19)
(0.874796 -0.514477 0)
(0.829422 0.177797 -7.2668e-20)
(0.548705 -0.509438 -2.40949e-19)
(2.1013 -0.37813 0)
(1.00419 0.0135357 2.8234e-19)
(-0.0989817 -0.215433 0)
(2.02337 0.432828 0)
(0.958771 0.322158 1.66525e-19)
(0.933199 0.065413 -2.49949e-21)
(1.0394 0.00502047 3.12785e-20)
(1.32154 0.421124 1.71402e-20)
(0.970898 0.0141789 3.27819e-19)
(1.0402 0.027279 -7.76834e-21)
(0.673104 0.174269 -2.70064e-19)
(1.0804 0.0472184 4.06041e-23)
(0.403965 -5.44235e-05 0)
(-0.067793 -0.0318949 1.05347e-19)
(0.861856 -0.622887 -1.27353e-19)
(-0.0870175 0.555115 -2.36824e-21)
(1.09952 -0.0838126 1.89912e-19)
(0.808029 -0.177521 0)
(0.991508 0.0219276 3.13468e-20)
(1.37432 0.648895 0)
(1.61216 -0.951856 0)
(1.30785 0.229025 0)
(-0.533942 0.756653 0)
(0.791892 -0.665909 2.29255e-19)
(0.758048 -0.0305498 -4.68808e-19)
(0.941669 0.205704 3.14877e-19)
(1.51868 0.18952 0)
(1.1045 -0.0965901 -1.73621e-19)
(1.08403 0.0214087 1.40364e-19)
(0.025706 0.642918 1.64055e-19)
(0.645173 0.515594 0)
(2.17568 -0.156973 -1.44901e-19)
(0.964373 -0.471408 6.37225e-20)
(-1.12873 0.249262 1.53817e-19)
(1.75794 0.303628 1.51909e-19)
(-0.300587 0.775519 -3.70695e-19)
(0.813653 -0.740553 0)
(0.573922 0.354932 1.3547e-19)
(1.64924 -0.263705 -5.85387e-19)
(-0.578407 -0.362834 -4.70698e-19)
(1.04837 -0.124079 1.64574e-20)
(1.84029 -0.667496 0)
(-0.0912765 -0.0307581 -3.15776e-19)
(0.708174 -0.0700762 6.35248e-20)
(1.56711 0.883237 0)
(-0.250581 0.712515 -4.07531e-19)
(0.887893 0.766509 -1.98037e-19)
(-0.972223 0.210206 5.58796e-19)
(1.02916 -0.0243765 0)
(1.07107 -0.104784 -2.07334e-20)
(-0.452948 0.769681 0)
(0.697296 -0.493517 -8.59474e-20)
(-0.902567 0.281106 -3.07545e-19)
(0.787353 -0.719611 0)
(0.435142 -0.274279 3.4234e-19)
(0.541371 -0.455945 2.2748e-19)
(0.409651 -0.370967 0)
(0.98213 -0.783039 -8.85986e-20)
(0.98358 0.157473 0)
(-0.110579 0.769861 -2.05369e-19)
(0.811678 -0.698537 1.07832e-19)
(2.37702 -0.251781 3.25634e-19)
(2.23429 0.128497 0)
(-0.0530278 -0.136114 0)
(0.684711 0.636877 -2.38e-19)
(1.77496 -0.631451 2.35716e-20)
(-0.193712 -0.278554 0)
(0.983209 -0.808254 -9.87333e-21)
(1.12678 -0.0920614 0)
(1.09419 -0.135543 3.034e-19)
(2.08135 -0.180194 -1.41103e-19)
(-0.58033 0.669831 0)
(1.21385 -0.553384 -3.85773e-20)
(-0.19706 0.399093 -5.3554e-20)
(-0.307836 0.679581 0)
(1.09326 -0.81667 1.20759e-20)
(1.00696 0.00393579 -4.71836e-19)
(0.65055 -0.479102 -8.49953e-21)
(0.816673 -0.513665 0)
(1.19904 -0.734484 -6.36528e-20)
(0.663299 0.236767 2.10046e-19)
(1.2511 0.0958597 0)
(1.52206 0.0997926 -8.05729e-20)
(1.19515 -0.858397 -1.18015e-19)
(-0.0440057 -0.116439 -1.16693e-19)
(-0.157164 -0.503701 -2.46317e-19)
(1.07186 0.000390375 1.74949e-19)
(0.918292 -0.457954 -8.01344e-20)
(1.0772 0.0340944 -3.75923e-23)
(1.09827 0.0146178 -1.92456e-21)
(0.71902 -0.114652 1.30672e-19)
(-0.225121 -0.0172622 -2.87288e-19)
(1.09069 -0.118315 0)
(1.23558 -0.248232 4.29792e-20)
(1.44793 0.651232 6.44973e-20)
(0.809457 -0.614124 -1.67219e-19)
(1.00035 0.0130656 9.68083e-21)
(0.721037 -0.530668 2.36338e-19)
(1.30763 0.80376 6.59715e-20)
(1.88159 0.0364367 3.0341e-20)
(-0.636659 0.566783 0)
(1.06689 0.0553877 -1.80686e-19)
(-0.837995 -0.266229 -3.71367e-19)
(1.06903 0.493989 5.8041e-20)
(0.0534784 -0.101734 1.73569e-19)
(1.12537 0.0231653 -3.3439e-20)
(-0.150169 0.25664 -2.04586e-19)
(1.30182 0.586915 -4.37243e-20)
(1.13771 0.887402 0)
(-0.691062 0.552914 -1.22646e-19)
(-0.214433 -0.0632256 0)
(0.65956 0.57088 -2.14363e-19)
(2.06077 0.218055 -3.16228e-20)
(-0.528404 -0.619439 1.72255e-19)
(-1.04564 0.102856 -7.96067e-19)
(0.726262 0.07404 1.99113e-19)
(2.14792 -0.219162 -6.42994e-20)
(0.984112 -0.340908 -2.36005e-20)
(-0.0111762 -0.0271332 0)
(-0.825971 -0.167137 2.00828e-19)
(1.32831 0.971262 2.66748e-20)
(0.841524 0.0744675 -1.07629e-19)
(0.558885 0.526278 1.47897e-19)
(0.438887 0.186873 0)
(-0.0659112 -0.707543 -2.64676e-19)
(-0.264102 0.0663057 5.09755e-20)
(1.28962 -0.955451 9.16425e-23)
(0.979895 -0.0248527 -1.47057e-19)
(-0.161909 -0.137099 6.92356e-21)
(-0.257724 0.32782 1.94727e-19)
(-0.328944 -0.110716 -2.06242e-19)
(1.82698 -0.671631 0)
(1.1126 0.0523858 -2.41106e-19)
(2.14667 -0.141007 2.18445e-19)
(1.26835 -0.621406 6.42935e-20)
(0.665353 0.0471622 6.32934e-21)
(0.600661 0.333503 0)
(0.944288 0.754886 -1.15188e-20)
(0.684077 0.631202 1.34215e-19)
(0.89898 -0.562242 1.15071e-19)
(0.690832 0.510341 0)
(1.02129 0.00644993 6.27385e-21)
(0.883398 -0.664595 1.63933e-19)
(0.837883 0.425974 -3.53719e-19)
(1.22089 -0.102371 0)
(-0.235448 -0.20588 -3.00404e-19)
(0.0428048 0.510156 -1.26229e-19)
(1.59315 0.726196 0)
(1.34298 -0.937763 -7.84274e-23)
(-0.69165 0.434016 0)
(-0.521619 0.746115 1.51179e-19)
(0.739362 0.659645 -7.37132e-20)
(0.839391 -0.211364 0)
(-0.228581 -0.138566 0)
(1.58538 -0.459486 0)
(-0.416339 -0.485381 4.49994e-19)
(1.20802 -0.884245 7.75591e-20)
(1.17493 -0.605746 4.2843e-20)
(1.06061 -0.205737 -1.21401e-19)
(0.879402 -0.695111 -1.28566e-19)
(0.186606 -0.190573 0)
(-1.29806 0.00315551 0)
(1.00316 -0.509033 1.31482e-19)
(-0.109528 -0.234662 0)
(-0.360176 0.741084 0)
(-0.5678 -0.333836 4.00664e-19)
(0.794552 0.677446 6.39607e-20)
(1.01256 0.796833 0)
(0.701914 0.562613 -6.57582e-20)
(0.826193 -0.0389876 -1.78587e-19)
(0.749345 0.571323 -1.74914e-19)
(0.594831 0.555898 -1.27336e-19)
(-0.222087 -0.602152 3.27784e-21)
(0.719301 -0.645947 0)
(0.903823 0.177258 -2.5156e-19)
(-0.360535 -0.71322 6.79934e-20)
(0.60485 0.562731 2.80887e-19)
(0.956607 0.799937 0)
(-0.634028 -0.183452 4.34406e-19)
(-0.0559797 -0.429857 3.52619e-19)
(0.00663201 -0.365639 -1.7974e-19)
(0.669797 0.578989 -1.14351e-20)
(0.976705 -0.00679998 4.54555e-20)
(-0.486566 -0.670849 0)
(2.28143 0.0710922 -3.34144e-19)
(1.43661 -0.562343 -8.88586e-20)
(0.652783 -0.604578 -5.84008e-20)
(-0.637067 0.218509 1.95801e-20)
(1.19117 0.463453 1.2298e-19)
(0.883021 0.415087 0)
(1.03841 -0.158229 1.45844e-19)
(0.160227 -0.595618 -1.03482e-20)
(-0.061494 0.139804 4.74742e-19)
(0.927792 0.0142891 -4.0405e-20)
(1.13865 0.126309 0)
(1.91429 -0.0468004 -3.25034e-19)
(1.93547 0.0610254 0)
(0.552946 0.2583 -3.71141e-19)
(-0.270735 0.38609 0)
(-0.262327 -0.549879 2.86201e-19)
(0.729437 0.113318 0)
(0.620497 -0.513485 -1.46106e-19)
(1.11956 0.0117947 1.60414e-19)
(-0.569896 0.678965 5.706e-20)
(1.93617 -0.104679 -8.65012e-21)
(2.08985 -0.259069 -1.49003e-19)
(1.11324 0.237921 -1.62562e-19)
(-0.392216 -0.746031 -1.3625e-19)
(1.0728 -0.852122 0)
(0.805853 0.0168929 -1.16755e-19)
(0.928077 -0.367038 -2.27173e-19)
(1.71562 -0.574613 -9.97677e-21)
(1.7308 0.0314359 3.01011e-19)
(1.06437 -0.00512881 2.90214e-19)
(0.185808 -0.591853 -1.82922e-19)
(0.99741 -0.431136 -9.5949e-20)
(0.196467 -0.1891 2.0705e-19)
(1.00655 -0.00354412 0)
(1.00471 -0.00131131 0)
(1.24796 -0.732399 1.5493e-20)
(-0.0301154 0.741545 -1.38104e-19)
(0.179227 -0.118327 -1.52204e-19)
(1.51727 -0.178346 2.25371e-20)
(1.38615 -0.606281 0)
(2.16305 -0.230234 -1.45399e-19)
(0.938813 -0.818164 -4.73998e-20)
(1.78673 -0.559323 -9.38456e-20)
(1.10458 0.837988 0)
(0.472256 -0.453954 0)
(0.612112 0.527473 -1.38573e-19)
(1.09728 0.290347 -2.95766e-19)
(2.23014 -0.249039 4.83052e-22)
(0.865495 0.158146 1.08517e-19)
(0.118925 -0.623772 -5.78329e-19)
(0.932532 0.0788648 -1.2312e-20)
(-0.29619 -0.510075 0)
(-0.055314 -0.137938 0)
(-0.614775 -0.533177 0)
(1.33648 -0.727923 -4.26671e-20)
(-0.324723 0.69434 -2.88922e-19)
(-0.117445 0.270702 0)
(1.28821 0.973007 -5.5257e-21)
(1.10929 0.155877 -3.11453e-19)
(1.41172 0.441552 -3.44174e-20)
(1.07773 0.919757 3.53293e-20)
(-0.256152 0.790526 1.90993e-19)
(0.666827 0.0647755 0)
(-0.622578 -0.449809 -3.62305e-19)
(-0.384051 0.801023 3.56813e-19)
(0.774082 0.0312921 1.46296e-19)
(1.53501 0.946152 5.93221e-20)
(1.1685 0.0416384 -1.11331e-20)
(-0.146923 0.533716 -3.32381e-21)
(0.744812 -0.680459 -2.73708e-20)
(1.19068 0.012391 0)
(1.72558 0.00939183 0)
(1.07622 0.0531249 0)
(-0.416838 0.227549 -8.06934e-20)
(-0.546568 -0.548626 1.37764e-19)
(1.04534 0.844724 0)
(0.991858 -0.000407066 3.95389e-19)
(0.77115 0.61346 -1.73899e-19)
(-0.956624 0.0620335 -1.25296e-19)
(0.86011 0.0197876 -3.25018e-20)
(0.714892 -0.652542 -1.66521e-19)
(1.39183 0.710843 -1.09411e-20)
(0.562379 -0.449778 -2.37276e-19)
(1.09935 0.00323121 -3.52827e-19)
(0.829344 0.0432359 3.41533e-20)
(1.54964 -0.158237 3.32402e-20)
(0.765811 -0.077096 -4.30763e-20)
(-0.0369067 -0.0592641 -1.7711e-22)
(1.07543 0.472545 -1.94781e-19)
(1.33161 0.617149 1.06148e-19)
(-0.105669 -0.375701 0)
(0.0433097 -0.540825 2.16125e-19)
(-0.326794 -0.259817 1.26012e-19)
(-0.210812 -0.0667725 -1.46375e-19)
(0.48547 0.323261 0)
(1.30494 -0.631847 0)
(0.0175451 -0.00832837 -1.73045e-19)
(-0.278625 -0.780337 -8.03854e-20)
(1.04356 -0.0294182 1.39584e-19)
(-0.587835 0.584485 -5.63986e-20)
(1.68186 -0.655768 -5.00265e-19)
(0.00154631 0.758364 0)
(0.832134 -0.73881 -2.20132e-19)
(0.641283 0.0235123 8.21086e-20)
(-0.467458 -0.435737 2.25312e-19)
(0.723441 0.156723 2.62785e-19)
(0.62964 0.138704 8.59391e-20)
(0.501409 -0.474507 1.6171e-19)
(-0.216312 -0.356781 -1.51365e-19)
(1.18889 0.0942755 0)
(0.401536 0.354483 -1.56925e-19)
(1.02338 -0.0173981 -2.22412e-19)
(-1.14551 0.0499622 3.09669e-19)
(1.42141 0.483238 -5.51833e-20)
(-0.134609 -0.317332 -5.72115e-20)
(0.681273 -0.622389 -1.21855e-20)
(0.819612 0.181173 -1.61765e-19)
(0.970508 0.427525 1.69848e-20)
(1.14258 -0.139468 2.57819e-20)
(0.605282 -0.228452 -2.43973e-19)
(1.99729 -0.366032 -1.99747e-19)
(0.77503 -0.186631 0)
(1.07862 0.353899 -3.53371e-20)
(1.51845 0.220269 -2.01633e-20)
(1.11375 -0.311638 1.65977e-19)
(0.947068 0.353404 -2.32558e-19)
(1.01047 0.086935 4.86164e-21)
(0.427003 0.397155 -2.01317e-19)
(-0.185757 0.288024 3.62492e-19)
(1.95482 -0.178112 0)
(0.946502 0.00338083 0)
(0.869904 -0.770882 4.01821e-20)
(-0.041505 -0.542339 -3.85654e-19)
(-1.21848 0.0927468 -3.68674e-19)
(-0.0551029 -0.0980393 -2.4733e-19)
(-0.440773 0.672487 -2.41185e-19)
(-0.380987 -0.470284 0)
(-0.0395522 -0.0946379 4.42343e-20)
(0.337617 0.612488 -1.24849e-19)
(-0.290424 0.375222 -4.45802e-19)
(0.793343 -0.105596 0)
(1.32394 -0.436477 3.15845e-20)
(-0.318078 -0.331293 0)
(1.00989 0.0274348 2.83252e-19)
(-0.113544 -0.578392 2.70469e-20)
(0.53842 -0.42191 3.18011e-19)
(-0.969242 -0.376604 6.15348e-19)
(-1.53655 -0.0659784 0)
(0.320905 0.679359 1.57131e-19)
(1.01215 0.0178084 -8.51682e-21)
(-0.21919 -0.0969587 0)
(0.999207 -0.00346765 -4.42386e-20)
(0.860238 -0.726942 -2.15217e-19)
(1.28604 -0.746824 0)
(0.940604 -0.263521 1.60931e-19)
(0.185313 0.640673 3.40421e-19)
(-0.00134229 0.000101694 0)
(-0.160062 -0.603839 -7.82617e-21)
(0.725897 -0.633117 -3.3253e-19)
(0.970475 -0.0290584 -2.02283e-19)
(-0.0406368 -0.657248 4.80792e-19)
(-0.179545 -0.480248 1.75441e-19)
(-0.35743 -0.51508 0)
(0.953503 0.478431 0)
(-0.458254 -0.611628 2.87236e-19)
(2.06692 0.181963 -2.3977e-19)
(1.07286 0.894733 1.05716e-20)
(1.06782 0.218455 -9.31894e-20)
(1.1249 -0.00576965 -1.67411e-19)
(1.04481 -0.0992908 -5.80093e-20)
(-0.00375196 -0.703734 -4.45179e-19)
(1.86268 -0.0202507 4.87958e-19)
(0.723981 0.0252949 1.50708e-19)
(1.85317 -0.0282097 1.41711e-19)
(1.01283 -0.138934 0)
(0.117048 0.353707 3.45477e-19)
(1.10836 0.0298433 -3.8394e-19)
(1.75022 0.621456 -3.59329e-20)
(0.739081 -0.452217 -1.28482e-19)
(-0.0703149 -0.0224421 2.36189e-19)
(0.796764 -0.69969 2.84882e-19)
(1.23406 0.20033 5.11252e-20)
(1.00044 -0.00326143 1.96143e-19)
(0.193603 -0.673379 -2.04948e-19)
(1.03646 0.0170876 0)
(1.35921 0.13799 -1.48501e-19)
(-0.00962345 -0.00325573 0)
(1.01914 0.015014 -1.15367e-19)
(-1.19661 -0.488681 -4.76849e-19)
(1.7013 0.320198 -5.31992e-21)
(-0.503442 -0.237646 1.69124e-19)
(1.62747 0.0393178 -4.22693e-20)
(1.01614 -0.0172758 4.043e-20)
(1.31774 -0.0960872 0)
(1.43855 -0.612268 -7.26856e-20)
(1.02878 0.0351064 -1.1907e-19)
(1.44658 0.79092 7.53784e-21)
(1.36602 -0.0574491 0)
(1.02727 -0.04955 -4.5568e-22)
(0.0210584 -0.00914348 0)
(1.36181 0.0404506 0)
(-0.520415 -0.614215 0)
(1.24255 0.447533 0)
(1.89787 0.299717 7.35434e-20)
(0.745201 0.624821 3.04407e-19)
(0.291565 -0.293186 -1.91432e-19)
(-0.23304 -0.707702 -4.26567e-19)
(-0.00977407 -0.0278972 0)
(1.3359 -0.458432 5.78949e-20)
(1.34832 0.517632 0)
(1.46551 0.296272 0)
(-0.6729 -0.424871 1.61857e-19)
(0.808054 0.715815 8.96068e-20)
(1.67777 -0.0345631 0)
(-0.426346 -0.587167 9.69082e-20)
(0.910982 0.221483 1.47628e-19)
(1.27045 -0.322872 -3.92771e-20)
(1.24149 0.927007 2.15256e-20)
(0.91511 -0.824246 -1.69817e-20)
(0.432664 -0.0948833 -4.26033e-20)
(0.793848 0.71858 9.02584e-20)
(1.17799 0.924516 0)
(1.798 -0.422331 1.07822e-19)
(1.39202 0.867702 0)
(1.23759 -0.260094 1.2765e-20)
(0.963176 0.102072 2.38488e-19)
(1.00887 0.00122769 0)
(0.25892 0.421452 2.73486e-19)
(0.874231 -0.166632 3.75743e-20)
(0.627651 -0.406121 0)
(0.666126 -0.378264 1.7087e-19)
(1.23946 0.559344 -2.19781e-20)
(0.481085 0.455395 2.15784e-19)
(-0.337641 0.473694 5.28753e-20)
(0.129863 0.042302 1.25291e-19)
(0.782385 0.0550324 0)
(1.31799 -0.901081 -2.13959e-20)
(1.04566 -0.0433163 3.09733e-19)
(1.50538 0.324206 1.84261e-19)
(-0.461668 -0.60779 8.40769e-20)
(-1.01705 -0.264757 0)
(1.18583 -0.250137 -8.24595e-20)
(0.000411744 -0.00204643 -2.03476e-19)
(0.322135 0.39171 -5.34296e-20)
(-0.130915 0.0328874 -5.37803e-22)
(-0.208808 0.0897265 3.81542e-19)
(1.11013 0.0466212 -5.99924e-22)
(2.35509 -0.0061669 4.47494e-19)
(1.19526 0.463848 -1.98318e-19)
(0.957932 -0.0269057 0)
(1.85837 -0.034496 3.14748e-19)
(1.83804 0.151472 1.33743e-19)
(0.909889 -0.765693 1.03096e-19)
(1.14712 -0.968006 -6.99245e-21)
(0.484165 0.451038 1.43085e-19)
(1.71677 0.644844 0)
(1.76824 0.578483 6.76584e-20)
(-0.00224443 -0.0112705 -4.14702e-19)
(0.884014 0.772767 0)
(1.08304 -0.0633177 0)
(0.292499 -0.29212 -3.70422e-21)
(0.333435 0.313956 0)
(-1.25093 -0.0129453 -5.64537e-19)
(-0.429274 0.660011 -1.58586e-19)
(1.72546 -0.419045 0)
(1.30754 0.0424151 5.0063e-20)
(-0.806123 0.126711 3.10138e-19)
(0.533549 -0.50647 -3.64294e-19)
(1.91128 -0.0747298 -5.37173e-20)
(0.611131 -0.554575 0)
(1.05218 0.110695 0)
(1.35677 -0.228773 0)
(1.1095 0.236629 -1.71095e-19)
(1.30842 0.104766 2.38675e-19)
(-1.16573 0.162253 0)
(0.861098 -0.0643065 0)
(1.75842 -0.111364 1.72345e-20)
(-0.111011 0.27791 1.31763e-19)
(2.28256 -0.277993 -2.90254e-19)
(1.05042 -0.504088 2.13133e-19)
(1.75063 -0.0938733 -2.95331e-19)
(-1.28179 0.0638186 -2.46786e-19)
(1.9581 0.0596878 -2.67359e-19)
(1.00468 -0.0275904 3.19944e-19)
(1.52695 0.604995 0)
(-0.438536 0.74392 4.22254e-20)
(1.00035 -0.828299 1.19827e-19)
(0.850912 -0.0128038 3.79902e-20)
(0.631952 -0.429191 0)
(1.89488 -0.543473 1.06556e-20)
(1.18926 -0.21666 1.06996e-19)
(1.26187 -0.342914 0)
(0.606161 -0.563317 3.26264e-19)
(0.509919 -0.0174611 -4.93796e-20)
(2.26226 -0.353014 5.69366e-19)
(-0.164039 0.433088 -2.74656e-19)
(1.33683 0.621669 8.38917e-20)
(1.14932 0.412207 2.62208e-21)
(0.902507 0.374275 1.73006e-19)
(1.98776 0.273605 -2.45036e-19)
(-0.0264035 -0.738484 -8.38714e-21)
(1.02524 -0.190459 0)
(-0.153286 -0.0993716 3.89552e-19)
(1.08077 -0.940957 0)
(1.06265 -0.654054 1.5797e-20)
(1.46577 0.0982011 -7.61366e-19)
(1.09898 -0.0294867 -9.6791e-22)
(-0.749942 -0.349494 -5.12333e-19)
(0.985349 0.489968 1.29688e-19)
(0.214341 0.390676 8.94271e-20)
(0.719547 -0.0371852 0)
(1.17474 -0.196355 0)
(1.06832 0.174395 1.49416e-20)
(0.746194 -0.0159911 0)
(1.3457 -0.20665 -1.10102e-19)
(-1.86079 0.0479921 7.11219e-19)
(1.92935 0.491166 7.54809e-20)
(1.0577 -0.0272903 0)
(0.549751 -0.346498 8.39709e-20)
(1.02352 0.0259285 1.5211e-19)
(1.08982 0.898484 -1.21585e-19)
(-0.437968 0.564204 0)
(1.10394 -0.473908 3.58467e-19)
(1.07797 -0.132566 -2.42191e-22)
(1.09405 -0.492142 -1.56286e-19)
(2.37465 0.183831 2.55478e-19)
(1.29328 0.794822 0)
(0.872317 0.0228751 0)
(-0.541255 -0.57293 -2.12543e-19)
(0.0142886 -0.00640329 1.94674e-19)
(0.947505 0.370427 -1.57444e-19)
(0.387148 -0.554888 -1.822e-19)
(0.6547 0.416601 1.92536e-19)
(0.969025 -0.060934 0)
(0.53709 -0.499609 0)
(1.20036 0.0125947 1.49179e-21)
(1.21711 -0.50425 -6.94295e-20)
(0.63012 0.0106002 1.44362e-20)
(0.727235 -0.147024 9.52138e-20)
(-0.0614748 0.143824 -3.48519e-19)
(1.54239 0.000332303 3.68786e-19)
(0.66326 0.620576 0)
(1.27738 0.70038 0)
(1.5926 0.256117 0)
(-0.501711 -0.459926 -2.1273e-19)
(1.26833 0.565726 2.68193e-19)
(1.94376 0.132487 5.24075e-20)
(0.982152 -0.0012764 0)
(1.10303 -0.0371786 0)
(2.05427 -0.0928294 -3.82944e-19)
(1.04199 0.685242 1.37254e-19)
(1.00197 0.0074538 -1.5221e-19)
(1.49491 0.474922 0)
(-0.301343 0.609131 0)
(1.24962 0.327287 2.00652e-19)
(1.02074 0.534095 -9.40754e-20)
(1.06201 0.0265045 0)
(1.96271 0.413573 0)
(2.00131 0.676139 -4.05301e-19)
(-0.116228 0.673771 -6.52116e-21)
(1.0014 0.00911968 0)
(0.714416 0.482646 -2.60002e-20)
(0.929976 -0.821105 0)
(1.0114 0.0136874 3.53572e-20)
(1.14021 -0.144589 4.32382e-20)
(0.899145 -0.31151 2.38337e-19)
(1.18512 0.00895868 -3.18774e-20)
(2.14499 -0.112491 4.10327e-19)
(0.977601 0.151163 5.73273e-20)
(0.746593 -0.0298793 0)
(1.00832 0.0167843 0)
(-0.757613 -0.480326 0)
(0.666076 0.638854 -1.34847e-19)
(-0.0304492 0.0758568 2.35178e-19)
(1.17261 0.357389 -3.2418e-19)
(-0.738349 0.496806 0)
(0.832359 0.652677 1.26364e-19)
(1.01441 -0.327354 0)
(1.00457 0.00237074 8.91562e-20)
(0.610346 0.472805 5.97036e-20)
(1.03205 0.410543 1.8718e-19)
(1.67038 0.00734164 0)
(2.1669 0.159975 -1.11411e-19)
(0.817838 -0.104306 -2.87788e-19)
(-1.27596 0.0533905 -7.21265e-19)
(1.28612 0.612494 0)
(0.881577 0.241673 1.36733e-19)
(2.10085 -0.097494 0)
(0.779772 0.531461 2.78932e-19)
(-1.7543 0.115297 2.80349e-19)
(-0.0623029 0.154887 0)
(0.594939 0.568066 -5.33412e-20)
(1.02586 -0.641053 -1.10938e-19)
(0.477478 -0.241818 -1.00803e-19)
(1.01994 -0.00947392 0)
(-0.478885 0.253413 -3.28873e-19)
(0.636648 -0.566771 6.44932e-20)
(0.905932 0.288099 0)
(1.4773 -0.614876 5.17534e-20)
(0.98279 0.837877 1.60942e-20)
(1.18078 -0.0856783 -3.21385e-20)
(0.188917 -0.224913 -2.74911e-19)
(0.229726 -0.0234349 -4.58014e-19)
(-0.0802681 -0.208438 1.06817e-20)
(0.819028 0.360265 1.91189e-19)
(-0.348169 0.722654 -7.18757e-21)
(1.40189 -0.648937 3.25706e-21)
(1.01706 0.0106708 -2.6414e-19)
(-0.601591 -0.439594 0)
(1.0371 0.0312039 -3.09047e-19)
(2.15027 0.402639 2.03729e-19)
(0.889559 0.698218 2.06038e-19)
(1.09541 -0.0745263 1.21451e-19)
(0.989014 -0.0258654 1.22452e-19)
(1.10539 -0.0390534 8.8308e-22)
(-0.422054 -0.480736 2.07886e-22)
(1.71452 -0.866848 1.48741e-20)
(1.15093 -0.109193 -5.47071e-20)
(0.856394 0.0475196 6.21138e-20)
(0.905889 -0.28229 7.0631e-20)
(0.321568 0.0766431 0)
(0.963261 0.741312 0)
(0.738581 0.370918 -7.11782e-20)
(2.05167 0.201324 -4.61163e-20)
(-1.29238 -0.207083 2.67636e-19)
(1.02753 -0.53395 -3.8584e-19)
(0.614927 -0.531326 3.12256e-19)
(1.43413 0.226086 -2.09346e-19)
(0.379693 -0.58895 2.0787e-20)
(1.14904 -0.0422989 0)
(0.755739 0.112658 -5.3907e-21)
(1.17089 -0.169945 -2.59998e-20)
(1.0406 0.766699 0)
(1.16875 -0.212608 0)
(0.727189 -0.106131 0)
(-0.188021 -0.376543 -6.94304e-20)
(-0.158249 0.153754 0)
(1.50367 0.801711 1.64287e-19)
(1.21029 0.181427 4.58409e-21)
(-0.822885 0.0792256 1.68208e-19)
(1.21229 0.17194 1.67593e-20)
(1.82975 0.471013 -1.24344e-19)
(2.1056 -0.31635 -4.28096e-20)
(-0.176881 -0.00423547 -2.71342e-19)
(-0.20326 -0.590628 5.83332e-21)
(0.687984 0.117356 0)
(0.693066 -0.0369025 0)
(0.996057 -0.000102295 2.28205e-22)
(-0.539673 -0.455396 0)
(1.52374 0.00858226 -1.37487e-19)
(0.689947 -0.036615 0)
(1.04734 0.0104259 9.67367e-20)
(1.00218 0.0182519 -3.45618e-20)
(1.5418 -0.159701 2.26798e-19)
(1.06551 -0.0132781 -7.05702e-22)
(0.95291 -0.186095 -4.24509e-20)
(1.03002 -0.0357556 2.83371e-19)
(0.670019 -0.607774 1.44622e-19)
(-0.0969847 -0.49821 -1.32083e-19)
(0.926309 -0.0178091 2.47162e-20)
(0.0125245 0.00584222 0)
(1.12709 0.798595 0)
(1.02745 -0.00377241 0)
(1.00023 -0.774493 -7.46427e-20)
(1.03028 -0.884588 7.52931e-21)
(0.863653 -0.135171 -1.10943e-20)
(0.0460351 0.415689 -6.75525e-19)
(1.17207 0.0296343 2.64317e-21)
(0.582269 -0.378939 -5.12885e-19)
(0.977608 0.164029 -6.45516e-20)
(1.18599 -0.000321751 -1.75913e-20)
(2.05412 -0.325455 1.37446e-19)
(0.554707 -0.0835536 -4.15712e-20)
(-0.36208 -0.595782 -1.45575e-19)
(1.11251 0.557349 1.36709e-19)
(-0.124672 -0.336147 0)
(0.273431 -0.554491 4.99401e-19)
(-0.0512895 -0.0783283 7.87823e-23)
(1.04587 -0.0386165 2.54536e-19)
(1.02132 0.000781726 -6.54533e-21)
(1.09097 -0.0139007 -7.05085e-20)
(1.08108 -0.0426796 1.26543e-21)
(1.6277 0.312676 1.74417e-20)
(0.397521 -0.372396 -2.53681e-19)
(0.936981 -0.117759 1.7237e-20)
(1.03236 -0.00159501 -1.86876e-19)
(0.839394 -0.0827494 -2.54339e-20)
(1.06709 -0.0537027 0)
(1.10956 0.596478 -2.54461e-19)
(1.00618 -0.00732536 7.30342e-20)
(0.681268 0.613312 1.99131e-19)
(1.13348 0.0790447 5.01316e-23)
(1.06618 -0.00657522 -2.29132e-20)
(1.1142 0.0155691 6.51877e-22)
(2.34273 -0.170753 2.31009e-20)
(0.253974 -0.00880403 0)
(1.05587 -0.0346914 0)
(1.06796 -0.0323299 4.47701e-19)
(1.00053 -0.00613939 0)
(-0.0217088 -0.049444 0)
(0.94147 -0.569769 0)
(0.998107 0.00103556 -4.23851e-19)
(1.15337 -0.684392 5.62347e-20)
(1.02627 -0.00799031 8.85068e-21)
(1.34499 0.955789 -1.63372e-21)
(1.52976 1.00478 -1.5398e-19)
(1.16303 0.046612 -4.39227e-21)
(1.63765 0.524321 1.92733e-19)
(0.770068 0.170587 0)
(0.0833074 0.692514 0)
(2.12899 0.0123262 5.4056e-19)
(1.18386 -0.405486 0)
(1.00211 -0.00534013 -1.31273e-19)
(1.00654 -0.00037586 2.55027e-19)
(1.40123 0.139675 -4.79428e-20)
(0.00534551 -0.123993 3.00093e-19)
(0.977393 0.00454683 1.3784e-19)
(0.694545 -0.0503292 1.17925e-20)
(0.701409 0.0532162 -6.11195e-21)
(1.08515 -0.0428478 4.55688e-24)
(0.907845 0.0224621 -1.38754e-19)
(1.0014 0.00100881 1.6471e-19)
(0.997416 -0.000513579 9.73809e-21)
(0.784433 -0.00727962 0)
(0.725554 -0.0208628 0)
(0.727737 -0.0299443 7.81757e-22)
(0.710484 -0.0251819 0)
(0.284622 -0.0182592 0)
(0.438709 0.0175918 0)
(0.58751 0.0065351 2.61672e-21)
(0.750488 0.0243717 -1.86048e-21)
(1.06367 0.0208632 0)
(1.08667 0.00193008 1.1385e-21)
(1.07725 -0.0218678 0)
(0.618271 -0.00546509 0)
(0.494624 -0.0190415 0)
(0.382621 -0.0215042 6.77019e-21)
(0.183846 0.0120589 8.86103e-20)
(0.804073 0.019265 0)
(0.807916 0.026282 0)
(0.950322 0.0155523 -1.71328e-19)
(0.836571 0.00643781 3.21596e-19)
(1.00562 -0.0010965 0)
(0.999778 -0.00240446 3.03957e-19)
(0.999363 -0.00110704 -2.39396e-22)
(0.815222 0.0277159 2.71731e-19)
(0.995708 -0.00367535 -1.58495e-19)
(0.762021 -0.0237648 0)
(0.514882 0.0174588 6.11759e-21)
(1.00427 0.00249246 -1.53832e-19)
(1.001 -0.000147462 -2.63647e-19)
(1.06996 -0.0278757 0)
(0.997611 0.00223768 0)
(0.997928 -0.000715049 0)
(1.09526 0.0687469 5.58276e-21)
(1.18645 0.00359169 4.7111e-21)
(0.889703 -0.0978959 0)
(-0.54576 0.596939 2.65004e-19)
(-0.338301 0.579135 -2.65233e-19)
(1.0259 -0.0157622 -2.04128e-19)
(-0.40456 -0.692868 -1.44042e-19)
(1.0181 0.00189889 -1.64136e-19)
(1.16654 -0.223784 -6.7047e-20)
(0.795067 -0.466604 2.38651e-19)
(-0.036339 -0.0663644 -1.00257e-19)
(1.02193 0.0110633 0)
(1.0688 0.00128117 -4.37583e-20)
(0.8634 0.0277101 0)
(-0.0267866 0.0651307 3.4324e-19)
(1.14976 -0.340289 0)
(-0.598063 -0.481513 -3.63984e-19)
(0.62472 -0.0738039 -1.78892e-20)
(1.66861 0.685612 1.06202e-19)
(-0.0412228 -0.0549579 0)
(1.07088 -0.0346282 1.3813e-19)
(1.15888 0.0401133 5.90018e-22)
(0.926021 -0.00594091 2.20298e-19)
(1.01238 -0.0118402 -1.39298e-19)
(1.682 0.864523 9.19565e-20)
(0.529803 0.499721 0)
(0.455984 0.4127 1.6351e-19)
(1.03029 0.042527 -2.44957e-21)
(1.13722 0.124987 1.42142e-19)
(1.08525 -0.71336 0)
(1.02318 0.00460039 0)
(0.999292 -0.0234939 -3.20455e-19)
(1.01103 0.0199003 -3.12585e-19)
(-0.116838 -0.362242 0)
(1.2246 0.824482 -6.73444e-20)
(1.11111 0.0768112 -5.33701e-23)
(1.01816 0.00617888 1.20158e-19)
(1.00672 0.0131859 -1.50875e-19)
(-0.717835 -0.407455 -3.5888e-20)
(1.14539 0.0183446 -1.01504e-20)
(1.01815 -0.01825 5.13227e-19)
(1.07143 0.0802835 0)
(1.87137 0.656933 -1.07309e-19)
(1.01609 -0.00693088 -1.59763e-19)
(1.87174 0.164669 -1.28618e-19)
(1.05769 0.0108112 -3.66858e-22)
(1.00742 -0.00651698 3.20177e-20)
(2.08539 -0.219135 -3.39961e-19)
(1.01783 0.0128882 1.55158e-19)
(1.19053 -0.0441156 2.80611e-21)
(1.01823 0.00270044 0)
(0.939851 0.156771 3.83233e-20)
(-1.17032 0.274225 6.01785e-21)
(0.989178 0.0206862 1.54218e-19)
(1.03312 0.0259794 -5.70511e-22)
(1.12575 0.0540634 -7.33432e-22)
(1.25974 0.323771 2.73813e-19)
(0.999886 0.0182186 1.05906e-19)
(1.01414 -0.0116149 8.53004e-23)
(1.75244 0.239527 3.51928e-21)
(1.78419 0.945575 -1.31746e-19)
(0.771341 -0.693151 4.23848e-20)
(0.446949 -0.317736 -2.50307e-19)
(1.01171 0.000404976 0)
(1.01932 0.00569351 3.86922e-20)
(1.01092 -0.010079 8.11213e-20)
(1.16223 -0.0254814 1.34186e-21)
(1.02065 0.00907167 -1.61399e-19)
(1.03309 -0.0195567 1.84001e-19)
(1.00709 -0.00720332 -1.51827e-19)
(1.00767 0.00707679 -5.05307e-22)
(1.0175 0.00326161 -3.07446e-22)
(1.02463 0.0119842 1.54377e-19)
(0.905227 0.0955135 3.9934e-19)
(1.61195 0.657383 0)
(0.813773 0.156618 3.00912e-19)
(1.0113 -0.00602559 0)
(1.02556 -0.0145377 -4.47404e-20)
(1.54212 0.447322 -2.25702e-20)
(1.66125 0.0774211 0)
(1.51029 -0.41535 -6.04715e-20)
(1.37225 0.780319 -2.42042e-20)
(0.815508 -0.0159384 0)
(2.07469 0.00733989 0)
(0.919553 0.704389 -6.06739e-20)
(1.09901 -0.00872169 -1.41049e-21)
(1.00914 0.000491724 -1.62557e-19)
(1.1115 -0.561568 -4.39002e-20)
(1.11879 0.029465 -2.41684e-21)
(1.24387 0.0897916 0)
(1.12213 0.0316524 0)
(1.39468 0.494363 0)
(0.296906 0.560264 1.39104e-19)
(1.18107 -0.0478858 6.81556e-21)
(0.202934 0.281986 0)
(0.0132289 0.577775 -4.24839e-19)
(1.70458 0.969556 -1.35108e-19)
(1.00906 -0.00381236 -3.17994e-19)
(1.14294 -0.0263225 2.06944e-21)
(1.02612 0.0117195 2.10025e-19)
(0.733064 -0.0423324 0)
(-0.0902176 -0.289557 -3.07761e-20)
(0.622938 0.443848 -2.70625e-19)
(1.54963 0.628064 4.32219e-20)
(0.234392 0.619705 0)
(0.813617 0.0242183 5.68765e-20)
(0.526182 0.505316 4.00593e-20)
(1.18834 0.886451 -1.67724e-20)
(-0.0231174 -0.00629595 1.50228e-19)
(1.01794 0.0198105 0)
(1.20746 -0.0354033 5.49091e-21)
(1.00464 -0.00209612 1.19353e-19)
(2.39547 -0.0359244 0)
(1.02276 0.00661249 2.00172e-19)
(0.407719 -0.56615 -2.34764e-19)
(1.01199 0.0133106 -1.23587e-19)
(1.14754 -0.0941141 0)
(1.49074 -0.493568 2.61968e-22)
(1.00383 0.000159386 -8.33199e-20)
(0.983823 -0.0275423 2.203e-19)
(1.0863 0.102261 -2.88228e-21)
(1.20357 -0.00880142 -1.25131e-20)
(-0.163952 -0.0581139 3.93407e-19)
(2.05961 0.318984 2.69738e-19)
(1.21781 0.0716941 1.49527e-20)
(0.818537 0.0168484 -3.00892e-19)
(0.823249 0.0328788 0)
(1.22747 -0.00671404 1.00767e-20)
(1.01526 -0.0209528 -2.40311e-20)
(0.966246 0.0255569 0)
(1.04683 0.00592331 -1.52166e-19)
(1.13298 -0.0138801 -3.48787e-20)
(-1.56205 0.225553 3.30198e-19)
(2.13154 -0.583905 0)
(-0.813 -0.253016 -7.61212e-19)
(1.50455 -0.332188 0)
(1.04229 -0.0145433 4.48578e-20)
(1.04078 -0.0454054 3.85165e-23)
(1.00764 0.00313 1.29076e-19)
(-1.14316 0.0541884 5.80442e-19)
(1.02308 0.00520237 0)
(0.983977 0.00416297 -3.12988e-19)
(1.01073 0.00899984 1.64226e-19)
(1.0345 0.0192212 0)
(1.01836 -0.0178532 2.567e-22)
(0.970089 -0.000842623 -1.4132e-19)