/*--------------------------------*- C++ -*----------------------------------*\
| =========                 |                                                 |
| \\      /  F ield         | OpenFOAM: The Open Source CFD Toolbox           |
|  \\    /   O peration     | Version:  2306                                  |
|   \\  /    A nd           | Website:  www.openfoam.com                      |
|    \\/     M anipulation  |                                                 |
\*---------------------------------------------------------------------------*/
FoamFile
{
    version     2.0;
    format      ascii;
    arch        "LSB;label=32;scalar=64";
    class       surfaceScalarField;
    location    "26.5";
    object      phi;
}
// * * * * * * * * * * * * * * * * * * * * * * * * * * * * * * * * * * * * * //

dimensions      [0 3 -1 0 0 0 0];

oriented        oriented;

internalField   nonuniform List<scalar> 
3181
(
-1.00372
0.385504
0.618212
-0.378423
0.354146
0.0242765
0.504624
-0.347835
-0.156789
0.111902
-0.187676
0.0757737
-0.0595554
0.0715171
-0.0119617
0.672372
1.15312
-1.8255
0.142162
-0.136142
-0.00601919
-0.0083055
0.000227501
0.008078
0.502569
-0.742807
0.240237
-0.0767063
0.127413
-0.0507068
-0.0105958
-0.0544197
0.0650155
0.134255
0.0404774
-0.174732
-0.00189063
0.00849579
-0.00660516
-1.09787
0.155353
0.942518
-0.312675
0.676882
-0.364207
-1.12399
0.643323
0.480666
0.083959
-0.930308
0.846349
-0.140256
0.13844
0.00181595
-1.37415
-0.248127
-0.00288135
0.0821685
-0.0792872
0.0542538
-0.0966714
0.0424176
-0.0705657
0.0660123
0.00455346
1.06264
-1.04059
-0.0220447
0.0350629
0.0278195
-0.0628824
-0.957603
0.332812
0.62479
-0.105316
0.217218
0.301331
-0.258476
-0.0428547
0.0281039
0.0593404
-0.0874443
-0.429198
0.354754
0.074444
-0.0352363
-0.0191594
0.0231018
-0.00394238
-0.0430668
-0.914536
0.098407
-0.0659815
-0.0324255
0.380487
1.22376
-1.60424
-0.0590305
0.046232
0.0127984
0.186319
0.288595
-0.474914
1.85143
-1.47095
0.0777641
-0.0235103
1.63106
-0.863223
-0.767839
-0.837673
1.51005
0.00453789
-0.00642852
-0.0609455
-0.0096202
-0.397359
0.084684
-0.157457
0.0965113
-0.651516
0.1247
0.526816
-0.137582
0.0608755
-0.16218
0.166139
-0.00395964
-0.259017
-0.0754585
0.334476
0.0971908
1.38461
-1.4818
0.0822155
0.0727348
-0.15495
-0.0220407
-0.105525
0.111988
-0.0064624
0.489644
0.187239
-0.0938403
0.154447
-0.0606065
0.0752883
0.0231187
-0.162415
0.187066
-0.0246507
0.156402
0.0571001
-0.213502
0.103265
-0.108945
0.00567949
1.29422
0.33684
-0.828065
-0.175652
0.0305277
-1.61456
1.58403
0.569653
0.244048
-0.8137
-0.460684
-0.218129
0.678812
-1.44222
0.60455
-0.286238
0.855891
-0.308814
-0.102524
0.411338
-0.21448
-0.214718
-0.18157
0.172828
0.00874212
0.15719
0.275379
-0.432569
-0.228175
0.730744
-0.00525101
-0.00305449
-1.96405
1.99458
0.169411
0.13192
-0.165509
-0.110181
0.27569
-0.266791
0.369444
-0.102653
-0.0752652
0.0837644
-0.00849913
-1.86686
-0.919883
0.0106378
0.909245
-0.0231198
-0.0359106
-1.12694
0.842189
0.284749
0.261194
-0.192887
-0.0683068
-1.23327
-0.20895
1.10167
-0.946314
-0.746922
1.14427
-0.201753
1.0586
0.181316
-0.169688
-0.0116275
1.72565
-0.572521
1.43331
-1.43331
-0.00752846
-0.00205553
0.00958399
-0.199207
-0.0529911
0.252198
0.120427
-0.0909534
-0.0294737
-0.457115
0.819118
-0.362003
-0.0357364
-0.214863
0.250599
-1.08261
0.0420214
0.363215
0.0568273
-0.420043
0.126201
-0.889734
1.13378
0.0803901
0.0347717
-0.115162
-0.0180103
-0.144405
-0.165468
-0.0937486
0.259216
-0.0819657
-0.0835018
0.126246
-1.01598
0.313025
-0.77014
0.924661
-0.840702
-0.00596341
0.147238
-0.141275
0.0926501
0.0547557
-0.147406
-1.27572
-0.110935
1.38666
-0.229095
0.392526
-0.163431
-0.794817
-0.0641201
0.858937
-0.49899
-0.627947
0.120015
-0.0377996
-0.146652
0.141227
0.00542446
-0.0794846
-0.0200596
0.0995442
-0.564105
-0.178702
0.0271243
-0.00728364
-0.0198407
-0.852153
-0.624913
1.47707
1.76309
-0.378478
-0.0188978
0.0113693
0.0190562
0.150355
-0.209732
0.39605
0.0667288
0.0687046
-0.135433
0.14647
0.0717886
-0.218259
0.0739079
0.10026
-0.174168
-0.593613
-0.530376
-1.37869
0.526534
-0.0304363
0.110826
-0.0952403
0.173094
-0.077854
-0.0663483
0.0235158
0.118646
-0.0560253
0.0623633
-0.00633797
-0.0886904
-0.0188301
0.10752
0.0717724
-0.0717724
-0.177173
0.200688
0.179228
0.139464
0.0986791
0.0883867
-1.17107
0.942892
-1.60889
0.0935289
1.51536
0.00654305
-0.00888364
0.00234059
-0.0280048
-0.0541916
0.0821964
0.51068
-0.0144455
-0.496234
0.00672601
-0.00706397
0.000337955
-0.190692
0.0135189
0.168843
0.650275
-0.351094
0.519937
-0.118875
-1.15685
-0.0874903
0.0279349
0.466965
-0.28792
-0.179045
0.112137
-0.104423
-0.00771449
0.046973
-0.30599
0.0228911
-0.942774
0.0478218
-0.143062
-0.270825
-0.384272
0.0874752
1.44229
-0.973927
-0.468364
1.12495
0.31734
0.0650634
0.269412
0.00230539
0.00423766
0.0456315
0.0266214
-0.0722529
-0.246834
-0.599751
0.846585
-0.339276
0.351494
0.701249
-0.949376
0.169318
0.0248909
-0.0293536
0.00446271
-1.81953
0.109931
1.7096
-0.088106
-1.73143
-0.316863
0.680079
-0.907417
-0.0145813
0.00614762
-0.280055
0.273907
1.51409
-1.64184
0.127751
-0.0721274
-0.015363
0.583711
-0.830545
0.174103
-0.211718
0.0376153
-0.304256
-0.129018
0.433274
0.194209
-1.00976
-0.0728566
-0.0263083
-0.0529789
-0.583076
0.364948
-0.258454
0.0191846
0.239269
0.0127214
-0.0848488
-0.0259449
0.0259449
-0.127493
0.14028
-0.0127875
-0.283312
-1.32558
-0.0105302
-0.0018293
0.0123595
0.00510611
-0.0543986
0.0492924
-0.232524
0.0509544
1.58247
-0.394217
-1.18825
-0.174423
0.428872
-0.254449
0.00532503
-0.00602132
0.000696287
-1.05623
0.261411
-0.194146
-0.00508826
0.199234
-0.160254
0.317444
-0.108028
0.106276
0.00175266
0.0791208
0.0115791
-0.0906999
-0.0343991
0.014132
0.0202671
0.187939
0.750813
-0.938752
-0.211701
-0.0486051
0.260306
-0.680357
0.662371
0.0179861
-0.00799198
0.0358114
0.0303224
-0.0314787
0.00115634
-0.0194219
-0.0434605
0.959465
0.803623
0.16961
-0.897957
0.728347
-0.026556
2.05437
-2.02782
0.364441
0.446038
0.987275
0.0749622
0.214896
-0.0684258
-0.0754562
-0.0300693
0.222699
0.168623
-0.0759728
0.733885
-0.401072
0.0586428
0.193556
0.0595208
-0.177901
0.118381
-0.735725
-0.128413
0.864138
0.0161135
-0.0161135
-0.0719449
-0.277204
0.565799
0.0109754
-0.222676
0.0718921
0.0665482
0.040923
-0.0713593
0.144852
-0.155448
-0.347186
0.311449
0.0212662
0.0432843
-0.0645505
0.372919
-0.332442
0.0611019
0.0861771
-0.147279
-0.197789
0.262852
0.181114
-0.469035
-0.199183
0.584687
0.157322
-0.0316908
0.0316908
0.0750681
0.112141
-0.187209
0.363823
0.0287034
-0.00246921
0.000283644
0.00218556
-0.120179
0.0366933
-0.00956902
-0.0512177
0.19607
-0.190232
0.253653
-0.0634213
0.140342
0.0282806
-0.380442
0.121966
0.203461
-0.0631185
-0.0485344
-0.0594938
0.00480551
0.00581223
-0.0106177
0.140693
-0.0999441
-0.0407491
-0.034555
0.414774
-0.380219
-0.00250169
-0.00274932
0.110673
-0.115226
0.00455239
0.0246636
0.282392
-0.22129
-0.051836
0.0313728
0.0204632
-0.0351042
0.0799979
-0.0448937
-0.0992122
0.0965799
-0.720063
0.623483
-0.00599235
-1.31175
-0.409723
1.72147
0.146096
1.29259
-1.43869
0.0786147
-0.082434
0.182694
0.294635
0.258114
-0.55275
-0.211602
0.271123
0.130552
-0.857174
0.726622
-0.0645871
0.0294829
-0.0409829
0.0146746
-0.979567
0.44064
0.538926
0.973927
-0.847682
-1.55471
1.44378
-1.51409
1.60762
0.0363376
-0.0969441
0.00371713
0.0266053
0.00175102
0.765648
-0.635097
0.11371
-0.0658881
0.409877
0.734395
-0.0872269
-1.73045
1.70389
-0.649607
-0.52146
-0.243214
-0.408303
-0.00893021
-0.158219
0.205192
-0.56969
-0.353746
0.179322
0.744707
-0.234028
-0.824381
-0.730329
0.753321
-0.0323291
-0.0322579
0.265441
0.0355486
-0.0355486
0.669404
0.150115
-0.819519
-0.226363
0.895767
0.616542
-0.683756
0.0672147
0.13049
0.00897368
0.00466869
0.00906895
-0.0137376
-1.61456
-1.04979
0.671316
1.03952
0.542947
-0.0334846
-0.128695
-0.240824
0.730468
-0.207882
-0.0505717
-0.00264693
-0.0726183
-0.0587545
0.11351
0.388151
-0.263451
-0.768482
-0.301346
-0.0333723
0.0532141
-0.0198417
-1.12922
1.57526
-0.0358704
0.0124463
0.0234241
0.0201478
-0.0178424
0.0148218
-0.0156634
0.000841591
0.0109554
0.400382
0.0637329
0.0484043
0.0171717
0.0222381
-0.0394097
-0.0167153
-0.177431
-0.744959
0.387512
0.357447
1.17647
-2.26369
1.08722
0.145089
-0.167298
0.022209
0.0245877
0.0954275
-0.12402
-1.30929
0.00256001
0.0122618
-0.0879905
0.0501908
0.150042
-0.359774
-1.88609
0.434268
1.45182
0.0484822
0.0884104
0.0522828
-0.735725
0.740268
-0.552329
0.00121753
-0.016881
0.0457713
-0.641728
-0.0386289
0.0637022
0.139759
-0.305415
0.0204525
-0.453022
0.116491
0.362634
-0.305807
-0.106096
0.0174058
0.218847
0.843143
-1.06199
0.106193
-0.701129
0.594936
-0.902685
0.774271
-1.44436
0.0469593
1.3974
-0.000929675
0.000224486
0.000705188
0.182446
-0.486702
0.218979
-0.127656
-0.0913226
0.0560141
0.0239838
-0.0503474
0.016975
-0.00983138
0.0154202
-0.0348422
0.019517
0.0912404
-0.110757
0.762638
0.00453277
-0.00432489
-0.000207882
0.0115139
-0.0142632
0.86217
0.0423312
-0.0576942
-0.278576
-0.771218
0.0926546
0.0378354
0.0070026
0.0814078
-1.3974
1.30929
0.0134942
-0.130969
0.117475
-0.265745
0.0960572
0.120454
-0.132082
-0.00121084
0.0849752
0.00695351
-1.97772
0.0916271
-0.0529012
0.0724182
0.741459
-0.260793
-0.0800438
0.0851499
0.361949
-0.00618781
0.00371861
-0.00756173
0.0793341
0.140827
0.228618
0.157213
-0.347525
0.190313
0.101442
0.548832
-0.0273311
-0.110251
0.874802
-0.225516
-0.649285
-1.44436
-0.439554
1.61603
1.85143
-0.120697
0.146371
-0.025674
0.381056
-0.0772276
-0.303828
-0.0458987
-1.18738
-0.080583
0.0819801
-0.00139705
0.00399762
-0.121595
0.117597
0.382963
-0.858312
0.475349
0.0384209
0.666742
-0.705163
-0.0424697
-0.104182
-0.0496664
-0.00216958
0.194697
-0.119629
0.00140158
-0.00233126
0.0595437
0.0306967
-0.0902404
0.046997
-0.00136551
0.00882202
0.0113258
0.0404123
0.106826
-0.0285606
-0.00291813
0.205183
-0.420046
-0.115672
1.40826
-0.00823642
-0.00787707
-0.990721
-0.0190343
-0.023726
-0.0674861
-0.0386101
0.0608394
0.113263
0.278665
-0.715128
0.436462
0.0828388
0.00981571
-0.937492
-0.00882124
-0.00808741
-0.64954
0.74612
-0.0165465
0.173868
0.212766
-0.896523
0.188326
-0.426764
0.238438
-0.0478316
0.116536
0.00620076
-0.00690762
0.000706855
-0.0294213
-0.00497781
-0.019291
-0.125114
0.730696
-0.624503
-0.0201836
-0.000375583
0.0111267
0.325849
-0.168636
-0.0587588
0.947789
-0.296993
-0.650796
-0.126815
0.146
-0.511083
-0.233876
-0.544149
0.579284
-0.566466
-0.0128179
-0.0413983
0.0212147
-1.73045
0.569202
-0.569202
-1.70051
1.70051
0.765648
-0.11238
0.257307
-0.144928
-0.899413
-0.0913077
0.657363
-0.384792
-0.272571
0.148256
-0.22611
-0.0131464
-0.00575135
-0.925545
-0.0904348
-0.933014
0.212951
0.038689
0.014525
0.696075
-0.096942
-0.599133
1.60139
0.250047
-0.00336756
0.00956832
-0.959537
0.779248
-0.693071
-0.0838315
-0.629883
0.713714
0.026862
-0.91074
-0.731097
0.222127
-0.815739
-0.864138
1.28148
-0.417344
-0.13666
0.269987
-0.133328
-0.0382803
0.734355
-0.11228
-0.942343
0.942343
-0.602327
0.617948
-0.0156202
0.00217058
0.00236219
-0.00477481
-0.452287
0.883102
-0.0409132
-0.0917459
-0.0329016
0.000896135
0.000660771
0.00466426
1.8471
-1.80014
-0.348704
0.427825
-0.665418
1.06018
-0.394758
-0.0229297
0.0254897
0.130818
-0.059029
0.339139
-0.00087589
0.00937168
0.359479
0.0552957
0.0445606
-0.259423
0.214862
0.133436
0.0327038
0.102813
0.189649
1.68117
0.31341
-0.45013
0.343586
0.106543
-1.31534
1.42527
0.241736
-0.145225
0.0741571
-0.766081
0.691924
-0.562509
0.111154
-0.458339
-0.0746644
0.125656
-0.0509919
0.11735
-0.192015
-0.468251
-0.114826
-0.0770337
0.0804369
-0.0034033
-0.00633936
-0.0222213
0.0299055
-0.00678683
0.635097
-0.594936
-0.0401606
-0.280368
0.291343
0.881564
0.644215
-0.263159
0.00643303
-0.00826233
-0.0789689
-0.132749
0.158046
-0.556753
0.398707
-0.00691361
5.99508e-06
0.166315
-0.30464
0.138325
0.00560241
-0.012113
0.00651063
-0.025623
0.0173034
0.00831969
-1.03579
0.463267
-0.0857268
-1.22602
-0.210136
-0.847682
1.60762
1.44378
-0.183689
-0.16605
0.117445
-0.0676494
0.0737711
-0.00612165
-0.337179
0.486366
-0.149188
0.578537
0.0788254
-0.00237787
-0.00453574
0.127477
-0.944419
0.0329016
-0.0571895
0.00428832
-0.293509
0.21454
-0.0391318
0.0800548
-0.236189
0.609108
1.12495
0.112263
-0.0576508
0.000982076
0.0566688
1.78623
-0.342457
-0.0576963
-0.0512486
-1.01192
0.164237
0.41918
-0.224971
-0.486846
-0.144298
0.631144
0.847746
-0.383216
-0.46453
-0.100527
0.379193
-1.70389
0.0893314
-0.0139467
-0.0543187
0.0682654
0.276842
1.77753
-0.167417
0.172086
-0.0620271
2.23804
-0.630424
-0.669736
0.0414739
0.628262
0.402875
0.0228359
-0.35999
0.503884
0.776259
0.0929262
0.072542
-0.0202593
-1.45222
0.23175
1.22047
1.31637
0.0837924
-0.0666208
-0.0550947
-0.370303
0.118452
-0.330054
0.392949
0.55484
-0.0063101
-0.0350882
0.160423
-0.28112
-0.0235272
0.0155352
0.10643
-0.142027
0.0355969
-0.286186
0.297879
-0.0116929
0.109165
-0.406158
-1.82552
0.391505
1.43402
-0.0226566
-0.0249199
0.0475766
0.287177
0.0386718
0.43917
0.301098
-0.67387
0.67387
1.58403
1.60139
-0.701129
0.309583
0.466676
-0.194044
0.00683441
0.959646
-0.381109
0.0116805
-0.885527
0.873846
0.118478
0.00893498
0.0252475
0.245548
0.193622
0.0758898
-0.165704
-0.11152
0.277224
0.139675
-0.490921
0.325218
-1.14654
-0.299659
-0.66219
0.0132011
-0.00389973
-0.00042516
-0.229073
-0.0406937
0.020852
0.0315514
-0.157186
0.125634
-0.569558
-0.032769
-0.00539002
0.0647304
-0.0465941
-0.072721
0.119315
-0.543638
0.364594
-0.145228
0.188513
0.224239
-0.00963965
-0.0313432
-0.863966
0.46975
0.0366585
0.0740149
-0.0155986
0.0267253
0.210895
0.00808352
-0.442717
1.58558
0.507591
0.589134
0.8655
-0.791342
0.823082
-0.461133
-0.639957
0.18767
0.158159
-0.797224
0.778298
0.0189254
0.810418
-0.41747
-0.208724
-0.13998
-0.0899916
-0.00096188
0.949888
-0.838945
-0.110944
-0.196351
0.120378
0.0260816
0.115146
0.877032
-0.0876586
0.0600125
0.0276461
-0.314119
-0.0396267
-0.015356
-0.0312381
0.147292
1.23936
1.89177
-0.290383
0.162202
0.548252
-0.710455
-0.0933534
0.0529589
-0.019375
0.00973534
-0.527934
-0.112023
0.0984972
-0.0857758
-0.198709
0.147491
-0.510874
0.256425
-0.992444
-0.0798718
-0.29639
-0.684738
1.57272
-0.0573566
-0.29808
-0.120858
-0.17265
0.59291
0.316557
0.0429221
1.14403
-0.761068
-0.202824
0.139706
-0.206345
0.0450094
0.161336
-0.0275694
0.0136228
0.0518558
-0.0604915
-0.225695
-0.106732
0.697949
-0.428289
-0.26966
0.0610997
0.125345
-0.0906294
-0.034716
0.246166
0.070391
-0.020708
-1.41798
-0.101117
0.146888
0.108082
-0.19574
-0.0473288
0.00243509
-0.0272741
0.0119506
0.0153235
-0.0109313
0.00204761
-0.254941
0.0770395
-0.0542319
-0.534168
0.397508
0.0282126
0.0401159
-0.0627725
-0.696693
1.45029
-0.895452
0.0155993
-0.204004
0.188404
-0.146386
-0.526656
0.673042
0.0623483
-0.704077
-1.20372
-0.621801
0.0123512
0.000428025
-0.0127792
-0.240957
-0.579284
-0.156441
-0.125793
-1.45222
-0.243634
0.175209
0.0864428
-1.19783
-0.181832
0.0533551
0.128477
0.252303
0.105211
0.496192
0.249607
-0.745799
-0.0562488
0.0239197
1.022
0.1479
-1.1699
-0.214791
0.10796
1.31731
-0.254092
0.190671
-0.460721
0.568682
0.147938
-0.241687
0.00470839
-0.00295738
-0.0112153
1.11419
-0.525057
0.761307
0.0864386
-1.70766
-0.270056
0.251439
0.708207
0.877793
-0.00299168
-0.0200206
-1.89177
-0.66219
-0.712538
0.723176
0.0245172
-0.824381
0.666742
0.58431
-0.930253
0.728966
0.000770669
-0.797994
-0.31561
0.639131
-0.761464
0.122333
0.0760052
0.0493402
-0.998486
-0.363448
1.8102
-1.44675
0.00028657
-0.0041863
-0.276336
0.225764
0.70148
0.211269
-0.19775
-0.173611
0.594369
-1.21928
0.273909
-0.418836
0.367257
0.230428
-0.597685
-1.48506
1.71681
0.0731345
-0.145855
0.109311
0.857018
-1.22047
0.00147284
0.223138
-0.00853631
0.0401546
-0.0638806
0.0106843
-0.0307597
0.0200754
-1.02796
-0.03403
0.305596
-0.805833
-0.953608
1.53598
-0.582373
0.386134
0.674041
-0.0456654
0.0487615
-0.00309609
-0.2836
0.877969
-0.71999
0.865783
0.155144
-1.10875
0.329306
-0.106168
-0.584104
-0.40834
-0.824103
1.19136
-0.0522469
-0.884756
-1.92843
-0.0993889
0.857018
0.0513783
-0.857211
0.830536
-0.64606
-0.184476
-0.981898
0.397794
0.00948279
0.110317
0.00075323
-0.11107
-0.971496
0.563156
-0.203158
0.913323
-0.922144
0.200964
-0.21768
-0.100369
0.250411
0.349743
0.661231
-0.103439
-1.19946
0.548663
0.883004
-0.790077
-0.552877
-0.518388
1.07126
0.447123
0.0195704
-0.0105014
-0.739193
0.705163
0.219919
-0.503519
-0.987275
0.739858
0.247417
1.26777
0.268209
0.771444
-0.80668
-0.493436
-0.449338
-0.471781
-0.499715
0.80415
-0.80415
0.687815
-0.687815
-0.739193
-0.530908
0.530908
-0.739858
-1.20793
-0.507928
-0.273059
0.0405944
-0.0405944
0.219919
-0.503519
0.771444
0.764658
-0.764658
0.80668
0.758445
-0.758445
0.506564
0.528219
0.481612
0.260513
-0.500285
-0.550662
1.07888
-0.711125
-1.62576
0.801659
0.182436
-0.109302
-0.353499
-0.0116471
0.0539783
-0.884342
0.0880321
0.79631
-0.0107393
0.00180914
-0.993664
0.592592
0.881452
-0.571869
-0.122569
0.00256507
-0.00121311
-0.8216
-0.0763572
-0.538926
-0.0132425
0.0279171
0.422282
-0.00610947
-0.0107715
0.181007
-0.00106655
-0.00759962
0.00866618
-0.81219
0.0681402
0.74405
0.0708817
0.278862
-0.525361
0.42649
0.0988711
0.915378
-0.745454
-0.169923
0.0831202
0.31293
-0.0142979
-0.0627357
-0.0673037
-0.0132794
0.603765
-1.73299
-0.870062
0.0947213
-0.747841
0.794773
-0.0469326
0.120287
-0.900333
0.780046
-0.803905
0.902355
-0.0984504
-0.0149911
0.00405984
0.0201534
-0.300208
0.434432
0.756927
-0.0903542
-0.793988
0.914848
-0.0895061
-0.825342
-0.0254346
0.00250487
0.253318
0.825023
-1.39106
0.479263
-0.400438
0.0979694
-0.891957
1.47095
0.229559
-0.794452
-0.00354265
1.01652
-0.896235
1.09018
0.875898
-1.03343
0.157531
-0.884766
-0.108897
-0.428578
0.0483586
-0.0965536
0.533016
-0.783693
0.783693
-0.62603
-0.0825052
-0.863325
0.11787
-0.991381
0.90755
0.0799162
-0.207572
-0.0547346
0.0502705
0.0120928
0.185713
0.830809
0.81985
0.774087
0.135992
-0.910079
-0.898204
0.788902
-0.784761
-0.101219
0.88598
0.16146
-0.88145
-0.677612
0.885781
-0.787812
-0.102294
0.4616
-0.00619006
-0.45541
-0.486872
1.58598
-1.09911
0.221862
-0.10303
-0.118832
-0.887055
-0.828166
0.0803257
0.550348
0.272734
-1.82085
0.62732
-0.597181
0.597181
-0.734307
-0.465152
0.290037
-0.0964152
-0.601094
0.992599
0.784562
-0.191811
0.702894
-0.239628
1.13791
-0.907138
-0.230776
-0.538958
-1.72473
0.123251
-0.0223062
0.00419831
-0.556527
0.0697654
0.315876
-0.232756
0.782499
-0.880949
0.833886
-0.0449838
-0.141661
0.734252
0.597513
-0.597513
-0.0290233
0.0111809
0.118492
-0.0869402
1.15568
0.430294
0.126352
0.00154624
0.00762483
-0.00917107
-0.676792
0.691431
-0.0146386
-0.176867
-0.856561
0.104556
-0.892368
-1.1192
1.42084
-0.301635
-0.000539101
0.872594
-1.74758
1.57072
-0.756375
0.612148
-0.650777
-0.677498
0.166414
0.281354
0.0267896
0.115263
-0.0410489
0.322403
0.000331769
0.0116752
0.0611086
0.733665
0.686773
-0.074625
0.0690779
0.793092
-0.200097
-0.318722
0.518819
-0.327203
0.494278
0.181865
-0.912512
0.696341
0.216171
-0.68523
-0.130509
0.773092
-0.242456
0.122827
-0.0318566
0.485891
0.514109
-0.771825
-0.109124
-0.302111
-0.79221
-0.0619665
-0.24438
0.400853
0.599147
-0.0206951
0.00643187
-0.861331
-0.0535106
-0.597266
-0.154947
-0.234387
0.389333
0.00604391
0.000909606
0.119827
0.0762428
-0.128183
-0.126758
0.763697
-0.649796
0.718874
0.589723
-0.630772
-0.389626
0.545692
-0.156066
-0.744357
-0.183416
0.927773
-0.231273
0.219263
-0.0257076
-0.0587385
-0.0261103
-0.00235557
0.736848
-0.139667
0.109286
0.114953
-0.734561
0.0577687
0.917357
0.334078
-0.08169
-0.065589
-0.0922169
-0.279776
1.01417
-0.00135945
0.09236
-0.154387
-0.00178366
-0.0454712
0.00643109
0.202793
0.714564
0.436801
-0.735166
0.298365
0.844023
-0.0328738
0.0025586
0.0303152
0.135426
0.000789526
0.000612057
0.209946
-0.103517
0.246482
-0.847576
0.75609
-0.319289
0.00455215
0.273951
-0.189474
-1.05996
1.34595
-0.285997
-0.778824
0.82776
-0.0489362
0.199562
0.160757
-0.0128187
-0.0838883
1.35848
-0.467341
-0.0580203
0.269814
0.438447
0.177674
-0.616121
0.384137
0.0275443
0.663887
-0.572005
0.576218
-0.00421225
1.16559
-0.572679
-0.044415
0.051444
-0.00702901
0.702362
-0.00982049
-0.0822233
0.0183459
1.27287
0.773281
-0.573718
0.0883206
0.0578706
-0.0827906
0.0968616
-0.0312532
-0.0656084
0.0177892
-0.00710492
0.520841
-0.372941
-0.0353968
0.209443
-0.024582
-0.0758144
0.236884
0.0916623
0.00326239
0.0286571
0.763471
0.895113
-0.603708
-0.291405
-0.839286
0.342381
0.496905
0.644344
0.117962
-0.0356839
-0.0229813
0.0586652
-0.197446
0.334667
-1.24181
-0.0135591
0.76688
0.728678
0.640532
-0.268844
-0.729642
0.805804
0.0768458
-0.135605
-0.907247
0.136731
-0.272435
-0.350534
-0.169727
0.699075
0.0643957
0.0142773
0.496017
-0.335261
0.032708
0.167646
0.0124541
-0.109125
0.421725
-0.05895
-0.165471
-0.0644955
0.141184
-0.482295
-0.356991
-0.145203
0.217441
-0.0265318
-0.10876
-0.00297509
0.000416517
0.00255857
-1.28961
0.716928
-0.000896108
0.942293
-0.22548
-0.623044
0.657685
-0.0346414
0.393705
0.756844
0.284255
-0.440321
0.0821563
-0.182525
0.640964
0.11588
0.939958
0.635305
-0.280568
0.759831
0.127251
0.587313
-0.58479
0.352548
0.232242
-0.0350339
-0.0707164
0.0401757
0.0711807
-0.0502103
1.23687
0.736136
0.0696674
0.636603
0.209982
-0.880204
-0.0824463
-0.681947
0.678404
-0.0289142
-0.561665
0.406718
0.858469
0.668508
0.0263547
0.0112704
-0.135801
-0.322539
0.628376
0.821916
0.640746
0.0369222
0.736426
-0.149113
0.3204
1.15667
-0.0828321
0.296105
-0.728336
0.921189
-0.192853
-0.414882
-0.169907
-0.0521295
-0.127568
-0.17691
0.833032
0.0281167
-0.00587862
0.625606
-0.0041405
-0.0614485
0.614998
-0.131139
0.219432
0.79022
0.252023
-1.04224
0.27685
-0.92291
0.343745
-1.2392
-0.164697
0.752554
-0.587856
-0.677768
-0.0354858
-0.0232527
-0.0565128
-1.43696
0.00706796
-0.034342
0.667175
0.123493
-0.0946002
-0.0288923
-0.0155142
-0.56969
-0.0434488
0.135809
-1.63807
-0.00440334
0.00333679
0.0670278
-0.0552301
-0.604742
0.0327364
0.568048
0.290421
1.03094
0.690534
-0.227886
-0.390551
0.618438
0.155993
-0.619674
0.619674
-0.24416
-0.96023
1.20439
0.0317326
-0.158548
0.670328
-0.10228
-0.218421
-0.0763525
0.199179
0.484671
1.16096
-0.0768435
0.18911
-0.101635
-0.309045
0.482582
0.0936355
0.0744198
0.00334424
-2.01511
-0.272443
-0.0708054
0.693225
0.306775
-0.272443
0.693225
0.196606
0.103989
0.196606
-0.696485
0.696485
0.303515
-0.0135494
0.0129652
-0.0788838
0.23495
0.104401
-0.489292
0.635862
-0.0208646
0.642769
-0.50563
-0.137138
-0.0470638
0.0428422
0.00422153
-0.0169803
0.0185265
-0.53668
0.0178074
-0.0315441
-0.434768
-0.370727
0.141653
0.0369277
0.817357
-0.269104
-0.452895
0.280245
-0.0194339
-0.064138
-0.00111732
0.692468
0.0744123
-0.0652971
-0.0394423
3.25816e-05
-0.0153667
0.0839031
0.54911
-0.480048
-0.0690622
2.04567
0.561237
-0.0786389
0.936483
0.0119696
-0.0661612
0.112901
0.130966
0.0159538
1.18088
-0.390664
-0.000561848
0.013763
0.331027
-0.429173
0.019028
-0.019028
0.02307
-0.02307
-0.0108379
0.0108379
-0.00823642
0.366342
0.464592
0.0110858
-0.690712
0.456684
0.181248
0.0286984
-0.0856647
-0.481942
0.635772
0.113161
-0.798391
-1.04163
0.145103
0.000439661
0.0210452
-0.00374189
0.00542367
-0.00542367
0.17062
0.00499565
-0.00499565
0.7003
0.106887
-0.0315566
-0.00788567
0.00624154
-0.0638924
-0.0208691
0.0208691
-0.00910327
0.00910327
-0.0238218
0.0238218
0.00393233
-0.00393233
0.0238637
-0.300336
-0.0769872
0.218155
0.00375056
-0.00375056
-0.379202
0.496944
-0.117742
0.48055
-0.210563
-0.414955
-0.0379399
0.557025
0.0533365
0.0873566
0.570329
0.56423
0.00234406
-0.00234406
-0.0781158
0.0267875
-0.0267875
0.00359163
-0.00359163
0.779825
-1.22105
0.0381446
-0.617456
0.312816
-0.000963316
0.000963316
0.00992889
-0.00992889
0.0193436
-0.0193436
0.021309
-0.021309
-0.0249859
0.0249859
0.0370192
-0.0370192
0.499005
-0.033621
0.033621
0.000351258
-0.000351258
0.0254653
-0.0254653
-0.00725853
0.00725853
-0.00268202
0.00268202
-0.066739
-0.0281846
0.0281846
0.238003
0.0188859
-0.0415716
0.0415716
0.00610219
-0.00610219
0.0124059
-0.0124059
0.0353736
-0.0353736
0.0242992
-0.0242992
-0.00137983
0.00137983
-0.00523635
0.00523635
-0.0136905
-0.154468
-0.00902032
0.00902032
-0.000353932
0.000353932
-0.0401302
0.0401302
-0.0265692
0.0265692
0.00280705
-0.00280705
-0.433586
0.685025
0.25677
-0.0336678
0.0336678
0.00751675
-0.00980229
0.00980229
-0.00113535
0.00113535
0.0353988
-0.0353988
-0.161397
0.0257921
0.00628463
-0.00628463
-0.0206945
0.0206945
-0.474065
0.0416324
0.546465
-0.0297193
0.0297193
-0.433881
0.0309859
0.0177756
-0.0591862
-1.64848
-0.0386239
0.0386239
-0.212038
0.153088
-0.0390686
-0.00183164
0.00183164
-0.0148859
0.0573035
0.267343
-0.322157
-0.261401
0.583558
0.174405
-0.00691998
0.00691998
-0.0391273
0.130885
-0.0917577
0.748052
-0.374872
-0.37318
-0.482326
-0.658668
-0.101577
0.381822
-0.118061
-0.209142
-0.575854
-0.0249635
0.191299
-1.15018
0.0187817
-0.0187817
-0.00196016
0.00196016
0.032435
-0.032435
0.0249013
-0.0249013
-0.00112431
0.00112431
-0.00196615
0.00196615
-0.0531975
-0.139689
0.159954
-0.282523
0.00166061
-0.00166061
-0.0427087
0.0427087
-0.0423751
0.0423751
-0.004317
0.0886443
-0.0843273
0.0170629
0.296722
-0.522202
-0.00226892
0.00226892
-0.0164099
0.0164099
-0.107169
0.192792
-0.294369
-0.00267301
0.00267301
0.026699
0.0134816
0.896908
-0.488724
-0.0944663
0.58319
-0.617186
0.343547
-0.440101
-0.0366895
0.0366895
-0.67308
0.267055
0.0520185
-0.0520185
-0.675609
0.403038
0.251402
0.113189
-0.000737713
0.000737713
-0.872107
-0.000312558
0.000312558
0.326591
0.407765
0.0854044
-0.05619
0.05619
-0.00307024
0.00307024
-0.0445042
0.0445042
-0.0511532
0.0511532
-0.000104668
0.000104668
-0.0565776
0.0565776
-0.000172291
0.000172291
-0.0479645
0.0479645
-0.0129559
-0.0430282
0.0430282
0.00494372
-0.00494372
0.0506047
-0.0506047
-0.000695904
0.000695904
0.0451606
-0.0451606
-0.25475
-0.00251134
0.00251134
-0.00447347
0.00447347
-0.0425538
0.0793341
-0.0109841
0.0109841
0.00499782
-0.00499782
-0.0622611
0.0622611
0.3066
-0.0193038
0.0193038
-0.0547521
0.0547521
-0.00742186
0.00742186
-0.0704176
0.0704176
-0.0129844
0.0129844
-0.0841129
0.0841129
-0.0228905
0.0228905
-0.090349
0.090349
-0.703647
0.249073
-0.545054
0.510412
-0.91074
-0.147409
-0.542887
0.37316
0.013746
0.0473537
0.00384714
-0.00384714
0.114194
-0.697029
0.0494585
-0.0461143
-1.42547
1.67552
1.29929
0.246164
0.0117893
-0.0169419
-0.378653
-0.595893
-0.0617942
0.394533
-1.28764
-0.0265127
0.0265127
-0.725011
0.0161721
-0.0161721
-0.00429665
0.00429665
0.326245
-0.329116
-0.00288819
0.00288819
0.0180577
0.0136331
0.5992
-0.0425075
-0.0144217
-0.0102983
-0.00972235
-0.10936
0.512363
-0.403003
0.149144
-0.0258933
0.000636356
1.04432
0.0203889
0.0407458
-0.410585
0.458944
-0.505052
-0.935241
-0.221606
-0.0777732
0.0190187
-0.0498584
-0.0531712
-0.0151607
-0.00773096
-0.00167098
0.803091
-0.533836
-0.0466543
0.0591083
-0.0399958
0.0336758
-0.0207105
0.41395
0.248421
-0.164157
0.205525
0.0134937
-0.00191464
-0.997534
0.0198874
-0.113676
0.0190762
-0.017773
-1.2605
-0.0723327
0.27154
-0.3544
0.409696
0.243325
-0.928064
0.0444469
0.0382289
-0.035724
-0.357112
0.455983
-0.0240677
0.0399884
-0.0159207
-0.0288686
0.0288686
0.187082
-0.450241
-0.0798313
0.0254328
-0.0880849
0.0591707
-0.0592055
-0.00408144
0.0632869
-0.0389977
-0.15881
0.0535536
0.0195415
-0.284532
-0.339085
0.623617
0.0175795
0.0644005
0.149086
-0.0398004
-0.0894819
0.0761776
-0.166171
0.324331
0.000853109
0.0294621
-0.0165072
0.165594
0.00281765
0.271089
0.00362156
-0.00362156
-0.568924
0.889324
0.0987232
-0.181169
-0.0154156
0.0422776
1.44841
0.12231
0.0394002
-0.0134554
-0.536573
-0.0084809
0.0697558
0.104544
-0.709638
0.328529
-0.0564915
0.362471
-0.647003
0.201654
0.494687
-0.093731
0.093731
0.000753229
-1.4261
0.177396
1.2487
-0.22341
0.166897
-0.00567692
-0.0810266
-0.325131
-0.00702681
-0.0408215
0.0445387
0.929498
0.196385
-0.17003
-0.0703216
-0.856555
-0.252197
-0.027133
-0.265432
0.769316
0.557506
-0.260783
-0.294443
0.568395
-0.00814028
0.154511
-0.265777
0.021285
-0.455629
0.337887
0.119047
-0.119047
-0.0141612
-0.0382999
0.0524612
-0.00281274
0.00538007
0.0119506
-0.0273962
-0.17005
0.214672
-0.185656
-0.0290162
0.526953
-1.12176
0.165435
-0.936652
0.684954
-0.107477
-0.175045
-0.026525
-0.080207
-0.499645
0.0648768
-0.300383
-0.00106332
-0.017773
0.395793
-0.00511455
0.001568
-0.00018177
0.0140752
-0.0110817
-0.00299348
-0.097098
-0.0176549
-0.17424
0.191895
-0.110741
-0.344888
0.0180577
0.349314
0.00103562
-0.390565
0.0941753
0.00296577
0.101904
-0.0908179
-0.0132692
0.0132692
-0.00166649
0.00082562
-0.00882958
-0.000158935
0.0245728
0.000439955
-0.00116415
0.029454
0.0838092
-0.00273538
0.00273538
0.00591835
0.499585
8.29464e-05
-0.283994
0.519698
1.18745
-0.467853
0.31778
-0.440175
-0.0597519
-0.0200794
0.211343
-0.216237
0.0229903
-0.00347031
0.00111474
0.00015772
-0.178293
-0.369975
0.826659
0.381028
-0.434226
0.000518093
-0.00164557
-0.00800179
0.00746269
-0.000126604
-0.000150509
-0.0033198
-0.0274398
0.00144136
-0.000614554
0.739601
-0.663424
-0.248912
0.274876
0.620203
-0.000781418
0.00104828
-0.0390686
-0.00542013
0.817624
-0.43202
0.525655
-0.863016
0.905922
-0.140391
0.557445
-0.184285
0.717582
0.000338549
0.00358668
0.0174586
-0.123997
0.138155
-0.0472676
0.0079772
0.0022784
0.0705053
-0.0579014
-0.012604
0.000635352
-0.0288222
0.0568469
-0.0280247
-0.093499
0.00795969
-0.00033486
0.00220834
0.493937
-0.440501
0.00400403
0.00053813
1.20417
-1.02678
0.372365
-0.00618886
-0.000128518
0.0403141
-0.0757109
-0.0492279
-0.0959934
-0.0111892
-0.00375119
0.135249
0.0392333
-0.00285587
0.393289
0.000939696
0.00122932
-0.00122932
0.00241552
-0.0127138
0.000536305
-0.322493
-0.00388267
0.0760075
-0.107666
0.156011
0.258465
-0.0652203
0.000608307
0.00196214
0.445324
0.000386585
0.000246488
-0.052376
-0.00212913
0.000814514
0.0354748
0.0908772
-0.709959
0.450178
-0.820154
0.139621
-0.000397241
0.469465
0.0209531
0.0488123
0.561227
-0.0144636
-0.0583793
-0.00417146
-0.00141378
-0.557201
-0.00346025
-6.76192e-05
0.00897659
0.90985
-0.525713
-0.00264027
-0.000523618
-0.0060711
-0.00181543
0.0709154
-0.0211792
0.0211792
-0.0282925
0.0291182
-0.00242404
-0.00815653
0.0353475
-0.0337795
-0.174846
0.10413
-0.00556255
-0.0136953
0.0365043
-0.0186025