/*--------------------------------*- C++ -*----------------------------------*\
| =========                 |                                                 |
| \\      /  F ield         | OpenFOAM: The Open Source CFD Toolbox           |
|  \\    /   O peration     | Version:  2306                                  |
|   \\  /    A nd           | Website:  www.openfoam.com                      |
|    \\/     M anipulation  |                                                 |
\*---------------------------------------------------------------------------*/
FoamFile
{
    version     2.0;
    format      ascii;
    arch        "LSB;label=32;scalar=64";
    class       volScalarField;
    location    "49.7";
    object      p;
}
// * * * * * * * * * * * * * * * * * * * * * * * * * * * * * * * * * * * * * //

dimensions      [0 2 -2 0 0 0 0];

internalField   nonuniform List<scalar> 
2186
(
1.0449
0.210358
0.459852
1.34184
-2.04818
-0.105697
1.03944
-0.616206
0.204917
1.50686
0.862647
-0.310087
-0.68131
1.1118
0.020975
1.07209
1.12422
-2.34535
-0.0896207
-1.97384
1.43816
-1.89074
1.11455
-0.365048
1.10614
1.32176
1.31985
1.2167
0.265992
1.11028
-1.93639
1.10622
-2.01077
-0.0360242
-0.373871
-0.396317
0.166716
1.40286
-1.07798
0.228657
-0.677555
-1.84044
-0.0677865
-2.04676
0.756023
1.4862
0.78103
0.913375
0.258828
-2.11343
-1.96101
0.655507
-0.0734536
1.28959
-2.03518
1.25327
-0.112542
1.27562
-1.02893
1.06146
0.258744
0.383994
0.239943
0.196983
0.29742
0.864882
0.369864
1.34672
1.2406
0.22226
-0.61105
0.298696
1.3631
1.279
1.1706
1.41111
0.15202
1.11586
-0.372079
-1.46025
-1.6594
0.086631
1.1033
0.355541
1.10694
1.10593
1.29972
0.004107
0.472474
-0.292769
1.2498
-1.93933
1.11363
1.33503
1.11353
0.0400303
0.358873
0.330519
-2.09924
1.2841
-0.978372
-1.25578
0.41245
1.12816
1.12722
-1.92321
1.09886
0.292739
1.22041
-1.84363
-1.45235
-2.03871
0.934772
1.25186
0.0960945
-1.0135
-0.26617
0.272308
-0.294391
1.38319
-0.597928
-2.25403
0.605078
-2.21344
1.07992
-0.284251
-2.05033
1.39596
-2.28996
1.02569
1.56779
1.47392
0.689368
1.01898
-1.33267
-2.13927
1.23124
0.141754
-0.53432
-0.306071
0.527451
0.333433
-0.584989
1.05911
1.12313
1.15164
0.251611
-2.05026
0.979757
-2.0003
-1.96643
0.963008
1.11935
1.42675
1.3164
0.920373
1.26771
0.178865
0.0572128
0.838157
-0.266502
-0.373855
1.00516
1.26394
-0.111817
-0.260934
-0.293705
-0.466453
0.484948
0.595966
-0.0271681
1.28531
1.12394
1.37365
0.0356838
-0.480616
-2.04401
1.00339
-0.809973
0.651668
-0.435788
1.11617
-1.95745
0.214999
0.161051
-2.0185
-1.43023
0.988494
-0.605641
-0.749357
-1.55084
1.30746
-0.404293
1.23828
-0.224085
-1.86157
-0.476063
1.21373
0.901514
-1.99905
-0.547043
-1.59337
0.558865
1.14932
-0.291728
-1.9891
-0.365572
0.393386
0.947076
-0.138229
0.912613
0.507779
1.24833
0.568974
0.696075
1.24602
1.06512
1.10462
1.21211
0.98733
0.813906
-1.11921
-1.95317
-0.401692
0.648108
-2.37609
-2.03484
0.861547
1.31712
-0.527859
-0.276457
-0.944852
0.796645
1.01524
1.05069
1.21547
1.38856
-1.83647
1.19042
-0.42549
-2.14802
-1.08437
0.809938
0.437162
1.02043
1.28932
0.969058
0.93103
-0.551807
1.15957
1.09579
-0.640483
0.788473
0.500105
-0.879008
-0.345237
-0.322446
1.0182
1.10565
-0.695885
0.10542
0.412815
1.26139
-2.22537
0.510238
0.948601
1.09059
-0.326302
-1.9553
1.11212
0.42226
0.264844
-0.514435
1.3283
-1.98903
-0.567147
1.06903
1.43386
1.1114
-2.09086
-0.119586
0.0999037
0.798887
-0.66336
0.93843
1.1024
1.27421
0.352568
0.326847
0.972748
-0.330521
1.21059
1.44482
1.1042
1.10222
0.132815
-2.03272
-0.348977
0.181787
0.220309
-0.179795
0.804649
0.0393602
0.271803
1.42547
1.09034
0.784227
0.145761
1.14784
-0.299937
0.281633
-0.511269
-0.261605
-0.773451
0.781621
-1.96498
-1.95137
-0.350172
0.837039
-0.0295234
-0.0408715
-2.00569
0.548913
-0.828673
-2.01585
1.29022
-0.59867
-0.104142
-1.93448
1.13304
0.332897
-0.522363
0.910581
-1.57304
-0.694125
0.342808
1.13659
0.916681
-1.67729
1.22597
1.21013
-0.0232672
1.47874
1.06138
1.10432
0.808691
0.565656
-0.299609
0.6765
-2.08718
-0.40383
-0.355123
-1.26523
-0.334564
1.31023
0.242677
-1.95434
-0.635104
1.0626
-2.05997
0.0623576
-2.01568
1.11055
0.617334
-0.510267
1.26519
1.33667
1.39419
-0.603052
-0.057596
1.31863
1.07406
-1.68346
0.108882
-0.457297
0.636372
1.15925
0.843149
1.10576
1.4791
0.158314
0.555475
-0.0621533
0.134007
0.274001
-1.88348
0.198914
1.22381
-2.4265
0.296369
1.04499
0.969902
-0.38327
-1.77244
-0.333581
-2.28905
-0.466446
-0.242409
-1.85168
-1.98759
1.34283
0.461749
-1.03721
1.11679
-0.285019
1.49059
-0.953464
-1.53477
-2.0022
1.10309
-0.490448
1.10492
1.17736
0.2523
1.26167
-2.24002
-0.220686
-0.562112
1.30447
1.10669
-0.431675
-0.490756
-0.513754
0.831512
-0.349143
-0.207667
0.13533
0.879161
1.08971
1.00925
-0.500604
-0.17413
0.728408
0.234793
1.06158
-1.81157
1.12095
-0.581233
1.38315
-0.286675
1.18214
0.509236
1.1109
-0.396136
1.0434
0.262485
-0.218554
1.10585
-1.41386
-0.212311
-1.21735
-0.393872
1.07775
0.644875
0.738859
1.05066
-0.217381
0.512763
0.127008
-1.95669
0.731738
-0.673147
0.478024
-1.28464
0.911086
1.40196
-0.591093
-0.214502
0.629958
-1.95347
0.113387
-0.851511
0.584054
0.56174
-0.706008
1.05857
0.588353
-0.0533336
0.740156
0.634595
0.53334
-0.0901442
0.37141
-1.58067
0.29546
-1.89699
1.10308
-1.85961
1.28909
1.45937
1.44177
0.370594
1.03707
-2.00092
-1.90762
1.08864
0.675126
1.04726
-1.69708
-0.753799
-0.824609
1.08021
-0.204597
-1.15243
-2.04224
-2.10757
-0.453797
0.19247
0.496319
0.541729
-0.418171
0.199618
1.10237
0.556199
0.994986
-1.31692
-0.771477
-0.200945
0.483848
-0.134388
1.43045
1.33651
-1.09318
-2.01229
-0.261568
-0.0140511
-1.99482
1.32737
0.198729
1.29364
0.61788
-0.464869
0.757243
0.722688
-1.25437
1.08512
0.0621279
-1.94653
-0.0596391
-0.264038
-0.0151899
-1.97323
-0.395008
1.10961
-0.226955
-2.01812
0.976234
1.24767
1.45266
0.233277
1.05194
0.310785
1.12516
-0.0662451
-0.0688399
-1.94591
0.147439
0.612255
0.955243
-0.427398
-0.545238
0.297432
-0.301747
0.398671
1.08401
-0.216158
-0.198437
-0.748526
0.769969
-1.71508
0.968286
0.367568
0.286035
1.10595
0.994268
-1.60781
-0.721987
0.992727
1.50606
1.12223
-1.37173
-2.4224
1.12651
0.446597
1.11142
-0.94696
0.0709275
0.987459
-0.78343
-1.95333
0.904248
-0.0571335
1.1636
0.0543025
1.20467
-1.05316
0.989764
-0.385927
1.38048
-1.94924
-0.680948
0.761793
0.179407
0.211179
-0.582006
-2.01671
0.210421
0.660749
0.405188
-0.274349
-1.2823
1.10567
0.0563958
-2.31506
0.553338
0.704491
1.02211
-0.738053
-1.76634
-1.93364
1.11354
1.06836
0.897559
1.11183
-0.470859
1.29352
-0.888706
0.272332
0.251111
1.10286
1.11544
-0.549913
0.609936
-1.95359
0.639098
-2.05099
0.823023
1.21132
1.10334
-1.43014
0.76603
-0.959628
-0.601776
1.30341
-1.18824
-1.32255
1.068
0.260005
0.974971
-1.39618
-1.9507
0.876048
1.12151
1.5461
1.10046
-2.33671
1.36199
1.01464
0.492554
0.31684
-0.54238
-0.275917
1.5705
-0.345467
1.04446
-1.97474
0.748962
1.10176
-0.637395
1.03072
-0.354246
0.720093
1.12153
1.12734
-0.444719
-0.835907
-0.00967082
0.940361
0.984264
1.28885
-0.00905228
0.588887
-1.1801
-0.540941
-1.31765
1.15396
1.40915
-1.44801
-0.151347
-0.184443
1.26963
0.140591
0.462249
0.0196191
-0.916889
-0.533748
-1.93572
-0.80104
0.67826
-1.64373
0.00878201
-0.892425
0.179939
-2.07156
-0.470772
0.0650971
1.00423
1.11261
-0.613621
0.367379
1.03272
1.11023
1.11839
-0.660335
1.02422
1.25544
1.12145
1.34435
-1.32824
0.0150572
-1.95416
0.304476
1.12488
1.06908
0.623192
-0.0936256
-1.84861
-0.82541
1.48561
-0.166615
-1.25454
0.0999393
-0.00229307
-0.650376
0.565604
-0.434491
-0.135994
-0.248704
1.06634
1.10635
1.08044
-0.261927
0.000287523
1.48157
-0.0516373
1.11514
-0.0470372
-0.106071
0.519821
1.10577
0.943119
-0.673499
1.00635
1.01444
-0.240518
0.00353435
1.08255
1.10103
1.1061
-0.209805
-0.345902
1.10926
0.990059
1.10408
-0.272025
-0.758808
-1.05323
-0.92848
0.259395
-1.92819
-0.0554649
0.135673
1.10908
1.11255
0.607978
-0.305097
1.06509
0.0099685
0.737383
-0.119821
1.11206
1.11952
1.10999
1.11201
1.08356
1.0719
1.05497
0.636771
0.696233
0.279749
0.418851
-0.120904
-0.0774348
-0.0300051
0.193333
0.063796
0.00428529
-0.0324883
1.1105
1.11935
1.11594
1.13125
1.12503
1.11168
1.10887
1.11359
1.07915
0.139745
0.567892
1.10764
1.11256
-0.0237124
1.11605
1.10885
-0.366254
-1.0412
0.00548909
-2.09096
-1.92875
1.08716
-0.65708
1.09745
0.975896
1.34296
-0.280632
1.10281
0.952581
1.09445
-1.9495
0.00206917
-0.667311
-0.0396509
-0.592204
-1.97622
1.0922
-1.06387
1.17736
1.08664
-0.800759
1.0594
1.25424
0.177763
0.793585
1.03521
1.07648
1.09686
1.1077
-0.387661
0.125184
-0.629439
1.08878
1.11203
-0.806241
-1.1028
1.08714
-0.217893
-1.01345
1.0924
0.159621
1.03843
1.10001
0.202769
1.1107
-1.09582
1.09744
1.07525
-1.6982
1.12208
1.12699
-0.776518
0.482111
1.10731
1.09153
-0.248901
-1.74481
1.07951
1.55381
1.09619
1.10633
1.09792
-1.13317
1.10108
1.1128
1.09436
1.09565
1.09356
1.10479
1.14221
-0.243619
-0.528327
1.1041
1.08332
-0.0534853
0.134771
0.542975
-0.55239
0.834144
0.0877228
-1.01956
-0.297286
1.09376
1.0771
-0.743271
-0.446653
-0.241392
0.0129402
-1.97809
-1.04572
-1.16741
-2.35781
-1.05961
1.10637
-0.943857
1.09199
0.915954
-0.3186
1.17124
-0.0923244
-2.13285
1.03568
1.0062
0.0806734
-0.256413
1.068
-0.852282
1.10065
-0.525003
1.10384
-0.033884
1.0886
-0.686071
0.480015
1.10194
1.1222
0.904295
-0.763792
-0.305796
-1.33588
-0.84514
1.12626
0.887692
-1.06239
1.07917
1.13033
1.05771
-0.671005
-1.30454
-0.0521228
-1.02101
0.786867
1.08432
0.044544
1.10242
-1.48248
1.08342
1.12265
1.10677
-0.108197
0.0347202
1.13732
-0.646355
1.10975
1.10916
0.522025
-0.626374
0.757501
1.07484
1.08765
1.06111
-0.667914
-0.518268
1.10532
0.837505
1.10512
1.17748
-1.90845
-0.548033
0.797494
1.40992
1.07621
0.782836
-0.671011
-0.958122
-0.600322
-0.967676
1.11314
0.0527097
1.04416
-1.85726
-0.229854
-2.00838
0.181222
-0.359954
-0.37788
-0.558349
1.0859
-0.294583
0.7207
-0.360015
0.352937
-0.612856
-0.539627
-0.695212
1.01965
-0.85437
-0.364907
-0.501277
-0.944804
1.11113
-0.902581
-0.574593
-0.629512
1.01404
-0.155756
-0.371285
1.15122
1.1085
1.11175
0.884702
-0.344467
1.07503
1.08228
-0.832368
-1.95862
1.0876
1.14184
1.20169
1.09763
0.47542
-0.848732
-1.97587
-0.84308
-1.90865
-0.221187
-0.407698
-0.00842341
1.14425
0.480932
1.11667
1.20745
1.06881
-0.299572
-0.514218
1.08515
-0.497961
-0.227482
1.10816
0.435966
-1.94499
-1.3949
-0.34712
0.951603
0.913094
-0.664461
1.08318
0.429964
-1.05191
1.11457
-0.23436
0.725414
-1.90404
1.22594
-0.571996
0.845603
1.08868
0.9621
-0.378612
-1.30164
0.763717
1.44345
1.10641
0.872364
-1.08995
1.48871
-0.251088
-0.286366
-0.198292
0.885289
-0.14639
1.18421
1.40116
-0.426611
-0.589329
1.07084
-0.548452
1.15795
1.1139
0.968122
-0.282805
1.08422
0.0859266
1.1278
0.0210123
-0.506712
-0.757718
1.0901
0.118999
-1.21049
-0.347953
1.1876
-0.626126
1.11418
0.715763
1.2735
0.824368
-0.840212
1.11954
-1.94226
0.998274
1.02335
-0.200109
-0.647871
1.02569
1.04853
1.14134
0.984311
0.582127
0.968276
1.12678
0.774868
1.08649
-0.153484
-2.13255
-0.94032
1.26617
-0.409249
-0.396225
-1.9506
-0.641761
-0.233221
-0.277804
0.670688
-0.349666
1.11216
1.18072
-1.9625
0.287824
-0.639639
0.168138
-1.31158
-1.94762
1.0658
-0.0761656
1.09907
1.45002
1.15112
-0.615411
1.10576
0.946481
-0.186954
1.13292
1.03357
-1.78757
1.03916
0.775924
-0.0568725
-0.341894
1.56939
0.0438433
-1.4827
-0.643688
0.695404
1.1073
-1.89012
-0.159118
-1.95778
1.17224
-0.507053
0.660428
1.0655
1.13319
0.0216179
1.15445
-0.204511
1.09129
1.10871
-0.912491
1.10337
0.176886
1.13661
1.05623
-1.23173
-0.204434
-0.10553
-0.669823
1.21541
0.0265485
1.06943
1.39583
0.146568
-0.00917989
1.16806
0.0186511
1.16545
0.127839
0.271273
1.14562
1.15061
0.848786
-0.0996873
0.541443
-1.85059
-1.99809
-1.56552
1.09688
1.15571
1.59881
-0.265946
-0.318157
1.1025
-0.711073
1.09829
0.900879
1.1621
1.05806
1.10615
-1.01134
-0.251605
-0.56741
0.688684
0.911132
-0.66953
-1.94896
-0.465393
1.11553
1.1773
-0.120757
-1.4252
1.11402
-0.181231
-0.0742287
0.548894
0.746772
-0.164862
-0.617302
-0.567351
-0.846963
-1.65211
-0.456791
-0.21214
1.58347
1.30385
-2.18318
-0.972751
1.11132
1.0911
-2.06635
0.48187
0.199252
0.399201
1.15239
0.295849
1.08727
0.372943
-0.609523
-0.873415
-1.67985
-2.15534
1.14219
-0.884979
0.230027
1.34497
-0.814587
1.09046
1.18704
-1.95104
1.3386
1.49754
-2.03231
1.15795
-0.760176
-0.597019
0.953461
-0.452048
1.31546
1.09829
-0.708603
1.21464
0.630612
-1.20029
1.10946
1.32958
-0.251476
-0.602635
0.936199
1.08111
-0.555114
-0.678544
1.2067
-0.658513
0.890005
-0.485376
1.13068
-0.439982
-1.49375
-0.370976
-2.06124
0.968908
1.1906
1.52536
1.11396
0.82237
1.13032
0.934848
-0.310857
1.02201
1.41499
-1.98606
-0.61283
-1.78769
1.25674
0.101927
-0.612968
-0.687003
0.76969
-2.00373
-2.25864
0.878258
1.32159
-0.434766
-1.96251
-0.650697
-0.920183
-1.0304
-2.01192
-0.258344
0.708693
1.22516
-1.95405
-1.09456
-0.211654
0.643191
-0.647918
-2.11287
-0.221867
1.26498
-0.256338
-1.96868
1.55437
1.09427
0.837659
1.45231
-0.529904
1.29178
1.07657
1.2696
1.46471
-0.0797005
0.43428
0.876427
0.724657
-0.199805
1.48081
1.16202
1.16593
1.2336
-1.97735
-0.137777
1.11844
0.66122
1.1129
-0.750229
-1.42018
1.10535
-0.375603
1.10696
-0.134746
1.36582
-0.196784
0.507419
1.10459
-1.9538
-0.201151
-1.82372
1.32586
-1.95347
-0.29355
1.07402
0.349684
-1.11972
1.12361
1.14111
-1.953
-2.55986
0.938369
-0.626415
-0.222416
-0.637026
-1.96945
0.24865
0.965009
1.1577
-1.77458
1.01009
1.10864
1.36561
0.735289
-0.0961139
-0.40043
1.20602
0.130267
-1.95422
0.264423
-1.17198
-1.95485
1.03808
-1.96188
-0.249638
-0.24144
0.25768
0.97209
-1.95534
1.02167
-0.701829
0.914021
-1.95884
0.156337
-1.95344
0.827802
-0.281678
0.0413316
-1.96865
1.16743
-0.456277
-1.98868
-2.02289
-0.296023
1.10565
0.580339
-2.07443
-0.30727
-0.439177
-0.169096
-1.97175
-0.322028
-2.12669
0.406184
-0.317972
-0.675442
-0.345637
-0.982902
-2.21356
0.262168
0.844016
0.347339
-0.650749
0.996502
-0.313208
0.278503
0.868282
1.11512
-2.08631
-1.50562
-0.302084
-1.20386
1.1443
1.41498
0.134517
-0.0470948
0.534638
-0.860008
-0.634512
0.211355
0.964046
-1.85846
1.11945
-0.397172
1.441
0.874077
1.6111
-1.95847
1.45039
-1.26047
1.28748
0.239874
-0.295815
1.36429
1.13214
-1.27604
-0.260152
-2.03678
0.907265
-1.99887
1.04663
-0.712825
-0.592992
-0.403664
1.36058
1.02932
1.38922
1.01272
1.1195
-0.086719
0.286154
1.11677
-0.38785
-0.995887
1.38081
-1.94631
0.899215
1.1953
1.46818
1.57697
-1.93977
0.0549608
1.1597
0.698968
0.12128
-2.00899
-0.331717
-1.49183
-1.95324
0.934931
-1.48688
1.46024
-0.035888
0.927619
1.1079
1.00274
-0.94775
-0.376388
-0.886881
1.19704
-1.03542
1.07408
-1.49102
-1.40501
1.16073
1.53117
-0.406628
-0.361717
1.10539
-0.967322
-1.90489
1.01957
1.2005
1.40575
-2.21888
0.842478
0.672685
-0.343108
1.42708
-0.0841179
-1.95498
0.439856
-0.182614
-0.0340852
1.02924
-1.28783
-0.128253
-0.679143
-0.321918
-1.81466
-0.397987
1.02038
-1.66219
0.995343
-0.541001
0.577203
1.03534
0.741855
-0.390476
-1.46512
-0.492266
0.0372921
-0.721261
-0.678432
0.778199
-0.473288
-0.0620445
0.955859
-0.689895
-1.98381
1.1099
0.0577637
0.82832
-0.18255
-0.419944
0.269788
1.10492
-0.210771
0.178981
1.16893
-0.573525
1.21495
0.0167907
-1.11314
-0.923066
-0.29329
1.64147
-1.29179
1.34515
-0.877474
1.10982
1.22393
1.06148
1.21339
1.05817
-0.424819
0.112405
1.13167
1.34391
1.53429
-0.845616
1.0757
0.435833
-0.784782
1.12998
1.46625
-1.38298
1.27992
-0.239576
-2.23382
1.16996
-0.734791
-2.00268
1.12444
-1.2155
1.18791
1.3493
0.927628
-2.14796
0.790446
1.18162
-2.19242
-0.794452
-1.07351
-2.4301
-1.00136
-0.23459
1.5708
1.10794
-2.04741
1.23643
-0.684346
-1.16545
1.51303
1.1369
-1.73487
-0.905396
-0.265241
-0.516422
1.17621
-2.02086
0.589073
-1.70873
-0.851003
1.18177
-0.583397
1.33582
1.08976
1.15145
1.03701
1.23084
-1.28088
-0.634891
1.22082
1.38216
-2.17136
1.14313
-1.29981
-0.343957
-0.51942
0.95761
0.995457
-0.407658
-2.03787
0.939609
0.482959
-1.61175
1.01668
0.798489
-1.28907
0.851291
0.907298
0.146523
-1.9929
-2.08408
-0.282944
-0.483352
1.52953
0.144401
0.738104
-2.01397
1.54022
0.839504
0.67355
0.848731
-1.28082
-0.0925065
-0.234041
0.234018
-1.96702
1.24313
0.746915
-1.04078
0.746275
1.30894
1.12514
1.03997
0.0909575
1.14409
0.182853
0.839719
0.691349
-1.24595
-1.98309
-2.13362
-1.5537
1.10847
1.2813
1.11012
0.0688913
-0.18058
-0.204301
-1.95082
1.08881
1.22627
1.10475
-1.97416
-1.54186
-1.28806
-1.32108
-0.258191
-0.277727
-0.790481
1.0312
-2.29809
-1.95386
-0.529052
0.429602
0.476587
-2.06287
-0.191447
0.184977
0.8517
1.51871
-0.76886
1.2361
1.50343
0.393911
1.1869
-1.99333
-0.415389
1.59932
-0.193573
0.761025
-1.96148
-0.503686
-2.0302
-1.95427
1.19848
1.09769
1.0941
1.04609
-0.057231
1.13187
-0.367835
-0.4407
-0.209285
1.22752
0.479651
1.10294
1.11875
0.25852
0.108934
1.13622
0.0799118
-0.317434
-1.95397
-2.0188
0.968694
-1.95463
1.10431
1.04538
-0.211413
1.48231
-1.96337
-1.02095
1.10885
-1.46393
-0.9673
-0.153293
0.306649
-1.95532
-2.09959
0.733388
1.111
0.0719024
0.578108
-0.445243
-0.229813
-0.0343179
-2.27044
0.389536
0.994282
-1.09717
-1.9553
1.19051
-0.165195
-0.0227316
-1.95481
-0.523733
1.09954
1.33965
0.209624
0.941932
-1.95581
-0.905186
-0.126655
0.103687
0.867066
-1.96038
0.779898
-0.332447
-1.97444
1.40446
-2.00033
0.143685
-0.474913
-1.90811
1.18362
-2.04452
-2.034
-0.310311
0.505919
-2.10034
-0.542532
-2.17128
-0.0572032
1.11071
-2.16186
0.353858
-0.331526
-0.808193
1.28171
1.57981
1.14404
1.09944
1.11291
-1.81333
1.07188
-1.975
1.33436
-0.305737
-0.235677
1.50266
0.255434
0.893164
-2.16108
1.5495
-0.445636
1.50281
0.30493
0.635009
-1.95716
-1.95851
-0.29159
-2.00444
1.4085
1.14287
1.05635
0.987206
1.09779
1.20242
0.593727
-1.9715
-0.490124
-0.0894497
-0.905776
0.557838
1.09291
0.473323
-1.94717
-1.99931
0.143007
-0.299773
0.0831507
1.55946
1.114
1.08884
0.212078
0.0657923
1.13212
-0.217508
-0.240174
-0.810777
-0.79901
0.543148
-1.94959
-1.95245
0.246086
1.02003
-0.172146
-0.466916
1.09269
0.999605
1.02238
1.07296
-0.254306
0.675584
1.3766
1.18064
-0.274755
1.10962
0.796062
0.104503
-1.24132
-1.95104
1.46545
0.731429
-1.18656
0.580007
0.733949
0.906793
-0.936149
-0.752564
-0.124544
-1.85996
-0.224441
-2.04295
-0.469061
1.06224
-2.20614
0.993505
1.45472
1.37342
0.947473
0.984221
1.06757
1.08154
-1.12793
-0.0556254
-1.17998
-0.37023
0.00191442
-1.95698
1.10853
0.931344
-0.678299
1.17721
-1.93462
-0.432137
-1.98525
-0.0984206
0.931998
0.211135
1.0518
0.711474
-2.13395
0.162334
1.40878
-0.00358803
-0.0275284
0.212549
-2.05033
-1.99923
1.17574
0.55081
1.33027
-0.773791
0.0819047
-0.262535
-1.03661
-0.702549
-0.0731315
-2.03564
-0.376734
0.731996
-0.0859585
1.62279
-2.3328
0.045678
-0.318985
-1.95953
1.15786
-0.324936
-0.87918
0.0118883
0.345337
1.09053
1.42815
-0.83254
-0.296021
0.616634
-0.313127
-0.172712
1.3164
-1.25262
-0.207302
-1.7753
0.516945
0.182104
-0.729413
1.06217
-0.298854
-1.62048
1.04742
-1.71666
-1.66526
-2.25899
-2.16021
0.510871
-0.732688
1.25391
-0.201642
0.660116
-0.302146
0.568433
-1.66024
-1.27196
0.360791
1.0737
1.16451
1.13041
1.14039
-2.06426
1.1002
0.933499
-2.04179
0.862727
-1.10723
-1.89064
-0.214823
1.39597
1.37434
-1.57151
-1.42684
-0.997612
0.85328
-1.72855
-0.178916
0.380744
-1.95096
1.21801
0.881257
-1.95716
-2.12571
-1.95475
-1.95231
0.871793
-2.00065
0.830677
-0.196368
0.441596
0.627862
-1.96923
-1.51525
0.781002
-1.95312
-0.409306
1.37022
-0.247622
-1.94771
0.58931
-2.21794
-2.06534
0.405735
-0.908395
1.46685
0.007447
0.663971
-1.9586
1.53255
-1.9641
-2.12978
0.353986
0.385033
-0.304166
1.48481
0.394729
1.30855
-2.04883
1.13616
-0.00176545
0.0440984
-2.0255
-2.02871
-1.96984
1.17705
0.261378
-0.495875
-1.96338
-0.777127
1.06943
-2.23924
1.51432
-0.29821
0.54587
-1.95158
-0.0186532
0.211166
0.164638
0.0534348
0.65368
-2.16141
0.8851
-2.01488
-1.60586
0.250196
0.736091
1.5425
0.327637
-2.07043
-1.98315
-1.95161
-0.167511
-2.27095
-1.95117
1.18357
0.672467
-1.95149
1.58579
-0.749849
-1.60671
1.49035
-1.94997
-0.329556
-2.03748
-1.9644
-1.95265
1.56822
-2.05614
1.43842
-1.95301
-1.67247
1.12106
0.448778
-2.06065
0.247737
-0.880036
-0.522355
0.219052
-1.95059
1.10606
-0.512221
-1.94826
-1.95917
-1.97326
-0.305926
1.12402
-0.774288
0.275584
-1.9536
1.45061
-0.204323
-2.08711
-1.82983
0.364442
-2.17712
-1.99004
-1.95289
0.517187
1.15558
-1.97088
-0.297304
-2.33749
0.0348974
-0.885155
-0.30834
1.5223
1.43585
0.0427052
-1.48472
-0.303393
-0.0757749
-0.296174
1.50721
-0.24608
1.35944
0.42951
1.51517
-0.41447
-2.15705
-1.348
-0.635767
-2.01624
-0.636343
0.411569
-1.94987
1.42814
0.439493
-0.22699
0.368507
-0.276703
-1.61987
)
;

boundaryField
{
    frontback
    {
        type            empty;
    }
    Top
    {
        type            zeroGradient;
    }
    outlet
    {
        type            fixedValue;
        value           uniform 0;
    }
    bottom
    {
        type            zeroGradient;
    }
    Inlet
    {
        type            zeroGradient;
    }
    rectangle
    {
        type            zeroGradient;
    }
}


// ************************************************************************* //
