/*--------------------------------*- C++ -*----------------------------------*\
| =========                 |                                                 |
| \\      /  F ield         | OpenFOAM: The Open Source CFD Toolbox           |
|  \\    /   O peration     | Version:  2306                                  |
|   \\  /    A nd           | Website:  www.openfoam.com                      |
|    \\/     M anipulation  |                                                 |
\*---------------------------------------------------------------------------*/
FoamFile
{
    version     2.0;
    format      ascii;
    arch        "LSB;label=32;scalar=64";
    class       volScalarField;
    location    "19";
    object      p;
}
// * * * * * * * * * * * * * * * * * * * * * * * * * * * * * * * * * * * * * //

dimensions      [0 2 -2 0 0 0 0];

internalField   nonuniform List<scalar> 
2186
(
0.918757
-0.206953
0.0962261
1.21142
-0.753016
-0.0450919
0.815081
-0.870486
-0.910704
1.45849
1.18406
-0.788678
-0.882155
1.15644
-0.433922
1.15994
1.18424
-1.126
0.0130829
-0.722298
1.55554
-0.703656
1.16472
-0.866756
1.15661
1.18651
1.37812
1.03996
0.714079
1.15632
-0.708993
1.15678
-0.661556
-1.16253
-0.796619
0.22852
-1.08529
1.54475
-0.62992
-0.127416
-0.896654
-0.686331
-0.542182
-0.802562
1.02943
1.44216
0.485475
0.655827
-1.42279
-0.848437
-0.714422
1.02663
-0.542339
1.47712
-0.681099
1.08978
-0.590914
1.11714
-0.721416
0.955387
-0.998118
0.753649
0.673028
-0.111046
0.688618
0.597286
0.791211
1.44408
1.33907
-0.943302
-0.87489
-1.06512
1.4131
1.14256
1.32596
1.29722
-1.22055
1.17884
-0.803176
-0.629438
-1.27951
-0.186077
1.15166
0.73876
1.14534
1.15251
1.44981
0.00647246
-0.00999943
-0.812317
1.09217
-0.716896
1.07229
1.31462
1.16495
0.537302
-0.0274629
0.703151
-0.819184
1.13123
-1.40888
-1.40876
0.758504
1.09524
1.18594
-0.716904
1.36466
-0.679664
1.07711
-1.91826
-0.604038
-0.795336
0.680822
1.47526
-0.862756
-0.810589
-0.045288
-1.54539
-0.813661
1.41527
0.0941973
-0.987555
0.985618
-1.30013
1.16487
-0.0241956
-0.782249
1.28898
-1.17507
0.795877
1.53022
1.38162
0.376797
0.787951
-1.3358
-0.865108
1.06087
-0.947911
-0.58103
-0.832666
0.928287
-0.0757499
-0.853164
0.8401
1.06261
1.10185
-0.600741
-0.770549
0.750544
-0.75777
-0.746237
0.718318
1.18172
1.32773
1.18817
0.665975
1.44628
0.545651
0.446702
0.560245
-0.833648
-1.14079
1.13137
1.13246
-0.000191525
0.0263341
-0.71168
-0.768157
-0.258536
-0.284518
0.477082
1.13711
1.18491
1.2542
0.546684
-0.241999
-0.750066
1.13163
-1.37348
0.989229
-0.766172
1.17043
-0.716487
0.6678
0.653246
-0.781077
-0.711915
1.28193
-0.491236
-0.882363
-0.909761
1.41253
-1.31065
1.12458
-0.828485
-1.85962
0.203652
1.33057
1.21437
-0.710001
-0.976952
-1.31555
0.218486
1.18704
-0.807919
-0.747465
-0.807046
-1.41063
1.09561
-1.13329
0.659639
-0.00110535
1.46143
0.957021
1.05619
1.0939
1.33553
1.15965
1.03983
1.24822
0.513263
-0.765142
-0.690871
0.214878
0.325832
-1.12132
-0.772761
1.1818
1.28633
-0.791518
-0.742123
-1.63891
0.508948
0.79467
0.930625
1.04098
1.26506
-1.41686
1.03036
-0.841708
-0.857045
-0.798898
1.14086
0.856443
1.30196
1.33382
1.25974
1.23711
-0.861509
0.967713
1.2645
-0.891249
1.12715
0.905014
-1.72664
-0.809029
-0.783413
1.30366
1.18224
-0.902347
-1.21188
-0.794414
1.09843
-1.33835
0.877019
1.21642
1.01386
-0.83842
-0.712958
1.13502
0.74477
-0.637258
-0.4725
1.50238
-0.748842
-0.86182
0.993457
1.33134
1.14738
-0.809665
-0.990721
-0.79045
1.05065
-0.908611
0.68594
1.13173
1.16983
-0.0719668
-0.469821
1.11415
-0.897547
1.07693
1.34168
1.17834
1.17538
-1.10051
-0.828338
-0.874598
-1.05464
-1.70537
-1.33183
0.517293
-0.435148
0.733309
1.31708
1.36136
1.05446
-0.638209
1.29673
-1.02272
-0.0650052
-1.05012
-0.83154
-0.897352
0.490764
-0.745756
-0.730925
0.285692
1.0673
-0.390317
0.50477
-0.783636
-0.0160158
-0.873802
-0.780091
1.3753
0.103275
0.0157394
-0.705528
0.932156
0.671134
-0.353594
0.673474
-1.1008
-0.930624
0.787452
1.18255
1.22164
-1.57309
1.30794
1.03313
0.495843
1.39244
1.15504
1.09276
0.503952
-0.470936
-0.838918
1.00387
-0.805603
-0.796541
-1.06401
-0.733138
-0.815466
1.52794
-0.858937
-0.714798
-0.897393
1.15447
-0.728247
-1.64206
-0.816546
0.903439
-0.184987
-1.22609
1.41205
1.47483
1.27371
-0.859667
-0.098823
1.54403
1.15951
-0.953511
0.570774
-0.848876
0.311761
1.33402
1.12684
1.02862
1.4555
-0.411864
-0.594632
-0.369982
-0.947336
-1.29774
-0.692737
-0.172445
1.47125
-1.1694
-1.17376
1.14574
0.725519
-0.818461
-1.42604
-0.842646
-1.00139
-1.12761
-0.82383
-0.701641
-0.740768
1.34673
-0.662
-0.782735
1.17248
-1.12553
1.41064
-1.31083
-1.81732
-0.819999
1.15523
-0.76464
1.18072
0.992636
-1.34175
1.19617
-1.01948
-0.821572
-0.989329
1.1592
1.09764
-0.846048
-0.850959
-1.06451
1.12599
-1.24629
-1.7443
0.63615
1.09125
1.0331
0.855847
-0.865479
-0.94124
0.964851
-1.00426
0.960018
-2.19701
1.17829
0.0741822
1.28103
-0.814726
0.997566
0.826438
1.18777
-0.996395
1.15147
-0.859586
-0.819371
1.15852
-1.57403
0.240351
-0.762478
-0.0739783
1.16229
0.217203
0.430506
1.15905
0.3608
-0.0507116
-0.0743815
-0.715222
0.369032
-0.928702
0.830764
-0.559059
1.22027
1.28227
-0.876336
-0.82849
-0.583427
-0.700375
0.546867
-0.88096
0.971498
0.0550296
-0.877003
1.25151
-0.529838
0.496419
0.436406
-0.28705
0.932738
0.468484
-1.0573
-1.78006
-0.277593
-0.637567
1.17301
-2.08646
1.26386
1.37818
1.36566
0.778884
1.32185
-0.744099
-0.630928
1.05216
0.357378
1.1469
-0.688708
-0.870101
-1.52356
0.944701
-0.821374
-2.19806
-0.725444
-0.763673
0.0722943
-1.05451
0.865945
0.834319
-0.607627
-0.837041
0.894841
0.214108
1.2897
-2.0455
-0.0685494
-0.82332
0.894597
-0.0637645
1.32153
1.5596
-1.55845
-0.756783
-0.719358
0.402544
-1.40132
1.18568
-0.884937
1.14145
0.890439
-0.836532
1.00908
0.97009
-1.70257
1.03156
-1.04028
-0.718072
-1.23268
-0.776729
-0.989788
-1.32872
-0.741343
1.1586
0.332145
-0.773065
0.733672
1.3057
1.36424
-0.226933
0.904982
-0.518463
0.922082
-0.137961
-1.30244
-0.724662
0.620789
0.948207
1.21163
-1.78126
-0.882685
-1.25344
-0.817109
0.0242802
0.876351
-1.82779
0.0779848
-1.07325
1.08514
-1.2876
1.10522
-0.876937
-0.716974
1.10508
0.807031
-1.41815
-0.0659562
1.1173
1.4443
1.17989
-1.11498
-1.15122
0.948145
-0.774672
0.935096
-0.502285
0.568918
1.11422
-0.87699
-0.714055
1.16805
-1.0348
1.39997
-0.134535
1.02325
0.274287
0.769589
-0.674253
1.39266
-0.71678
-1.27212
1.10685
0.647119
0.616825
-1.04231
-0.714722
-0.961254
0.911241
-0.101735
-0.877334
-1.23061
1.17355
0.511132
-1.03335
0.876371
1.03463
1.13754
-1.97199
-0.633536
-0.719154
1.17177
1.33171
0.633809
1.16798
0.0222942
1.20881
0.246736
-0.791015
-0.553644
1.07995
1.1269
-1.36058
0.992306
-0.719512
0.942414
-0.824817
1.14875
1.1049
1.17411
-2.14668
1.06685
-1.20118
-0.700864
1.32528
-1.71052
-1.83335
1.27071
-1.1548
1.259
-1.57681
-0.724602
1.19447
0.927665
1.51239
1.15705
-1.30093
1.23309
1.23861
-0.93129
0.770414
5.06561e-05
-0.757019
1.65007
-0.842205
1.28991
-0.751761
0.443986
1.15772
-1.10227
1.14392
-1.61742
1.0693
1.10769
1.17155
0.0924408
-0.848296
-0.469724
0.729436
0.812295
1.22189
-0.231338
0.969445
-2.19525
-0.320022
-1.34948
0.982722
1.29685
-0.803604
-0.908112
-0.0789878
1.39552
-0.169625
0.872235
-0.19724
-1.35697
-0.860106
-0.722652
-1.18425
0.938838
-1.75809
-0.151775
-0.201649
-0.458137
-0.742644
-1.0562
-0.312118
1.12352
1.17692
-1.05429
-0.360512
1.13912
1.0934
1.17719
-1.39139
1.13649
1.21254
1.15474
1.20938
-1.42191
-0.115066
-0.714681
0.752834
1.16056
0.853693
0.295946
-0.0919812
-2.26089
0.126292
1.41187
-0.143224
0.359859
-0.582791
-0.088579
-0.86861
0.924242
-0.791498
-1.16089
-0.816843
1.15728
1.15965
1.16787
0.00666924
0.468179
1.38771
-0.139441
1.15547
-0.0958531
-0.0224562
0.899724
1.17639
1.24609
0.0384765
1.13039
1.12968
-1.10456
-0.07569
1.16836
1.1808
1.17785
-0.826017
-0.857677
1.17828
0.755919
1.16008
0.33797
0.000860676
0.199571
-1.89892
-0.455171
-0.728345
-1.55211
-0.565096
1.1839
1.18857
0.888634
-0.822899
1.15733
-0.130989
-0.0849195
0.00173235
1.15721
1.18266
1.17895
1.1913
1.16823
1.16147
1.15174
-0.0659271
-0.00799285
-0.135742
-0.171058
-0.0116256
0.0190469
0.0126783
-0.100791
-0.136631
-0.109781
-0.103191
1.15181
1.1721
1.16667
1.18946
1.18697
1.17895
1.18222
1.1614
1.16586
-0.135678
-0.122889
1.1793
1.17863
-0.00899483
1.18076
1.17921
0.00747455
0.265305
-0.119721
-0.715567
-1.74112
1.16145
-0.940474
1.15965
0.778772
1.22961
-0.83864
1.1592
1.09677
1.10715
-0.712891
-0.302687
-0.966351
-0.0899553
0.0791379
-0.709273
1.17434
0.172157
1.25013
1.165
-0.0505762
1.33937
1.49366
-0.0196006
1.02074
0.812915
1.15783
1.17605
1.16855
-0.837393
0.617538
0.0410741
1.16386
1.17397
-0.929025
0.198434
1.16542
-0.0385901
-0.218009
1.16533
-1.09336
1.14347
1.17718
-0.922219
1.17086
0.323434
1.16191
1.23712
-2.0084
1.1768
1.18411
0.0947463
0.825747
1.16301
1.16769
0.288936
-0.620252
0.865449
1.50389
1.1734
1.1649
1.1692
0.323384
1.16526
1.1519
1.17056
1.16513
1.16697
1.16383
1.26867
-0.780768
-2.11481
1.16644
1.16015
0.412844
-1.08567
-0.814494
-0.863717
1.02373
-1.42331
-0.695374
0.0867163
1.1621
0.878648
0.122419
0.127507
-0.0570718
-0.6017
-0.738374
0.26647
-0.789254
-1.17269
-0.208381
1.16976
0.174145
1.1572
1.07405
-0.823089
1.41318
-0.511085
-0.934426
0.909142
1.29804
0.592885
-0.816427
1.15949
0.242472
1.16778
-0.908746
1.16802
-1.11067
1.15968
0.159675
-0.860922
1.17005
1.18539
1.10172
0.221043
-0.811525
-0.595121
0.258831
1.18226
1.05712
0.261716
1.15941
1.20349
1.15192
0.339084
-1.71816
-0.538874
-1.55975
0.465696
1.16616
-0.0727449
1.16409
-1.50571
1.16109
1.19987
1.1718
-0.0674859
-0.0510523
1.19694
-0.933641
1.17375
1.17722
0.152564
-0.869496
1.10188
1.30375
1.15746
1.15345
0.404055
0.1976
1.1332
0.559491
1.17209
0.995754
-0.765675
-0.85862
1.00076
1.40651
1.16115
0.49067
-0.782708
0.477526
-1.64946
-0.701488
1.1472
-1.1413
1.14554
-1.227
-0.831541
-0.752279
0.592462
-0.916456
-0.534668
-0.542206
1.15812
-0.814487
1.07239
-0.845076
-0.028775
0.103527
0.110807
-0.540015
1.13142
0.189443
-0.681943
-0.250062
-0.887889
1.15134
-0.716804
0.0918209
-1.44083
1.24803
-0.334039
-0.842257
1.23029
1.14826
1.13888
0.631428
-0.778722
1.16501
1.19183
-1.46059
-0.73564
1.15726
0.946466
1.42136
1.17832
-1.25498
-0.861751
-0.750991
-1.10553
-0.874216
-0.820376
-0.0262541
-0.96987
0.95097
0.123217
1.16886
1.37648
1.15661
-0.814461
-0.974627
1.1595
-1.22509
-0.639009
1.14124
-0.202055
-0.68984
-1.56467
0.102278
1.10688
1.07728
-1.26408
0.995607
0.833
-1.5309
1.14653
-1.30314
0.966835
-0.658271
1.14251
-1.6853
0.57172
1.16079
1.26223
-1.58708
-1.44663
0.985775
1.53581
1.1811
1.18537
-1.05765
1.39819
-0.773866
-0.357254
-0.679952
0.619222
-1.70761
1.27297
1.31533
-0.849687
-1.45043
1.15692
-0.763002
1.00726
1.19057
1.12512
-1.50571
1.16115
-0.0527498
1.18866
-0.036225
-0.248667
0.00425645
1.16422
-0.0794715
-0.343513
-0.450843
1.16202
-0.438515
1.36063
0.409377
1.4968
1.15425
-0.755374
1.14298
-0.722317
1.13278
1.1334
-0.236391
-0.465086
1.29497
1.14842
1.39644
1.11461
0.229157
1.11754
1.1502
1.02512
1.16834
-0.86428
-0.847067
-1.25261
1.26012
-1.55027
-0.735946
-0.717677
-1.6291
-0.223293
-0.0253975
1.03421
-0.0152341
1.11733
1.17051
-0.740057
-1.09919
-0.822885
-1.26724
-0.83965
-0.724304
1.16434
-1.68603
1.178
1.3919
1.21903
-0.0650751
1.18471
1.09298
-1.46539
1.12193
1.14319
-0.778874
1.14303
1.11071
-0.0611895
-0.959285
1.61808
-1.81794
-1.08556
-0.95346
0.383946
1.13954
-1.11908
-0.834574
-0.708127
1.29983
-0.969864
1.0222
1.17603
1.14651
-1.29095
1.1315
-1.70924
1.1744
1.18879
-0.298284
1.1791
0.667344
1.15176
0.86394
-1.47516
0.0424019
0.0353953
0.0925781
1.40954
-0.143959
1.19132
1.5641
-0.667869
-0.0604845
1.22741
-0.0747742
1.22419
-0.0389518
-0.0412067
1.22441
1.22883
0.573659
-1.24199
0.93111
-0.614731
-0.790051
-0.54355
1.18446
1.15935
1.57765
-0.816296
-1.05643
0.893469
-0.970888
1.23914
1.15751
1.15228
1.15216
1.11986
-1.8945
-0.821372
-1.13243
0.974152
1.08212
-1.72946
-0.729022
-0.846651
1.17741
1.19553
-1.29397
-1.48045
1.19884
-1.28095
0.364416
0.944764
1.09514
-0.221838
-1.00129
-0.0924124
-0.855448
-0.653269
-1.98631
-1.62365
1.52664
1.54224
-0.687261
-0.807051
1.17721
1.1537
-0.874458
0.0763626
-0.213944
0.822113
1.26016
-1.28612
1.16946
-1.36569
-0.989301
-0.811683
-1.05292
-0.800818
1.14579
-0.841819
-1.4148
1.53462
-0.857109
1.17007
1.40004
-0.729591
1.20053
1.40703
-0.740899
1.42157
-0.869783
-1.00927
1.1891
0.177701
1.17055
1.17222
-0.873183
1.22113
0.294564
-2.03733
1.2057
1.1884
-0.755037
-1.18808
1.10873
1.16298
-0.862031
-1.46916
1.46178
-0.872029
1.07212
0.0961938
1.10378
-0.787778
-2.12843
-0.848981
-0.729959
1.26992
1.19524
1.44437
1.38471
1.15377
1.22496
1.24026
-0.844081
1.31093
1.30066
-0.747412
-0.871486
-0.828512
1.50271
-1.69961
-0.984799
0.145482
1.11323
-0.750485
-0.654964
1.19718
1.1776
-0.85418
-0.736307
-0.954335
0.176699
-1.47904
-0.746103
-0.838778
1.06634
1.05025
-0.726462
-0.304877
-0.724317
1.01753
-0.870933
-0.71386
-0.834247
1.10278
-1.42621
-0.740069
1.48424
1.05907
0.544504
1.35374
0.076445
1.13792
1.17568
1.28509
1.36653
-0.214605
0.858761
1.18419
0.416927
-0.829136
1.59256
1.12636
1.07273
1.22501
-0.744607
-1.74125
1.01682
0.970128
1.12814
-1.92296
-1.84281
1.15134
-0.830023
0.986943
-0.018695
1.59316
-0.825198
0.913081
0.894758
-0.718807
-0.821779
-1.11882
1.21971
-0.721168
-0.816423
0.857574
0.796068
-1.09641
1.23294
0.998593
-0.723351
-0.596552
1.11906
-2.0994
-0.818903
-0.935237
-0.709466
-0.875619
1.14561
1.17416
-2.1171
0.77531
1.16896
1.51373
0.430717
0.470612
0.196611
1.04283
-0.304548
-0.716986
-1.51071
-0.431237
-0.715052
1.15663
-0.712223
0.361266
-0.81632
0.728381
0.726332
-0.712443
0.794503
-2.07293
0.653104
-0.7103
0.653841
-0.718081
0.545447
-0.813419
0.570391
-0.70843
0.977974
-1.45876
-0.710263
-0.718161
-0.813374
1.17931
0.242912
-0.747041
-0.818011
0.228889
0.276748
-0.707789
-0.82061
-0.789814
0.0322032
-0.832074
0.0666832
-0.863842
-0.138553
-0.867532
-0.137333
1.05139
-0.139209
-1.67859
1.14554
0.0763742
-0.109377
0.606155
1.13427
-1.32127
-1.9922
-0.81389
-1.28433
1.05406
1.59148
-0.992741
-0.160962
0.171211
-0.844657
-0.240225
-0.220041
1.13729
-0.711134
1.11872
-1.20752
1.65962
0.609472
1.57546
-0.732881
1.34853
-0.386998
1.17225
-0.942853
-0.811935
1.23342
1.15955
-1.47566
-0.816431
-0.714463
1.14007
-0.724081
1.14893
-0.956303
-0.897367
-0.84998
1.47425
1.20525
1.27038
1.18247
1.18002
-0.0287495
-0.478669
1.38373
-2.03749
-0.801078
1.59214
-0.730681
1.07361
1.11672
1.53675
1.58678
-0.738734
-1.28498
1.201
0.378384
-0.310207
-0.670838
-1.11074
-2.32466
-0.732737
0.706068
-1.1781
1.3596
-1.26522
1.22015
1.30458
1.20565
-1.13072
-0.795854
-0.932376
1.25286
-0.829676
1.35171
-0.560833
-0.914689
1.41598
1.46233
-0.805136
0.267612
1.10952
-1.07655
-0.946732
0.820684
1.45168
1.38555
-0.91167
1.04173
1.01828
-0.81102
1.39667
0.461781
-0.729138
-1.1508
-0.0966662
-0.0788579
1.2906
-0.744299
0.440077
0.110677
-0.0805474
-0.664118
-0.804767
1.15485
-1.42694
1.18981
0.073065
0.23617
0.849939
0.40276
-0.801134
-0.451907
-1.02519
-0.104995
0.121584
-1.08799
1.10876
-1.67849
-1.71106
1.17927
-1.01213
-0.748811
1.1773
-0.856687
1.14521
-0.0167093
-0.832501
-0.204358
0.949792
-0.696238
-1.47315
1.04896
-0.874273
1.23739
-0.430078
-0.884282
-0.827394
-0.814102
1.64304
-1.61288
1.28593
0.165371
1.12672
1.35407
0.879957
1.18832
1.33657
-0.00628416
-1.54899
1.13511
1.25305
1.51905
-0.849745
1.21394
0.844344
-0.866754
0.944449
1.36577
-0.421069
1.52258
0.310781
-0.671795
0.990259
-0.872107
-0.713726
1.10781
-0.309875
1.22251
1.21222
1.12609
-0.702531
1.07546
1.44128
-0.947896
-0.184034
-1.51068
-1.04857
-0.877486
-0.818132
1.50695
0.904258
-0.737369
1.06615
-0.874082
-0.786072
1.42674
1.40398
-1.41588
-1.21356
-0.814535
-0.857259
1.13862
-0.74479
0.218834
-0.673112
-0.314598
1.22948
-0.868796
1.5681
1.21234
1.04056
1.18986
1.48213
-0.960044
-0.875658
1.17841
1.30357
-0.635686
1.17197
-1.74588
-0.847659
-0.854618
1.25975
1.29021
-0.853049
-0.758352
0.70351
0.0595628
-1.01767
1.14648
1.13581
-1.2141
1.17634
1.21942
-1.13819
-0.749222
-0.722868
-0.842629
-0.85615
1.46869
-0.633256
1.08892
-0.751565
1.46421
1.03899
1.03999
1.11479
-2.18508
-1.17871
-0.83739
0.696746
-0.73949
1.07459
0.443351
-0.450055
1.0316
1.1602
1.20327
1.17331
-0.0688842
1.20301
-0.0425655
0.566102
0.962999
-0.426484
-0.747172
-0.805916
-0.544398
1.17548
1.12331
1.17507
-1.51926
-0.658598
-0.832371
-0.652364
1.17236
1.46288
1.18602
-0.743523
-0.710174
-1.03829
-0.397083
-0.81528
-0.81504
-0.0570477
1.15969
-0.633098
-0.725454
0.0756769
0.0482035
0.890342
-2.0843
-0.828189
-0.973418
1.10626
1.59346
0.13768
1.26616
1.65441
0.829043
1.37705
-0.751621
0.0776419
1.55088
-0.823885
0.459307
-0.735616
-0.860732
-0.710427
-0.720288
1.14141
0.885422
1.36845
1.32979
0.0174792
0.932622
0.196262
0.0501952
-0.819987
1.27507
0.892083
1.18112
1.19756
-0.115655
-0.149456
1.19484
-1.17874
-0.816565
-0.722785
-0.720916
0.743509
-0.718035
1.12516
0.821537
-0.823518
1.38691
-0.739868
-0.177473
1.1467
-0.699575
-0.833826
-1.84847
0.764377
-0.72867
-0.966681
1.08461
1.18922
-0.106722
0.173283
-2.0245
-0.817155
-0.787463
-1.18447
-0.0711966
0.75333
-0.95526
-0.716178
1.43957
0.421118
0.523521
-0.714068
-0.866206
1.16485
1.20017
0.693066
0.687988
-0.711144
-0.836169
-0.64873
0.61549
0.595212
-0.70889
0.99987
0.302872
-0.706555
1.61978
-0.710941
-1.56724
-0.856171
-0.661229
0.9963
-0.728047
-0.736164
-0.822248
0.153817
-0.765031
0.157404
-0.685087
-0.0848308
1.34959
-0.821759
-0.0303435
-0.847909
-0.0225622
1.51729
1.5508
1.40575
1.17147
1.38217
-0.569243
1.15692
-0.742988
1.19775
-0.814684
-0.828084
1.41791
-1.01618
0.628179
-1.29038
1.55815
0.0882885
1.49504
0.762532
0.93109
-0.731709
-0.734394
-0.812902
-0.869478
1.47421
1.36586
1.15469
0.782913
1.15979
1.02108
0.979334
-0.708335
-0.851705
0.414761
0.173434
0.95378
1.17411
0.114763
-0.727472
-0.706181
-1.23973
-0.812186
-1.46407
1.49763
1.19223
1.16823
-0.085396
-0.126343
1.19088
-1.11463
-0.817669
-2.2085
-0.859422
0.941921
-0.723067
-0.712326
-0.174629
1.16849
-1.51
-0.854811
1.15947
0.761595
0.871614
1.15774
-0.815453
1.03036
1.34705
0.992363
-0.812811
1.15472
0.504913
0.614684
-0.84309
-0.719233
1.61365
0.386591
-0.929384
0.153613
1.06763
1.13104
-0.823382
-1.16509
-0.0822493
-0.664822
-0.753008
-0.740005
0.0270156
1.15296
-0.904763
1.15127
1.43581
1.24614
1.1525
1.25243
1.31433
1.16196
-1.17035
-0.520267
-0.269199
-0.888657
-0.791034
-0.711019
1.31541
1.21647
-0.868508
1.12407
-0.659393
-0.143254
-0.711222
-0.390887
0.687006
-1.09738
1.14973
1.06692
-1.09866
-0.257987
1.50066
-1.41103
-1.12258
-0.962924
-0.744119
-0.683322
1.20489
0.928361
1.25225
-1.01987
-0.928426
-0.78902
-0.223306
-0.869509
-1.4401
-1.10619
-1.82702
1.0713
-0.641332
1.60722
-0.955576
-0.459198
-0.846812
-0.710753
1.0889
-0.869777
-0.980596
-0.830873
-0.251199
1.36424
1.37809
-2.20652
-1.28089
0.979613
-0.831374
-0.773761
1.26344
-1.03456
-1.52025
-0.856899
0.905207
-0.317179
-0.869308
1.15331
0.157291
-0.752312
1.16541
-0.692079
-1.24492
-0.957685
-0.783287
0.0334746
-0.868551
1.48775
-0.825887
0.293841
-0.815817
0.947714
-0.572658
-0.789065
0.803379
0.917107
1.21881
1.12384
1.34505
-0.72518
1.00452
0.700607
-1.01567
1.09154
-0.234175
-0.583432
-1.68361
1.33689
1.32357
-0.636187
-0.753556
-1.00312
1.17699
-0.721785
0.196749
-1.12033
-0.716323
1.45128
1.176
-0.732896
-0.70754
-0.733793
-0.726714
1.05782
-0.756937
1.14108
0.379651
0.863508
0.991881
-0.693361
-0.775289
1.10044
-0.713202
0.0310811
1.44255
-0.835032
-0.723804
0.977188
-1.01566
-0.724095
-0.0850299
-0.839318
1.51501
-0.518475
0.265768
-0.734866
1.4579
-0.737949
-0.702423
0.798548
-1.07743
-0.814866
1.49522
0.828729
1.16121
-0.732954
1.40166
-0.268627
-0.739496
-0.740767
-0.744725
-0.741106
1.4346
0.73029
-0.851343
-0.738667
-0.864508
1.29115
-0.650827
1.43434
-0.815217
0.867728
-0.721673
0.524648
0.693045
0.658398
0.576817
0.328283
-0.676671
1.1711
-0.743011
-0.549933
-1.00273
0.416533
1.47489
-0.21355
-0.728876
-0.753575
-0.723309
0.417888
-0.950484
-0.720201
0.997236
0.323688
-0.727916
1.53986
-0.866654
-1.34022
1.51883
-0.724557
0.303387
-0.668936
-0.710684
-0.718809
1.51478
-0.705322
1.4363
-0.717522
-0.755615
1.33965
-0.140359
-0.699553
0.720213
-0.84087
0.169118
-0.314524
-0.72014
0.962751
-0.918068
-0.720279
-0.711817
-0.71209
-0.820809
1.00147
-0.00371076
-0.39267
-0.730271
1.46431
-0.72863
-0.717586
-0.694526
-0.0328868
-0.83963
-0.697524
-0.728536
0.00440612
1.41671
-0.743535
-0.810617
-1.0185
-0.651234
-0.0847267
-0.826238
1.55051
1.48503
0.567946
-0.820917
-0.818004
0.482674
-0.818028
1.5636
0.361832
1.22684
0.855114
1.43954
0.243663
-0.851709
-0.857599
0.0903805
-0.743226
0.0908828
0.021985
-0.717763
1.46042
-0.219898
0.373027
-0.3646
-0.807827
-0.851332
)
;

boundaryField
{
    frontback
    {
        type            empty;
    }
    Top
    {
        type            zeroGradient;
    }
    outlet
    {
        type            fixedValue;
        value           uniform 0;
    }
    bottom
    {
        type            zeroGradient;
    }
    Inlet
    {
        type            zeroGradient;
    }
    rectangle
    {
        type            zeroGradient;
    }
}


// ************************************************************************* //
