/*--------------------------------*- C++ -*----------------------------------*\
| =========                 |                                                 |
| \\      /  F ield         | OpenFOAM: The Open Source CFD Toolbox           |
|  \\    /   O peration     | Version:  2306                                  |
|   \\  /    A nd           | Website:  www.openfoam.com                      |
|    \\/     M anipulation  |                                                 |
\*---------------------------------------------------------------------------*/
FoamFile
{
    version     2.0;
    format      ascii;
    arch        "LSB;label=32;scalar=64";
    class       surfaceScalarField;
    location    "19";
    object      phi;
}
// * * * * * * * * * * * * * * * * * * * * * * * * * * * * * * * * * * * * * //

dimensions      [0 3 -1 0 0 0 0];

oriented        oriented;

internalField   nonuniform List<scalar> 
3181
(
-1.04912
0.407579
0.641539
-0.391508
0.36925
0.0222575
0.527595
-0.36184
-0.165754
0.124109
-0.204628
0.0805185
-0.0608295
0.0733548
-0.0125254
0.714811
0.811715
-1.52653
0.150441
-0.144011
-0.00642957
0.0756062
0.0015446
-0.0771508
0.59248
-0.768185
0.175705
-0.0746468
0.13941
-0.0647634
-0.0103466
-0.0503497
0.0606963
0.117181
0.0524356
-0.169617
-0.00635802
-0.0620719
0.0684299
-1.09672
0.149925
0.946799
-0.331932
0.703481
-0.371549
-1.12076
0.636504
0.484258
0.084578
-0.932534
0.847956
-0.275321
0.220359
0.054962
-0.919056
-0.435177
0.00431784
0.0437749
-0.0480927
0.0329142
-0.0833139
0.0503997
-0.0632654
0.0551549
0.00811049
1.06425
-1.03914
-0.0251117
0.0210201
0.0370533
-0.0580734
-0.955419
0.325096
0.630322
-0.109068
0.233177
0.308327
-0.242234
-0.0660929
0.0300987
0.063102
-0.0932006
-0.405891
0.334039
0.0718523
-0.032472
-0.0144563
0.0142655
0.000190862
-0.035483
-0.919936
0.0531649
-0.0454659
-0.00769895
0.169033
1.49871
-1.66774
-0.0519372
0.0525833
-0.000646049
0.177514
0.272114
-0.449628
1.68966
-1.52063
0.0701775
-0.0372633
1.52042
-0.7922
-0.728217
-0.393077
1.10789
-0.125807
0.119449
-0.0629601
-0.000305288
-0.411647
0.0797144
-0.130251
0.0672907
-0.629356
0.129758
0.499599
-0.151357
0.0767106
-0.170225
0.17455
-0.00432512
-0.274206
-0.0768898
0.351096
0.200955
1.29255
-1.49351
0.0626299
0.144562
-0.207192
-0.0101385
-0.0987866
0.1048
-0.00601369
0.522934
0.180548
-0.0959581
0.137187
-0.041229
0.0864759
-0.033311
-0.173522
0.200264
-0.0267424
0.16544
0.0557941
-0.221234
0.110499
-0.116488
0.00598877
1.23944
0.280975
-0.860174
-0.188944
0.0298925
-1.73783
1.70794
0.546202
0.229032
-0.775234
-0.441022
-0.203346
0.644368
-0.855394
0.462317
-0.27041
0.816612
-0.327229
-0.10237
0.429598
-0.205169
-0.200722
-0.192109
0.164928
0.0271812
0.129905
0.285596
-0.415502
-0.170915
0.763396
-0.0157128
0.091319
-2.08414
2.11403
0.191085
0.117242
-0.182166
-0.111238
0.293404
-0.268655
0.352279
-0.0836232
-0.0824095
0.0905455
-0.00813605
-1.88318
-0.918662
0.00968146
0.90898
-0.0541775
0.00224027
-1.05472
0.787323
0.267401
0.445711
-0.264613
-0.181098
-0.795458
-0.0599357
1.10464
-0.954717
-0.711433
1.14705
-0.200248
1.06916
0.163963
-0.1747
0.0107364
1.53666
-0.724942
0.862736
-0.862736
-0.00751609
-0.000506493
0.00802259
-0.215759
-0.0529009
0.26866
0.0877035
-0.0614828
-0.0262207
-0.451256
0.837028
-0.385773
-0.0149047
-0.240837
0.255741
-1.08314
0.0439947
0.342676
0.0556784
-0.398354
0.136087
-0.850724
1.07976
0.070601
0.0694081
-0.140009
-0.0174184
-0.156103
-0.284733
0.00890542
0.275828
-0.183664
-0.101069
0.119041
-0.969765
0.334357
-0.785613
0.923593
-0.839015
-0.0130703
0.162219
-0.149149
0.0807352
0.0513533
-0.132088
-1.40647
-0.0963918
1.50286
-0.249471
0.413511
-0.164039
-1.09854
0.636265
0.462274
-0.465524
-0.5892
0.134566
-0.0719357
-0.154548
0.14892
0.00562844
-0.0770121
-0.0120707
0.0890828
-0.540544
-0.227641
-0.111907
0.0462509
0.0656565
-1.1435
-0.237115
1.38062
1.73557
-0.443018
-0.0131121
0.00559601
0.0419449
0.14914
-0.198137
0.375651
0.0197148
0.197574
-0.217289
0.136494
0.0674819
-0.203976
0.264221
-0.0327357
-0.231486
-0.59453
-0.526232
-1.1878
0.0442984
-0.0454421
0.116043
-0.108202
0.186483
-0.0782816
-0.0110996
0.025217
0.125224
-0.0571819
0.0720921
-0.0149102
-0.0970825
-0.0222714
0.119354
0.0751989
-0.0751989
-0.186859
0.212076
0.262047
0.164277
0.106406
0.0938577
-1.27984
1.10893
-1.56046
0.118717
1.44174
0.0289761
-0.0246092
-0.0043669
-0.0262995
-0.050777
0.0770765
0.543932
-0.025055
-0.518877
-0.038552
0.0398798
-0.00132785
-0.202415
0.0155563
0.160876
0.676152
-0.369672
0.530548
-0.16928
-1.23719
-0.0898635
0.0290341
0.489847
-0.308381
-0.181466
0.105553
-0.0902905
-0.015263
0.0481565
-0.322362
0.0236642
-0.942326
0.0496006
-0.157802
-0.291234
-0.404118
0.0680053
1.37589
-0.92565
-0.450244
1.07709
0.298806
0.0667514
0.284344
0.0289779
-1.80197e-06
-0.086706
0.155929
-0.0692231
-0.254773
-0.583461
0.838234
-0.36071
0.6176
0.888171
-1.32335
0.138201
0.0392155
-0.0563535
0.017138
-1.80282
0.427132
1.37569
-0.277138
-1.52568
-0.303371
0.646047
-0.908869
-0.0181441
0.0045323
-0.264031
0.259499
1.44704
-1.56088
0.113841
-0.0951831
0.00531961
0.568894
-0.823668
0.123927
-0.40365
0.279723
-0.29423
-0.116683
0.410913
0.177417
-1.00754
-0.0755926
-0.00770759
-0.0403852
-0.551762
0.348416
-0.243733
0.0183807
0.225353
-0.0259611
-0.069222
0.0366339
-0.0366339
-0.11765
0.128924
-0.011274
-0.298021
-1.26243
0.0905189
0.029535
-0.120054
-0.141054
0.0199223
0.121131
-0.219504
0.0273942
1.48477
-0.436587
-1.04818
-0.195982
0.452668
-0.256686
0.00839491
-0.00801526
-0.000379648
-0.510668
-0.587872
-0.183832
-0.00470546
0.188537
-0.175608
0.305514
-0.100324
0.0986467
0.00167777
0.0743272
0.0125179
-0.0868451
-0.135617
0.170619
-0.0350012
-0.881615
1.11421
-0.232596
-0.22084
-0.051588
0.272428
-0.696791
0.661957
0.034834
-0.0031163
0.0401696
0.0274226
-0.0275712
0.000148603
-0.00611512
-0.0519583
1.0001
0.735472
0.175848
-0.886803
0.710955
0.0136207
2.02509
-2.03871
0.387477
0.509971
0.352764
0.0601751
0.201643
-0.0651491
-0.0704951
-0.0282915
0.240503
0.154411
-0.0736758
0.736307
-0.411211
0.0610389
0.207621
0.0469347
-0.162015
0.11508
-0.789312
-0.146012
0.935325
-0.0414099
0.0414099
-0.0585363
-0.264929
0.537043
0.0132562
-0.234096
0.113977
0.106382
0.0320617
-0.0775039
0.133702
-0.144048
-0.34554
0.330636
0.0402201
0.0638881
-0.104108
0.386308
-0.333872
0.988308
-0.599204
-0.389104
-0.20871
0.275462
0.186721
-0.495102
-0.209797
0.617376
0.167445
-0.0338632
0.0338632
-0.316281
0.387083
-0.0708014
0.388109
0.0254016
-0.0288138
0.0343401
-0.00552632
-0.137784
-0.0663616
-0.0455458
-0.0488843
0.182586
-0.178141
0.238656
-0.0605144
0.126485
0.0279263
-0.392842
0.150608
0.187747
-0.0612623
-0.0453183
-0.0550062
-0.0777121
0.0699048
0.00780726
0.149192
-0.105836
-0.0433558
-0.0136583
0.392697
-0.379039
-0.131662
0.11595
0.103121
-0.107409
0.00428805
0.0235017
0.59452
0.393787
-0.0936741
-0.0107932
0.104467
-0.088606
-0.00259945
0.0912054
-0.0897241
0.0975988
-0.72026
0.622661
-0.0352876
-1.52196
-0.467914
1.98987
0.498037
1.20899
-1.70702
0.0837567
-0.248656
0.21592
0.275665
0.24928
-0.524946
-0.206996
0.25393
0.146878
-0.895123
0.748245
0.0335411
-0.122147
-0.0164403
0.00873271
-0.991944
0.444789
0.547156
0.92565
-0.806609
-1.71754
1.62115
-1.44704
1.56575
0.0405074
-0.0817364
0.00820698
0.0192156
0.0136069
0.806232
-0.659354
0.124042
-0.0744415
0.412715
0.734332
-0.110975
-1.7738
1.78742
-0.674151
-0.605691
-0.241093
-0.388263
-0.0122138
-0.167536
0.215693
-0.579229
-0.37836
0.182378
0.777407
-0.233475
-0.910916
-0.806623
0.744742
0.173188
-0.139646
0.288629
0.0384539
-0.0384539
0.669919
0.149451
-0.81937
-0.225897
0.895817
0.470914
-1.10937
0.638456
0.198596
-0.0343192
0.0078137
0.00480151
-0.0126152
-1.73783
-1.03887
0.595849
1.04934
0.435431
-0.0348063
-0.135418
-0.237566
0.7605
-0.195299
-0.0484341
-0.0031091
-0.0793004
-0.0520896
0.103443
0.375202
-0.245444
-0.843431
-0.282314
-0.114164
-0.0607095
0.174873
-0.641559
1.15153
-0.154515
0.139032
0.0154837
0.0316788
-0.00270082
-0.124362
0.0662776
0.058084
0.00854203
0.421056
0.0758826
0.0296709
0.0140209
0.00719437
-0.0212153
-0.0161616
-0.16767
-0.72068
0.367699
0.352981
0.66196
-1.70923
1.04727
0.136854
-0.157803
0.0209496
-0.00595061
0.140516
0.173385
-1.03612
-0.119326
-0.00503529
-0.106167
0.0342312
0.142726
-0.340863
-1.65543
0.691103
0.964323
0.0291672
0.0938407
0.0553511
-0.789312
-0.240371
-0.641244
0.135229
-0.0689516
0.0433564
-0.638584
-0.0582067
0.0604422
0.127305
0.603544
0.0460404
-0.461542
0.123956
0.344312
-0.288633
-0.119469
0.0223863
0.224526
0.837065
-1.06159
0.103196
-0.715674
0.612478
-0.956902
0.81089
-1.50311
0.189853
1.31326
-0.0109797
0.0117591
-0.000779442
0.167367
-0.461596
0.207799
-0.121946
-0.0858533
0.0513278
-0.0539272
-0.00679547
-0.107368
-0.00477597
0.0216921
-0.0278073
0.0210259
0.0748586
-0.0958845
0.96895
0.000433561
-0.000244875
-0.000188686
0.11227
0.00367934
0.86103
0.0464929
-0.0411733
-0.407436
-0.631431
0.176373
0.0222232
0.0078769
0.0859638
-1.31326
1.03612
0.187093
-0.214329
0.0272364
-0.249284
0.0745847
0.119
-0.108263
-0.00148161
0.0920271
-0.0370074
-1.55302
-0.102405
-0.0408146
0.0618405
0.73954
-0.255282
-0.228257
0.0872032
0.340997
0.0111526
-0.0399663
-0.00771836
0.0829173
0.146666
0.205613
0.156424
-0.329623
0.173199
0.111928
0.564224
-0.0426367
-0.108721
0.942108
-0.2644
-0.677707
-1.50311
-0.478637
1.1406
1.68966
-0.0970225
0.343965
-0.246942
0.358998
-0.0706616
-0.288336
-0.00898081
-0.786477
-0.0711415
0.0718328
-0.000691263
-0.0177821
-0.141754
0.159536
0.492692
-0.956349
0.463656
0.0414554
0.65687
-0.698325
-0.0445398
-0.110008
-0.00706356
-0.0866106
0.162344
-0.478626
-0.012008
0.00102834
0.121094
0.0133331
-0.134427
0.0508548
-0.137561
0.00342671
0.0282521
0.0460089
0.11621
-0.0240376
-0.00353361
0.194022
-0.434859
-0.378883
1.58787
0.0282921
0.0131178
-0.989679
-0.0178633
0.149134
-0.0735269
-0.0459419
-0.115145
0.239072
0.760202
-1.00977
0.249571
0.139015
0.0373581
-0.940592
-0.0141246
-0.0161334
-0.648586
0.746185
-0.0181204
0.185566
-0.121878
-0.987491
0.182403
-0.446703
0.264301
-0.00310023
0.200675
0.00317251
-0.00340081
0.000228302
-0.0316633
-0.103954
-0.0213405
-0.134763
0.74632
-0.643124
-0.129211
0.0810573
-0.10366
0.309497
-0.153073
0.11787
1.22238
-0.340903
-0.88148
-0.119387
0.137768
-0.506322
-0.214358
-0.560766
0.612853
-0.596434
-0.0164184
-0.0903642
-0.0388464
-1.7738
0.542016
-0.542016
-1.87222
1.87222
0.806232
0.0603593
-0.262663
0.202303
-0.897174
-0.0925051
0.624558
-0.363965
-0.260593
0.166326
-0.244608
-0.0106474
-0.00246467
-0.888823
-0.0809417
-0.93309
0.21283
0.0298117
-0.0905213
0.697079
-0.110561
-0.586518
1.23923
0.450432
-0.00147999
0.0046525
-0.965704
0.373508
-0.972712
-0.0746074
-0.599233
0.673841
-0.0711376
-0.863882
-0.696995
0.217987
-0.812517
-0.935325
1.38906
-0.453737
-0.137813
0.280327
-0.142514
-0.025402
0.722481
-0.105316
-1.03386
1.03386
-0.88138
0.49384
0.38754
0.000447916
-1.43557e-05
0.0999415
-0.435767
0.815964
-0.0286416
-0.0836062
-0.0353448
0.120077
0.00486282
0.00353208
1.90456
-1.71471
-0.329731
0.404058
-0.629512
1.00443
-0.374913
-0.0546218
-0.0647045
0.122709
-0.0552271
0.355204
0.00603958
-0.0681114
0.354819
0.037878
0.042329
-0.245171
0.202842
0.140292
0.0342578
0.0964095
0.179183
1.75031
0.363721
0.23652
0.554236
-0.790756
-1.14646
1.5736
0.210974
-0.143684
0.0768484
-0.766516
0.689668
0.296879
0.133405
-0.478946
-0.0742994
0.135416
-0.0611166
0.134768
-0.209068
-0.445833
-0.105929
-0.0708407
0.0738945
-0.00305377
-0.0013669
-0.0226707
-0.0149659
-0.0183451
0.659354
-0.612478
-0.046876
-0.292886
0.306142
0.878521
0.609208
-0.25021
-0.0333516
0.0628866
-0.386486
-0.0171642
0.17622
-0.585382
0.409162
-0.00331112
-8.96834e-05
0.211318
-0.00613254
-0.205186
0.00517102
-0.0111468
0.00597582
-0.0235492
0.0158046
0.00774469
-1.37232
0.647378
-0.13196
-1.39
-0.196553
-0.806609
1.56575
1.62115
-0.194538
-0.173939
0.122351
-0.0626205
0.0682646
-0.0056441
-0.226738
0.984903
-0.758165
0.547551
0.0770074
0.00060402
-0.00391514
0.119911
-0.496697
0.0353448
-0.0455175
0.00470281
-0.575943
0.189457
-0.0442559
0.0763177
-0.226349
0.612656
1.07709
-0.0863119
-0.0619806
0.00140354
0.0605771
2.00418
-0.38303
-0.0616091
-0.0548788
-0.967698
0.161089
0.377506
-0.200089
-0.476829
-0.126606
0.603435
0.816836
-0.363691
-0.453145
-0.0218813
0.782083
-1.78742
0.0495894
-0.00752975
-0.0248765
0.0324063
0.191501
1.83359
-0.169434
0.177247
0.155597
2.22344
-0.657683
-0.679876
0.0566846
0.623191
0.381118
0.0098762
-0.346801
0.539841
0.817759
0.441406
0.0769019
-0.0215508
-0.741203
0.2005
0.540703
1.24084
0.0510972
-0.0370763
-0.0499381
-0.357579
0.103525
-0.310521
0.775409
0.446974
-0.120102
0.0297373
0.294862
-0.391884
-0.0216097
0.0184934
0.11148
-0.148259
0.036779
-0.301003
0.315529
-0.0145252
0.423862
-0.764765
-1.38363
0.0790298
1.3046
0.0958357
-0.200783
0.104948
0.269143
0.0403545
-0.531364
0.290993
-0.656367
0.656367
1.70794
1.23923
-0.715674
0.335652
0.482108
-0.429722
0.358921
0.909937
-0.362386
0.00815472
-0.87475
0.866595
0.134644
0.00476667
0.0264193
-0.597856
0.0664923
0.0961951
-0.166644
-0.122909
0.289553
0.204827
-0.516192
0.349548
-1.09022
-0.284101
-0.648212
-0.0619699
-0.000311272
6.63956e-05
-0.226097
0.110891
0.0639821
0.0345468
-0.143071
0.108525
-0.480112
-0.401268
-0.00573466
0.0688366
-0.81414
0.551795
0.262345
-0.570467
0.389001
-0.0867737
0.150662
0.235967
-0.00295091
-0.0134894
-0.826701
0.390114
0.033928
0.0691932
-0.154455
0.0507949
0.199108
0.00869101
-0.425682
1.54907
0.449635
-0.0436195
0.86711
-0.790261
0.782697
-0.441699
-0.60925
0.173483
0.15246
-0.793208
0.76505
0.0281589
1.17235
-0.396938
-0.199128
-0.130603
-0.0822111
0.0207283
0.954491
-0.84048
-0.114011
-0.179565
0.105889
0.0278237
0.121096
0.878899
0.402682
-0.64971
0.247028
-0.326361
-0.0519984
-0.0233013
-0.790838
0.119834
1.38302
1.21984
0.0193914
0.168518
0.553915
-0.722433
0.0653939
0.0495731
-0.0057248
0.00277389
-0.509443
-0.0998068
0.118835
-0.144796
-0.18443
0.135546
-0.536679
0.279993
-0.992414
-0.489401
-0.288398
-0.564654
1.52583
-0.0840926
-0.284251
-0.443294
-0.13265
0.194147
0.298386
0.0564326
1.33145
-0.838755
-0.18684
0.125578
-0.286779
-0.40886
0.695639
-0.0110586
0.00352886
0.048297
-0.059651
-0.241352
-0.121945
0.69728
-0.419346
-0.277934
0.0741661
0.13579
-0.0977619
-0.0380285
0.242681
0.0557055
-0.240427
-1.4666
-0.0950178
0.138374
0.831477
-0.428795
0.0157771
0.0754283
-0.02065
0.0204897
0.000160314
0.0107592
-0.0353685
-0.23965
0.0776346
-0.0560592
-0.558705
0.420892
0.0174041
0.101261
-0.00542527
-0.694022
1.67615
-1.22918
0.0157532
-0.190391
0.174637
-0.138678
-0.539572
0.67825
0.0765764
-0.715161
-1.12549
-0.258142
-0.0662897
-0.000899923
0.0671896
-0.246207
-0.612853
-0.17646
-0.143958
-0.741203
-0.228169
0.16302
-0.278083
-1.14859
-0.455374
0.387786
0.0675873
0.2652
0.115906
0.483498
0.173912
-0.65741
0.110012
0.0631759
0.791689
0.44807
-1.23976
-0.22189
0.481978
1.09162
-0.238772
0.178258
-0.662215
1.14419
-0.0402817
0.0491871
-0.0276819
0.0412888
-0.0155067
1.13746
-1.18108
0.727734
0.0891022
-1.424
-0.129017
0.237211
0.672726
0.919726
0.0223819
-0.0183782
-1.21984
-0.648212
-0.713322
0.723003
-0.0531944
-0.910916
0.65687
0.607642
-0.932985
0.665942
-0.00598424
-0.787224
-0.313298
0.635939
-0.772846
0.136907
0.0815461
0.0542443
-0.369168
-0.2254
1.23969
-1.01429
6.17845e-05
-0.000373054
-0.260431
0.211997
0.712516
0.224231
-0.208675
-0.181658
0.680722
-0.917837
0.107893
0.0944099
0.306959
0.897147
-1.20411
-0.942808
1.14331
0.801612
-0.249817
0.0762944
0.315302
-0.540703
-0.00872093
0.21436
-0.0527804
0.083149
0.0659846
0.00364461
-0.0298031
0.0261584
-1.02572
-0.0358694
0.316961
-0.807735
-0.74151
1.68274
-0.941233
0.370202
0.634224
-0.0501642
0.05367
-0.00350585
-0.0954974
0.77622
-0.716161
0.742995
0.564536
-1.30605
0.311098
-0.096738
-0.585326
-0.407088
-1.03949
1.34645
-0.0586182
-0.880734
-1.86597
-0.172743
0.315302
0.0494554
-0.857191
0.832088
-0.64642
-0.185668
-0.982303
0.396977
0.00828953
0.11364
-0.000674274
-0.112965
-0.971337
0.564249
-0.217398
0.910341
-0.924465
0.189959
-0.20612
-0.0947228
0.237449
1.15949
0.414183
-0.126925
-1.43694
0.555462
1.23295
-0.791547
-0.552987
-0.517992
1.07098
0.447013
0.0165713
-0.0117698
-0.734195
0.698325
0.0449619
-0.140459
-0.352764
0.0934968
0.259268
1.04644
0.636303
0.779477
-0.811949
-0.492717
-0.449609
-0.471632
-0.499705
0.80326
-0.80326
0.684739
-0.684739
-0.734195
-0.0335611
0.0335611
-0.0934968
-0.610905
-0.411111
-0.52292
-0.0332938
0.0332938
0.0449619
-0.140459
0.779477
0.767954
-0.767954
0.811949
0.759398
-0.759398
0.507283
0.528368
0.482008
0.0116681
-0.500295
-0.550391
1.07876
-0.640995
-1.55106
0.511564
0.353633
0.44798
-0.174843
-0.00745545
0.0539484
-0.885828
0.094497
0.791331
-0.132444
0.12023
-0.995905
0.584694
0.936609
-0.600958
-0.124908
0.00739223
-0.00959505
-0.807977
-0.0788262
-0.547156
-0.0035751
0.0123078
0.570738
-0.153108
0.0841567
0.173078
0.00193681
-0.0100521
0.00811528
-0.812859
0.0671471
0.745712
0.734004
0.425488
-0.532893
0.410511
0.122382
0.917091
-0.742081
-0.17501
0.0799307
0.29572
-0.0137187
-0.057122
-0.0565925
-0.014549
0.75937
-1.40093
-0.84052
0.0981309
-0.740453
0.796025
-0.0555712
0.122675
-0.899734
0.777059
-0.8021
0.904249
-0.10215
-0.0673103
0.0780695
0.0198185
-0.28385
0.399621
0.946833
-0.0959123
-0.789916
0.916111
-0.0921606
-0.82395
0.0768594
-0.131481
1.08764
0.821179
-1.1269
0.455961
-0.378954
0.104246
-0.894162
1.52063
0.351587
-0.791105
0.00388076
1.01831
-0.895636
1.22876
0.975004
-0.716359
-0.258645
-0.879407
-0.116498
-0.408869
0.0298304
-0.475162
0.724733
-0.785818
0.785818
-0.601751
-0.086805
-0.864595
0.122514
-0.933029
0.858422
0.074037
-0.195983
-0.0580472
0.0609946
0.0110975
0.189361
0.82895
0.817444
0.771648
0.138603
-0.91025
-0.539453
0.987432
-0.781336
-0.107666
0.889002
0.17447
-0.890632
-0.675234
0.88972
-0.785473
-0.107021
0.457922
-0.0262036
-0.431718
0.00332368
1.35938
-1.3627
0.251159
-0.412221
0.161062
-0.888357
-0.829244
0.0887903
0.522874
0.259823
-1.95514
1.14079
-0.572069
0.572069
-0.863534
-0.573408
-0.1243
0.190792
-0.990647
1.06968
0.782054
-0.205548
1.18299
-0.535611
0.904856
-1.09206
0.1872
-0.101491
-1.60774
0.185024
0.435551
-0.531571
-0.109674
0.156436
0.300215
-0.220284
0.780099
-0.882248
0.57898
0.408452
-0.15192
0.736614
0.577541
-0.577541
-0.0692225
0.0665217
0.10863
-0.0740832
1.21571
0.143669
0.238033
0.000254585
0.00411706
-0.00437164
-0.666401
0.695079
-0.028678
0.30396
-1.02032
0.108259
-0.893732
-1.07279
1.41634
-0.343547
0.19404
0.876551
-1.19582
1.49978
-0.75513
0.601034
-0.65924
-0.656236
0.149914
-0.115463
0.0272882
0.0877469
-0.404521
0.289058
0.00547202
-0.508462
0.0712394
0.724785
0.694255
-0.0932215
0.0763691
0.784661
0.0908936
0.242705
-0.333599
-0.730072
0.534151
0.572639
-0.960763
0.740367
0.220396
-0.684809
-0.127708
1.05838
-0.257004
-0.221622
-0.0379126
0.486078
0.513922
-0.770268
-0.11198
-0.496983
-0.299185
-0.417382
-0.280251
0.401586
0.598414
-0.134209
0.137888
-0.862429
-0.0694833
-0.589757
-0.153179
-0.249765
0.402944
-0.0329389
-0.00406849
0.111129
0.0714575
-0.128485
-0.111165
0.760053
-0.642077
0.718446
0.135374
-0.539896
-0.226268
0.00148094
0.224787
-0.744008
-0.194606
0.938614
-0.243516
0.232173
-0.0245522
-0.0788651
0.00964308
0.0121979
0.703884
-0.131815
0.125814
0.110153
-0.735929
0.069528
1.01649
-0.219404
-0.580206
0.191102
-0.340778
-0.287321
1.02165
-0.00644416
0.312953
-0.157356
-0.00801706
-0.0456228
-0.109835
0.00856884
1.00792
0.279049
-0.365396
0.0863463
0.848843
-0.0255124
0.000373383
0.025139
0.126882
-0.0113526
-0.000655422
0.218153
-0.106673
0.140359
-1.13101
0.625625
-0.346575
0.00865784
0.290732
-0.363915
-0.950708
1.26696
-0.316254
-0.781838
0.83849
-0.056652
0.515951
0.227213
-0.267494
-0.0678402
1.22428
-0.453775
-0.0791174
0.277645
0.455967
0.196753
-0.65272
0.412568
0.0418327
0.653247
-0.573438
0.561396
0.0120417
1.34098
-1.14683
-0.0266437
0.0337411
-0.00709731
0.696924
-0.00897274
-0.0828962
0.0192288
1.36382
0.73922
-0.22327
0.069932
-0.0777021
-0.123081
0.11524
0.044673
-0.159913
0.0125382
-0.00889355
1.16347
-0.715398
0.173994
0.2232
-0.0259073
-0.0919698
0.22125
0.0974632
0.00567845
0.0800974
0.768163
0.313312
-0.149478
-0.163834
0.529458
0.236958
-0.766416
0.643884
0.122942
-0.0618435
0.00894894
0.0528946
-0.665863
-0.00791303
-1.08414
-0.0033907
0.748133
0.716427
0.159894
0.450768
-0.819936
0.818354
0.131559
-0.0136896
-0.878827
0.101244
-0.272378
-0.129438
-0.171228
0.692133
0.0760297
0.0132584
0.444488
-0.217275
-0.265916
0.161868
0.029079
-0.112393
0.422393
-0.0571253
0.506624
-0.0724356
0.166439
0.0789717
0.450486
-0.153324
0.0370521
-0.0510312
-0.10984
0.0168789
-0.000638579
-0.0162403
-1.50684
0.360011
-0.011144
0.868148
-0.227563
-0.616259
0.639095
-0.0228362
0.448667
0.761661
0.506813
-0.282025
0.0779585
-0.172681
0.632048
0.129613
0.527209
0.624321
-0.264967
0.720928
0.180541
0.827379
-0.603336
0.349405
0.253931
0.160237
-0.0710405
0.0413657
0.0627879
-0.0467129
1.15535
0.737736
0.0806176
0.61965
0.218584
-0.872076
-0.0809508
-0.673987
0.677867
-0.0234585
-0.585103
0.431924
0.874643
0.673881
0.138604
0.00785954
-0.16359
-0.315356
1.09266
0.583495
0.323305
0.0189169
0.829834
-0.00245533
0.695829
0.684788
-0.077094
0.547809
-0.740275
0.930023
-0.189748
-0.412038
-0.191298
-0.0419067
-0.192953
-0.204642
0.764472
0.0103916
-0.00319719
0.627845
0.174096
0.0170063
0.604398
-0.132357
0.24048
0.747871
0.237774
-0.985645
0.277072
-0.923492
0.203028
-1.43221
-0.181122
0.77104
-0.589918
-0.665863
-0.107255
0.0283895
-0.0548449
-1.13589
0.0234966
-0.0441466
0.769944
0.118343
-0.325013
0.20667
-0.0325023
-0.579229
0.109914
0.20304
-1.46419
-0.00176363
0.00370044
0.100035
-0.0535314
-0.59154
0.0181018
0.567813
0.30683
1.11313
0.876746
-0.246968
-0.385267
0.632235
0.0540584
-0.617592
0.617592
-0.234452
-0.9105
1.14495
0.0298989
-0.149286
0.685216
-0.117403
-0.220919
-0.400293
0.178671
0.658566
0.78168
-0.0406383
0.172959
-0.104954
-0.468444
0.483902
0.0774937
0.0553771
0.0148004
-1.58835
-0.0173832
-0.17931
0.694006
0.305994
-0.0173832
0.694006
-0.000130169
-0.140452
-0.00013017
-0.696022
0.696022
0.303978
-0.0143223
0.197544
-0.0757526
0.192629
0.106197
-0.464096
0.640703
-0.036305
0.659007
-0.504094
-0.154913
-0.0586169
0.0582861
0.000330785
-0.0114316
0.0116861
-0.0494429
0.0188547
-0.0762489
-0.435073
-0.351519
0.125422
0.0444594
0.832872
-0.278957
-0.540446
0.407796
-0.00155099
-0.142986
-0.00984453
0.681526
0.0666071
0.447846
-0.0198215
-0.0013938
0.0137471
0.0850299
0.563986
-0.475034
-0.0889516
2.0822
0.547481
-0.285712
0.893076
0.0111567
-0.0619337
0.105386
0.197788
0.134952
1.1225
-0.374633
0.0137401
-0.07571
0.675021
-0.41515
0.0223704
-0.0223704
0.0198414
-0.0198414
-0.0147533
0.0147533
0.0282921
0.365437
0.45868
-0.0295555
-0.720755
0.48728
0.1894
0.0287531
-0.0821735
-0.482749
0.758518
0.111479
-0.796288
-1.09027
0.102775
0.102449
0.0185762
-0.00277164
-0.0200224
0.0200224
0.185109
-0.0191225
0.0191225
0.701242
0.0900626
-0.0140565
-0.00576499
0.00669071
-0.0686713
-0.0226777
0.0226777
-0.0101633
0.0101633
-0.0219563
0.0219563
-0.0145145
0.0145145
0.117933
-0.295813
-0.0829496
0.220583
-0.0134521
0.0134521
-0.372688
0.513912
-0.141224
0.503171
-0.222844
-0.463577
-0.0768687
0.559523
-0.11575
0.0748205
0.564275
0.565897
-0.00671906
0.00671906
0.180352
0.0243982
-0.0243982
-0.0121154
0.0121154
0.756346
-1.15152
0.0364499
-0.189415
0.183283
0.00336053
-0.00336053
0.0123734
-0.0123734
0.0181016
-0.0181016
0.0234889
-0.0234889
-0.0231392
0.0231392
0.0346218
-0.0346218
0.480406
-0.03136
0.03136
-0.00270511
0.00270511
0.0237457
-0.0237457
-0.00546194
0.00546194
0.00804691
-0.00804691
-0.0625816
-0.0250894
0.0250894
0.354795
0.0139789
-0.0389098
0.0389098
0.00531334
-0.00531334
0.0141336
-0.0141336
0.0330377
-0.0330377
0.0258811
-0.0258811
0.00399911
-0.00399911
-0.00224233
0.00224233
-0.552026
-0.219942
-0.00884694
0.00884694
-0.00192567
0.00192567
-0.0376079
0.0376079
-0.0281243
0.0281243
0.000425595
-0.000425595
-0.410332
0.647542
0.256962
-0.0315942
0.0315942
-0.0416598
-0.0132305
0.0132305
-0.00130083
0.00130083
0.0375682
-0.0375682
-0.213871
0.200182
0.00327483
-0.00327483
-0.0232891
0.0232891
-0.504795
0.0449124
-0.0865714
-0.0315795
0.0315795
-0.447842
0.034388
0.0192821
-0.0352746
-1.38873
-0.0361734
0.0361734
-0.19659
0.139464
-0.0409411
-0.000921183
0.000921183
0.00470433
0.0456954
0.262564
-0.324328
-0.28405
0.608377
0.198556
-0.00435853
0.00435853
-0.202327
0.436976
-0.234648
0.77623
-0.40095
-0.37528
-0.457386
-0.659657
0.0646314
0.343165
-0.261155
-0.468917
-0.57367
0.00884697
0.190848
-1.18655
0.0151386
-0.0151386
-0.000538123
0.000538123
0.0303904
-0.0303904
0.0263197
-0.0263197
0.000229176
-0.000229176
-0.000448439
0.000448439
-0.0109603
-0.253652
0.178332
-0.30324
-9.14802e-05
9.14802e-05
-0.0451744
0.0451744
-0.0397086
0.0397086
0.191126
0.0258958
-0.217021
-0.00234362
0.320483
-0.548046
-0.000138317
0.000138317
-0.00924636
0.00924636
-0.0919609
0.126922
-0.0622904
-0.000676745
0.000676745
0.102887
0.0139602
0.999993
-0.48453
-0.0768254
0.561355
-0.629947
0.0815221
-0.556684
-0.0387448
0.0387448
-0.681727
0.278542
0.0487427
-0.0487427
-0.640941
0.380348
0.265904
0.123044
0.00031635
-0.00031635
-0.823651
0.000249959
-0.000249959
0.313288
0.409193
0.0480841
-0.0526406
0.0526406
-0.000957592
0.000957592
-0.0417021
0.0417021
-0.0539601
0.0539601
0.00043864
-0.00043864
-0.0595885
0.0595885
0.000279485
-0.000279485
-0.0449536
0.0449536
-0.00351332
-0.0452662
0.0452662
0.00260998
-0.00260998
0.0474173
-0.0474173
-0.000445807
0.000445807
0.0478705
-0.0478705
-0.148477
-0.00231759
0.00231759
-0.00420266
0.00420266
-0.0557285
0.0829173
-0.0101785
0.0101785
0.00508401
-0.00508401
-0.0583189
0.0583189
0.293842
-0.0179232
0.0179232
-0.05701
0.05701
-0.00750878
0.00750878
-0.0660242
0.0660242
-0.0132895
0.0132895
-0.0789789
0.0789789
-0.021241
0.021241
-0.0937889
0.0937889
-0.690606
0.326001
-0.528771
0.505935
-0.863882
0.148141
-0.56818
0.396952
-0.0404775
0.114644
0.00349597
-0.00349597
0.272641
-0.725278
0.0420605
-0.0272601
-1.14065
1.59108
1.189
0.253406
-0.0525496
-0.0260886
-0.396604
-0.576491
-0.0522004
0.390451
-1.22093
-0.0185956
0.0185956
-0.76015
0.0208205
-0.0208205
-0.00144334
0.00144334
0.310597
-0.390006
-0.0021035
0.0021035
0.0191904
0.0146728
0.595113
0.227858
-0.0110582
-0.00990234
-0.00847588
-0.093023
0.490604
-0.397581
0.176635
0.00838822
0.0120046
0.923415
-0.0172145
0.0566649
-0.406994
0.436825
-0.48382
-1.01802
-0.219166
-0.0698381
0.0177485
-0.242706
-0.169515
0.0593687
-0.00345696
-0.0122792
0.783035
-0.556428
-0.0353669
0.0644459
-0.0351204
0.0542589
0.143285
0.426827
0.23513
-0.164211
0.211657
0.0163328
-0.00381491
-1.3043
0.0196846
-0.055861
-0.269152
-0.0191718
-1.46471
-0.0710119
0.262046
-0.350958
0.388836
0.297513
-0.862167
0.0505401
-0.0279922
-0.103489
-0.344834
0.467216
-0.083498
-0.0267522
0.11025
-0.0267994
0.0267994
0.176109
-0.426319
-0.0985036
0.118426
-0.0773215
0.053863
-0.0657613
-0.00671787
0.0724792
-0.0348203
-0.150904
0.113424
-0.07271
-0.28913
-0.363417
0.652547
0.014083
0.0577498
0.152386
-0.0265714
-0.124451
0.0657401
-0.153842
0.306302
-0.00162955
0.0267686
-0.0292018
0.181587
0.00327812
0.256221
0.00091927
-0.00091927
-0.307776
1.0036
0.0865583
-0.167509
-0.0505404
-0.0205972
0.837058
0.662723
-0.0104106
-0.0262233
-0.531872
0.00310074
0.141547
0.0858666
-0.67419
0.311804
-0.055698
0.387351
-0.676481
0.225923
0.514444
-0.0882415
0.0882415
-0.000674274
-1.27261
0.555574
0.717035
-0.208383
0.153539
0.177523
-0.194269
-0.570496
-0.129443
-0.0311051
0.0393121
0.929687
0.233782
-0.0951775
-0.068919
-0.602336
-0.703709
-0.0777636
-0.26395
0.803791
0.584336
-0.263853
-0.259378
0.55011
-0.0414213
0.385386
-0.268053
0.102863
-0.468651
0.327427
0.122542
-0.122542
0.11149
-0.119501
0.00801053
0.00826972
0.0010387
0.0204897
-0.352697
-0.313166
0.231499
-0.186677
-0.0448221
0.547962
-1.07163
0.252668
-0.884099
0.697281
-0.123739
-0.179501
-0.0429304
-0.0790149
-0.481559
0.0464861
-0.282896
0.00460796
-0.0191718
0.374252
-0.00524797
-0.000619643
0.00106242
0.0130319
-0.0110576
-0.00197432
-0.107363
-0.0171649
-0.164642
0.181807
-0.130776
-0.337875
0.0191904
0.346997
0.00152278
-0.370582
0.0821842
0.00244185
0.144637
-0.174192
-0.0117883
0.0117883
-0.000918725
0.00221014
-0.00944388
0.00133667
-0.0772926
0.000811241
-0.00118289
0.238831
0.000241433
-0.00102105
0.00102105
0.11661
0.516494
0.00131636
-0.288831
0.46003
1.11886
-0.47561
0.340324
-0.437334
-0.232566
0.134062
0.234664
-0.233578
-0.019657
0.0157445
-0.00354661
-0.00414904
-0.179179
-0.378605
0.865884
0.413949
-0.424909
0.21678
-0.00158402
0.192683
0.00135695
0.000857038
0.000826653
0.0149179
0.177403
0.00130189
-0.000199799
0.71696
-0.651219
-0.24516
0.106414
0.941554
0.000624834
0.00103251
-0.0409411
-0.00569832
0.817901
-0.430396
0.50789
-0.478495
0.904407
-0.420704
0.582264
-0.185312
0.692537
0.00110341
0.00331784
0.0152584
-0.115722
0.139425
-0.243748
0.00957683
0.000826079
0.0632385
-0.048239
-0.0149996
0.00108369
0.0468204
0.0141714
-0.0609918
-0.0898439
0.0040536
6.34587e-05
0.00158893
0.468797
-0.427295
-0.00488726
0.000287277
1.19938
-0.643801
0.389493
-0.00578299
0.000383061
0.203924
-0.0299303
-0.0394422
-0.120415
-0.0184353
-0.00353525
0.116297
0.0452126
-0.0015499
0.418053
0.000798985
-0.00317245
0.00317245
0.00294233
-0.0128447
0.000137694
-0.321764
-0.00366024
0.0712935
-0.107239
0.0331636
0.0161779
-0.0653919
0.0002298
0.00188507
0.473368
8.71797e-05
-0.00356514
-0.0383416
-0.00199344
0.000493674
0.0743617
0.163671
-0.710662
0.485457
-0.864061
-0.0425933
-0.00028085
-0.589013
0.0664547
0.0899814
0.601934
-0.0152152
0.0145612
-0.00389788
-0.00132541
-0.552114
-0.0032515
-0.000159159
-0.0442798
0.935589
-0.523021
-0.00246373
-0.00072529
-0.00567829
-0.00187178
0.0685054
-0.0223897
0.0223897
-0.0290203
0.0312304
-0.00242476
-0.00770528
0.0325687
-0.0331884
-0.160915
0.0898745
-0.00578071
-0.0129547
0.0433759
-0.0159751
0.0607822
-0.0430337
-0.625447
0.569876
0.020319
-0.00158804
0.322819
-0.15638
-0.0716244
-0.690107
-0.0780507
-0.121652
-0.0926517
0.0906583
0.682693
0.000524069
0.0117728
-0.0107403
0.250997