/*--------------------------------*- C++ -*----------------------------------*\
| =========                 |                                                 |
| \\      /  F ield         | OpenFOAM: The Open Source CFD Toolbox           |
|  \\    /   O peration     | Version:  2306                                  |
|   \\  /    A nd           | Website:  www.openfoam.com                      |
|    \\/     M anipulation  |                                                 |
\*---------------------------------------------------------------------------*/
FoamFile
{
    version     2.0;
    format      ascii;
    arch        "LSB;label=32;scalar=64";
    class       volVectorField;
    location    "19";
    object      U;
}
// * * * * * * * * * * * * * * * * * * * * * * * * * * * * * * * * * * * * * //

dimensions      [0 1 -1 0 0 0 0];

internalField   nonuniform List<vector> 
2186
(
(1.33855 -0.0731641 2.20555e-19)
(1.63212 -0.961428 -6.20221e-20)
(1.4787 -0.936782 3.74075e-21)
(0.7621 -0.605412 -1.44213e-19)
(-0.336474 0.385529 -1.56471e-19)
(1.4134 -0.224743 0)
(0.740504 -0.684772 0)
(-0.294255 -0.460422 1.0435e-19)
(1.45792 -0.282908 1.72436e-19)
(0.570823 -0.341095 -2.34082e-21)
(0.661052 0.594811 0)
(0.781206 -0.284133 -1.17553e-19)
(-0.357821 -0.544619 -4.23773e-20)
(1.20029 0.021957 -3.67795e-19)
(1.81876 -0.710726 -7.08138e-20)
(1.01197 -0.00557006 1.73267e-19)
(0.985117 0.0125397 0)
(-0.560022 0.342497 0)
(1.34992 -0.0407319 0)
(-0.0765884 0.200929 -5.80836e-20)
(0.480573 0.054229 -1.13303e-19)
(-0.189415 0.153929 7.92189e-20)
(1.18713 0.0265045 3.03548e-19)
(-0.215885 -0.0121568 6.02028e-21)
(1.03159 0.00432748 -2.38954e-19)
(0.813066 -0.581294 0)
(0.763387 -0.0514196 1.43187e-19)
(0.628567 -0.608191 -1.67071e-19)
(1.18943 0.697006 0)
(0.965602 0.0227279 -3.25966e-19)
(-0.0350561 0.0506986 0)
(1.02476 -0.0159337 1.12936e-20)
(-0.0621887 0.178945 0)
(2.68504 0.142554 2.48694e-19)
(-0.125396 -0.193768 3.24401e-21)
(1.51009 0.761526 8.1821e-20)
(1.93475 0.121929 1.53322e-19)
(0.503381 0.102938 -3.38023e-19)
(1.86389 0.295754 -2.68241e-19)
(1.12049 -0.0994762 1.58572e-20)
(-0.410447 -0.593797 0)
(-0.144364 0.111238 0)
(1.8952 -0.908279 7.8664e-20)
(-0.376785 0.119086 0)
(1.09636 0.26587 1.53207e-19)
(0.613099 -0.322285 2.7733e-19)
(0.940092 -0.802947 0)
(1.21055 -0.810247 1.09395e-19)
(2.33009 -0.117063 0)
(-0.286018 0.505868 1.63801e-19)
(-0.0250324 0.0979155 8.58379e-20)
(0.615797 0.56792 8.09059e-20)
(2.09486 -0.797755 8.97147e-20)
(0.581527 0.241324 -2.72539e-19)
(-0.24306 0.00507675 3.00372e-20)
(0.785389 -0.671606 0)
(1.67598 -0.989256 1.81861e-20)
(0.59851 -0.558559 0)
(2.25573 0.272121 8.61515e-20)
(1.14968 -0.174596 -3.56897e-19)
(2.03686 -0.120568 1.72942e-19)
(1.33448 0.300395 -1.79521e-19)
(1.32208 0.523291 0)
(0.768908 -0.0752957 -1.73685e-20)
(1.34025 0.382647 -1.1005e-19)
(1.27254 -0.753046 -1.52832e-19)
(1.14868 0.647582 5.34041e-20)
(0.674955 0.0462967 -5.49525e-19)
(0.817646 0.0379126 0)
(2.12203 -0.258381 -6.29011e-20)
(-0.289202 -0.520203 -1.21461e-19)
(2.15117 -0.117087 -1.73764e-19)
(0.72755 -0.0634414 -2.41744e-19)
(0.896286 -0.540543 0)
(0.817167 0.161444 -8.9588e-20)
(0.567176 -0.529228 -2.91563e-19)
(2.61349 -0.127514 0)
(1.00633 0.00760499 3.56977e-19)
(-0.119791 -0.261947 0)
(1.94233 0.393691 0)
(0.688634 0.335178 1.03443e-19)
(0.916804 -0.155342 -2.6592e-20)
(1.027 0.00412637 3.96772e-20)
(1.30214 0.415391 2.76971e-20)
(0.970679 0.0223917 4.16065e-19)
(1.0436 0.0273356 -9.86652e-21)
(0.659135 0.148468 -3.28477e-19)
(1.3468 -0.100516 1.04337e-22)
(0.93772 -0.187099 0)
(-0.0646168 -0.041195 8.58395e-20)
(0.883862 -0.645337 -1.61238e-19)
(-0.0722855 0.323865 -1.24259e-21)
(1.12559 -0.08363 2.4423e-19)
(0.829598 -0.203956 0)
(0.975776 0.0220013 3.97216e-20)
(1.3424 0.635031 0)
(1.64824 -0.977832 0)
(1.28406 0.2174 0)
(-0.353568 0.481831 0)
(0.815282 -0.6892 2.85572e-19)
(0.205202 0.283983 -2.97449e-19)
(0.616859 0.191863 1.93882e-19)
(1.54088 0.193481 0)
(1.15668 -0.109907 -2.23264e-19)
(1.11791 0.0233739 1.76641e-19)
(-0.0317109 0.427235 1.06295e-19)
(0.617097 0.480193 0)
(2.23677 -0.195892 -1.2606e-19)
(0.983885 -0.499286 8.01798e-20)
(-1.33461 0.432863 2.77809e-19)
(1.70206 0.308949 1.0243e-19)
(-0.210069 0.516573 -2.37133e-19)
(0.835028 -0.75993 0)
(0.546976 0.31679 1.65465e-19)
(1.67305 -0.282983 -4.94603e-19)
(-0.469349 -0.420967 -4.05229e-19)
(1.3136 0.291963 1.09382e-20)
(1.90415 -0.15112 0)
(-0.0867297 -0.0508491 -2.57119e-19)
(0.713397 -0.0984923 7.63851e-20)
(1.53091 0.865142 0)
(-0.241896 0.565762 -2.51924e-19)
(0.86631 0.743229 -2.72132e-19)
(-0.732671 0.198482 3.8014e-19)
(1.02844 -0.024403 0)
(1.52167 0.352439 -1.37833e-20)
(-0.287774 0.469112 0)
(0.719976 -0.520326 -1.04625e-19)
(-0.676006 0.280699 -2.04038e-19)
(0.808433 -0.73847 0)
(0.454724 -0.313468 4.03015e-19)
(0.563139 -0.481723 2.72459e-19)
(0.420351 -0.380771 0)
(1.00687 -0.803312 -1.24996e-19)
(0.593195 0.281427 0)
(-0.119724 0.579922 -1.28446e-19)
(0.834205 -0.719994 1.36873e-19)
(2.47064 -0.285929 2.80878e-19)
(2.27052 0.191248 0)
(-0.09583 -0.170076 0)
(0.66969 0.622261 -3.39894e-19)
(1.80573 -0.649949 1.7509e-21)
(-0.180834 -0.241018 0)
(1.00838 -0.829269 -1.35468e-20)
(1.15928 -0.106782 0)
(1.09603 -0.131014 3.87107e-19)
(2.17073 -0.206829 -1.14531e-19)
(-0.369396 0.387998 0)
(1.24577 -0.572623 -5.39649e-20)
(-0.254731 0.270652 -3.74904e-20)
(-0.183896 0.396736 0)
(1.11729 -0.835829 1.22945e-20)
(1.00665 0.00425728 -5.96298e-19)
(0.673205 -0.505901 -1.0273e-20)
(0.839533 -0.540288 0)
(1.224 -0.751336 -9.20118e-20)
(0.643256 0.208672 2.55416e-19)
(1.21085 0.115629 0)
(1.47261 0.0921412 -2.50978e-19)
(1.22078 -0.877688 -1.99077e-19)
(-0.0868213 -0.151518 -9.60893e-20)
(-0.148663 -0.400722 -1.80012e-19)
(1.06407 0.00434041 2.23761e-19)
(0.938791 -0.4864 -1.00825e-19)
(1.43184 -0.0992344 -9.65995e-23)
(1.29228 -0.0977363 -1.44274e-20)
(0.69537 -0.107792 1.03758e-19)
(-0.187759 -0.0723719 -2.29588e-19)
(1.72728 -0.46542 0)
(1.82885 -0.490744 6.51395e-20)
(1.42269 0.639639 1.39368e-19)
(0.832286 -0.637974 -2.08318e-19)
(0.994347 0.00832527 1.22176e-20)
(0.744156 -0.555916 2.8761e-19)
(1.27777 0.784867 1.2749e-19)
(1.8221 0.108868 1.51389e-20)
(-0.408373 0.303162 0)
(1.07883 0.0484557 -2.31906e-19)
(-0.74855 -0.324547 -2.55272e-19)
(1.05606 0.478733 7.88292e-20)
(0.0269988 -0.11642 1.38765e-19)
(1.1555 0.027704 -4.23379e-20)
(-0.1446 0.14413 -1.40738e-19)
(1.27382 0.574848 -7.75189e-20)
(1.1135 0.867763 0)
(-0.459873 0.302006 -8.28132e-20)
(-0.208357 -0.200576 0)
(0.6346 0.541668 -2.73396e-19)
(2.00845 0.227531 -1.908e-20)
(-0.451646 -0.563195 1.43426e-19)
(-0.74976 0.0957144 -5.61421e-19)
(0.721605 0.0492751 2.41401e-19)
(2.02134 0.143719 -4.97636e-20)
(1.00007 -0.36611 -2.95548e-20)
(-0.035642 -0.0498744 0)
(-0.896627 0.421623 4.18957e-19)
(1.30078 0.952535 -2.36027e-20)
(0.835044 0.0555224 -1.324e-19)
(0.541099 0.506879 1.90385e-19)
(0.437813 0.188972 0)
(-0.10615 -0.545314 -2.07673e-19)
(-0.613331 0.574806 2.51122e-19)
(1.31923 -0.978368 4.20914e-22)
(0.991661 -0.0442631 -1.85437e-19)
(-0.189114 -0.141637 7.29001e-21)
(-0.133345 0.171517 1.30412e-19)
(-0.288391 -0.155917 -1.66411e-19)
(1.93803 -0.235571 0)
(1.13014 0.0389773 -3.11506e-19)
(2.23554 0.145504 2.3327e-19)
(1.29789 -0.639877 9.83972e-20)
(0.472478 -0.140184 2.24217e-21)
(0.576399 0.296742 0)
(0.921566 0.730982 -1.61214e-20)
(0.667731 0.613502 1.81899e-19)
(0.920075 -0.586875 1.4577e-19)
(0.664085 0.475413 0)
(1.02254 -0.00219838 7.96078e-21)
(0.906056 -0.686816 2.07577e-19)
(0.82033 0.400474 -4.48175e-19)
(1.26411 -0.116669 0)
(-0.202072 -0.226532 -2.752e-19)
(0.0146808 0.286204 -8.57759e-20)
(1.55917 0.709931 0)
(1.37508 -0.961617 -3.6026e-22)
(-0.557849 0.374121 0)
(-0.308805 0.435074 9.91627e-20)
(0.716181 0.632508 -9.64784e-20)
(0.862376 -0.238494 0)
(-0.210748 -0.1872 0)
(1.59108 -0.482936 0)
(-1.27614 -0.0092759 5.46826e-19)
(1.23774 -0.906321 1.30316e-19)
(1.19971 -0.625034 5.99231e-20)
(1.07146 -0.174227 -1.62114e-19)
(0.90342 -0.716775 -1.63865e-19)
(0.191887 -0.196334 0)
(-0.966915 -0.0212831 0)
(1.02416 -0.532731 1.72005e-19)
(-0.140528 -0.241824 0)
(-0.279733 0.511706 0)
(-0.449375 -0.390574 3.45865e-19)
(0.771426 0.649906 8.36979e-20)
(0.989743 0.774975 0)
(0.675519 0.528961 -8.33682e-20)
(0.833744 -0.0630711 -2.17973e-19)
(0.724508 0.538311 -2.2303e-19)
(0.575253 0.533635 -1.6398e-19)
(-0.248621 -0.517004 1.98694e-21)
(0.73837 -0.663413 0)
(0.893678 0.15658 -3.15013e-19)
(-0.347284 -0.603899 5.55696e-20)
(0.588449 0.544927 3.70035e-19)
(0.93463 0.777837 0)
(-1.18734 0.0811756 3.86217e-19)
(-0.104018 -0.403309 2.89155e-19)
(-0.0185964 -0.294561 -1.4965e-19)
(0.643697 0.546954 -1.4488e-20)
(0.968812 -0.00845952 5.77237e-20)
(-0.424766 -0.589489 0)
(2.4334 -0.0785927 -3.17682e-19)
(1.87303 -0.506919 -2.75643e-19)
(0.671186 -0.622415 -7.35386e-20)
(-0.461299 0.183084 1.27869e-20)
(1.17557 0.453353 1.78128e-19)
(0.871669 0.392607 0)
(1.06413 -0.186368 1.88567e-19)
(0.0857073 -0.464267 -6.23283e-21)
(-0.0686858 0.0886121 3.2653e-19)
(0.928168 0.0169127 -5.1468e-20)
(1.10975 0.141732 0)
(2.00027 -0.0713634 -2.83398e-19)
(1.88459 0.123896 0)
(0.532657 0.220957 -4.47565e-19)
(-0.144014 0.202379 0)
(-0.267115 -0.46878 2.38265e-19)
(0.703505 0.104823 0)
(0.64327 -0.539427 -1.76702e-19)
(1.13653 0.0182825 2.04219e-19)
(-0.394314 0.423078 3.67423e-20)
(2.18201 -0.0877882 4.31064e-21)
(2.13791 -0.296074 -1.2357e-19)
(1.10125 0.216628 -2.13784e-19)
(-0.363743 -0.622135 -1.0977e-19)
(1.09925 -0.873193 0)
(0.811885 0.0166574 -1.48611e-19)
(0.945229 -0.39757 -2.81845e-19)
(1.7536 -0.598436 -4.33926e-21)
(1.78175 0.0314047 2.42588e-19)
(1.07733 -0.0075193 3.73049e-19)
(0.107955 -0.453179 -1.47114e-19)
(1.01516 -0.458574 -1.23149e-19)
(0.202432 -0.194999 2.4918e-19)
(1.00698 -0.00734025 0)
(1.00489 -0.00586276 0)
(0.989747 -0.385279 1.33346e-19)
(-0.0491859 0.548156 -8.6962e-20)
(0.166596 -0.122078 -1.25684e-19)
(2.05365 -0.0328331 3.53516e-21)
(1.10595 -0.0527956 0)
(1.86911 0.132907 -1.47991e-19)
(0.962969 -0.839942 -7.91179e-20)
(1.8146 -0.588055 -6.77662e-20)
(1.08058 0.817631 0)
(0.488649 -0.47147 0)
(0.584908 0.494304 -1.73432e-19)
(1.08289 0.26938 -3.94271e-19)
(2.32277 -0.286814 3.85923e-22)
(0.851955 0.143195 1.35225e-19)
(0.059036 -0.483227 -4.42706e-19)
(1.11579 -0.444971 -8.06639e-21)
(-0.242189 -0.434355 0)
(-0.107995 -0.183129 0)
(-0.502216 -0.505432 0)
(1.36383 -0.744724 -8.49148e-20)
(-0.183034 0.403206 -1.9028e-19)
(-0.0640939 0.143713 0)
(1.26179 0.954546 -3.50108e-20)
(1.10212 0.137025 -4.10137e-19)
(2.04326 0.540986 -4.48057e-20)
(1.05563 0.901866 8.40759e-20)
(-0.178489 0.517265 1.21777e-19)
(0.734957 -0.183578 0)
(-0.503717 -0.44143 -2.98606e-19)
(-0.242743 0.497865 2.29448e-19)
(0.773952 0.0117436 1.7841e-19)
(1.50293 0.928023 -9.1713e-21)
(1.77782 0.54222 8.81594e-21)
(-0.099825 0.299083 -2.10743e-21)
(0.76453 -0.698557 -3.60473e-20)
(1.10131 -0.0147918 0)
(1.70018 -0.0846601 0)
(1.05267 0.0505878 0)
(-1.18511 0.61083 -2.51207e-19)
(-0.454097 -0.502889 1.09434e-19)
(1.02258 0.823828 0)
(1.00146 -0.0104787 4.98149e-19)
(0.746204 0.580971 -2.23677e-19)
(-1.62929 0.462809 -2.49872e-19)
(0.859282 0.00122764 -4.00537e-20)
(0.734241 -0.670946 -2.12569e-19)
(1.35812 0.69314 -3.24023e-20)
(0.584884 -0.478607 -2.82836e-19)
(1.1298 -0.00164974 -4.48321e-19)
(0.816551 0.0421142 4.38286e-20)
(1.56512 -0.194165 6.57755e-20)
(1.50444 -0.146286 -5.97253e-20)
(-0.0557318 -0.0762935 -7.68582e-24)
(1.06516 0.454696 -2.62227e-19)
(1.29891 0.598612 6.63225e-20)
(-0.0952759 -0.348839 0)
(0.00366888 -0.434596 1.64323e-19)
(-0.286227 -0.31778 1.15542e-19)
(-0.187505 -0.095219 -1.18992e-19)
(0.456791 0.28045 0)
(1.33416 -0.516511 0)
(0.000530627 0.00230023 -1.18977e-19)
(-0.290138 -0.633909 -6.24661e-20)
(1.0463 -0.031708 1.77652e-19)
(-0.351306 0.289208 -3.78287e-20)
(1.3983 0.0796366 -4.96029e-19)
(-0.0623376 0.565135 0)
(0.854191 -0.758438 -2.92208e-19)
(1.13105 -0.170319 6.99738e-20)
(-0.420317 -0.339656 1.57264e-19)
(0.710249 0.135258 3.20057e-19)
(0.615169 0.105617 1.03535e-19)
(0.517933 -0.491569 1.9622e-19)
(-0.203403 -0.302367 -1.26935e-19)
(1.44226 0.48223 0)
(0.373979 0.313584 -1.90163e-19)
(1.02619 -0.0167308 -2.82778e-19)
(-0.808603 0.0865768 2.18769e-19)
(1.39501 0.478291 -1.19233e-19)
(-0.164554 -0.307176 -4.77461e-20)
(0.69944 -0.639375 -5.12109e-20)
(0.803146 0.166792 -2.01188e-19)
(0.964756 0.409991 2.23737e-20)
(1.16204 -0.146382 3.3906e-20)
(0.62021 -0.259787 -2.91023e-19)
(2.04626 -0.389878 -1.42493e-19)
(1.76135 -0.117095 0)
(1.59113 0.424885 -3.06365e-20)
(1.96926 0.0823567 -1.74882e-20)
(0.829911 -0.276441 1.25335e-19)
(0.925811 0.338015 -1.62719e-19)
(0.95998 -0.231621 4.11145e-20)
(0.401679 0.36629 -2.46676e-19)
(-0.189176 0.24197 2.27113e-19)
(1.95303 -0.231146 0)
(0.930202 0.00278754 0)
(0.893033 -0.791196 5.68622e-20)
(-0.0985241 -0.478355 -3.1632e-19)
(-0.80098 -0.0202708 -2.47414e-19)
(-0.0770576 -0.115269 -2.05128e-19)
(-0.381268 0.519466 -1.51464e-19)
(-0.308168 -0.375016 0)
(-0.0902248 -0.141922 3.61785e-20)
(0.181738 0.428789 -8.12554e-20)
(-0.150496 0.190497 -2.97501e-19)
(0.811254 -0.132583 0)
(1.65624 -0.571901 1.14901e-19)
(-0.258309 -0.312903 0)
(0.99571 0.0239401 3.59217e-19)
(-0.0858578 -0.45373 1.99239e-20)
(0.560422 -0.450605 3.79093e-19)
(-0.801045 -0.288796 4.22868e-19)
(-1.5278 0.0622351 0)
(0.207143 0.508804 9.57588e-20)
(1.00823 0.0216959 -1.08058e-20)
(-0.148593 -0.152436 0)
(1.00517 -0.00876191 -5.58811e-20)
(0.883256 -0.747584 -2.78608e-19)
(1.45261 -0.39165 0)
(0.948959 -0.289046 2.01761e-19)
(0.0696792 0.533276 2.10334e-19)
(-0.023295 -0.0207398 0)
(-0.154592 -0.497474 -6.00905e-21)
(0.747588 -0.654715 -4.10697e-19)
(0.965171 -0.0303154 -2.59939e-19)
(-0.0811717 -0.525895 3.94602e-19)
(-0.212838 -0.431803 1.45765e-19)
(-0.28497 -0.424573 0)
(0.943321 0.457582 0)
(-0.34197 -0.464553 1.99273e-19)
(1.86102 -0.0511752 -2.47578e-19)
(1.05085 0.876324 1.85741e-20)
(1.06026 0.200828 -1.20404e-19)
(1.15807 0.00457828 -2.1645e-19)
(1.07035 -0.0684851 -7.70799e-20)
(-0.0733723 -0.556309 -3.6379e-19)
(1.9975 0.112795 4.5225e-19)
(0.6683 0.0278037 2.02218e-19)
(2.07536 -0.107839 1.60975e-19)
(1.07194 -0.160593 0)
(-0.0401349 0.520878 5.66424e-19)
(1.13704 0.024759 -4.86722e-19)
(1.71654 0.609362 1.29724e-20)
(0.762076 -0.479421 -1.55961e-19)
(-0.0737149 -0.0467512 1.92243e-19)
(0.818153 -0.719374 3.6589e-19)
(1.22412 0.190608 7.25113e-20)
(1.00664 -0.00823478 2.47514e-19)
(0.102365 -0.504846 -1.62569e-19)
(1.01998 0.0128489 0)
(1.70916 0.148023 -2.36342e-19)
(-0.0381837 -0.03057 0)
(1.01818 0.0129016 -1.46088e-19)
(-1.54794 0.177884 -6.22205e-19)
(1.66475 0.30717 3.54249e-20)
(-0.410978 -0.348346 1.4482e-19)
(1.59563 -0.00606335 -4.47885e-21)
(1.01248 -0.0192333 5.12701e-20)
(1.36372 -0.0917511 0)
(1.46815 -0.627522 -1.34749e-19)
(1.01937 0.0292264 -1.51562e-19)
(1.41373 0.773029 -5.99089e-20)
(1.42087 -0.062728 0)
(0.73811 0.0470478 -1.36137e-20)
(-0.00168909 0.00249883 0)
(1.38635 0.0484401 0)
(-0.438985 -0.551888 0)
(1.22273 0.433246 0)
(1.82419 0.298161 4.2995e-20)
(0.720442 0.59455 3.92076e-19)
(0.300131 -0.301998 -2.32247e-19)
(-0.264495 -0.593646 -3.50476e-19)
(-0.0393265 -0.0527382 0)
(1.9698 -0.371016 1.15936e-19)
(1.31655 0.506425 0)
(1.43057 0.295223 0)
(-0.530241 -0.401054 1.31934e-19)
(0.789409 0.696745 1.26701e-19)
(1.73053 -0.0287873 0)
(-0.362509 -0.487526 8.0999e-20)
(0.90172 0.204028 1.84896e-19)
(2.07339 -0.386049 -5.41301e-20)
(1.21558 0.908204 4.54196e-20)
(0.939427 -0.846332 -3.39871e-20)
(1.50163 -0.170441 -1.40665e-20)
(0.776112 0.700968 1.30253e-19)
(1.15383 0.907025 0)
(2.51268 -0.208145 1.92937e-19)
(0.959589 0.710105 0)
(1.48011 -0.638894 3.76954e-20)
(0.951763 0.0935911 1.66815e-19)
(1.00565 -0.00533327 0)
(0.234902 0.540947 5.09343e-19)
(0.898854 -0.189747 4.65718e-20)
(0.650213 -0.434863 0)
(0.68789 -0.407636 2.05246e-19)
(1.21958 0.546745 -3.31148e-20)
(0.461243 0.433826 2.71548e-19)
(-0.177073 0.249238 3.51865e-20)
(0.0351303 -0.0389676 8.34344e-20)
(0.761125 0.0668111 0)
(1.34571 -0.921357 -7.32949e-20)
(1.02983 -0.0439435 3.9445e-19)
(1.47286 0.328224 1.28956e-19)
(-0.397055 -0.524895 7.01753e-20)
(-0.886199 -0.378616 0)
(1.24672 -0.253984 -1.10297e-19)
(-0.0219342 -0.0223445 -1.66377e-19)
(0.0541386 -0.149378 -6.31565e-20)
(-0.127453 0.0449868 -6.98181e-22)
(-0.196995 0.0905304 2.68812e-19)
(1.42921 -0.23656 -8.08454e-21)
(2.44294 -0.0813849 4.25348e-19)
(1.17542 0.454137 -2.87243e-19)
(0.846614 -0.0506562 0)
(1.89739 -0.138074 2.29369e-19)
(1.9058 0.106964 1.20554e-19)
(0.933502 -0.785801 1.36566e-19)
(1.17525 -0.993475 -3.79082e-20)
(0.466058 0.431728 1.82279e-19)
(1.45847 0.398361 0)
(1.72769 0.566551 2.3722e-20)
(-0.0299794 -0.0368611 -3.39269e-19)
(0.864942 0.754132 0)
(1.36272 0.418435 0)
(0.301603 -0.30158 -3.77545e-21)
(0.307651 0.275602 0)
(-1.09467 -0.290211 -4.01318e-19)
(-0.243946 0.372853 -1.03987e-19)
(1.74611 -0.449271 0)
(1.23283 0.104011 1.80798e-19)
(-0.554958 0.048261 2.06511e-19)
(0.549631 -0.522375 -4.48851e-19)
(2.04994 -0.097925 -5.45862e-20)
(0.628531 -0.571658 0)
(1.02295 0.12082 0)
(1.34902 -0.267434 0)
(1.1045 0.215006 -2.28267e-19)
(1.33297 0.10397 3.23523e-19)
(-1.24832 -0.0690718 0)
(0.893963 -0.0635818 0)
(2.14979 -0.127691 -5.34001e-21)
(-0.0673116 0.144954 9.03155e-20)
(2.58248 0.00744799 -3.05813e-19)
(1.06483 -0.522364 1.71203e-19)
(2.02447 0.0346196 -3.27274e-19)
(-0.918423 0.0851213 -1.66741e-19)
(1.95992 0.127395 -1.94636e-19)
(1.0168 -0.0287344 4.04996e-19)
(1.49285 0.593708 0)
(-0.27513 0.462985 2.78973e-20)
(1.02603 -0.849182 1.68363e-19)
(0.859866 -0.0325123 4.68181e-20)
(0.654852 -0.457279 0)
(1.92657 -0.561016 4.63508e-21)
(1.22517 -0.196487 1.4443e-19)
(1.7695 -0.573883 0)
(0.622907 -0.578984 4.29948e-19)
(0.693109 0.0864046 -2.07073e-20)
(2.37941 0.011915 5.08162e-19)
(-0.0957987 0.230345 -1.86581e-19)
(1.31176 0.608001 1.48713e-19)
(1.13311 0.396373 3.60781e-21)
(0.895782 0.356248 2.20026e-19)
(1.9629 0.00726264 -2.77294e-19)
(-0.0881945 -0.576865 -5.24109e-21)
(0.771885 -0.221261 0)
(-0.15517 -0.0993539 3.16042e-19)
(1.10734 -0.965624 0)
(1.08541 -0.672682 2.09679e-20)
(1.20213 -0.155643 -7.24582e-19)
(1.42518 0.0680432 -1.88679e-20)
(-0.60304 -0.252213 -3.73173e-19)
(0.974202 0.468055 1.71943e-19)
(-0.209079 0.774129 2.77816e-19)
(0.690325 -0.0382535 0)
(1.95478 -0.0762711 0)
(1.6157 0.165666 2.53497e-20)
(0.781797 -0.0124814 0)
(1.3891 -0.221969 -1.48615e-19)
(-1.37309 -0.0835277 5.10397e-19)
(1.89499 0.491408 4.89871e-21)
(1.04013 -0.0321814 0)
(0.570775 -0.377666 1.01272e-19)
(1.01046 0.0261683 1.92687e-19)
(0.199947 0.646887 -2.37816e-19)
(-0.387 0.474114 0)
(1.13008 -0.495638 4.72549e-19)
(1.81636 -0.132403 -5.16261e-22)
(1.11958 -0.515817 -2.05718e-19)
(2.29632 0.265596 1.52215e-19)
(1.26427 0.774686 0)
(0.860838 0.0180364 0)
(-0.456847 -0.535159 -1.7697e-19)
(-0.000711574 0.00199335 1.33859e-19)
(0.939734 0.353504 -2.03393e-19)
(0.264016 -0.415438 -1.44979e-19)
(0.629591 0.382303 2.37112e-19)
(0.964199 0.060791 0)
(0.552267 -0.513743 0)
(0.760391 -0.283944 5.621e-21)
(1.25223 -0.526865 -9.5673e-20)
(0.636769 -0.0544193 1.21058e-20)
(0.738913 -0.17797 1.14939e-19)
(-0.0512489 0.0806857 -2.39347e-19)
(1.11774 0.141325 2.42719e-19)
(0.64581 0.601494 0)
(1.24802 0.681475 0)
(1.59184 0.261061 0)
(-0.400592 -0.389436 -1.63357e-19)
(1.23615 0.545283 1.83047e-19)
(2.07402 0.0582005 5.3236e-20)
(0.919086 -0.00879443 0)
(1.7715 -0.51651 0)
(2.18491 -0.0896016 -3.44239e-19)
(0.51453 0.517405 2.73411e-19)
(1.00595 0.00233097 -1.92676e-19)
(1.46769 0.463091 0)
(-0.290593 0.494022 0)
(1.22955 0.313944 2.82799e-19)
(1.00791 0.513226 -1.27787e-19)
(1.06783 0.0211364 0)
(1.72817 0.12033 0)
(1.94862 0.659297 -2.66621e-19)
(-0.0817664 0.399464 -1.90519e-21)
(0.996958 0.012886 0)
(0.689415 0.448341 -3.26731e-20)
(0.954643 -0.842829 0)
(1.00534 0.0147221 4.47667e-20)
(0.708221 -0.55169 8.50478e-21)
(0.918477 -0.340198 2.96845e-19)
(0.868772 -0.445424 -7.36482e-20)
(2.24593 -0.161074 3.48196e-19)
(1.36259 0.139474 9.76482e-20)
(0.795224 -0.0272918 0)
(1.01845 0.00963632 0)
(-0.628638 -0.395301 0)
(0.651087 0.62317 -1.86116e-19)
(-0.0286627 0.0456197 1.61467e-19)
(1.15294 0.337142 -4.53263e-19)
(-0.511754 0.319007 0)
(0.80843 0.621633 1.64983e-19)
(1.02371 -0.351296 0)
(1.00575 -0.000579895 1.12751e-19)
(0.468124 0.0688987 7.87266e-20)
(1.02163 0.39349 2.5231e-19)
(1.28864 0.190879 0)
(2.12766 0.184708 -7.83062e-20)
(0.831131 -0.129496 -3.53598e-19)
(-1.12462 -0.317008 -5.76671e-19)
(1.1629 0.26091 0)
(0.871678 0.224833 1.7119e-19)
(2.05181 -0.201883 0)
(0.756503 0.498452 3.55383e-19)
(-1.3898 -0.193407 2.2664e-19)
(-0.0388526 0.0844882 0)
(0.576643 0.547694 -6.94198e-20)
(1.04778 -0.660906 -1.47021e-19)
(0.495265 -0.279991 -1.18052e-19)
(1.02035 -0.0180238 0)
(-0.358126 0.192694 -2.04529e-19)
(0.656953 -0.587807 7.86463e-20)
(0.900354 0.273633 0)
(1.69672 -0.480804 1.45962e-19)
(0.962206 0.819414 2.40833e-20)
(0.964844 -0.588128 -1.05418e-20)
(0.195659 -0.210138 -2.34793e-19)
(0.241001 -0.0890186 -5.35394e-19)
(-0.124649 -0.234442 8.86706e-21)
(0.801368 0.33646 2.41557e-19)
(-0.202779 0.427821 -4.71359e-21)
(1.434 -0.667761 3.54249e-21)
(1.02423 0.00492645 -3.34569e-19)
(-0.476589 -0.337197 0)
(1.02873 0.0285947 -3.95047e-19)
(2.21577 0.184178 2.30547e-19)
(0.866265 0.669345 2.77278e-19)
(1.13862 -0.0740658 1.5562e-19)
(1.00563 -0.0337115 1.54862e-19)
(1.47911 0.0885849 1.70019e-20)
(-0.348977 -0.411942 -4.86024e-22)
(1.74641 -0.893605 1.51487e-20)
(1.16234 -0.141321 -7.41133e-20)
(0.804673 0.0507222 8.50814e-20)
(0.922557 -0.309733 8.70803e-20)
(0.993142 0.225284 0)
(0.940117 0.714376 0)
(0.858076 0.130611 -9.38381e-20)
(2.07121 0.186162 -2.30087e-20)
(-1.0255 -0.220529 1.86221e-19)
(1.04799 -0.557986 -4.98225e-19)
(0.636078 -0.55453 3.77057e-19)
(1.16055 0.221718 -1.27144e-19)
(0.271918 -0.435064 1.66828e-20)
(1.45049 -0.597446 0)
(0.747453 0.0937992 -6.56777e-21)
(1.54857 -0.598921 -6.52752e-20)
(1.01727 0.742039 0)
(1.26846 -0.683775 0)
(0.313916 0.0851441 0)
(-0.200424 -0.337376 -5.77572e-20)
(-0.101292 0.158877 0)
(1.66955 0.624653 3.42858e-19)
(1.21132 0.176606 6.24682e-21)
(-1.15879 0.153456 2.46958e-19)
(1.86878 0.60828 1.13594e-20)
(1.79396 0.455342 -5.61565e-20)
(2.18301 -0.350939 -3.61197e-20)
(-0.16892 0.0133525 -1.88493e-19)
(-0.165739 -0.475717 4.47878e-21)
(1.03192 0.108566 0)
(0.673723 -0.0337328 0)
(1.00177 0.000537753 2.14525e-22)
(-0.435851 -0.370118 0)
(1.57278 -0.00387593 -1.05767e-19)
(0.676854 -0.0312114 0)
(1.06365 0.00465444 1.24762e-19)
(0.992938 0.0159333 -4.38173e-20)
(1.0162 0.221595 1.49128e-19)
(1.06194 -0.0185603 -9.02685e-22)
(0.961137 -0.205611 -5.2614e-20)
(1.02472 -0.0359419 3.59521e-19)
(0.690778 -0.629516 1.77753e-19)
(-1.03816 0.241113 -2.73895e-19)
(1.14785 0.399796 1.51408e-20)
(-0.0019193 0.00845975 0)
(1.10256 0.775965 0)
(1.02968 -0.00959414 0)
(1.02394 -0.794319 -1.01787e-19)
(1.0565 -0.906947 4.08258e-20)
(0.954374 0.237969 -2.05592e-20)
(0.119466 0.231633 -1.11107e-18)
(1.2711 -0.522943 2.12673e-20)
(0.604018 -0.409698 -6.10679e-19)
(1.29188 0.404392 -3.81112e-20)
(0.850367 -0.219195 -1.06472e-19)
(2.10547 -0.354496 1.03704e-19)
(0.445074 0.0838272 -1.56342e-20)
(-0.328669 -0.490299 -1.21367e-19)
(1.09804 0.539408 1.94487e-19)
(-0.101057 -0.343544 0)
(0.198359 -0.43436 3.66977e-19)
(-0.0999374 -0.132871 1.22489e-23)
(1.02771 -0.043041 3.23207e-19)
(1.0252 -0.00128065 -8.30521e-21)
(1.10912 -0.0119814 -8.93663e-20)
(1.47181 0.0938496 1.02203e-20)
(1.60221 0.317635 5.88779e-20)
(0.41337 -0.388855 -3.03416e-19)
(0.822939 0.173643 3.71155e-20)
(1.03646 -0.00331045 -2.37071e-19)
(1.12955 0.28311 -1.55866e-20)
(1.44116 0.154689 0)
(1.09133 0.577748 -3.64867e-19)
(1.00261 -0.00442918 9.20583e-20)
(0.657214 0.585033 2.53905e-19)
(1.31112 -0.426916 -7.5684e-22)
(1.06475 -0.0112516 -2.9393e-20)
(1.1294 0.0114564 8.33837e-22)
(2.48201 0.0883867 1.84648e-20)
(0.405301 0.119584 0)
(1.04623 -0.0403732 0)
(1.05292 -0.0349617 5.66187e-19)
(1.00289 -0.00415969 0)
(-0.0639541 -0.0879575 0)
(0.95373 -0.587007 0)
(1.00099 -0.00131935 -5.3527e-19)
(1.17728 -0.701522 8.12902e-20)
(1.02212 -0.00377801 1.12293e-20)
(1.31699 0.937541 -2.79818e-20)
(1.49795 0.98562 1.56916e-20)
(1.14254 -0.324296 -3.21681e-20)
(1.5884 0.142904 2.58228e-19)
(1.42593 0.262203 0)
(0.020838 0.467294 0)
(2.19391 -0.112788 5.34238e-19)
(1.23234 -0.707226 0)
(0.999682 -0.00553003 -1.65798e-19)
(1.01015 -0.000519526 3.22132e-19)
(1.42916 0.139497 -6.79971e-20)
(-0.00698854 -0.122799 2.45108e-19)
(0.969598 -0.00181932 1.75173e-19)
(0.14888 0.010081 2.15979e-20)
(0.228883 -0.0834278 -1.66486e-20)
(1.56882 0.124254 1.93921e-23)
(0.926967 0.0159713 -1.76186e-19)
(1.00227 0.00382506 2.07988e-19)
(1.00011 -8.00346e-05 1.22857e-20)
(0.790287 -0.0131676 0)
(0.728758 -0.0264926 0)
(0.724101 -0.0266654 6.93355e-22)
(0.699894 -0.0282881 0)
(1.17401 -0.171195 0)
(0.448505 -0.0995645 0)
(-0.0649029 -0.0908584 4.8168e-20)
(0.178062 0.030669 -2.57034e-20)
(1.22678 0.0204731 0)
(1.2958 -0.03228 7.71064e-21)
(1.56486 0.0838347 0)
(0.00566947 0.0754657 0)
(-0.0443334 -0.00371732 0)
(0.141397 0.043685 -3.3684e-21)
(0.706807 0.14139 3.54834e-20)
(0.789161 0.0234125 0)
(0.792903 0.0205542 0)
(0.964482 0.0199293 -2.17204e-19)
(0.817344 0.00876516 4.05555e-19)
(1.00707 -0.00146129 0)
(0.999889 -0.000365219 3.84313e-19)
(1.00009 -0.00058125 -3.62017e-22)
(0.79437 0.0222485 3.44783e-19)
(0.990558 -0.0075774 -2.011e-19)
(0.119205 0.0531633 0)
(0.0410198 -0.00762311 1.66601e-20)
(1.00122 -0.00131924 -1.9427e-19)
(1.00024 0.000932059 -3.33346e-19)
(1.27652 0.0407103 0)
(0.999361 0.00176297 0)
(0.99941 0.000448985 0)
(1.51686 -0.554634 6.38138e-21)
(0.755088 -0.172884 3.08994e-20)
(0.955511 0.295833 0)
(-0.316331 0.293028 1.76726e-19)
(-0.490498 0.559943 -4.9666e-19)
(1.01927 -0.0172306 -2.58874e-19)
(-0.359127 -0.591275 -1.13365e-19)
(1.01897 -0.000611597 -2.08356e-19)
(1.1891 -0.224089 -9.76723e-20)
(0.817545 -0.494218 2.93314e-19)
(-0.0618801 -0.0880282 -8.28512e-20)
(1.02906 0.0103906 0)
(1.05081 -0.0122811 -5.65779e-20)
(0.859702 0.0236729 0)
(-0.0434674 0.0485713 2.36254e-19)
(1.13349 -0.587386 0)
(-0.482005 -0.438812 -2.86186e-19)
(0.233481 0.0556102 -1.63709e-20)
(1.62758 0.671367 -1.6244e-20)
(-0.0589465 -0.0199372 0)
(1.05624 -0.0372301 1.75059e-19)
(1.18661 -0.320281 4.06814e-21)
(0.925349 -0.0229532 2.74649e-19)
(1.01245 -0.00873636 -1.76363e-19)
(1.64504 0.84628 2.99794e-20)
(0.507374 0.474345 0)
(0.428257 0.375776 1.98835e-19)
(1.68781 -0.506674 -1.57474e-21)
(1.14413 0.120908 1.89632e-19)
(1.10787 -0.731224 0)
(1.02033 0.00187665 0)
(0.999071 -0.0185697 -4.06394e-19)
(1.01869 0.0142256 -3.95696e-19)
(-0.168828 -0.361998 0)
(1.19787 0.803703 -1.30153e-19)
(1.4783 -0.41098 8.0584e-22)
(1.01542 0.00300639 1.52389e-19)
(1.01116 0.0138947 -1.91092e-19)
(-0.564637 -0.369056 -2.80803e-20)
(1.16332 -0.173107 -9.16736e-20)
(1.01756 -0.0167656 6.50228e-19)
(1.25987 -0.272624 0)
(1.82528 0.63936 -3.76235e-20)
(1.01575 -0.014715 -2.02518e-19)
(2.05904 0.0889062 -1.46333e-19)
(1.06042 0.00602884 -4.67285e-22)
(1.00995 -0.010804 4.05184e-20)
(2.121 -0.280535 -2.94983e-19)
(1.01595 0.00521831 1.96365e-19)
(0.998561 0.207089 2.03854e-21)
(1.01832 0.000832994 0)
(0.927446 0.136982 4.83791e-20)
(-1.14607 -0.105132 6.67272e-21)
(0.998255 0.0211413 1.95089e-19)
(1.03972 0.0197011 -6.03034e-22)
(1.30204 -0.27244 -6.99501e-21)
(1.23732 0.308931 4.05617e-19)
(0.999915 0.014411 1.34059e-19)
(1.01665 -0.0157421 4.75697e-22)
(1.7079 0.259043 -2.34351e-20)
(1.74144 0.921422 -9.53017e-20)
(0.791805 -0.71156 5.64818e-20)
(0.467528 -0.353424 -2.95418e-19)
(1.00781 -0.0119056 0)
(1.0195 0.00151593 4.87899e-20)
(1.01102 -0.00976335 1.02903e-19)
(1.01984 0.0151391 6.05511e-21)
(1.0136 0.00490349 -2.04491e-19)
(1.02939 -0.0289593 2.33944e-19)
(1.00934 -0.00826734 -1.9244e-19)
(1.01542 0.00355243 -4.97626e-22)
(1.01313 0.00167495 -3.44602e-22)
(1.02438 0.0137731 1.95712e-19)
(0.89439 0.0727403 4.9678e-19)
(1.74031 0.670776 0)
(0.591607 -0.263624 2.9411e-19)
(1.01071 -0.00421349 0)
(1.02076 -0.0199057 -5.67657e-20)
(1.51689 0.445358 -8.17803e-20)
(1.95835 -0.0203692 0)
(2.32295 -0.291765 -1.21099e-19)
(1.21207 0.553153 -5.54672e-20)
(0.750387 -0.013725 0)
(1.93094 -0.153988 0)
(0.0340406 0.3417 -1.86047e-19)
(1.31231 -0.016947 -1.87711e-20)
(1.0193 -0.00703587 -2.06068e-19)
(1.13693 -0.58189 -5.82848e-20)
(1.25489 -0.152524 -2.77805e-20)
(1.34635 0.435185 0)
(1.38415 -0.55387 0)
(1.88788 0.494669 0)
(0.116037 0.422909 8.09398e-20)
(1.0924 0.124495 9.56184e-20)
(-0.27586 0.416846 0)
(-0.0649379 0.426717 -2.66136e-19)
(1.66928 0.950591 -4.40518e-20)
(1.00825 -0.00313239 -4.02718e-19)
(1.07098 0.0012728 2.389e-20)
(1.02023 0.00494913 2.66606e-19)
(0.683922 -0.0398033 0)
(-0.149905 -0.316807 -2.52144e-20)
(0.595999 0.407712 -3.34279e-19)
(1.77996 0.6187 8.94902e-20)
(0.0748533 0.515506 0)
(0.797467 0.0854393 7.55781e-20)
(0.506448 0.48292 5.07709e-20)
(1.16292 0.867284 -3.53938e-20)
(-0.0428133 -0.0328742 1.22425e-19)
(1.01851 0.00840657 0)
(1.21958 0.251157 5.3271e-20)
(1.01177 -0.00251415 1.51206e-19)
(2.37413 0.171077 0)
(1.00957 0.00771431 2.53535e-19)
(0.288051 -0.454901 -1.73729e-19)
(1.0211 0.0100159 -1.56965e-19)
(1.30268 0.25793 0)
(2.09903 -0.270281 5.58365e-22)
(1.00944 0.00539347 -1.05294e-19)
(0.995201 -0.0360763 2.77938e-19)
(1.08758 0.0879955 -2.64625e-21)
(1.07024 0.351174 -4.56893e-20)
(-0.144793 -0.0795402 3.20013e-19)
(1.94728 0.303569 1.5925e-19)
(0.517398 0.12141 5.27512e-20)
(0.803773 0.0149915 -3.80289e-19)
(0.796013 0.0241134 0)
(0.570477 -0.0531624 5.66699e-20)
(1.0215 -0.0187059 -3.05007e-20)
(0.973182 0.0170657 0)
(1.04951 -0.00150111 -1.93666e-19)
(0.172985 -0.485307 -3.44944e-20)
(-1.38765 -0.233082 2.65037e-19)
(2.18071 -0.617749 0)
(-1.18437 -0.0519386 -7.0614e-19)
(1.53789 -0.36059 0)
(1.03898 -0.0183859 5.68258e-20)
(1.11814 0.0722245 1.29738e-21)
(1.01495 -0.00266446 1.63539e-19)
(-0.949048 -0.0919799 4.28661e-19)
(1.01731 0.0042127 0)
(0.992261 0.00403115 -3.93828e-19)
(1.00811 0.00701563 2.07952e-19)
(0.812407 0.0812192 0)
(0.71249 -0.0366101 -7.88591e-21)
(0.957499 -0.00163451 -1.77838e-19)
(-0.269536 -0.601671 3.84547e-19)
(1.0056 -0.00280031 -2.02826e-19)