/*--------------------------------*- C++ -*----------------------------------*\
| =========                 |                                                 |
| \\      /  F ield         | OpenFOAM: The Open Source CFD Toolbox           |
|  \\    /   O peration     | Version:  2306                                  |
|   \\  /    A nd           | Website:  www.openfoam.com                      |
|    \\/     M anipulation  |                                                 |
\*---------------------------------------------------------------------------*/
FoamFile
{
    version     2.0;
    format      ascii;
    arch        "LSB;label=32;scalar=64";
    class       surfaceScalarField;
    location    "48.8";
    object      phi;
}
// * * * * * * * * * * * * * * * * * * * * * * * * * * * * * * * * * * * * * //

dimensions      [0 3 -1 0 0 0 0];

oriented        oriented;

internalField   nonuniform List<scalar> 
3181
(
-1.01378
0.391864
0.621916
-0.373921
0.351992
0.0219284
0.501976
-0.345432
-0.156544
0.112063
-0.187367
0.0753041
-0.0603814
0.0774722
-0.0170908
0.492882
1.40915
-1.90204
0.138805
-0.133009
-0.00579608
-0.0307513
-0.0265163
0.0572675
0.509896
-0.673185
0.163288
-0.0763251
0.126165
-0.0498396
-0.0112879
-0.0564483
0.0677362
0.111869
0.0525472
-0.164416
0.0512786
0.017335
-0.0686137
-1.09592
0.15263
0.943287
-0.316435
0.674846
-0.358411
-1.12694
0.643102
0.483834
0.0824948
-0.928433
0.845938
-0.0228243
-0.113865
0.136689
-1.18401
0.286115
-0.0101141
0.0604428
-0.0503287
0.0561505
-0.0982296
0.0420791
0.0297134
-0.0367096
0.00699622
1.06181
-1.03883
-0.0229782
0.0418508
0.0321051
-0.0739559
-0.954546
0.328353
0.626193
-0.104908
0.216971
0.301402
-0.25966
-0.0417419
0.0272053
0.0572145
-0.0844198
-0.436971
0.356188
0.0807822
-0.0341047
-0.00346989
-0.00415602
0.00762591
-0.0398939
-0.914652
0.132952
-0.0856968
-0.0472548
-0.00823665
1.42586
-1.41762
-0.0968074
0.0355912
0.0612161
0.205554
0.279233
-0.484787
1.2397
-1.24794
0.0793027
-0.0231522
1.51115
-0.939476
-0.571674
-0.455397
0.948279
0.0655684
-0.0142898
0.0170007
0.0127127
-0.392038
0.0756035
-0.104571
0.121572
-0.656766
0.130905
0.525861
-0.136443
0.0601174
-0.158917
0.162586
-0.00366943
-0.258233
-0.0751272
0.33336
0.125599
0.517871
-0.643471
0.0483884
0.0917348
-0.140123
-0.0135839
-0.110743
0.117609
-0.00686617
0.498835
0.176011
-0.0951847
0.156868
-0.061683
0.0441286
0.088823
-0.161277
0.18542
-0.0241429
0.156335
0.0527755
-0.209111
0.100238
-0.105757
0.00551955
0.906024
0.605126
-0.839039
-0.174741
-0.158541
-0.725877
0.884419
0.577111
0.235304
-0.812415
-0.473887
-0.208428
0.682315
-1.0658
0.610401
-0.27362
0.850732
-0.308592
-0.101632
0.410225
-0.222051
-0.21492
-0.18171
0.17355
0.00816013
0.157692
0.275638
-0.433331
-0.19293
0.702826
0.0677907
-0.098542
-1.0179
0.859362
0.168426
0.132975
-0.165099
-0.110233
0.275332
-0.267539
0.371135
-0.103596
-0.0731336
0.0812999
-0.00816632
-0.892304
-0.921159
0.0131404
0.908019
0.0346493
-0.131457
-1.22684
0.743856
0.482983
0.39591
-0.787336
0.391427
-0.927218
-0.138579
1.09729
-0.944656
-0.747507
1.14387
-0.200581
1.05739
0.183489
-0.17116
-0.0123284
1.39146
0.0176919
1.99958
-1.99958
-0.00876986
-0.00296574
0.0117356
-0.199087
-0.0526905
0.251778
0.0971959
-0.0687583
-0.0284377
-0.454293
0.817274
-0.362981
-0.0361169
-0.213968
0.250085
-1.08095
0.0421174
0.355616
0.0710536
-0.42667
0.128055
-0.886719
1.12202
0.0675451
0.042832
-0.110377
-0.0178841
-0.143393
-0.350595
0.788299
-0.437704
-0.827253
0.476658
0.112079
-0.998798
0.314177
-0.768469
0.92326
-0.840765
0.0278725
0.0529154
-0.0807879
0.0931554
0.056162
-0.149317
-1.30046
-0.115189
1.41565
-0.228554
0.392056
-0.163502
0.547608
0.0559549
-0.603563
-0.468816
-0.758023
0.113535
-0.0651468
-0.143726
0.138388
0.00533845
-0.0810507
-0.0199914
0.101042
-0.519598
-0.153587
0.019226
-0.0100357
-0.00919029
-0.370709
0.145266
0.225443
0.522337
-0.00446535
-0.022623
0.0138531
0.0180371
0.150389
-0.208111
0.413664
-0.0296773
0.0137304
0.0159469
0.148649
0.0745691
-0.223218
0.273751
-0.563749
0.289998
-0.595505
-0.531432
-0.221672
-0.149037
-0.0462602
0.113805
-0.0951914
0.172528
-0.0773363
0.250927
0.0230235
0.115781
-0.0554177
0.0613644
-0.00594673
-0.0875971
-0.0185045
0.106102
0.069262
-0.069262
-0.176076
0.199099
-0.431344
0.0620575
0.0981904
0.0872297
-1.19523
1.0023
-1.21674
-0.0980414
1.31478
-0.0579934
0.0437823
0.0142111
-0.0295391
-0.0574845
0.0870235
0.518283
-0.0196729
-0.49861
0.0661182
-0.0615869
-0.00453133
-0.189363
0.0132871
0.166804
0.65047
-0.352748
0.519552
-0.127372
-1.17309
-0.0867937
0.0264123
0.46669
-0.288727
-0.177963
0.111648
-0.0963408
-0.0153074
0.0467465
-0.304979
0.0215813
-0.942741
0.0472048
-0.142396
-0.270007
-0.383719
0.088304
1.38011
-0.931931
-0.448177
1.0358
0.344309
0.0644537
0.268906
-0.0651345
0.00714106
-0.345026
0.293524
0.0515019
-0.250783
-0.5987
0.849483
-0.338787
0.207454
1.38826
-1.10214
0.15372
0.02866
-0.0353412
0.00668122
-1.36271
-0.58828
1.95098
0.280293
-1.643
-0.336785
0.692402
-0.906852
-0.0148392
-0.000446795
-0.283379
0.283825
1.24024
-1.43533
0.195085
-0.0819859
-0.00480781
0.582308
-0.833091
-0.414243
-0.0847857
0.499028
-0.30989
-0.126088
0.435978
0.18238
-1.00802
-0.0729298
-0.0270111
-0.0233176
-0.5877
0.379272
-0.266183
0.0219218
0.244261
-0.0246659
-0.0573201
-0.027231
0.027231
-0.130564
0.143641
-0.013077
-0.0292285
-1.18751
-0.0125102
-0.0265231
0.0390333
-0.185178
0.120698
0.0644803
-0.233896
0.0521864
0.958804
0.140854
-1.09966
-0.174577
0.428899
-0.254321
-0.0315264
0.0272344
0.00429191
0.889852
-0.342244
-0.2084
-0.00302516
0.211425
-0.162193
0.319885
-0.112863
0.110982
0.00188053
0.0736188
0.0674553
-0.141074
-0.083672
0.108944
-0.0252722
-0.911162
-0.39912
1.31028
-0.209723
-0.0481569
0.25788
-0.681347
0.661516
0.0198315
-0.0135526
0.0456577
0.045295
-0.0468584
0.00156335
-0.0235513
-0.0504046
0.438248
0.0840888
0.171598
-0.892823
0.721225
-0.138543
1.12947
-0.990928
0.365057
0.91312
1.08646
0.075817
0.219762
-0.0711128
-0.079283
-0.03146
0.222641
0.170872
-0.077717
0.733085
-0.404732
0.0584647
0.193313
0.0584245
-0.178656
0.120231
-0.747055
-0.125893
0.872948
0.0215008
-0.0215008
-0.0578243
-0.304966
0.584199
0.0115396
-0.221263
-0.169808
0.0559429
0.0360438
-0.082304
0.147383
-0.158671
-0.347258
0.311141
0.0537429
-0.0447488
-0.00899405
0.377094
-0.324547
0.144986
-0.0866545
-0.0583311
-0.196385
0.260839
0.180779
-0.469505
-0.202587
0.594451
0.156655
-0.0294694
0.0294694
-0.804459
0.169767
0.634692
0.363786
0.0282704
0.0644627
-0.0689554
0.0044927
-0.0972913
0.0147393
0.00448676
-0.0526438
0.200027
-0.193488
0.260078
-0.0665895
0.141619
0.0292535
-0.38129
0.121631
0.206234
-0.0646154
-0.0503371
-0.0625257
0.051624
-0.0794682
0.0278442
0.137568
-0.0982539
-0.0393146
-0.0336269
0.416649
-0.383022
0.0903622
-0.0225715
0.115605
-0.120486
0.00488094
0.0262739
0.646039
-0.501053
-0.0403006
0.0987399
-0.0584393
-0.0431308
0.19889
-0.155759
-0.101311
0.0953013
-0.719984
0.624683
0.0530582
-1.45066
-0.430531
1.88119
-0.891723
1.17744
-0.285716
0.0760947
-0.0356975
-0.528051
0.288933
0.269795
-0.558728
-0.214727
0.273152
0.129546
-0.865629
0.736083
-0.154894
0.111763
-0.0337464
0.00673529
-0.982183
0.43999
0.542194
0.931931
-0.819852
-1.57116
1.45597
-1.24024
1.1422
0.0368142
-0.0984972
0.00997268
0.0353224
-0.0469179
0.772534
-0.642988
0.112644
-0.0654397
0.411399
0.732469
-0.0839647
-0.958866
0.820323
-0.651872
-0.543358
-0.246015
-0.410751
0.0760724
-0.157073
0.203819
-0.570785
-0.353858
0.179281
0.746078
-0.227795
-0.834501
-0.736661
0.753905
-0.0815472
-0.0733464
0.265397
0.0331873
-0.0331873
0.667579
0.152519
-0.820098
-0.228799
0.896378
1.01199
-0.565058
-0.446937
0.0958662
-0.0338087
0.00731369
0.00442997
-0.0117437
-0.725877
-0.132108
0.127643
0.359991
0.598813
-0.0330496
-0.125867
-0.23376
0.732595
-0.211475
-0.0547081
-0.00260527
-0.0705284
-0.0600727
0.116235
0.39182
-0.260915
-0.779244
-0.301166
-0.222593
0.0244907
0.198103
-1.0438
1.95692
-0.138721
0.225221
-0.0864992
-0.0260884
-0.0390461
-0.00544526
0.0283565
-0.0229112
0.00988973
0.400335
0.0745862
0.037062
0.0186026
0.0194587
-0.0380614
-0.023153
-0.185247
-0.747582
0.385866
0.361716
0.388183
-1.03303
0.64485
0.149943
-0.174476
0.0245334
-0.0022937
0.115829
-0.271327
-1.72825
0.00170036
-0.00714561
-0.101002
0.0358551
0.16718
-0.375291
-0.261431
-0.0647157
0.326146
0.0393716
0.0866138
0.0509546
-0.747055
-1.67935
0.768192
-0.0200878
0.0484443
0.0486025
-0.641329
-0.0400184
0.0653671
0.140867
0.490732
0.0204775
-0.453808
0.114435
0.379397
-0.308344
-0.105042
0.0174452
0.223023
0.842592
-1.06561
0.105392
-0.704949
0.599557
-0.909409
0.783516
-1.10728
-0.340686
1.44796
0.0424102
-0.0448339
0.00242368
0.180484
-0.490373
0.27408
-0.164961
-0.109119
0.0814112
0.117479
0.0144285
-0.237022
-0.00573015
0.0172804
-0.0408318
0.0203042
0.0926575
-0.112962
0.120272
0.00500716
-0.00547099
0.00046383
-0.0765513
0.0539798
0.866125
0.0536496
-0.0584574
0.369562
-0.50167
0.111391
-0.0155248
0.00670075
0.0799131
-1.44796
1.72825
0.332446
-0.0235455
-0.3089
-0.268476
0.0973157
0.121649
-0.133978
-0.00111262
0.0824126
0.0396019
-0.659971
0.39854
-0.0547218
0.075026
0.743157
-0.259322
-0.123589
-0.0615893
0.34553
0.00514807
0.0593146
-0.00736219
0.0766242
0.14181
0.229325
0.16095
-0.350008
0.189058
0.102956
0.547514
-0.0264664
-0.109976
0.888887
-0.237615
-0.651272
-1.10728
-0.291316
0.679499
1.2397
0.0352692
0.250337
-0.285606
0.469472
-0.0373803
-0.432092
0.465377
-1.39259
-0.083422
0.0848481
-0.00142615
0.19947
0.105693
-0.305163
0.478602
-0.877434
0.398832
0.0402676
0.663488
-0.703756
-0.0420261
-0.1017
-0.104557
0.0642563
-0.608986
-0.195473
0.0405201
0.00189006
-0.0456092
0.0505453
-0.00493609
-0.0752807
-0.269745
0.0167066
-0.042795
0.185621
-0.132705
-0.040586
-0.00627239
0.205999
-0.419967
0.716744
0.460695
-0.0124926
-0.00900819
-0.988611
-0.0194111
0.307952
-0.0667057
-0.0383366
-0.464379
0.0501368
-0.352916
0.128031
0.224885
-0.0781978
0.189589
-0.933556
-0.0111003
0.0184017
-0.650923
0.746224
-0.0161811
0.172836
-0.744373
0.179315
0.188703
-0.425873
0.23717
0.163502
-0.149772
-0.00703814
0.00468648
0.00235167
0.0118012
-0.0954732
-0.0190991
-0.124294
0.739723
-0.634332
0.00720596
-0.0743201
-0.214002
0.329331
-0.16838
0.383948
1.35588
-0.413488
-0.942387
-0.130951
0.152872
-0.515982
-0.2316
-0.551452
0.58658
-0.569947
-0.0166324
-0.046074
0.05328
-0.958866
0.554617
-0.554617
-1.6283
1.6283
0.772534
1.08663
-0.834311
-0.25232
-0.898609
-0.0900013
0.678543
-0.368772
-0.309772
0.14785
-0.225186
-0.0166742
-0.00594877
-0.916372
-0.082426
-0.933897
0.213913
0.0765804
-0.0520896
0.69859
-0.102068
-0.596522
0.745691
0.494007
-0.0137887
0.00675059
-0.956534
-0.183986
0.0973318
-0.160083
-0.572731
0.732814
0.00900911
-0.817451
-0.617875
0.22121
-0.816715
-0.872948
1.29019
-0.417247
-0.134441
0.268745
-0.134304
-0.0345798
0.73317
-0.105389
-0.951798
0.951798
-0.807149
-0.147965
0.955113
-0.000764896
0.00577206
0.0329705
-0.458574
0.958918
-0.215062
-0.0933041
-0.030582
-0.0487071
-0.0221229
-0.00940343
0.926254
-1.26694
-0.427428
0.501047
-0.673846
1.0513
-0.377453
0.031358
-0.0296576
0.135992
-0.0614227
0.338397
-0.0148854
0.0322205
0.361911
0.0547379
0.0494355
-0.269443
0.220008
0.130811
0.0317747
0.106453
0.199378
1.02302
-0.163654
0.275723
1.40069
-1.67641
-1.53065
0.942367
0.482448
-0.360876
0.0712358
-0.764124
0.692888
1.36235
0.110199
-0.457457
-0.0741711
0.124951
-0.0507798
0.116799
-0.19097
-0.476355
-0.111345
-0.0806075
0.0842411
-0.0036336
-0.00489986
-0.0356861
0.303722
-0.214899
0.642988
-0.599557
-0.0434311
-0.278796
0.290335
0.88286
0.829692
-0.36022
0.0087013
-0.0352244
-0.567762
0.482977
0.160927
-0.558454
0.397528
0.001198
0.00348848
0.687098
0.000679607
-0.687777
0.0191563
-0.0267004
0.00754415
-0.0395536
0.0324307
0.00712294
-1.92877
1.94646
-0.155251
-1.29541
-0.20656
-0.819852
1.1422
1.45597
-0.182662
-0.163026
0.114869
-0.0711642
0.0778769
-0.00671276
-0.281117
1.53921
-1.25809
0.544772
0.133771
-0.0139743
0.0151723
0.132727
-0.286387
0.030582
-0.0594786
0.0047568
-0.113634
-0.454129
-0.0535757
0.0896195
-0.227581
0.604676
1.0358
-0.644684
-0.0552825
0.000823144
0.0544593
1.78355
-0.327576
-0.0564301
-0.0493271
-0.992117
0.172265
0.404136
-0.221756
-0.491612
-0.139852
0.631463
0.835084
-0.372697
-0.462387
-0.530756
0.177839
-0.820323
0.094446
-0.0140455
-0.0400416
0.0540871
0.331613
0.797858
-0.158963
0.166277
0.459765
1.4265
-0.284303
-0.673673
0.0459839
0.627689
0.387436
0.0128033
-0.360813
0.512318
0.782843
-1.06995
0.0702286
-0.019274
-0.132571
-0.0944581
0.227029
0.691604
0.0684792
-0.0498766
-0.0473979
-0.378245
0.117565
-0.332292
1.02052
0.335355
0.0140144
-0.0600885
0.306111
-0.270842
-0.0288603
0.0153078
0.10449
-0.138819
0.0343296
-0.285425
0.297282
-0.0118568
0.450203
-0.863691
-0.412512
-0.76936
1.18187
0.21498
-0.190081
-0.0248996
0.288407
0.0409239
-0.659244
-1.02011
-0.665738
0.665738
0.884419
0.745691
-0.704949
0.311062
0.471781
0.143861
0.490832
0.985745
-0.440973
0.00922599
-0.880941
0.871715
0.117485
0.00867928
0.0246505
-1.82774
1.16849
0.0296623
-0.165954
-0.112333
0.278287
-0.222857
-0.490182
0.324228
-0.968705
-0.30879
-0.656512
0.0161221
-0.00486985
-0.000601144
-0.232443
-0.00595853
0.204061
0.0326599
-0.159433
0.126773
-0.0511929
-0.755956
-0.00498699
0.0622015
-1.16428
1.0849
0.0793826
-0.541635
0.363672
-0.145451
0.100702
0.224036
-0.0108601
-0.0228863
-0.724186
0.86504
0.037786
0.0778193
-0.142618
-0.0713843
0.258099
0.0159808
-0.437501
1.67966
0.467636
-0.427048
0.864445
-0.793209
0.818808
-0.473279
-0.637837
0.179263
0.162318
-0.800736
0.777375
0.0233609
1.49152
-0.471001
-0.279058
-0.14837
-0.0830507
0.0142925
0.947418
-0.837824
-0.109594
-0.198821
0.121103
0.0256156
0.112772
0.874488
1.32446
-0.313757
-1.0107
-0.31459
-0.0392678
-0.736747
-0.427531
0.137098
1.27855
0.423887
0.321804
0.162755
0.549345
-0.7121
0.475483
0.0561865
-0.0192506
0.00839046
-0.532724
-0.105114
0.0707628
-0.0954287
-0.20141
0.148767
-0.509785
0.255464
-0.992923
-1.11543
-0.301315
-1.15553
1.15367
0.161109
-0.298336
-0.672316
0.558682
-0.137206
0.318128
0.0437834
1.27357
-0.794965
-0.205066
0.140451
0.515864
-0.937176
0.421312
-0.0262911
0.0122455
0.054534
-0.060234
-0.225191
-0.105257
0.698002
-0.42447
-0.273532
-0.422358
0.123696
-0.089639
-0.034057
0.249068
0.0690595
0.46678
-0.752496
-0.104407
0.15301
0.835753
0.488704
-0.0216774
-0.134082
-0.0279637
0.0102003
0.0177635
-0.0232831
0.0670653
-0.256986
0.0783302
-0.0604857
-0.532714
0.398273
0.0243286
0.00100215
0.213978
-0.700769
1.68182
-1.34646
0.0168652
-0.207137
0.190271
-0.14484
-0.526613
0.671453
0.0662726
-0.707602
-1.3418
0.929289
0.0235229
0.000402877
-0.0239258
-0.235703
-0.58658
-0.160475
-0.125887
-0.132571
-0.247796
0.176683
-0.42833
-0.992425
-0.111044
0.475264
-0.36422
0.251452
0.104478
0.216908
0.722027
-0.938936
-0.154715
0.0731677
1.29087
-0.0219172
-1.26895
-0.21629
-0.652439
1.59481
-0.258857
0.192268
-1.32632
0.673879
0.180242
0.608057
0.0282747
-0.0751926
-0.0740899
1.28067
-1.70772
0.744107
0.0909774
-0.474115
-0.185856
0.341011
0.644734
0.891685
-0.00279853
-0.0203973
-0.423887
-0.656512
-0.71056
0.723701
-0.141616
-0.834501
0.663488
0.594883
-0.927826
0.427336
-0.00370426
-0.797032
-0.315674
0.63778
-0.763152
0.125372
0.074706
0.04899
0.588064
-0.00536551
0.422039
-0.416674
0.000249402
-0.00511925
-0.282487
0.227779
0.704053
0.210638
-0.197351
-0.170388
0.274821
-0.129555
-0.521226
0.268905
0.118116
1.43077
-1.54889
-0.696988
0.60253
1.12985
-0.0449504
0.112442
0.221664
-0.227029
-0.0113461
0.229418
0.0724172
0.234166
0.0737859
0.0336581
-0.0246298
-0.0090283
-1.03033
-0.0352836
0.308615
-0.809121
0.443919
1.11182
-1.55574
0.393812
0.657487
-0.0438688
0.0466598
-0.00279106
0.100299
0.174522
-0.717168
0.135652
1.09157
-0.647654
0.333396
-0.103978
-0.581984
-0.410939
-1.80559
1.92371
-0.0557157
-0.884645
-1.24355
0.252622
0.221664
0.0506299
-0.859751
0.831952
-0.647653
-0.1843
-0.98197
0.399985
-0.00541629
0.106188
-0.000540771
-0.105647
-0.971484
0.560546
-0.20294
0.910674
-0.921774
0.204178
-0.227331
-0.100092
0.267273
1.51015
0.233433
-0.0963127
-1.44492
0.502534
0.209147
-1.2791
-0.551837
-0.519199
1.07104
0.448163
0.0152972
-0.0108672
-0.739039
0.703756
0.32806
-0.22776
-1.08646
0.475455
0.611006
-0.377252
1.48907
0.771365
-0.80547
-0.49427
-0.448471
-0.472653
-0.498832
0.804634
-0.804634
0.688409
-0.688409
-0.739039
-0.336876
0.336876
-0.475455
-0.599628
0.370179
-1.29709
-0.680681
0.680681
0.32806
-0.22776
0.771365
0.763353
-0.763353
0.80547
0.758113
-0.758113
0.50573
0.527347
0.480801
-0.352622
-0.501168
-0.551529
1.07888
0.391559
-2.25258
0.44699
-0.295426
1.42527
0.00609657
-0.0145981
0.0682477
-0.886237
0.0907302
0.795507
0.0431716
0.0329008
-0.993311
0.588579
0.88888
-0.577818
-0.122157
-0.0306227
-0.00397784
-0.815999
-0.0768233
-0.542194
-0.0124418
0.0191771
-1.11717
-0.0550034
0.103448
0.215427
0.00109654
-0.0218757
0.0207791
-0.814046
0.0680748
0.745971
1.69075
-0.180601
-0.527478
0.427455
0.100023
0.917439
-0.746692
-0.170747
0.104422
0.309243
-0.014924
-0.0656836
-0.0695271
-0.0138949
0.961712
-2.00551
-0.864309
0.0943414
-0.745607
0.796533
-0.0509259
0.11892
-0.900574
0.781654
-0.804011
0.901021
-0.0970102
0.060297
-0.0835801
0.025182
-0.308561
-0.18566
2.10937
-0.0912976
-0.79494
0.913604
-0.0874727
-0.826131
0.096058
-0.0647001
1.39533
0.826142
-2.0877
0.531392
-0.397621
0.0979945
-0.892934
1.24794
0.380362
-0.797531
0.000499047
1.01766
-0.898744
1.1394
0.741506
0.00621568
-0.747722
-0.881034
-0.112277
-0.430259
0.0472369
0.36808
-0.143195
-0.782764
0.782764
-0.633152
-0.0820456
-0.864068
0.117376
-1.0018
0.841713
0.0657631
-0.230724
-0.0530955
0.0496049
0.0117595
0.18455
0.833114
0.818975
0.775558
0.13419
-0.909748
0.407285
1.01799
-0.783094
-0.101917
0.885012
0.165101
-0.882269
-0.679518
0.885607
-0.787612
-0.102799
0.463359
-0.00632306
-0.457036
0.362265
0.916697
-1.27896
0.449128
-0.688396
0.239268
-0.885893
-0.830729
0.0851224
0.519759
0.299049
-0.800159
1.64294
-0.587089
0.587089
-0.843036
-0.601886
-0.646588
1.81508
-1.5071
0.737741
0.783689
-0.191218
1.7768
0.169661
0.412924
-0.280932
-0.131992
0.175477
-1.20851
0.107423
1.14879
-0.862388
1.63058
-0.141661
0.343009
-0.238587
0.782025
-0.879036
-0.732542
1.75053
-0.146691
0.73527
0.588915
-0.588915
0.0269183
-0.0659644
0.120406
-0.0877458
0.888608
0.0280892
0.039817
-0.00543016
0.00982376
-0.0043936
-0.674929
0.693813
-0.0188836
0.431275
-0.425059
0.103868
-0.89148
-0.819359
0.775913
0.0434455
0.228208
0.87442
-0.0451177
0.476393
-0.75729
0.612537
-0.652555
-0.677744
0.161762
-0.0121353
0.0311336
0.387245
-0.61138
0.599244
0.00182546
-0.792672
0.0651259
0.731407
0.689954
-0.077417
0.0737848
0.79234
-1.14747
0.930175
0.217297
-0.156452
0.505013
0.115283
-0.914821
0.699907
0.214914
-0.685781
-0.130934
0.943609
0.644267
-0.83974
-0.0352224
0.485735
0.514265
-0.771881
-0.107155
-0.348651
-0.325529
-1.33517
-0.0164603
0.401122
0.598878
0.0408662
0.0131136
-0.859353
-0.0573093
-0.595246
-0.15267
-0.236889
0.389559
0.0399226
-0.000320714
0.121569
0.0784583
-0.129627
-0.127359
0.762143
-0.648413
0.722198
0.432317
-1.0437
0.715155
0.696083
-1.41124
-0.744256
-0.188009
0.932265
-0.229435
0.219033
-0.0257204
-0.0590559
0.00173589
-0.0333122
0.720273
-0.133184
0.108917
0.11512
-0.736706
0.0617764
0.996348
-0.193428
-0.144364
0.0860324
0.952693
-0.283897
1.01637
-0.00519036
0.17576
0.284005
0.0343755
-0.0584756
0.00323395
-0.282796
1.27914
-1.4734
0.815507
0.657895
0.847265
-0.0521879
0.0232357
0.0289521
0.138434
0.0414893
-0.00096921
0.205826
-0.101336
-0.674655
-0.832446
-0.791745
-0.681657
0.00697596
0.258685
1.51159
-1.11714
1.02494
0.092203
-0.773495
0.826033
-0.0525386
0.838835
-0.513806
0.694048
-0.0832236
0.605812
-0.468467
-0.059011
0.27211
0.440359
0.181004
-0.621363
0.38292
0.0320894
0.661724
-0.572927
0.575093
-0.00216542
1.47044
-1.60764
-0.040073
0.0503559
-0.0102829
0.700574
-0.00982571
-0.0836158
0.0179069
0.274594
-0.456344
1.29518
0.0722925
-0.262041
0.07196
0.0190675
0.0894874
-0.108555
0.0142675
0.0193906
1.14067
-1.16258
0.0493462
0.209207
-0.0239506
-0.0799123
0.239126
0.0947435
0.00227325
0.0568545
0.7657
-0.972774
0.36543
0.607344
0.71274
-1.27389
0.561154
0.638024
0.117297
-0.0557901
-0.0114977
0.0672879
-0.292909
0.471097
-0.752029
-0.00964343
0.763549
0.723051
-0.237284
0.469228
0.118836
0.803125
0.268541
0.115406
-0.899888
0.171017
-0.272616
0.324865
-0.167656
0.696431
0.0692684
0.0153512
0.0588061
-0.572612
-0.565172
0.165656
0.0110152
-0.109245
0.420113
-0.0605431
0.853938
-0.0623733
0.0790244
1.43093
-0.718188
-0.148536
0.428368
-0.0263533
-0.108387
-0.045982
-0.00259646
0.0485785
-1.60721
-0.000435055
-0.00529883
0.869368
-0.224785
-0.626103
0.657016
-0.030913
-0.145276
0.758208
-0.868439
-0.542799
0.0917006
-0.191793
0.638385
0.119823
0.781589
1.17533
-0.256763
0.788155
0.597403
0.681741
-0.586919
0.352495
0.234424
-1.5501
-0.0720476
0.0395764
0.0726661
-0.05275
1.06713
0.732401
0.0707244
0.635747
0.213737
-0.877669
-0.083963
-0.682069
0.682568
-0.0289117
-0.560061
0.407391
0.857773
0.670475
-0.0609141
-0.0132019
-0.135119
-0.322338
1.37377
0.308045
-0.615999
0.0312008
1.1154
-0.433658
0.640591
-0.415149
-0.0847843
0.5726
-0.726502
0.918002
-0.1915
-0.414549
-0.17237
-0.0553804
-0.174608
0.0500092
0.822034
0.0263908
-0.00693206
0.627144
-0.10098
0.187013
0.613165
-0.130853
0.221487
0.67945
0.329945
-1.00939
0.275891
-0.923544
0.0730915
-1.41955
-0.164688
0.750976
-0.586289
-0.677408
-0.089068
0.0300121
-0.0583699
-1.62232
0.00544941
-0.0334131
0.0266622
-0.18434
-0.133572
0.317912
0.076142
-0.570785
0.307929
-0.132169
-1.10349
-0.00904958
0.0101461
0.67918
-0.0575244
-0.602639
0.0297112
0.565857
0.291916
0.964167
0.917021
-0.22959
-0.387995
0.617584
0.615381
-0.620335
0.620335
-0.0798779
-0.974679
1.05456
0.0338437
-0.164794
0.669736
-0.103879
-0.217407
-0.140456
-0.699284
1.10792
-0.11522
-0.408222
0.191365
-0.103061
-0.403815
0.484265
0.0908275
0.0761475
0.00315513
-0.886705
-0.400902
-0.220846
0.69318
0.30682
-0.400902
0.69318
-0.833005
-0.78633
-0.833005
-0.696582
0.696582
0.303418
-0.0130951
0.342327
-0.0821743
0.267549
0.0820203
-0.53582
0.637671
-0.0245053
0.644139
-0.505048
-0.13909
-0.0455976
0.041178
0.00441961
-0.0237145
0.0182843
1.04461
0.0171331
0.0410547
-0.436582
-0.373076
0.140633
0.0401288
0.825831
-0.276487
0.133737
0.424945
-0.0674248
-0.0557669
-0.00686291
0.692356
0.0711929
0.114328
-0.0370547
-0.00100669
-0.0140232
0.0818874
0.551425
-0.480915
-0.0705103
1.7339
0.560254
-0.137029
0.913571
0.0129658
-0.0704503
0.116244
-0.0174888
0.0320633
1.12164
-0.442186
-0.00522119
0.0213433
0.899331
0.187836
0.0174507
-0.0174507
0.0250856
-0.0250856
-0.027969
0.027969
-0.0124926
0.368317
0.461739
-0.0763611
-0.688289
0.460494
0.17862
0.027206
-0.0902189
-0.483389
0.704943
0.11378
-0.799561
-0.298587
0.477902
0.108205
0.0248733
0.0075574
0.00822746
-0.00822746
0.103058
0.00782458
-0.00782458
0.702179
0.10775
-0.0267832
-0.0102715
0.00588894
-0.0611714
-0.019185
0.019185
-0.020407
0.020407
-0.0260124
0.0260124
0.00707644
-0.00707644
0.0217061
-0.304016
-0.0755291
0.21686
0.00896637
-0.00896637
-0.379056
0.497303
-0.118248
0.479679
-0.210934
-0.368486
0.502223
0.558088
-0.364667
0.0833629
0.573653
0.56682
0.017214
-0.017214
0.808376
0.0291584
-0.0291584
0.0123619
-0.0123619
0.775719
-0.194155
0.0539929
0.487803
-0.487124
-0.0204221
0.0204221
0.0237543
-0.0237543
0.0210595
-0.0210595
0.0195748
-0.0195748
-0.0272463
0.0272463
0.0400753
-0.0400753
0.499077
-0.0364107
0.0364107
0.0213913
-0.0213913
0.0277723
-0.0277723
-0.0138835
0.0138835
-0.0126826
0.0126826
0.000419367
-0.0305845
0.0305845
0.214498
-0.0737671
-0.0449562
0.0449562
0.0123202
-0.0123202
0.0293046
-0.0293046
0.0382912
-0.0382912
0.0225425
-0.0225425
-0.0178256
0.0178256
-0.0086238
0.0086238
-1.56499
0.66792
-0.0185926
0.0185926
0.0189676
-0.0189676
-0.0434924
0.0434924
-0.0248693
0.0248693
0.00459247
-0.00459247
-0.387616
0.728627
0.24188
-0.0366263
0.0366263
0.0285765
-0.0250205
0.0250205
0.0152148
-0.0152148
0.0331943
-0.0331943
-0.334192
0.449598
0.0105929
-0.0105929
-0.0190008
0.0190008
-0.474462
0.0406619
-0.793403
-0.0276748
0.0276748
-0.433455
0.0298664
0.0167934
0.181335
-0.65545
-0.0420968
0.0420968
-0.214575
0.154032
-0.0374874
0.0109229
-0.0109229
-0.0168097
0.0588888
0.264836
-0.321369
-0.261245
0.582614
0.174965
-0.0123837
0.0123837
-0.16824
0.583866
-0.415626
0.748141
-0.375368
-0.372773
-0.483358
-0.655778
0.528739
-0.103794
0.511681
-0.668133
-0.573654
-0.0566618
0.189687
-0.353489
0.0203288
-0.0203288
0.00515406
-0.00515406
0.0353283
-0.0353283
0.0234952
-0.0234952
-0.00196049
0.00196049
0.00166558
-0.00166558
-0.770154
-0.0171824
0.159507
-0.281664
0.00279049
-0.00279049
-0.0406283
0.0406283
-0.0462426
0.0462426
0.244212
-0.198853
-0.0453592
0.0156882
0.296161
-0.520946
-0.00371267
0.00371267
-0.0297147
0.0297147
-0.10409
0.0953288
0.43341
-0.000686091
0.000686091
-0.0121586
0.00855671
0.950973
-0.4911
-0.0922751
0.583376
-0.620005
0.0334224
0.334658
-0.0348322
0.0348322
-0.675158
0.266031
0.0575667
-0.0575667
-0.686485
0.376714
0.250911
0.11629
-0.00141561
0.00141561
-0.837901
-0.000814472
0.000814472
0.322941
0.410229
0.0705724
-0.06263
0.06263
-0.00304308
0.00304308
-0.0486709
0.0486709
-0.0489134
0.0489134
-0.0012783
0.0012783
-0.0542518
0.0542518
-0.00261838
0.00261838
-0.0525792
0.0525792
-0.0121924
-0.0411568
0.0411568
0.00691808
-0.00691808
0.0556816
-0.0556816
-0.00501434
0.00501434
0.0427692
-0.0427692
0.141291
-0.00806294
0.00806294
-0.00965611
0.00965611
-0.0327755
0.0766242
-0.0172003
0.0172003
0.00517379
-0.00517379
-0.0700453
0.0700453
0.34084
-0.0243232
0.0243232
-0.0526736
0.0526736
-0.00687977
0.00687977
-0.0799809
0.0799809
-0.0122844
0.0122844
-0.0967295
0.0967295
-0.026434
0.026434
-0.0870032
0.0870032
-0.702547
0.379183
-0.542772
0.511859
-0.817451
-0.325854
-0.540317
0.372661
0.259253
-0.681611
0.00474138
-0.00474138
0.0108847
-0.696737
0.0513737
-0.0482185
-0.666331
1.16034
0.787147
0.24279
0.0183017
0.12921
-0.378084
-0.595191
-0.0540542
0.391389
-0.847036
-0.0284337
0.0284337
-0.728405
0.0146199
-0.0146199
-0.00699859
0.00699859
0.400539
-0.344433
-0.00395234
0.00395234
0.0166536
0.0128158
0.600174
-0.0912265
-0.000478766
-0.0173426
-0.00305472
-0.107413
0.513136
-0.405723
0.477281
-0.369858
0.00516036
1.06838
0.00185582
0.0395721
-0.412437
0.459674
-0.504713
-0.9484
-0.224685
-0.0799523
0.0198796
-0.262692
-0.425704
-0.0190439
-0.0081049
-0.0107582
0.794244
-0.533861
-0.0476569
0.0586721
-0.0401482
0.209036
0.133291
0.414371
0.247145
-0.161788
0.200548
0.0927316
-0.0252763
-1.34077
0.0235728
0.277045
-0.410617
-0.0163939
-1.34453
-0.0741244
0.273108
-0.356691
0.411429
-0.221349
-0.934181
0.0590395
-0.0688905
0.00419039
-0.357104
0.457127
-0.00803481
-0.017136
0.0251708
-0.0314059
0.0314059
0.109274
-0.469494
0.0490284
0.0716693
-0.0897778
0.0608661
-0.0582842
-0.00407979
0.062364
-0.0437234
-0.171113
-0.0178287
-0.170144
-0.282405
-0.337894
0.620299
0.0177104
0.0671377
0.148976
-0.0400596
-0.046746
0.0731715
-0.16694
0.329259
-0.0102696
0.0392217
-0.0159159
0.164892
0.00732276
0.276503
0.00584627
-0.00584627
0.229293
0.411299
0.099032
-0.182995
-0.0127613
0.0217704
-0.411246
0.887638
0.0447565
-0.0175255
-0.536678
-0.00609475
-0.73591
0.102983
-0.717554
0.276581
-0.0550969
0.362802
-0.645207
0.202994
0.496913
-0.110698
0.110698
-0.000540771
-0.737546
1.14627
-0.408729
-0.226364
0.167994
0.520474
-0.321174
-0.542518
-0.100561
-0.040568
0.0505407
0.928862
0.0811779
-0.142092
-0.0723316
0.344657
-0.992311
0.0075945
-0.262198
0.774516
0.555301
-0.25914
-0.292638
0.551323
-0.189123
0.43946
-0.265482
-0.0468513
-0.455388
0.337141
0.114209
-0.114209
0.0769253
-0.028989
-0.0479363
-0.00426517
0.00161008
0.0102003
-0.783203
0.490294
0.213813
-0.185254
-0.0285581
0.52746
-1.06006
-0.0481335
-0.453536
0.683305
-0.107119
-0.174545
-0.025161
-0.0800962
-0.499953
0.0633711
-0.305138
-0.000748138
-0.0163939
0.408772
-0.00549893
0.00133566
0.00188992
0.0282936
-0.0157555
-0.0125381
-0.097016
-0.0286856
-0.1874
0.216086
-0.111527
-0.343861
0.0166536
0.351775
0.00294849
-0.392854
0.0915385
0.00314595
0.00894115
-0.0853023
-0.0130582
0.0130582
-0.00155015
0.00334728
-0.00832509
0.00339554
-0.0298973
0.000389856
-0.00123387
0.292707
-0.24257
-0.00377067
0.00377067
-0.0608745
0.49926
0.00181441
-0.280899
0.750532
1.18377
-0.468631
0.317132
-0.441342
-0.119059
0.168088
0.211786
-0.215506
0.0150418
-0.0390257
0.00571354
-0.00483175
-0.176646
-0.370277
0.830771
0.0199437
-0.790098
0.28793
-0.00178401
0.0765705
0.151637
0.00126621
-0.00632521
-0.0327005
-1.15883
0.00146374
-0.000574031
0.734231
-0.66106
-0.252221
0.0150993
1.06757
-0.00375279
0.00196913
-0.0374874
-0.00513226
0.817684
-0.433845
0.524673
-0.546374
0.905698
-0.80279
0.555073
-0.182412
0.722441
0.00149982
0.00211078
0.0227625
-0.0689547
0.135653
-0.357363
0.00856239
0.0186417
0.0720674
-0.0587712
-0.0132962
0.00179078
-0.00424484
0.0380131
-0.0337682
-0.127049
0.00909618
0.000727582
0.00314742
0.52467
-0.43994
0.000410054
0.000879797
0.626453
0.519822
0.370845
-0.00676841
-0.00576885
0.0254124
0.0239338
-0.0502228
-0.0963143
-0.0106703
-0.00414586
0.136064
0.0490515
-0.00283077
0.393285
0.0016252
0.0115004
-0.0115004
-0.00502368
-0.0123189
0.000830004
-0.322075
-0.00415957
0.0802551
-0.108053
-0.152324
-0.0640261
-0.0649332
0.000922182
0.00159318
0.443653
0.000544881
-0.00347064
-0.0519098
-0.00242828
0.00125381
-0.40921
0.449027
-0.709631
0.453936
-0.824213
-0.330375
-0.002357
-0.597673
0.290184
-0.431845
0.568573
-0.0140812
0.139099
-0.00506327
-0.00188507
-0.555335
-0.00390827
-0.00134008
0.0140365
0.908484
-0.525564
-0.00310245
-0.00239596
-0.00741529
-0.00304859
0.109729
-0.0198823
0.0198823
-0.0437352
0.0470825
-0.00170597
-0.00993563
0.0530583
-0.0517226
-0.176712
0.104665
-0.00540466
-0.0167486
0.0352313
-0.0190862
0.0698432
-0.0499636
-0.626341
0.575415
0.0368222
-0.000432407
0.295679
-0.216655
-0.0619834
-0.656873
-0.0653093
-0.106563
-0.104429
0.102
0.715578
0.00115232
0.0268285
-0.0248594
0.0680705
0.0696727
-0.141135
0.0714628
-0.0689627
-0.615405
0.834583
-0.531007
0.0223625