/*--------------------------------*- C++ -*----------------------------------*\
| =========                 |                                                 |
| \\      /  F ield         | OpenFOAM: The Open Source CFD Toolbox           |
|  \\    /   O peration     | Version:  2306                                  |
|   \\  /    A nd           | Website:  www.openfoam.com                      |
|    \\/     M anipulation  |                                                 |
\*---------------------------------------------------------------------------*/
FoamFile
{
    version     2.0;
    format      ascii;
    arch        "LSB;label=32;scalar=64";
    class       surfaceScalarField;
    location    "30.2";
    object      phi;
}
// * * * * * * * * * * * * * * * * * * * * * * * * * * * * * * * * * * * * * //

dimensions      [0 3 -1 0 0 0 0];

oriented        oriented;

internalField   nonuniform List<scalar> 
3181
(
-1.02757
0.396662
0.63091
-0.390166
0.365883
0.0242836
0.521806
-0.359046
-0.16276
0.119419
-0.198428
0.079009
-0.0123522
0.0345145
-0.0221622
0.956713
0.666133
-1.62285
0.14852
-0.142198
-0.00632164
0.0203614
0.00546699
-0.0258284
0.573073
-0.79815
0.225077
-0.0758112
0.135139
-0.0593274
-0.0103788
-0.0516847
0.0620635
0.13266
0.044685
-0.177345
-0.0160743
-0.0111186
0.0271929
-1.10178
0.15262
0.949164
-0.324807
0.698782
-0.373975
-1.12202
0.638612
0.483409
0.0848808
-0.930961
0.846081
-0.1582
0.223044
-0.0648442
-0.499354
-0.649515
0.00740353
0.0464246
-0.0538281
0.0412511
-0.088634
0.0473829
-0.067258
0.0638671
0.00339087
1.06778
-1.04287
-0.024905
0.0336688
0.0305932
-0.064262
-0.958502
0.32886
0.629642
-0.108127
0.227546
0.306124
-0.248794
-0.0573303
0.0295718
0.0623188
-0.0918906
-0.414743
0.341931
0.0728122
-0.0340049
-0.0221126
0.0237459
-0.00163324
-0.0387236
-0.919778
0.0367575
-0.0533017
0.0165441
0.211272
1.1438
-1.35507
-0.0541652
0.0536817
0.000483485
0.180653
0.278537
-0.459189
1.52168
-1.31041
0.0730868
-0.0318358
1.5461
-0.815965
-0.730133
-0.56803
1.52474
-0.0386265
0.0225521
-0.059229
-0.00802902
-0.410594
0.0857877
-0.138561
0.0793319
-0.637089
0.12678
0.510308
-0.146328
0.0705165
-0.168791
0.173043
-0.0042522
-0.26921
-0.0771633
0.346374
0.265953
1.22599
-1.49195
0.0425345
0.159528
-0.202063
-0.0147091
-0.100823
0.106945
-0.00612187
0.509446
0.189336
-0.0950141
0.143917
-0.0489026
0.0921363
-0.0553787
-0.169944
0.196016
-0.0260721
0.162851
0.0582438
-0.221095
0.108631
-0.114559
0.00592809
1.23931
0.306791
-0.843689
-0.183884
-0.0394204
-1.76742
1.80684
0.55538
0.234368
-0.789749
-0.448867
-0.20865
0.657517
-1.55838
0.990346
-0.275384
0.830765
-0.32115
-0.103927
0.425077
-0.208624
-0.206119
-0.188288
0.168284
0.0200041
0.140324
0.281887
-0.42221
-0.272972
0.846045
-0.0188689
0.0392303
-2.20733
2.16791
0.18298
0.123144
-0.175839
-0.111559
0.287398
-0.268329
0.35921
-0.090881
-0.0802544
0.0886438
-0.00838943
-1.94138
-0.919574
0.00965598
0.909918
-0.042567
-0.0115983
-1.08559
0.80098
0.284608
0.38948
-0.172857
-0.216623
-1.51452
-0.0438535
1.10214
-0.949516
-0.724251
1.15082
-0.201657
1.06341
0.17083
-0.172506
0.00167592
1.18938
-0.523251
1.32885
-1.32885
-0.00727572
-0.00214474
0.00942046
-0.209711
-0.0534128
0.263124
0.0466874
-0.0511832
0.00449577
-0.456081
0.832738
-0.376657
-0.0233733
-0.231124
0.254498
-1.08614
0.0432625
0.350114
0.0559368
-0.406051
0.13164
-0.869189
1.10356
0.0278574
0.11293
-0.140788
-0.0178345
-0.15211
-0.443901
0.0698475
0.374054
-0.132627
-0.311274
0.120967
-0.990156
0.323469
-0.77955
0.92562
-0.84074
0.0427486
0.0614158
-0.104164
0.0855336
0.0525172
-0.138051
-1.33019
-0.140023
1.47022
-0.24196
0.40692
-0.16496
-0.93113
0.474165
0.456965
-0.47707
-0.608519
0.0861431
-0.0436086
-0.152841
0.147211
0.00562974
-0.0778139
-0.0153012
0.0931151
-0.588788
-0.209362
0.00637465
0.00728469
-0.0136593
-1.12923
-0.613666
1.7429
1.81445
-0.58846
-0.0202371
0.0129614
0.0330149
0.149965
-0.202559
0.383212
-0.0244902
0.223842
-0.199352
0.140182
0.0689766
-0.209159
0.0111424
0.280511
-0.291653
-0.59479
-0.527231
-1.41671
0.287479
-0.037768
0.0656254
-0.103191
0.181763
-0.0785714
-0.147057
0.0246717
0.123848
-0.0570411
0.0685415
-0.0115003
-0.0942042
-0.0210279
0.115232
0.0749783
-0.0749783
-0.184127
0.208798
0.256853
0.135038
0.10372
0.0922964
-1.25696
0.983989
-1.57463
0.107872
1.46676
0.029591
-0.0270957
-0.00249524
-0.0268642
-0.051712
0.0785762
0.530538
-0.0174816
-0.513056
-0.0228976
0.0227486
0.000148999
-0.198793
0.0146663
0.165168
0.66757
-0.361588
0.526756
-0.115982
-1.21421
-0.0990396
0.0866874
0.482947
-0.300657
-0.18229
0.0336577
-0.0340643
0.000406603
0.0482072
-0.317417
0.0235537
-0.943128
0.0491927
-0.152384
-0.283965
-0.398313
0.0758156
1.40103
-0.943522
-0.457508
1.09508
0.305952
0.0668639
0.27951
0.025982
0.00360897
0.0818682
0.08146
-0.163328
-0.250994
-0.589873
0.840868
-0.353518
0.69003
0.202978
-0.852493
0.166329
0.0341393
-0.0321571
-0.00198216
-2.09487
0.273147
1.82172
-0.202872
-1.892
-0.308494
0.658608
-0.907408
-0.0166655
0.00513579
-0.270097
0.264961
1.47136
-1.59183
0.120468
-0.0473497
-0.0516899
0.574011
-0.825005
0.318707
-0.341437
0.0227307
-0.297231
-0.121349
0.41858
0.200468
-1.01104
-0.0751009
-0.000644982
-0.0531832
-0.562831
0.354181
-0.249146
0.01871
0.230436
0.0834101
-0.13076
-0.0255207
0.0255207
-0.121189
0.133032
-0.0118426
-0.293466
-1.28117
0.00529172
0.017654
-0.0229457
0.0223847
-0.0957899
0.0734052
-0.224556
0.0362685
1.45461
-0.434066
-1.02054
-0.187378
0.444633
-0.257255
0.0169664
-0.016745
-0.000221419
-0.636621
-0.294509
-0.18738
-0.00482905
0.192209
-0.169913
0.310237
-0.102722
0.101027
0.00169441
0.0772519
0.0103432
-0.0875951
-0.0930727
0.0800778
0.0129949
-0.250368
0.826813
-0.576445
-0.219029
-0.0506242
0.269653
-0.6906
0.662883
0.0277168
-0.00785575
0.0384489
-0.00236157
0.00295935
-0.000597777
-0.0239038
-0.0403582
1.14713
0.667326
0.172027
-0.888956
0.716928
0.0277529
2.06407
-2.09183
0.37902
0.416624
0.912228
0.0661029
0.206522
-0.0663395
-0.0719568
-0.0288665
0.233985
0.159916
-0.0743824
0.736154
-0.407294
0.0604704
0.202654
0.0522662
-0.168438
0.116172
-0.762067
-0.131869
0.893936
0.00878936
-0.00878936
-0.0105531
-0.269301
0.547838
0.0118953
-0.230924
0.215632
0.00741247
0.00554099
-0.043309
0.137852
-0.148231
-0.347231
0.323858
0.0127649
0.0802338
-0.0929987
0.384828
-0.340143
0.0779373
-0.232047
0.15411
-0.205504
0.272368
0.185959
-0.486616
-0.204181
0.600844
0.16419
-0.0335746
0.0335746
0.111246
0.185318
-0.296564
0.37961
0.0273092
-0.0246938
0.026473
-0.00177919
-0.0891323
0.0367264
-0.0303517
-0.0497029
0.187555
-0.182585
0.244183
-0.0615986
0.131983
0.0279329
-0.388484
0.13969
0.193812
-0.061829
-0.0463629
-0.056359
-0.0262922
0.0371204
-0.0108282
0.147079
-0.104302
-0.0427774
-0.021876
0.400698
-0.378822
-0.0491972
0.0303284
0.105456
-0.109811
0.00435528
0.0239369
0.0314185
0.0465188
-0.0685364
0.0128694
0.055667
-0.0704431
0.0489299
0.0215131
-0.0932562
0.0975854
-0.720331
0.622745
-0.0333348
-1.42138
-0.317404
1.73878
0.543728
1.22453
-1.76826
0.0825592
0.0163775
0.264133
0.282424
0.252486
-0.53491
-0.207965
0.260232
0.139403
-0.876548
0.737146
-0.0406066
-0.0298365
-0.0173943
0.0167493
-0.987453
0.444037
0.543417
0.943522
-0.822555
-1.6079
1.46788
-1.47136
1.57924
0.0387807
-0.0876833
0.000500464
-0.00286204
0.0129381
0.790032
-0.650629
0.120486
-0.0712935
0.413783
0.737038
-0.0541004
-1.75242
1.78018
-0.68868
-0.568281
-0.240917
-0.396171
-0.0266451
-0.1647
0.212907
-0.57367
-0.369631
0.182253
0.76923
-0.238693
-0.848372
-0.759526
0.746038
0.0491282
-0.0897348
0.279673
0.0379148
-0.0379148
0.670658
0.148734
-0.819392
-0.225029
0.895687
0.590326
-1.13461
0.544288
0.132905
0.00213266
0.0057784
0.00769891
-0.0134773
-1.76742
-1.08389
0.495425
1.05617
0.398441
-0.0346716
-0.13412
-0.245897
0.755343
-0.199926
-0.0492206
-0.00294386
-0.0773105
-0.0545943
0.107112
0.379579
-0.252798
-0.804662
-0.290205
-0.0987966
0.0291258
0.0696708
-1.22595
1.64258
-0.115168
0.0645719
0.050596
0.0379898
-0.0120078
-0.00944685
-0.0188968
0.0283437
0.0103634
0.414713
0.0184994
0.0151582
-0.00286142
0.00461608
-0.00175466
-0.0163275
-0.171052
-0.729245
0.375896
0.353349
1.28108
-1.96572
0.684634
0.139682
-0.161059
0.0213762
0.0183141
0.067829
-0.050231
-1.27862
-0.0352851
0.0258382
-0.0620062
0.0183976
0.14525
-0.347809
-1.74853
0.757733
0.990795
0.0361343
0.0924056
0.0546735
-0.762067
0.701217
-0.951585
0.0437155
-0.0626123
0.0442579
-0.640564
-0.0500364
0.0615621
0.13225
0.190193
0.0364238
-0.458634
0.121868
0.351134
-0.295197
-0.114598
0.0203938
0.221292
0.838063
-1.05935
0.104796
-0.710741
0.605945
-0.932588
0.800719
-1.6546
0.173111
1.48149
-0.0149753
0.0152899
-0.000314653
0.172856
-0.470087
0.210291
-0.122868
-0.0874233
0.0575916
-0.00866167
-0.0867723
-0.0120243
-0.0167313
0.0136874
-0.0375912
0.0202824
0.0812402
-0.101523
1.13405
0.0035542
-0.00358882
3.46213e-05
0.0498942
-0.0195658
0.859904
0.0131612
-0.0648511
-0.488778
-0.595107
0.0775536
0.0553517
0.00752691
0.0848787
-1.48149
1.27862
0.0208157
-0.285375
0.264559
-0.255624
0.0831186
0.119519
-0.117843
-0.00139634
0.0900401
-0.0174306
-1.39942
-0.349113
-0.0454396
0.065722
0.74015
-0.256742
-0.125252
0.147637
0.349022
-0.00254928
-0.0221445
-0.00782115
0.0827995
0.144444
0.214766
0.156016
-0.335517
0.179501
0.106543
0.561027
-0.036597
-0.109731
0.910386
-0.242872
-0.667514
-1.6546
-0.18802
1.4691
1.52168
-0.224636
0.302274
-0.0776373
0.370261
-0.0779142
-0.292346
-0.292193
-1.22233
-0.0745321
0.0755196
-0.000987522
-0.214026
0.035793
0.178233
0.370732
-0.989186
0.618454
0.0397352
0.661824
-0.701559
-0.0440985
-0.108743
-0.0329309
-0.0356055
0.291602
-0.180356
-0.0128194
-0.00215587
0.197747
-0.0705189
-0.127228
0.111334
-0.0294655
0.00826635
0.0297234
-0.0517356
0.113151
0.00280552
0.000153832
0.198823
-0.429947
-0.269791
1.49432
0.000641357
-0.00943071
-0.992742
-0.0182938
-0.00531231
-0.0714427
-0.0431553
0.0845788
0.234128
0.627165
-0.672445
0.0452806
0.0885198
-0.0109662
-0.93675
-0.0127664
-0.0193922
-0.648888
0.746474
-0.0175665
0.181757
-0.234075
-0.900539
0.185813
-0.439728
0.253914
0.0491282
0.174714
0.010585
-0.0110848
0.000499715
-0.0525476
-0.0405251
-0.0206043
-0.131505
0.739796
-0.634999
-0.0627674
0.0345711
-0.00383416
0.315162
-0.159146
-0.142512
1.07768
-0.116649
-0.961031
-0.121916
0.140626
-0.506273
-0.222972
-0.55308
0.601019
-0.585851
-0.0151689
-0.0657144
0.00294706
-1.75242
0.55405
-0.55405
-1.61824
1.61824
0.790032
-0.606348
0.151699
0.454649
-0.899889
-0.0928534
0.637847
-0.372407
-0.265439
0.159347
-0.237919
-0.01346
-0.00677713
-0.905338
-0.0848181
-0.932919
0.212588
0.0523477
-0.0232219
0.696125
-0.104689
-0.591436
1.29263
0.229052
-0.00152926
0.0121143
-0.961655
0.198281
-0.430328
-0.0820912
-0.613303
0.695394
0.0199951
-0.883357
-0.708474
0.219241
-0.814031
-0.893936
1.3205
-0.426561
-0.139353
0.278205
-0.138852
-0.0303827
0.726508
-0.108055
-0.964546
0.964546
-0.915338
0.834851
0.0804866
0.000762851
0.00279135
0.0103808
-0.441827
0.842142
-0.0411617
-0.0866689
-0.034971
0.039066
0.00748382
0.00948259
2.16179
-1.98867
-0.336199
0.413451
-0.646049
1.02706
-0.381009
-0.062172
0.0268869
0.125385
-0.0564089
0.355951
0.00552211
-0.0166407
0.355511
0.0451871
0.0431422
-0.250373
0.207231
0.138928
0.0341159
0.0985212
0.182825
1.93485
0.23306
0.178639
0.136163
-0.314802
-1.16804
1.44118
0.229051
-0.14972
0.076574
-0.767052
0.690478
-0.427708
0.124434
-0.471666
-0.0748435
0.13199
-0.0571467
0.128036
-0.202879
-0.453647
-0.109183
-0.0728021
0.0759627
-0.00316061
0.00291629
-0.000110775
-0.0406445
-0.0147342
0.650629
-0.605945
-0.0446839
-0.289873
0.301768
0.877798
0.626789
-0.256529
-0.00107627
0.0187303
-0.0769197
-0.264518
0.167852
-0.574398
0.406546
-0.0103184
-0.000766377
-0.283709
0.11935
0.164359
0.0060775
-0.012172
0.00609448
-0.0246398
0.0167284
0.00791139
-0.574151
0.0508999
-0.160058
-1.26132
-0.201161
-0.822555
1.57924
1.46788
-0.191266
-0.17255
0.121926
-0.0641201
0.0698647
-0.00574464
-0.0208417
0.554367
-0.533525
0.560749
0.0770981
0.000347895
-0.0106663
0.122458
-0.658978
0.034971
-0.0498857
0.00444605
-0.429291
0.352372
-0.0104034
0.0159444
-0.236836
0.621664
1.09508
0.30798
-0.0609512
0.00125843
0.0596927
1.7783
-0.310423
-0.06054
-0.0540194
-0.985407
0.162852
0.416052
-0.215584
-0.479061
-0.134979
0.61404
0.829957
-0.37197
-0.457987
0.172275
0.454889
-1.78018
0.0127554
0.00338118
-0.0237801
0.0203989
0.135453
1.92862
-0.172888
0.178666
-0.106335
2.22272
-0.643489
-0.675956
0.0497761
0.626179
0.389307
0.00361925
-0.35206
0.523333
0.798762
0.326286
0.0760081
-0.0213346
-1.46892
-0.00895178
1.47787
1.19162
0.0192843
-0.0221457
-0.0518694
-0.362054
0.109321
-0.317286
0.744576
0.333104
-0.0462456
-0.0194688
0.188338
-0.412974
-0.0239687
0.016113
0.1106
-0.1476
0.0369999
-0.296619
0.309809
-0.0131904
0.416748
-0.533397
-1.68708
0.822351
0.864728
-0.0254968
-0.0944821
0.119979
0.275768
0.0393941
-0.0210001
0.722217
-0.665075
0.665075
1.80684
1.29263
-0.710741
0.321124
0.477638
-0.351484
0.0549192
0.931779
-0.371031
0.00958726
-0.876663
0.867076
0.128589
0.00654931
0.0257318
0.140611
-0.161611
0.00160571
-0.167672
-0.118252
0.285924
0.152235
-0.508017
0.340345
-1.10943
-0.290061
-0.655488
0.00539792
-0.00358236
-6.46132e-06
-0.226196
-0.0259812
0.095652
0.0331756
-0.148614
0.115438
-0.895413
-0.0199249
-0.0057007
0.0680195
0.379158
-0.127613
-0.251546
-0.562156
0.379866
-0.123476
0.20371
0.231837
0.00249987
-0.0198942
-0.791707
0.357641
0.0348409
0.0706152
-0.0817865
0.0779524
0.202293
0.00799818
-0.431357
1.77149
0.470302
0.276774
0.86681
-0.790236
0.798778
-0.449756
-0.620474
0.178648
0.154419
-0.792931
0.769193
0.023738
0.918886
-0.17431
-0.201918
-0.134281
-0.0300342
-0.021149
0.951556
-0.838479
-0.113076
-0.18619
0.111808
0.0272687
0.119943
0.876455
0.0336704
-0.898535
0.864865
-0.322677
-0.046954
0.703101
-0.323943
0.188582
1.28163
1.65694
-0.364317
0.167325
0.551938
-0.719263
-0.262644
0.0505363
-0.00383721
0.00633707
-0.5159
-0.104574
0.155789
-0.0723791
-0.189952
0.140249
-0.52783
0.270576
-0.992081
0.130857
-0.290586
-0.534855
1.53686
-0.0701008
-0.290256
-0.106469
-0.322822
0.239565
0.304628
0.0508831
1.25319
-0.882463
-0.193169
0.13134
-0.392208
0.0546261
0.337582
-0.00247157
0.00585275
0.0493428
-0.0606667
-0.235952
-0.116369
0.698006
-0.422981
-0.275024
0.299926
0.132382
-0.0954312
-0.0369511
0.242881
0.061747
-0.0984091
-1.66985
-0.097059
0.141317
0.311312
-0.277641
-0.0256615
0.0471747
-0.0232679
0.017513
0.00575493
-0.00277863
-0.0243171
-0.245638
0.0772004
-0.0156667
-0.552035
0.412682
0.0220504
0.123639
-0.149135
-0.694562
1.42051
-1.0874
0.0156292
-0.195613
0.179983
-0.142032
-0.535139
0.677171
0.0710423
-0.711606
-0.685042
-1.00204
-0.0125574
0.00217756
0.0103799
-0.247744
-0.601019
-0.161048
-0.136864
-1.46892
-0.234066
0.167726
-0.152852
-1.1607
-0.33847
0.139899
0.198571
0.261358
0.112097
0.461594
0.212309
-0.673904
-0.0154633
0.0645915
0.935695
0.103562
-1.03926
-0.219356
0.321745
1.11944
-0.244598
0.183
-0.30626
0.628005
0.446462
-0.376614
-0.0128086
0.0257468
-0.0140471
0.720776
-0.444002
0.742486
0.0874715
-1.62071
0.221298
0.24359
0.688189
0.908809
0.00157705
-0.0185623
-1.65694
-0.655488
-0.712896
0.722552
0.0418521
-0.848372
0.661824
0.597763
-0.931333
0.731695
-0.00305285
-0.789879
-0.315293
0.638581
-0.769364
0.130783
0.0798859
0.0524964
-0.240135
-0.149011
2.10226
-1.95325
-0.00192725
-0.00165511
-0.266442
0.217222
0.709623
0.219963
-0.205296
-0.180372
1.12045
-1.73412
0.389833
0.0648162
0.312234
0.129061
-0.441295
-1.7409
1.73195
0.0231258
-0.150738
0.104147
1.32886
-1.47787
0.0013645
0.217419
-0.0354071
0.0754371
-0.0807495
0.00732032
-0.0402027
0.0328824
-1.02414
-0.0352104
0.313173
-0.804903
-1.20054
1.25364
-0.053099
0.377496
0.649562
-0.0488975
0.0523196
-0.00342207
-0.340886
1.46134
-0.719587
1.44328
-0.0784308
-1.12211
0.317807
-0.100388
-0.584708
-0.407373
-0.720367
1.0326
-0.0558114
-0.879716
-1.898
-0.193828
1.32886
0.0505163
-0.85542
0.830504
-0.645434
-0.18507
-0.981778
0.39707
0.0157502
0.114644
0.000162948
-0.114807
-0.971657
0.564284
-0.212354
0.912805
-0.925571
0.193997
-0.210325
-0.09675
0.242
-0.122485
0.385361
-0.0488127
-1.35689
0.395856
1.24286
-0.916576
-0.553154
-0.518055
1.07121
0.446846
0.0180267
-0.0103278
-0.736769
0.701559
0.697139
-1.03802
-0.912228
0.783263
0.128966
1.44559
-0.191951
0.775327
-0.809332
-0.493221
-0.449907
-0.47149
-0.500167
0.803751
-0.803751
0.686253
-0.686253
-0.736769
-0.739409
0.739409
-0.783263
-0.851925
-1.12314
0.409028
-0.530181
0.530181
0.697139
-1.03802
0.775327
0.76607
-0.76607
0.809332
0.758632
-0.758632
0.506779
0.52851
0.481945
0.166957
-0.499833
-0.550093
1.0786
-0.849932
-1.56141
0.841047
0.228377
-0.205252
-0.290839
-0.014452
0.0276132
-0.885535
0.0926536
0.792881
-0.0584844
0.0318393
-0.995585
0.588291
0.906799
-0.585675
-0.124618
0.0127947
-0.00697301
-0.811265
-0.0776911
-0.543417
-0.00416816
0.0209175
0.936602
-0.0576545
-0.0049578
0.175431
-0.00219113
-0.00735539
0.00954652
-0.811288
0.0675723
0.743716
-0.188814
0.0663292
-0.529991
0.417148
0.112843
0.916115
-0.742906
-0.173209
0.080866
0.302346
-0.0138553
-0.0589467
-0.0606041
-0.013928
0.625719
-1.85167
-0.851031
0.0974549
-0.74358
0.795362
-0.0517826
0.12198
-0.900076
0.778096
-0.803214
0.90438
-0.101166
-0.0428923
0.0401136
0.019937
-0.290034
0.524779
0.507822
-0.0942314
-0.791303
0.916291
-0.0916246
-0.824666
-0.0325044
-0.0296676
0.0395636
0.821884
-1.09807
0.464131
-0.387033
0.101546
-0.89285
1.31041
0.307835
-0.791076
0.00119745
1.01719
-0.895208
1.17257
0.567169
-0.686175
0.119006
-0.88146
-0.114125
-0.416482
0.0376599
-0.572892
0.618172
-0.784363
0.784363
-0.611101
-0.0852002
-0.863641
0.120735
-0.955513
0.873422
0.076869
-0.199737
-0.0573196
0.0569342
0.0116073
0.188324
0.828863
0.81918
0.772114
0.138733
-0.910848
-0.862212
0.65696
-0.782964
-0.105468
0.888433
0.168495
-0.888083
-0.675317
0.88725
-0.785704
-0.106391
0.460118
-0.0183932
-0.441725
-0.545519
1.18977
-0.644246
-0.089586
0.116352
-0.0267657
-0.889356
-0.829514
0.0859342
0.533515
0.265263
-2.08708
0.175257
-0.584023
0.584023
-0.935791
-0.421096
0.256539
-0.41815
-0.395816
1.21817
0.781782
-0.200692
0.25321
-0.20231
0.501198
-0.574592
0.0733946
-0.624837
-1.34088
0.0367842
-0.295043
-0.197355
-0.75423
0.227361
0.305759
-0.224893
0.7812
-0.882366
1.15785
-0.500886
-0.147859
0.736149
0.587384
-0.587384
-0.0521846
0.0401768
0.112371
-0.0791951
0.480697
0.709068
0.163748
0.00384704
0.00823939
-0.0120864
-0.670902
0.692918
-0.022016
-0.149308
-0.536867
0.108156
-0.89386
-1.08889
1.4277
-0.338807
0.0494559
0.874435
-1.35167
1.20236
-0.755126
0.605581
-0.655618
-0.663652
0.157379
-0.0356697
0.0266488
0.112008
0.337101
-0.372771
0.0033612
-0.0317323
0.0671879
0.728174
0.691002
-0.0854212
0.073246
0.786658
0.971743
-0.298598
-0.673145
-0.498677
0.518507
0.203694
-0.93992
0.718657
0.221263
-0.685608
-0.128423
0.756421
-0.399646
0.21929
-0.0366325
0.486073
0.513927
-0.770682
-0.111683
-0.672818
-0.874284
0.0935111
-0.426355
0.400629
0.599371
-0.0668011
0.0472353
-0.862307
-0.0629094
-0.592708
-0.157945
-0.243603
0.401547
-0.0162668
-0.00116374
0.114408
0.0731471
-0.128133
-0.117505
0.76031
-0.644966
0.718212
-0.137966
0.475067
-0.833777
-0.0552033
0.88898
-0.746375
-0.189048
0.935423
-0.240176
0.227996
-0.0253421
-0.0722957
-0.0584641
0.00993992
0.718855
-0.134833
0.119448
0.112389
-0.735219
0.0643163
0.431796
-0.404503
0.312469
-0.158359
-0.615505
-0.284564
1.0216
-0.00441819
0.14418
-0.250515
-0.013136
-0.00748712
-0.0373871
0.566373
-0.134577
0.707823
-0.665581
-0.0422414
0.846245
-0.0333658
-0.00327095
0.0366368
0.130037
-0.0129488
0.000129414
0.217492
-0.106892
0.599283
-0.995099
0.946341
-0.238519
0.00633597
0.292576
-0.720784
-0.973693
1.27047
-0.296777
-0.778849
0.83358
-0.0547315
0.192111
0.404179
0.0422827
-0.0744055
1.04707
-0.459746
-0.0702454
0.275227
0.450158
0.186837
-0.636995
0.40608
0.035926
0.656992
-0.572764
0.566859
0.00590473
0.930992
-0.691427
-0.00451212
0.00375775
0.000754376
0.698386
-0.00950915
-0.0825108
0.0192156
1.38019
0.593034
-0.400924
0.0368136
0.0867755
-0.181258
0.15768
-0.0852946
-0.0723856
0.0234184
-0.0160981
0.453926
-0.350364
0.0801887
0.218487
-0.0256736
-0.0854265
0.227562
0.0951841
0.00268005
0.0568559
0.765574
0.170091
0.172397
-0.342488
0.490998
0.156309
-0.647308
0.644532
0.116174
-0.0176068
-0.0370918
0.0546986
-0.345019
-0.0974678
-0.477124
-0.00722802
0.753266
0.72029
0.48699
-0.0534554
-0.18668
0.813028
0.0574716
-0.199984
-0.889344
0.072507
-0.273916
0.259014
-0.173015
0.694459
0.0711149
0.0135057
0.638883
-0.234704
0.0139014
0.164805
0.0225761
-0.11121
0.422321
-0.0577022
0.0165889
-0.0699254
0.178048
-0.038067
0.529065
-0.150808
0.150104
-0.0414858
-0.109883
0.014728
0.000193597
-0.0149216
-1.20125
0.509821
-0.00704436
0.893375
-0.228344
-0.61807
0.645024
-0.0269547
0.496991
0.758775
0.907474
-0.0184931
0.0793267
-0.176077
0.634931
0.123845
1.09336
0.549212
-0.271455
0.735585
-0.0534501
-0.0811268
-0.59693
0.351672
0.245258
0.668955
-0.0707521
0.0414441
0.065939
-0.0477479
1.16921
0.736822
0.076206
0.625298
0.21557
-0.87338
-0.0813615
-0.67668
0.677877
-0.0256801
-0.580132
0.422187
0.867604
0.670857
0.111766
0.101689
-0.152689
-0.318977
0.815887
0.604618
0.114068
0.000504745
-0.359106
0.277979
0.390754
1.35215
-0.0791215
-0.377599
-0.737679
0.928568
-0.190889
-0.414181
-0.182748
-0.00410552
-0.143141
-0.195515
0.768385
0.00359572
0.00102035
0.62661
0.344999
-0.503358
0.607947
-0.132363
0.231257
0.763145
0.248057
-1.0112
0.277331
-0.922764
0.156963
-1.24436
-0.173747
0.764089
-0.590342
-0.670824
-0.0223381
-0.0499576
-0.0553632
-1.39026
0.017226
-0.0404939
0.840424
0.210199
-0.184889
-0.0253101
-0.0481036
-0.57367
-0.0849472
0.229127
-1.26908
-0.00546829
0.00327716
-0.286856
-0.0540827
-0.596002
0.0232384
0.568313
0.299291
0.890272
0.848508
-0.239427
-0.387432
0.626859
-0.353254
-0.618681
0.618681
-0.235233
-0.936246
1.17148
0.0305288
-0.152445
0.679488
-0.111174
-0.221811
0.0536109
0.165679
0.0950274
1.27376
0.012631
0.179419
-0.103603
-0.728456
0.483335
0.083524
0.0627419
0.0103449
-1.7052
-0.563306
-0.292165
0.693186
0.306814
-0.563306
0.693186
-0.242288
0.0579751
-0.242288
-0.696367
0.696367
0.303633
-0.0141768
-0.0232779
-0.0768718
0.214317
0.0699617
-0.473372
0.638555
-0.0306076
0.653608
-0.505741
-0.147868
-0.0543665
0.0525027
0.00186379
-0.0186182
0.0224652
-0.114458
0.0186885
-0.0901589
-0.434875
-0.358132
0.131936
0.0415324
0.825888
-0.27395
-0.487907
0.165085
-0.0104792
-0.178601
-0.0055919
0.683622
0.0696437
-0.306735
-0.00247428
0.000719622
-0.00832119
0.0852522
0.558827
-0.478298
-0.0805291
1.74842
0.553134
-0.576563
0.911011
0.0113696
-0.0630815
0.107988
-0.2718
0.0729946
1.13981
-0.37667
0.00947382
-0.00407589
0.327162
-0.317549
0.0214628
-0.0214628
0.0208786
-0.0208786
-0.00194213
0.00194213
0.000641357
0.365707
0.461125
0.085301
-0.713
0.474307
0.188014
0.0294782
-0.0834428
-0.483211
0.806792
0.111704
-0.797312
-1.1902
0.289662
0.0248909
0.0199167
-0.00318835
-0.00351469
0.00351469
0.385696
-0.00569225
0.00569225
0.70044
0.0969082
-0.00354962
0.00107535
0.00661353
-0.0675647
-0.0223892
0.0223892
0.0011152
-0.0011152
-0.022375
0.022375
-0.0059722
0.0059722
0.0754869
-0.296385
-0.0811443
0.22037
-0.0069414
0.0069414
-0.376079
0.507527
-0.131448
0.496789
-0.218584
-0.222217
-0.26569
0.559038
0.085958
0.079468
0.565556
0.565142
-0.00669047
0.00669047
-0.264453
0.025009
-0.025009
-0.00770522
0.00770522
0.76309
-1.06419
0.0342895
-0.338723
0.458073
0.00550466
-0.00550466
-0.000416239
0.000416239
0.0183332
-0.0183332
0.0230722
-0.0230722
-0.0235352
0.0235352
0.0351281
-0.0351281
0.488793
-0.0318388
0.0318388
-0.00563408
0.00563408
0.0240778
-0.0240778
0.00221437
-0.00221437
0.00654148
-0.00654148
-0.107633
-0.0259965
0.0259965
0.522875
0.0349618
-0.0394834
0.0394834
-0.00161659
0.00161659
0.00518998
-0.00518998
0.0335332
-0.0335332
0.0257125
-0.0257125
0.00531107
-0.00531107
0.00176823
-0.00176823
0.162747
-0.210842
0.00177042
-0.00177042
-0.00531943
0.00531943
-0.0381418
0.0381418
-0.0279825
0.0279825
-0.000768347
0.000768347
-0.420388
0.663978
0.264454
-0.0320199
0.0320199
-0.0149023
-0.000371768
0.000371768
-0.00497809
0.00497809
0.0373139
-0.0373139
-0.0503562
-0.149628
-0.00208286
0.00208286
-0.0227052
0.0227052
-0.489763
0.0439387
0.191719
-0.0313858
0.0313858
-0.442946
0.0333719
0.0189477
-0.498811
-1.1219
-0.0367451
0.0367451
-0.202667
0.144965
-0.0408624
-0.00475667
0.00475667
-0.00283542
0.0502183
0.265271
-0.324536
-0.274796
0.599333
0.18855
0.00224892
-0.00224892
-0.0454319
-0.0862612
0.131693
0.766108
-0.388965
-0.377143
-0.466628
-0.661474
-0.192971
0.358056
-0.395955
-0.102722
-0.57491
-0.0120709
0.191709
-0.826238
0.0164325
-0.0164325
-0.00357299
0.00357299
0.0308442
-0.0308442
0.0261893
-0.0261893
-0.000209169
0.000209169
-0.00280661
0.00280661
-0.006183
-0.166674
0.171265
-0.295883
-6.20784e-05
6.20784e-05
-0.0448778
0.0448778
-0.0403507
0.0403507
0.0310823
0.15031
-0.181392
0.00558202
0.310763
-0.539108
0.000430117
-0.000430117
-0.0131748
0.0131748
-0.0980961
0.137004
-0.329976
-0.00330633
0.00330633
0.0602302
0.0157169
0.971211
-0.485336
-0.0844469
0.569783
-0.626166
-0.0511103
-0.521781
-0.0385562
0.0385562
-0.678135
0.275862
0.0496231
-0.0496231
-0.65457
0.389131
0.261294
0.118139
-0.000511413
0.000511413
-0.843752
-0.000504951
0.000504951
0.317964
0.408544
0.036639
-0.0536142
0.0536142
-0.00333419
0.00333419
-0.0423977
0.0423977
-0.0536617
0.0536617
-0.000539571
0.000539571
-0.0592915
0.0592915
-0.000668355
0.000668355
-0.0457251
0.0457251
-0.00609541
-0.0451147
0.0451147
0.00479645
-0.00479645
0.0482583
-0.0482583
-0.00112497
0.00112497
0.0475239
-0.0475239
-0.313
-0.00271789
0.00271789
-0.00443155
0.00443155
-0.0530462
0.0827995
-0.010526
0.010526
0.00463218
-0.00463218
-0.0594234
0.0594234
0.297708
-0.0184374
0.0184374
-0.0571259
0.0571259
-0.00730899
0.00730899
-0.0672763
0.0672763
-0.0133144
0.0133144
-0.080442
0.080442
-0.0218344
0.0218344
-0.0941258
0.0941258
-0.693652
0.0935384
-0.534387
0.507432
-0.883357
-0.0801817
-0.561201
0.388186
0.214229
0.0856969
0.00348274
-0.00348274
0.224478
-0.713501
0.044765
-0.0344201
-1.18512
1.41417
0.548259
0.253186
-0.00308361
-0.0208862
-0.391456
-0.583432
-0.0760709
0.39343
-1.21437
-0.0215532
0.0215532
-0.745751
0.0193768
-0.0193768
0.00144878
-0.00144878
0.315198
-0.290108
-0.0026517
0.0026517
0.0190989
0.0144757
0.598449
-0.210936
-0.0218891
-0.0106659
-0.00789636
-0.100103
0.498498
-0.398395
0.0463215
-0.00953731
0.00705268
0.931662
0.0139846
0.0504407
-0.408048
0.445708
-0.492495
-0.977923
-0.236287
-0.0727187
0.0181244
0.0117302
0.104621
-0.00214603
-0.00512066
0.00677938
0.789933
-0.548712
-0.0399006
0.0624766
-0.0371405
0.0155618
-0.0388396
0.421752
0.241131
-0.16745
0.212298
0.0135399
-0.00319668
-0.782093
0.000208122
-0.181914
-0.00297526
-0.0189671
-1.19811
-0.0713267
0.265649
-0.351301
0.396489
0.28271
-0.817565
0.0470053
0.0598985
-0.0895661
-0.350018
0.462861
-0.0575423
0.0540775
0.00346477
-0.0272384
0.0272384
0.179773
-0.436302
-0.142724
0.0469341
-0.0814251
0.055745
-0.0634835
-0.0056723
0.0691558
-0.0423403
-0.153812
0.117858
0.0752514
-0.289007
-0.352848
0.641855
0.0154942
0.0600254
0.151506
-0.032058
-0.159651
0.0694383
-0.158617
0.313036
0.00805084
0.0285859
-0.0241429
0.175649
0.00309373
0.261868
-0.00114706
0.00114706
-0.732883
1.12364
0.0915596
-0.172921
-0.0310699
0.051065
1.26805
-0.0656916
0.0429225
-0.0174019
-0.533534
-0.000852888
0.0970444
0.0944063
-0.686838
0.315807
-0.0572776
0.376153
-0.66516
0.209236
0.509421
-0.0897188
0.0897188
0.000162948
-0.97301
-0.212919
1.18593
-0.214205
0.158842
-0.219462
0.0745309
-0.607927
-0.0483068
-0.00324619
0.00374665
0.929991
0.263469
-0.151702
-0.0692404
-1.10371
-0.0184005
-0.0476765
-0.268626
0.791959
0.574659
-0.263896
-0.284529
0.577105
0.0800423
0.222231
-0.268532
0.0530506
-0.463593
0.332145
0.123604
-0.123604
-0.00235624
-0.0822398
0.084596
-0.00287333
0.00900526
0.017513
0.00714764
-0.352167
0.225461
-0.186994
-0.0384661
0.540222
-1.08514
0.300325
-0.895432
0.692721
-0.117377
-0.178506
-0.036618
-0.0797505
-0.488917
0.0540416
-0.289562
-0.000279943
-0.0189671
0.382628
-0.00511789
0.00324785
-0.000969198
0.0138856
-0.0101258
-0.00375989
-0.102379
-0.0171067
-0.167847
0.184954
-0.122369
-0.341223
0.0190989
0.346811
0.00157036
-0.377636
0.0870499
0.002634
0.177778
-0.0924766
-0.0124876
0.0124876
-0.00124241
0.000698962
-0.00933142
-0.000763818
0.0230076
0.00068304
-0.00116023
0.0952996
0.138828
-0.00273413
0.00273413
0.0447294
0.510528
0.000655216
-0.290812
0.498926
1.15059
-0.472388
0.3308
-0.438453
-0.125
-0.017724
0.224929
-0.22726
0.0297477
0.0127154
-0.00277545
-0.00879452
-0.181335
-0.379343
0.85365
0.345956
-0.352139
0.0425642
-0.00159488
0.0620755
-0.0126196
0.000788004
0.00139604
0.0113193
0.217478
0.00134163
-0.000366998
0.724539
-0.6551
-0.2457
0.192383
0.563298
0.000341342
-0.000314638
-0.0408624
-0.00567337
0.81756
-0.430929
0.514453
-1.16645
0.906185
-0.36838
0.57574
-0.187554
0.701511
3.4546e-05
0.003397
0.0165197
-0.121104
0.139755
0.0346104
0.00879686
-0.000507198
0.065931
-0.052011
-0.01392
-0.000166055
-0.0336631
0.0718063
-0.0381432
-0.0907441
0.00883945
-0.000600053
0.00206231
0.477777
-0.431782
0.00798484
-0.000338229
1.05514
-1.26805
0.384826
-0.00590089
0.00118368
0.152237
-0.0720481
-0.0433294
-0.110801
-0.0157983
-0.00360559
0.123959
0.0126982
-0.00208601
0.40829
-0.000319449
-0.00391503
0.00391503
0.000579238
-0.0112451
-0.000271248
-0.323783
-0.00370321
0.0726753
-0.107384
0.287894
0.176103
-0.0654453
-0.000368038
0.00171366
0.46052
-0.000302246
0.000291881
-0.0043974
-0.00204699
-0.000378717
0.0935087
0.0702393
-0.710176
0.46882
-0.848162
0.241626
-2.78624e-05
-0.429829
0.130926
0.0964346
0.585024
-0.0151055
-0.0999638
-0.00399103
-0.0013648
-0.55429
-0.0033274
-0.000128783
-0.00595695
0.943362
-0.537282
-0.00253324
-0.000456617
-0.00580928
-0.00159292
0.0680117
-0.0222818
0.0222818
-0.00166159
0.00236055
-0.0026768
-0.0078529
0.0216809
-0.018433
-0.166473
0.0957206
-0.00600538
-0.0131656
0.0410023
-0.0169737
0.0626499
-0.0445256
-0.623694
0.571911
-0.00282749
-0.00114944
0.361065
-0.183017