/*--------------------------------*- C++ -*----------------------------------*\
| =========                 |                                                 |
| \\      /  F ield         | OpenFOAM: The Open Source CFD Toolbox           |
|  \\    /   O peration     | Version:  2306                                  |
|   \\  /    A nd           | Website:  www.openfoam.com                      |
|    \\/     M anipulation  |                                                 |
\*---------------------------------------------------------------------------*/
FoamFile
{
    version     2.0;
    format      ascii;
    arch        "LSB;label=32;scalar=64";
    class       volVectorField;
    location    "30.2";
    object      U;
}
// * * * * * * * * * * * * * * * * * * * * * * * * * * * * * * * * * * * * * //

dimensions      [0 1 -1 0 0 0 0];

internalField   nonuniform List<vector> 
2186
(
(1.30073 -0.063661 2.12665e-19)
(1.62854 -0.944502 -7.66422e-20)
(1.4705 -0.920841 2.66728e-21)
(0.744918 -0.584998 -1.42051e-19)
(-0.104858 0.352896 -1.63518e-19)
(1.51222 -0.103954 0)
(0.732358 -0.676502 0)
(-0.144412 -0.148217 1.00475e-19)
(1.57568 -0.145196 1.81795e-19)
(0.556409 -0.311687 -2.42877e-21)
(0.677659 0.611728 0)
(0.856149 -0.277264 -1.2848e-19)
(-0.152868 -0.109853 -3.89929e-20)
(1.20822 0.0242427 -3.63079e-19)
(1.81756 -0.685335 -8.42137e-20)
(1.01301 -0.00233211 1.72016e-19)
(0.98015 0.0118858 0)
(-0.11437 0.663414 0)
(1.12649 0.200296 0)
(-0.104588 0.232339 -5.83156e-20)
(0.484873 0.0933204 -1.12452e-19)
(-0.181167 0.207924 8.0127e-20)
(1.19527 0.0271015 2.99966e-19)
(-0.189305 -0.078001 6.67623e-21)
(1.03351 0.00783244 -2.35993e-19)
(0.795845 -0.560192 0)
(0.762851 -0.0299653 1.41887e-19)
(0.620155 -0.599673 -1.6329e-19)
(1.21351 0.716174 0)
(0.965686 0.024087 -3.22132e-19)
(-0.0443903 0.0927021 0)
(1.02617 -0.010714 1.11596e-20)
(-0.175762 0.108765 0)
(1.91758 0.0296707 1.31544e-19)
(-0.143842 -0.189437 1.15586e-21)
(1.54015 0.780299 8.50309e-20)
(1.81798 0.0317602 1.07153e-19)
(0.511155 0.14146 -3.35394e-19)
(1.90213 0.258303 -2.42243e-19)
(1.50808 -0.0513086 -5.42274e-21)
(-0.178619 -0.112234 0)
(-0.131143 0.170816 0)
(1.90169 -0.879401 8.65154e-20)
(-0.412457 0.167032 0)
(1.11216 0.28358 1.54408e-19)
(0.60068 -0.293795 2.7569e-19)
(0.932938 -0.794433 0)
(1.19437 -0.79258 1.0335e-19)
(2.29117 -0.0616131 0)
(-0.146022 0.540206 1.42986e-19)
(-0.040941 0.138816 8.6179e-20)
(0.628168 0.579896 8.10399e-20)
(2.08715 -0.753028 1.00663e-19)
(0.594938 0.274563 -2.70419e-19)
(-0.309999 -0.0696733 3.11104e-20)
(0.770793 -0.655962 0)
(1.6897 -0.974194 1.91368e-20)
(0.589835 -0.549589 0)
(2.28104 0.239781 7.23939e-20)
(1.13861 -0.169223 -3.44309e-19)
(2.1177 -0.10186 1.878e-19)
(1.35287 0.307425 -1.83376e-19)
(1.3517 0.540484 0)
(1.66822 -0.0833609 5.94185e-21)
(1.37155 0.393917 -1.13468e-19)
(1.25957 -0.736381 -1.42538e-19)
(1.1727 0.665688 5.39508e-20)
(0.680372 0.0723346 -5.45646e-19)
(0.819265 0.0576815 0)
(2.33155 -0.0938853 -6.2186e-20)
(-0.157201 -0.154642 -1.2006e-19)
(2.51841 -0.0097275 -1.93087e-19)
(0.727616 -0.0370938 -2.40034e-19)
(0.880553 -0.520667 0)
(0.827024 0.181847 -8.91559e-20)
(0.554775 -0.514713 -2.88667e-19)
(2.46066 -0.0423158 0)
(1.00695 0.00873205 3.53448e-19)
(-0.145067 -0.21176 0)
(2.01554 0.371914 0)
(0.653684 0.32651 6.89954e-20)
(1.4986 -0.073058 -4.02747e-21)
(1.02265 0.00696677 3.91918e-20)
(1.32037 0.419694 2.83921e-20)
(0.971856 0.0236368 4.10698e-19)
(1.04058 0.028323 -9.74942e-21)
(0.667917 0.177486 -3.26442e-19)
(1.15708 0.0301234 5.19088e-21)
(1.28184 -0.104228 0)
(-0.0706062 -0.069403 9.54422e-20)
(0.867217 -0.626484 -1.57452e-19)
(-0.154305 0.124087 -1.05405e-21)
(1.11789 -0.0748064 2.38628e-19)
(0.820958 -0.1839 0)
(0.974482 0.0230999 3.92807e-20)
(1.36809 0.649818 0)
(1.63646 -0.956037 0)
(1.30965 0.224874 0)
(-0.164178 0.540527 0)
(0.797798 -0.670616 2.80248e-19)
(0.543409 0.383491 -2.50622e-19)
(0.766223 0.43223 1.45674e-19)
(1.57814 0.19732 0)
(1.15143 -0.10056 -2.18145e-19)
(1.1244 0.0235943 1.74878e-19)
(-0.172017 0.216766 1.04231e-19)
(0.637952 0.507042 0)
(2.17359 -0.136288 -1.10814e-19)
(0.971416 -0.481074 7.83607e-20)
(-1.21252 0.0164054 1.48294e-19)
(1.74061 0.324478 1.0643e-19)
(-0.158129 0.355728 -2.2889e-19)
(0.826818 -0.751344 0)
(0.565916 0.350169 1.63921e-19)
(1.77628 -0.187458 -5.3537e-19)
(-0.0770823 0.149293 -3.6331e-19)
(1.69748 0.817618 1.25373e-19)
(1.95131 0.0334714 0)
(-0.0940706 -0.0991906 -2.85299e-19)
(0.711378 -0.0733063 7.58381e-20)
(1.56118 0.88518 0)
(0.00312378 0.583332 -1.88709e-19)
(0.886913 0.76244 -2.72408e-19)
(-0.239949 0.64978 2.90255e-19)
(1.02943 -0.0250225 0)
(1.58571 0.689776 -1.58008e-19)
(-0.119972 0.349131 0)
(0.702534 -0.497258 -1.03351e-19)
(-0.15926 0.65891 -1.57183e-19)
(0.798857 -0.729197 0)
(0.438098 -0.276758 4.02263e-19)
(0.546776 -0.459417 2.70675e-19)
(0.419949 -0.380204 0)
(0.993071 -0.788377 -1.19163e-19)
(0.390036 0.264701 0)
(-0.096887 0.510482 -1.12108e-19)
(0.818974 -0.703995 1.33652e-19)
(2.32713 -0.176797 2.62227e-19)
(2.19676 0.196621 0)
(-0.128799 -0.147136 0)
(0.683608 0.63492 -3.40888e-19)
(1.79777 -0.620318 7.78914e-21)
(-0.116761 -0.119695 0)
(0.992498 -0.813189 -1.29909e-20)
(1.14956 -0.096088 0)
(1.08356 -0.121 3.78352e-19)
(2.05869 -0.129562 -1.08693e-19)
(-0.144216 0.504862 0)
(1.22959 -0.555753 -5.1405e-20)
(-0.253485 0.264009 -3.88138e-20)
(-0.0964121 0.109125 0)
(1.10359 -0.81994 1.26641e-20)
(1.00687 0.00439726 -5.90429e-19)
(0.656463 -0.482806 -1.01719e-20)
(0.823628 -0.519281 0)
(1.20901 -0.734433 -8.71738e-20)
(0.656754 0.237665 2.535e-19)
(1.23103 0.119245 0)
(1.50374 0.0870586 -2.66279e-19)
(1.20789 -0.861906 -1.83251e-19)
(-0.126498 -0.148168 -1.03282e-19)
(-0.45998 0.0518789 -1.65195e-19)
(1.0709 0.00695004 2.23072e-19)
(0.924824 -0.466688 -9.85413e-20)
(1.04214 0.0814559 -4.80566e-21)
(0.481276 0.372351 -6.53333e-20)
(0.761427 -0.11935 1.14642e-19)
(-0.0860423 -0.106446 -2.6002e-19)
(1.93276 -0.310234 0)
(2.48471 -0.389579 1.34624e-19)
(1.44944 0.653023 1.43337e-19)
(0.815167 -0.618404 -2.04417e-19)
(0.994994 0.0084995 1.20967e-20)
(0.726915 -0.534266 2.84131e-19)
(1.30554 0.803785 1.29631e-19)
(1.8579 0.0701616 1.21909e-20)
(-0.155569 0.566515 0)
(1.08544 0.0569794 -2.31783e-19)
(-0.686759 0.325701 -1.89342e-19)
(1.07353 0.492379 7.93095e-20)
(0.156459 -0.143357 1.57133e-19)
(1.16344 0.0278281 -4.18813e-20)
(-0.204998 0.119813 -1.40845e-19)
(1.29633 0.586319 -7.89738e-20)
(1.13791 0.887437 0)
(-0.190223 0.652945 -8.69802e-20)
(0.0636431 0.181218 0)
(0.653077 0.562308 -2.71941e-19)
(2.11763 0.19283 -1.68952e-20)
(-0.151684 -0.0444957 1.25804e-19)
(-0.351574 0.550418 -5.06313e-19)
(0.725623 0.0750153 2.39724e-19)
(1.98831 0.174973 -4.16823e-20)
(0.986866 -0.348065 -2.89295e-20)
(-0.0882099 -0.0967698 0)
(-0.769859 0.026478 3.03556e-19)
(1.326 0.972555 -2.4612e-20)
(0.839785 0.0743993 -1.31717e-19)
(0.553353 0.519498 1.89614e-19)
(0.426207 0.195175 0)
(-0.224736 -0.231221 -2.00265e-19)
(-0.83764 -0.18987 2.97734e-19)
(1.30991 -0.965411 3.462e-22)
(0.99045 -0.0316735 -1.83371e-19)
(-0.158631 -0.165392 5.57328e-21)
(0.0209486 -0.0187012 1.37512e-19)
(-0.205334 -0.223874 -1.83941e-19)
(1.98339 -0.0848872 0)
(1.1316 0.0465857 -3.12083e-19)
(2.50726 0.150851 2.22763e-19)
(1.28361 -0.621137 9.2013e-20)
(1.01407 -0.0200513 1.65304e-20)
(0.592648 0.329163 0)
(0.943692 0.750825 -1.61619e-20)
(0.681656 0.627363 1.81838e-19)
(0.904499 -0.567394 1.42258e-19)
(0.685257 0.502083 0)
(1.02301 0.00199761 7.87244e-21)
(0.889716 -0.668565 2.02684e-19)
(0.839179 0.424164 -4.46883e-19)
(1.20975 -0.112213 0)
(0.00474912 0.0705823 -2.56976e-19)
(-0.121739 0.125874 -8.68984e-20)
(1.59016 0.726622 0)
(1.36233 -0.94435 -2.963e-22)
(-0.0640992 0.650925 0)
(-0.0873393 0.233168 1.0273e-19)
(0.735766 0.652397 -9.62438e-20)
(0.853517 -0.217758 0)
(-0.209271 -0.19901 0)
(1.64345 -0.455974 0)
(-0.238918 0.304027 5.42448e-19)
(1.22365 -0.890212 1.20136e-19)
(1.18553 -0.607357 5.70865e-20)
(1.05628 -0.171306 -1.55842e-19)
(0.885826 -0.698383 -1.59814e-19)
(0.190718 -0.19459 0)
(-0.543311 0.599942 0)
(1.00936 -0.513879 1.66295e-19)
(-0.13367 -0.148099 0)
(-0.10759 0.579616 0)
(-0.106048 0.20192 3.13794e-19)
(0.792362 0.670481 8.35064e-20)
(1.01259 0.794356 0)
(0.6969 0.554127 -8.29374e-20)
(0.833485 -0.04224 -2.16169e-19)
(0.745603 0.562372 -2.22171e-19)
(0.589165 0.548185 -1.63276e-19)
(-0.160438 -0.180233 -9.55372e-23)
(0.728123 -0.652704 0)
(0.900746 0.176272 -3.14148e-19)
(-0.185441 -0.161284 5.35388e-20)
(0.600428 0.557099 3.69186e-19)
(0.95687 0.797509 0)
(0.0607128 0.0618621 3.70606e-19)
(-0.174422 -0.185147 3.2229e-19)
(-0.172304 -0.0738225 -1.71032e-19)
(0.663876 0.570139 -1.43994e-20)
(0.969065 -0.00812205 5.72366e-20)
(-0.193745 -0.0715841 0)
(2.06786 0.065845 -2.29934e-19)
(1.96835 -0.495664 -4.17934e-19)
(0.66102 -0.611828 -7.19928e-20)
(0.107782 0.63992 9.95926e-21)
(1.19476 0.46258 1.80388e-19)
(0.886831 0.414985 0)
(1.05597 -0.171193 1.83545e-19)
(-0.12872 -0.229689 6.69042e-22)
(-0.116118 0.0922152 3.26696e-19)
(0.919521 0.0188248 -5.07284e-20)
(1.12736 0.143213 0)
(1.78677 0.0303206 -2.30653e-19)
(1.91293 0.0868832 0)
(0.545656 0.254379 -4.43679e-19)
(0.0137481 -0.013848 0)
(-0.156034 -0.164485 2.36029e-19)
(0.693705 0.0995485 0)
(0.625615 -0.517045 -1.74936e-19)
(1.14186 0.0183291 2.01378e-19)
(-0.136038 0.590031 3.54629e-20)
(2.18123 -0.0555067 7.41792e-21)
(2.13739 -0.195312 -1.28531e-19)
(1.11398 0.230782 -2.1521e-19)
(-0.194867 -0.143659 -1.00189e-19)
(1.08466 -0.857771 0)
(0.813105 0.0177807 -1.46565e-19)
(0.933257 -0.378965 -2.76582e-19)
(1.72636 -0.575907 -5.96709e-21)
(1.71905 -0.0195492 2.07171e-19)
(1.07934 -0.00636738 3.72982e-19)
(-0.121251 -0.21522 -1.54934e-19)
(1.00168 -0.44065 -1.19679e-19)
(0.200411 -0.192882 2.47104e-19)
(1.00796 -0.00805754 0)
(1.00456 -0.00695594 0)
(0.995957 -0.253848 1.89273e-19)
(-0.107435 0.392635 -7.84638e-20)
(0.194647 -0.11583 -1.39274e-19)
(2.07137 -0.0124441 -5.34678e-21)
(1.15796 0.140964 0)
(1.81771 0.169906 -1.33792e-19)
(0.955418 -0.830678 -7.31341e-20)
(1.81141 -0.562895 -7.60194e-20)
(1.10445 0.83699 0)
(0.478192 -0.45941 0)
(0.604749 0.518412 -1.72042e-19)
(1.09914 0.282961 -3.97351e-19)
(2.2081 -0.200605 3.88076e-22)
(0.863599 0.16002 1.3477e-19)
(-0.19174 -0.261894 -4.36986e-19)
(1.64372 -0.197136 -3.09757e-20)
(-0.347615 -0.115997 0)
(-0.139785 -0.161642 0)
(-0.216876 0.0275296 0)
(1.34978 -0.725958 -7.57871e-20)
(-0.111546 0.115461 -1.91555e-19)
(-0.0428387 0.0185305 0)
(1.28654 0.974226 -3.57518e-20)
(1.11161 0.15194 -4.12854e-19)
(2.28436 -0.0438103 -8.60084e-20)
(1.07724 0.92004 8.53239e-20)
(-0.17088 0.282341 1.16156e-19)
(1.17261 -0.0676807 0)
(-0.217828 0.0987867 -2.58834e-19)
(-0.141006 0.271683 2.24772e-19)
(0.778294 0.0322294 1.77071e-19)
(1.53163 0.948485 -1.05815e-20)
(1.44791 0.325125 -1.52581e-19)
(-0.165563 0.113374 -1.60135e-21)
(0.754973 -0.688475 -3.48837e-20)
(1.12854 -0.0167842 0)
(1.72658 -0.0491913 0)
(1.02552 0.0538861 0)
(-1.0374 -0.197367 -2.15824e-19)
(-0.270759 0.00086655 9.21174e-20)
(1.04572 0.843589 0)
(0.999323 -0.00147262 4.92412e-19)
(0.767475 0.604858 -2.2278e-19)
(-1.1719 -0.340877 -1.28038e-19)
(0.86375 0.018337 -3.97164e-20)
(0.722523 -0.659055 -2.07325e-19)
(1.38601 0.711639 -3.33346e-20)
(0.56747 -0.453082 -2.81475e-19)
(1.12613 0.00211992 -4.45474e-19)
(0.808606 0.0374577 4.30243e-20)
(1.5219 -0.164927 5.93113e-20)
(1.7614 -0.115385 -1.19305e-19)
(-0.0917524 -0.100424 -4.11715e-22)
(1.07972 0.470372 -2.63735e-19)
(1.31531 0.616824 6.68988e-20)
(-0.187646 -0.128141 0)
(-0.225365 -0.167068 1.59142e-19)
(0.0258689 0.195444 1.09199e-19)
(-0.151881 -0.166844 -1.32207e-19)
(0.476352 0.317307 0)
(1.5394 -0.558068 0)
(-0.0193242 0.0205519 -1.19028e-19)
(-0.184768 -0.185471 -5.40184e-20)
(1.04676 -0.030424 1.76541e-19)
(-0.14037 0.456355 -4.22685e-20)
(1.44603 0.0880131 -4.55125e-19)
(-0.150398 0.335144 0)
(0.842099 -0.746159 -2.82281e-19)
(1.44056 -0.155655 1.84718e-19)
(-0.654813 0.300858 1.24857e-19)
(0.719272 0.161319 3.18129e-19)
(0.624018 0.138019 1.02747e-19)
(0.507795 -0.480175 1.94089e-19)
(-0.126503 -0.128155 -1.22328e-19)
(1.89572 0.300184 0)
(0.393265 0.346611 -1.87784e-19)
(1.02891 -0.0154062 -2.80741e-19)
(-0.354785 0.559304 2.00266e-19)
(1.41915 0.485125 -1.22638e-19)
(-0.139594 -0.160572 -4.89563e-20)
(0.698563 -0.637219 -4.21453e-20)
(0.816217 0.188276 -2.003e-19)
(0.977487 0.426942 2.24545e-20)
(1.15641 -0.139157 3.29173e-20)
(0.610672 -0.230407 -2.89272e-19)
(2.02839 -0.331649 -1.57196e-19)
(1.89336 -0.0364698 0)
(2.10074 -0.143598 -7.32156e-20)
(1.59174 -0.0304858 -2.20653e-21)
(0.841563 -0.00859464 1.22913e-19)
(0.926329 0.362929 -1.66249e-19)
(1.72637 -0.105113 5.02591e-21)
(0.418026 0.388421 -2.43976e-19)
(0.172334 0.599974 1.59913e-19)
(2.18545 0.0190537 0)
(0.939897 0.00722278 0)
(0.883133 -0.781084 5.41701e-20)
(-0.161465 -0.199777 -3.53381e-19)
(-0.155862 0.549644 -2.02126e-19)
(-0.105119 -0.117909 -2.15763e-19)
(-0.0840641 0.657945 -1.23542e-19)
(-0.449006 0.0105398 0)
(-0.138039 -0.154201 3.95736e-20)
(-0.114004 0.241941 -8.007e-20)
(0.0237941 -0.0136046 -3.13349e-19)
(0.806969 -0.110139 0)
(1.66379 -0.512079 1.68126e-19)
(-0.0138116 0.0637007 0)
(0.995459 0.0239029 3.55346e-19)
(-0.302613 -0.108548 1.37145e-20)
(0.543607 -0.425102 3.7728e-19)
(-0.644497 0.336699 3.14278e-19)
(-0.881254 0.19804 0)
(-0.0158687 0.29639 8.24112e-20)
(1.00383 0.023197 -1.06874e-20)
(-0.0123265 -0.164085 0)
(1.00502 -0.00913673 -5.54306e-20)
(0.867378 -0.732033 -2.70748e-19)
(1.55615 -0.34547 0)
(0.939307 -0.271759 1.97638e-19)
(0.0765627 0.49782 1.57564e-19)
(-0.0704131 -0.0736413 0)
(-0.234782 -0.218098 -5.59602e-21)
(0.731929 -0.638219 -4.04179e-19)
(0.954758 -0.022484 -2.54849e-19)
(-0.174739 -0.206499 4.30509e-19)
(-0.154133 -0.177255 1.49356e-19)
(-0.383867 -0.0675782 0)
(0.959342 0.476391 0)
(-0.484226 0.144683 1.65761e-19)
(1.66587 0.145015 -1.36915e-19)
(1.0733 0.895473 1.87667e-20)
(1.0728 0.214531 -1.20949e-19)
(1.12905 0.00776867 -2.1069e-19)
(1.04629 -0.0696307 -7.40531e-20)
(-0.175303 -0.208837 -3.86823e-19)
(1.95128 0.110299 4.20918e-19)
(0.688139 0.0346582 2.04489e-19)
(1.65316 0.0345684 1.09723e-19)
(1.04792 -0.148881 0)
(-0.752076 0.0289675 2.32306e-19)
(1.14426 0.0255481 -4.81538e-19)
(1.75311 0.624926 1.52723e-20)
(0.745736 -0.456422 -1.54154e-19)
(-0.0963222 -0.100095 2.13254e-19)
(0.805278 -0.705929 3.56286e-19)
(1.24238 0.197964 7.39913e-20)
(1.0068 -0.00838186 2.45543e-19)
(-0.113821 -0.243939 -1.63834e-19)
(1.02401 0.0185254 0)
(1.77712 -0.00257717 -1.96816e-19)
(-0.0902238 -0.0910766 0)
(1.01377 0.012896 -1.4451e-19)
(-0.524304 -0.0347024 -5.94742e-19)
(1.75072 0.316504 3.85778e-20)
(-0.0356735 0.250194 1.43849e-19)
(1.62249 0.018604 1.04729e-21)
(1.01429 -0.0182489 5.09221e-20)
(1.28087 -0.0908109 0)
(1.45216 -0.608777 -1.21302e-19)
(1.02288 0.0367496 -1.50999e-19)
(1.44175 0.792124 -6.26062e-20)
(1.28549 -0.0326122 0)
(0.823615 0.474077 3.09843e-20)
(-0.0252543 0.024386 0)
(1.34109 0.0566823 0)
(-0.243777 -0.0645027 0)
(1.247 0.449489 0)
(1.86853 0.284889 4.07736e-20)
(0.741162 0.616343 3.90571e-19)
(0.296966 -0.298684 -2.2975e-19)
(-0.178391 -0.189907 -3.48728e-19)
(-0.0950633 -0.104856 0)
(2.49781 -0.399966 1.75052e-19)
(1.33135 0.527459 0)
(1.46529 0.296685 0)
(-0.253952 0.142641 1.13378e-19)
(0.806974 0.713064 1.2701e-19)
(1.66814 -0.00751327 0)
(-0.135681 -0.105532 7.50676e-20)
(0.909438 0.222853 1.84358e-19)
(2.17707 -0.277542 -1.18431e-19)
(1.24103 0.928005 4.6118e-20)
(0.932955 -0.838996 -3.04481e-20)
(1.61576 -0.120012 -7.4194e-20)
(0.792843 0.716354 1.30713e-19)
(1.17745 0.925748 0)
(2.43152 -0.123261 2.14359e-19)
(0.411541 0.334037 0)
(1.45298 -0.460344 9.5928e-20)
(1.01278 0.108853 1.74924e-19)
(1.0055 -0.00560045 0)
(-0.817452 -0.0780235 1.95058e-19)
(0.89313 -0.170904 4.58126e-20)
(0.633285 -0.408859 0)
(0.673217 -0.381873 2.03568e-19)
(1.24141 0.560139 -3.35286e-20)
(0.473219 0.446816 2.69475e-19)
(0.0188769 0.0107284 3.74754e-20)
(0.0717724 -0.0580039 8.62966e-20)
(0.753766 0.0584705 0)
(1.33411 -0.905321 -6.16753e-20)
(1.03329 -0.0445698 3.92168e-19)
(1.50857 0.350595 1.31723e-19)
(-0.133389 -0.052413 6.3557e-20)
(-0.704928 0.290936 0)
(1.23519 -0.236332 -1.05958e-19)
(-0.0725534 -0.0755264 -1.81877e-19)
(-0.403351 0.270311 -2.97863e-20)
(-0.132908 0.0513487 -7.21089e-22)
(-0.204595 0.0959399 2.70423e-19)
(0.396326 0.0141181 -2.06296e-20)
(2.25795 -0.0046962 3.07966e-19)
(1.19447 0.464276 -2.90896e-19)
(0.86921 -0.0526191 0)
(1.90254 -0.108428 2.01833e-19)
(1.80049 0.0570634 9.57206e-20)
(0.918662 -0.771148 1.31985e-19)
(1.16969 -0.984013 -3.0777e-20)
(0.477255 0.443388 1.81299e-19)
(1.08512 0.18255 0)
(1.76159 0.584433 2.17845e-20)
(-0.0851787 -0.0948842 -3.70228e-19)
(0.883964 0.771311 0)
(1.76491 0.526693 0)
(0.29795 -0.297259 -3.91513e-21)
(0.325421 0.30599 0)
(-0.794282 0.273301 -2.88778e-19)
(-0.0386323 0.0981726 -1.0752e-19)
(1.75563 -0.429072 0)
(1.26865 0.0833153 1.96012e-19)
(-0.0149938 0.600786 1.68036e-19)
(0.540467 -0.513141 -4.42104e-19)
(1.74985 0.00690496 -3.94802e-20)
(0.618769 -0.561127 0)
(1.03967 0.125117 0)
(1.36912 -0.273802 0)
(1.12055 0.229116 -2.30406e-19)
(1.36086 0.110555 3.27103e-19)
(-0.946458 0.247253 0)
(0.879824 -0.053303 0)
(2.17328 -0.105685 -1.27823e-20)
(-0.0931889 0.0598901 9.08853e-20)
(2.44394 0.0823249 -2.90007e-19)
(1.09573 -0.517237 1.9001e-19)
(2.00106 0.0441221 -3.20231e-19)
(-0.286229 0.595194 -1.24188e-19)
(1.97548 0.0879557 -1.71679e-19)
(1.01821 -0.0213109 4.00608e-19)
(1.52033 0.607245 0)
(-0.126651 0.277872 2.92262e-20)
(1.01209 -0.835069 1.60669e-19)
(0.858647 -0.0150224 4.64233e-20)
(0.637879 -0.431981 0)
(1.91975 -0.522379 6.37316e-21)
(1.21133 -0.194849 1.38354e-19)
(1.61022 -0.457985 0)
(0.615338 -0.571542 4.16063e-19)
(1.76904 0.0827846 -8.46331e-20)
(2.35187 0.063175 4.49508e-19)
(-0.0873569 0.0569097 -1.8931e-19)
(1.33537 0.622341 1.51522e-19)
(1.15146 0.409981 3.63814e-21)
(0.9068 0.376266 2.19754e-19)
(1.77855 0.178143 -1.25432e-19)
(-0.169729 -0.218691 -1.88944e-21)
(0.884068 -0.000253128 0)
(-0.132409 -0.108432 3.48549e-19)
(1.10584 -0.960464 0)
(1.07029 -0.654966 2.0233e-20)
(0.729374 0.125743 -3.53513e-19)
(1.34511 1.14718 -6.83678e-21)
(-0.506622 0.294706 -3.01769e-19)
(0.990055 0.487208 1.72346e-19)
(-1.11661 -0.374168 2.38315e-19)
(0.696321 -0.0412933 0)
(2.05284 -0.0226854 0)
(1.46311 -0.126067 -3.38771e-21)
(0.779737 -0.00739036 0)
(1.35361 -0.201357 -1.42365e-19)
(-0.613351 0.497052 3.90767e-19)
(1.93854 0.508701 1.79403e-21)
(1.04551 -0.0337618 0)
(0.555186 -0.348367 1.00377e-19)
(1.00935 0.0263169 1.90688e-19)
(0.0712892 -0.113091 -1.10611e-19)
(0.00817993 0.674299 0)
(1.11314 -0.476323 4.55972e-19)
(1.98899 -0.100833 -6.69328e-22)
(1.1052 -0.498541 -1.9857e-19)
(2.32968 0.26947 1.35096e-19)
(1.29072 0.793991 0)
(0.874577 0.0225097 0)
(-0.16361 0.00326645 -1.55795e-19)
(-0.0214672 0.0178783 1.33939e-19)
(0.952108 0.370317 -2.03697e-19)
(-0.0882649 -0.280931 -1.5936e-19)
(0.648403 0.411069 2.3516e-19)
(0.906034 0.490504 0)
(0.545587 -0.507227 0)
(-0.284933 0.0260823 -5.67686e-21)
(1.23737 -0.50744 -9.14088e-20)
(0.784156 -0.0842741 1.49676e-20)
(0.734178 -0.152236 1.13957e-19)
(-0.0905648 0.0608956 -2.39316e-19)
(0.971343 0.19186 2.03231e-19)
(0.659677 0.615007 0)
(1.27358 0.699229 0)
(1.62797 0.264586 0)
(-0.44336 0.00507747 -1.38586e-19)
(1.25345 0.563868 1.83338e-19)
(1.90428 0.0690105 3.85244e-20)
(0.937141 -0.0112938 0)
(2.47222 -0.3977 0)
(2.15988 -0.0569155 -3.16906e-19)
(-0.106473 -0.223718 1.36918e-19)
(1.00517 0.00309826 -1.90919e-19)
(1.50611 0.483983 0)
(0.0335119 0.62802 0)
(1.24603 0.322141 2.87069e-19)
(1.02588 0.530832 -1.28549e-19)
(1.07117 0.0278318 0)
(1.43943 0.179331 0)
(1.9931 0.678743 -2.6742e-19)
(-0.162355 0.148815 -5.94513e-23)
(0.995569 0.0131099 0)
(0.70956 0.475692 -3.25007e-20)
(0.945204 -0.83267 0)
(1.00129 0.0159244 4.42839e-20)
(0.66513 -0.978481 -1.56439e-19)
(0.907594 -0.321735 2.90954e-19)
(-0.584887 -0.654553 1.07709e-19)
(2.07598 -0.0488839 3.14745e-19)
(1.84263 0.0171159 1.05697e-19)
(0.786795 -0.0203655 0)
(1.0127 0.0103831 0)
(-0.691997 0.332682 0)
(0.663754 0.635426 -1.8629e-19)
(-0.060554 0.0363826 1.61566e-19)
(1.17325 0.352717 -4.59724e-19)
(-0.175925 0.659081 0)
(0.830299 0.644675 1.64658e-19)
(1.01174 -0.33341 0)
(1.00539 -0.00174963 1.11771e-19)
(-0.409012 0.141678 2.7309e-20)
(1.03703 0.40785 2.53779e-19)
(1.2892 0.245369 0)
(2.21879 0.149817 -6.81777e-20)
(0.827146 -0.109957 -3.49544e-19)
(-0.83629 0.290256 -3.87074e-19)
(0.373318 0.121404 0)
(0.880647 0.245402 1.706e-19)
(2.03762 0.0101007 0)
(0.777233 0.523844 3.53975e-19)
(-0.80106 0.428747 1.63738e-19)
(-0.0542706 0.0279124 0)
(0.589552 0.560627 -6.92147e-20)
(1.03245 -0.64308 -1.41758e-19)
(0.48084 -0.244447 -1.18038e-19)
(1.02052 -0.0136428 0)
(0.130475 0.585348 -1.46872e-19)
(0.642667 -0.571829 7.76706e-20)
(0.90799 0.292808 0)
(1.93132 -0.250936 2.26963e-19)
(0.983202 0.837606 2.42221e-20)
(0.373314 -0.506189 9.44203e-20)
(0.256393 -0.0544905 -2.76717e-19)
(0.231068 -0.0324516 -5.34173e-19)
(-0.136511 -0.161496 9.34221e-21)
(0.818504 0.361324 2.4086e-19)
(-0.0969396 0.142607 -4.74586e-21)
(1.42077 -0.648962 3.57696e-21)
(1.02368 0.0110072 -3.30958e-19)
(-0.52669 0.19359 0)
(1.03178 0.0362936 -3.93747e-19)
(1.87024 0.0901646 1.04295e-19)
(0.888791 0.691231 2.77512e-19)
(1.13437 -0.0667831 1.52363e-19)
(1.00577 -0.0255205 1.53155e-19)
(1.14989 1.02732 5.17029e-21)
(-0.0860279 -0.0376564 1.57309e-22)
(1.7493 -0.872902 1.56928e-20)
(1.13044 -0.130785 -7.04996e-20)
(0.792607 0.0495934 8.08153e-20)
(0.911661 -0.291052 8.56558e-20)
(1.78629 0.0172437 0)
(0.962978 0.735732 0)
(0.0163386 0.280933 -3.25822e-20)
(2.01147 0.190938 -1.85288e-20)
(-0.67967 0.359003 1.40881e-19)
(1.03502 -0.540722 -4.83469e-19)
(0.62051 -0.535674 3.73515e-19)
(1.1946 0.190183 -1.0177e-19)
(0.00105411 -0.189944 1.80262e-20)
(1.28992 -0.293003 0)
(0.753807 0.117104 -6.52627e-21)
(1.55001 -0.332995 -1.67116e-19)
(1.04068 0.762887 0)
(0.685375 -0.583249 0)
(0.783414 0.389885 0)
(-0.137549 -0.150962 -5.79876e-20)
(-0.130973 0.185017 0)
(0.84564 -0.189372 1.50669e-19)
(1.22639 0.182421 6.32631e-21)
(-0.94752 0.206282 2.19754e-19)
(1.7349 0.147264 6.86058e-20)
(1.83289 0.465143 -5.35021e-20)
(2.09479 -0.291708 -3.55315e-20)
(-0.174581 0.0185313 -1.89636e-19)
(-0.263661 -0.208563 4.17316e-21)
(1.78979 0.0939753 0)
(0.677908 -0.03574 0)
(1.00058 -0.00017808 2.13177e-22)
(-0.503325 0.125591 0)
(1.38897 0.0595403 -9.23279e-20)
(0.678389 -0.0320558 0)
(1.05082 0.00655664 1.22411e-19)
(0.989304 0.0148707 -4.33553e-20)
(1.1513 0.259825 1.30995e-19)
(1.0627 -0.0172429 -8.99364e-22)
(0.950666 -0.189117 -5.17567e-20)
(1.02471 -0.0296125 3.54717e-19)
(0.676109 -0.613255 1.75144e-19)
(-0.66977 0.0433717 -2.77539e-19)
(1.86206 0.258995 6.24776e-20)
(-0.0257239 0.0230999 0)
(1.12656 0.796118 0)
(1.02876 -0.00357386 0)
(1.0084 -0.777599 -9.7643e-20)
(1.05025 -0.898935 3.3142e-20)
(1.83206 0.545099 -3.44864e-21)
(-0.635295 0.30072 -4.53435e-19)
(0.129869 0.204308 -9.31593e-22)
(0.588257 -0.381758 -6.07644e-19)
(2.06636 -0.00744753 -1.39851e-19)
(-0.237237 -0.018786 1.25366e-19)
(2.09318 -0.275882 1.1033e-19)
(1.6326 0.0885092 -6.73089e-20)
(-0.153469 -0.126791 -1.16152e-19)
(1.11592 0.555475 1.96373e-19)
(-0.19579 -0.245588 0)
(-0.19993 -0.125271 3.52461e-19)
(-0.150529 -0.163071 8.69624e-24)
(1.02719 -0.0456022 3.21118e-19)
(1.02402 0.00311978 -8.21308e-21)
(1.10619 -0.00988596 -8.87094e-20)
(1.12245 0.881791 -2.97464e-21)
(1.63615 0.323114 6.2509e-20)
(0.40311 -0.377243 -3.01494e-19)
(1.3603 0.555716 -1.0584e-20)
(1.03496 0.00429235 -2.33956e-19)
(2.19722 0.385953 -6.43639e-20)
(1.1018 0.904799 0)
(1.11212 0.593972 -3.68469e-19)
(1.00268 -0.00434914 9.11884e-20)
(0.675546 0.604739 2.52508e-19)
(1.04238 -0.222298 -8.56295e-22)
(1.06712 -0.00934463 -2.93421e-20)
(1.12619 0.0166229 8.30768e-22)
(2.36034 0.131727 1.56448e-20)
(1.59617 0.208065 0)
(1.04293 -0.0408842 0)
(1.04855 -0.0350306 5.61843e-19)
(1.00249 -0.00266174 0)
(-0.117911 -0.130028 0)
(0.977317 -0.589634 0)
(1.001 -0.000654994 -5.3032e-19)
(1.16302 -0.684496 7.70162e-20)
(1.02377 -0.00272398 1.11063e-20)
(1.34384 0.957883 -2.8754e-20)
(1.52712 1.00628 1.90118e-20)
(0.0138563 -0.4292 3.06974e-21)
(1.21104 0.111263 9.44462e-20)
(1.69633 -0.11217 0)
(-0.179299 0.233585 0)
(2.06115 0.195928 2.80267e-19)
(1.31744 -0.608712 0)
(0.999798 -0.00519782 -1.64384e-19)
(1.01074 -0.00119584 3.19369e-19)
(1.46367 0.145097 -6.93856e-20)
(0.00968967 -0.112773 2.71516e-19)
(0.978434 0.00166509 1.73985e-19)
(0.963154 0.135699 -1.7967e-20)
(0.924767 -0.00967128 -1.82562e-20)
(1.12777 0.930462 -1.71477e-23)
(0.93013 0.0175772 -1.74137e-19)
(1.0036 0.00386773 2.0596e-19)
(1.00036 -0.000644399 1.21723e-20)
(0.789179 -0.013476 0)
(0.726838 -0.0271583 0)
(0.722368 -0.0276181 6.52016e-22)
(0.698589 -0.0300133 0)
(1.3423 -0.182997 0)
(1.03566 -0.0939004 0)
(0.832074 -0.0308043 1.18336e-20)
(0.899798 0.00109644 -7.69174e-21)
(1.53616 -0.016825 0)
(1.34733 0.701987 4.40508e-20)
(1.04854 0.824146 0)
(0.573566 0.114161 0)
(0.819068 0.18787 0)
(1.24873 0.251975 1.68924e-20)
(1.77694 0.115744 1.48413e-19)
(0.776532 0.0237339 0)
(0.786143 0.0201141 0)
(0.968007 0.0205193 -2.14747e-19)
(0.81449 0.0078331 4.01405e-19)
(1.00786 -0.0013174 0)
(1.00021 -0.000623709 3.80696e-19)
(1.00023 -0.000725909 -3.63216e-22)
(0.785032 0.0224294 3.4082e-19)
(0.997288 -0.00515161 -1.99698e-19)
(0.613876 0.0837736 0)
(0.902474 -0.0426788 1.82703e-20)
(1.00065 -0.00158835 -1.92589e-19)
(0.99952 0.000943535 -3.30209e-19)
(0.661508 0.554934 0)
(0.999082 0.0015002 0)
(0.999678 0.000120396 0)
(1.61582 -0.22829 3.21276e-21)
(0.28021 0.403585 -1.88219e-21)
(1.71636 0.460347 0)
(-0.101952 0.3049 1.96574e-19)
(-0.815471 -0.0520898 -1.90799e-19)
(1.01957 -0.014642 -2.5668e-19)
(-0.240838 -0.145559 -9.84231e-20)
(1.01918 0.00424825 -2.06217e-19)
(1.17049 -0.217556 -9.26103e-20)
(0.802018 -0.472682 2.8879e-19)
(-0.101468 -0.11382 -8.82915e-20)
(1.03094 0.0130301 0)
(1.05878 -0.0117212 -5.65758e-20)
(0.851645 0.0217713 0)
(-0.0879956 0.0682693 2.36239e-19)
(0.913066 -0.739299 0)
(-0.328191 0.0171782 -2.38483e-19)
(1.33714 0.135284 -8.11014e-22)
(1.65945 0.68952 -2.14896e-20)
(-0.0621997 0.0076045 0)
(1.05225 -0.0383965 1.73758e-19)
(-0.299018 0.124042 -1.7364e-22)
(0.928447 -0.0070656 2.72422e-19)
(1.01206 -0.00834109 -1.74988e-19)
(1.67687 0.866574 2.88531e-20)
(0.521921 0.490501 0)
(0.447056 0.403977 1.9644e-19)
(2.2801 -0.31521 -6.20671e-21)
(1.15179 0.127531 1.91416e-19)
(1.09269 -0.714351 0)
(1.02297 0.00445637 0)
(0.999802 -0.0182307 -4.03039e-19)
(1.01898 0.0156447 -3.91677e-19)
(-0.154035 -0.180575 0)
(1.22299 0.823833 -1.32329e-19)
(1.05842 -0.0677208 9.11646e-22)
(1.01605 0.00391573 1.511e-19)
(1.01205 0.0135791 -1.89163e-19)
(-0.322125 0.148668 -2.33821e-20)
(-0.115453 0.0872747 2.84823e-20)
(1.01812 -0.0140853 6.45008e-19)
(1.33667 -0.0751498 0)
(1.8619 0.654877 -3.4552e-20)
(1.01553 -0.0109167 -2.00765e-19)
(1.87568 0.0529049 -1.02412e-19)
(1.06193 0.0102648 -4.65018e-22)
(1.00926 -0.0100628 4.01885e-20)
(2.05159 -0.100246 -2.65199e-19)
(1.01626 0.00692185 1.9439e-19)
(0.513612 0.501068 1.87482e-20)
(1.0186 0.0041889 0)
(0.935323 0.153388 4.8299e-20)
(-1.12312 0.271821 4.10253e-21)
(1.00007 0.0219846 1.93001e-19)
(1.0407 0.0209388 -6.24586e-22)
(0.709389 -0.202679 -1.73241e-20)
(1.26316 0.319445 4.13721e-19)
(0.996363 0.0158704 1.32593e-19)
(1.01687 -0.0133283 4.55127e-22)
(1.75578 0.256155 -2.55203e-20)
(1.77086 0.94559 -9.6169e-20)
(0.782094 -0.70159 5.4526e-20)
(0.450736 -0.320535 -2.94805e-19)
(1.00702 -0.0100267 0)
(1.02085 0.00318096 4.82982e-20)
(1.01103 -0.00842634 1.0205e-19)
(0.678965 0.622901 2.26673e-20)
(1.01465 0.00638012 -2.02395e-19)
(1.02884 -0.0214961 2.30968e-19)
(1.00779 -0.00828365 -1.90813e-19)
(1.01361 0.00555155 -4.85561e-22)
(1.01299 0.00265858 -3.29712e-22)
(1.02564 0.0141437 1.93681e-19)
(0.902855 0.0888258 4.9433e-19)
(1.36872 -0.289535 0)
(-0.0188714 0.164365 1.25699e-19)
(1.01145 -0.00291832 0)
(1.02112 -0.016213 -5.62743e-20)
(1.5388 0.447662 -8.72852e-20)
(1.56075 0.0181559 0)
(2.3373 -0.209983 -1.82852e-19)
(0.811966 -0.19135 -3.36416e-20)
(0.764279 -0.0182804 0)
(1.90738 0.0909021 0)
(-0.525673 -0.325194 -2.04836e-19)
(1.19929 0.812725 -2.38842e-20)
(1.01779 -0.00375642 -2.04129e-19)
(1.12241 -0.564925 -5.6155e-20)
(-0.0527303 -0.00824686 -3.12991e-20)
(0.581647 0.357995 0)
(1.41236 -0.240982 0)
(1.91979 -0.194525 0)
(-0.148378 0.119908 7.09666e-20)
(0.775401 0.812387 -1.3129e-19)
(-1.35975 -0.422478 0)
(0.176397 0.519796 -1.87854e-19)
(1.70138 0.971537 -4.23925e-20)
(1.00814 -0.00278443 -3.98729e-19)
(0.807907 0.798047 4.3293e-21)
(1.02119 0.00973549 2.63869e-19)
(0.693339 -0.0439733 0)
(-0.162132 -0.18458 -2.76725e-20)
(0.616142 0.4372 -3.31728e-19)
(1.39498 -0.147962 1.88463e-19)
(0.0414978 0.403361 0)
(0.785643 0.0745153 7.2602e-20)
(0.518987 0.496642 5.04452e-20)
(1.18785 0.886622 -3.59344e-20)
(-0.0846562 -0.0895062 1.35129e-19)
(1.02158 0.0145309 0)
(0.691475 0.562527 -1.08176e-19)
(1.01192 -0.00171711 1.4979e-19)
(2.31752 0.17759 0)
(1.01223 0.00756804 2.51033e-19)
(-0.0984264 -0.160874 -1.70136e-19)
(1.01882 0.0112898 -1.55473e-19)
(1.55304 0.86849 0)
(2.53344 -0.206088 7.23895e-22)
(1.009 0.00378142 -1.04288e-19)
(0.996089 -0.0251747 2.75272e-19)
(1.09379 0.0993136 -2.46725e-21)
(0.517827 0.253775 1.30184e-19)
(-0.115572 -0.132996 3.55435e-19)
(2.01161 0.261032 1.44047e-19)
(-0.0605192 -0.125501 -1.43129e-19)
(0.799414 0.014636 -3.76275e-19)
(0.812889 0.0290709 0)
(0.474899 0.25529 -4.49505e-20)
(1.02153 -0.0135381 -3.02551e-20)
(0.971645 0.0303924 0)
(1.05074 0.00319698 -1.92454e-19)
(-0.658847 -0.919495 1.18909e-19)
(-0.906173 0.28458 1.65031e-19)
(2.1658 -0.564148 0)
(-0.42889 0.275877 -6.75785e-19)
(1.51499 -0.342703 0)
(1.0401 -0.0178806 5.63758e-20)
(0.815644 0.615835 -1.57111e-21)
(1.0142 -0.000780501 1.61863e-19)
(-0.454973 0.526811 3.64452e-19)
(1.01929 0.00316489 0)
(0.994267 0.00360019 -3.90636e-19)
(1.00888 0.00782537 2.05892e-19)
(1.54687 -0.0964824 0)
(0.338804 0.261586 9.79887e-21)
(0.956161 -0.00128137 -1.76128e-19)
(-0.215675 -0.191881 3.63713e-19)
(1.00399 -0.00147132 -2.00863e-19)