/*--------------------------------*- C++ -*----------------------------------*\
| =========                 |                                                 |
| \\      /  F ield         | OpenFOAM: The Open Source CFD Toolbox           |
|  \\    /   O peration     | Version:  2306                                  |
|   \\  /    A nd           | Website:  www.openfoam.com                      |
|    \\/     M anipulation  |                                                 |
\*---------------------------------------------------------------------------*/
FoamFile
{
    version     2.0;
    format      ascii;
    arch        "LSB;label=32;scalar=64";
    class       volScalarField;
    location    "47";
    object      p;
}
// * * * * * * * * * * * * * * * * * * * * * * * * * * * * * * * * * * * * * //

dimensions      [0 2 -2 0 0 0 0];

internalField   nonuniform List<scalar> 
2186
(
1.25452
0.0440496
0.379424
1.50423
-0.567389
0.28841
1.12161
-1.20713
-0.374705
1.72854
1.42815
-0.640084
-1.26573
1.44462
-0.180862
1.43533
1.46734
-0.724509
0.00654555
-0.763344
1.83329
-0.691274
1.45134
-0.741609
1.4429
1.48245
1.65562
1.34023
0.91641
1.44362
-0.70871
1.44288
-0.840482
0.168287
-0.644334
0.398221
0.309896
1.82382
-0.215803
0.218828
-1.28577
-0.672158
-0.324965
-0.832387
1.25958
1.71666
0.780564
0.970581
1.03747
-0.651566
-0.724702
1.25563
-0.297873
1.75364
-0.901529
1.38899
-0.390994
1.41412
-0.136098
1.28831
0.795668
0.965763
0.877046
0.117215
0.898891
0.913463
0.997867
1.71983
1.61366
-0.475128
-1.19923
0.746871
1.6908
1.44558
1.59002
1.5796
0.814183
1.46108
-0.664703
-0.486218
-0.082764
0.131701
1.43931
0.949501
1.43562
1.44041
1.72173
0.151304
0.665846
-0.65828
1.39527
-0.730692
1.3816
1.60404
1.4508
0.727651
0.24631
0.911287
-0.590136
1.4286
0.265899
0.0785109
0.972676
1.41637
1.46979
-0.843502
1.63147
-0.109195
1.38798
-0.997916
-0.480788
-0.644742
0.986676
1.75377
-0.411947
-1.24145
0.5297
0.982884
-0.662142
1.69446
0.248344
-0.746136
1.2107
-0.884656
1.44058
0.45717
-0.584497
1.57568
-0.7951
1.10235
1.78941
1.65407
0.670673
1.09482
0.150947
-0.7305
1.36231
-0.41162
0.152099
-0.827206
1.1483
0.223489
-1.15136
1.14814
1.37889
1.42341
-0.0990958
-0.586537
1.07454
-0.836133
-0.628505
1.0319
1.46412
1.60962
1.4861
0.980105
1.71915
0.778495
0.6955
0.87003
-0.796165
-1.04256
1.39361
1.43735
0.204843
0.107356
-0.57306
-0.603359
0.271804
0.385927
0.667255
1.43619
1.46789
1.54313
0.735524
0.230017
-0.625057
1.39123
-1.63696
1.21296
-0.584695
1.4559
-0.752905
0.866072
0.84886
-0.648859
-1.53151
1.53829
0.100362
-1.25056
-0.942407
1.68637
0.615114
1.43505
-0.762178
-0.744172
0.359566
1.60005
1.46205
-0.702016
-0.886827
-0.411136
0.503605
1.47531
-0.64979
-0.571272
-0.672277
0.860441
1.35219
0.61653
0.984784
0.360813
1.73724
1.17893
1.28816
1.39938
1.59762
1.44552
1.34464
1.49702
0.887691
-1.34576
-0.833139
0.386298
0.619292
-0.707779
-0.573339
1.42569
1.58061
-0.680176
-0.568923
-0.465912
0.812251
1.11505
1.26929
1.34464
1.55099
-1.2352
1.34435
-0.962619
-0.629327
-1.26388
1.38061
1.06887
1.55948
1.61474
1.51183
1.48822
-1.09476
1.27188
1.52316
-1.2444
1.36579
1.12177
-0.539755
-0.671991
-0.559329
1.56238
1.46059
-1.29561
-0.225697
-0.0518824
1.39635
-0.75083
1.08909
1.46182
1.33894
-0.60088
-0.725679
1.42963
0.967469
0.10453
0.194189
1.7801
-0.577503
-1.13338
1.32292
1.61212
1.4391
-0.589319
0.529074
-0.322506
1.28409
-1.30525
0.993562
1.42424
1.47645
0.241881
0.182786
1.36931
-0.563752
1.39235
1.62096
1.45715
1.45447
-0.241332
-0.777716
-0.725272
0.773043
0.892886
0.851464
0.814239
-0.158853
0.935548
1.59705
1.62855
1.28634
-0.187583
1.55806
-0.677835
0.0109145
-1.01094
-0.763667
-1.25878
0.804144
-0.645116
-0.651926
0.450089
1.30639
0.339959
0.688509
-0.688188
0.899491
-1.26783
-0.615883
1.65111
0.25427
0.387005
-0.757417
1.23735
0.898443
0.197862
1.03434
-0.303214
-1.26831
0.994285
1.46794
1.46988
-0.537525
1.58544
1.33445
0.680874
1.66463
1.42867
1.39942
0.880792
0.667695
-0.855487
1.22838
-0.796111
-0.642959
-0.817915
-1.36072
-0.663463
1.81438
-0.2376
-0.712511
-1.21541
1.42835
-0.637656
0.883655
-0.853035
1.20989
0.687599
-1.372
1.68147
1.75043
1.55843
-1.16938
0.321561
1.83427
1.43535
-0.926096
0.766495
-0.998346
0.601629
1.59748
1.36197
1.35078
1.73068
-0.0349855
0.66087
0.445077
0.335659
-0.919713
-0.660395
0.0715188
1.7541
-0.733007
-0.555204
1.4172
1.03244
-0.712192
-1.05573
-0.88682
-0.661877
-1.10079
-0.734467
-0.911319
-0.567888
1.63214
-0.178
-1.34319
1.45676
-0.892371
1.68015
-1.56319
-1.493
-0.819456
1.44199
-0.577514
1.45928
1.29767
0.0108813
1.50265
-0.774527
-0.692413
-0.952717
1.45412
1.40461
-0.698085
-1.01401
-1.05826
1.36122
-1.19665
-0.751739
0.830468
1.33355
1.3487
1.20565
-0.795408
0.445742
1.19639
0.0584009
1.29073
-0.996265
1.46259
0.238247
1.57059
-0.661803
1.3012
1.04446
1.46605
-0.701259
1.41945
0.365431
-0.6815
1.44501
-0.677082
0.482373
-1.32556
0.303835
1.43829
0.636234
0.753808
1.4266
0.536208
0.419349
0.458486
-0.713353
0.765858
-1.29419
1.04684
-0.364199
1.46873
1.5661
-1.11026
-0.745559
0.469658
-0.680016
0.756502
-1.24722
1.19598
0.509475
-1.24997
1.50611
0.257788
0.678273
0.730644
0.648672
1.15331
0.649063
0.672605
-0.340101
-0.113567
-0.800183
1.45346
-0.612975
1.56131
1.6558
1.64675
0.984423
1.58443
-0.563249
-0.858105
1.36713
0.657054
1.41803
-0.640993
-1.24723
-1.80245
1.27963
-0.70168
-1.68783
-0.740545
-0.779592
0.370109
-0.166333
1.07807
1.06022
0.242908
0.0762785
1.2018
0.495615
1.54672
-0.598934
0.0892715
-0.708945
1.1107
0.524971
1.60143
1.85278
-1.87226
-0.570605
-0.509451
0.664314
-0.866414
1.47682
0.122312
1.43654
1.12157
-0.688779
1.24354
1.20483
-1.5037
1.35323
0.708578
-0.693084
0.741863
-0.610166
0.652524
-1.02289
0.299866
1.44585
0.511558
-0.606449
1.04064
1.5855
1.64233
0.0827434
1.24306
-0.429969
1.22764
0.526391
0.82307
-0.668452
0.816619
1.16685
1.45649
-0.501182
-0.852385
-0.918486
-0.6615
0.290317
1.18824
-1.12194
0.0404109
-1.22123
1.3171
-0.238244
1.36496
0.736521
0.356447
1.40697
1.15618
-1.46503
0.100922
1.38163
1.71304
1.46393
-0.065768
-0.70529
1.27014
0.742807
1.2571
-0.131187
0.75998
1.37818
-1.25321
-0.707056
1.4082
-0.623666
1.66801
0.62689
1.32499
-0.076188
1.09622
-0.504245
1.67384
-0.71266
0.514252
1.34379
0.845268
0.824375
-1.14207
-0.724798
0.106545
1.13897
0.441267
0.375737
0.0226401
1.45459
0.710515
-0.690704
1.09653
1.26184
1.40296
-0.692369
-0.583204
-0.722081
1.45576
1.59239
0.93776
1.45269
-0.75015
1.51302
-0.352002
-0.1939
0.272689
1.39388
1.4257
-1.49503
1.21866
-0.703745
1.16678
-0.640984
1.38862
1.41622
1.45423
-1.00808
1.29675
0.307157
0.168099
1.61152
-2.02371
-0.320748
1.52572
-0.566405
1.51023
-1.71875
-0.677791
1.44009
1.23967
1.7753
1.44264
-0.676473
1.52138
1.48693
0.201063
0.975973
-0.603713
-0.419253
1.91099
-0.868384
1.54355
-0.61837
0.76854
1.4432
-1.21447
1.40939
-0.140945
1.30057
1.4194
1.45819
-0.0100466
-1.24539
-0.246699
1.08572
1.17264
1.52608
0.487429
1.19188
-1.3244
0.141435
-1.57964
1.30075
1.58024
-0.413655
-0.511529
-0.0649249
1.6656
-0.124847
1.08551
-0.470841
0.0255048
-1.09381
-0.692917
0.109425
1.1684
-1.19402
0.411232
-0.0387314
-0.0438063
-0.759264
-0.909744
0.387113
1.38975
1.45893
-1.17648
0.223119
1.40893
1.40377
1.46073
0.527271
1.40403
1.51592
1.44785
1.49973
-0.479026
0.656247
-0.705772
0.956476
1.45285
1.16525
0.583332
0.794582
-1.41684
0.0689274
1.68336
0.59308
-0.0207225
-0.173545
0.678077
-1.23289
1.14254
-0.669857
-0.845979
-0.691016
1.43168
1.44602
1.44307
0.0429806
0.678923
1.65956
0.881418
1.4455
0.6646
0.263908
1.1146
1.45632
1.49788
0.217325
1.39192
1.39662
0.543792
0.768689
1.44421
1.45851
1.45752
-0.725732
-0.69611
1.45863
1.07115
1.44499
0.506716
0.141041
0.071642
-0.448195
0.359777
-0.809088
-0.529547
-0.633847
1.4628
1.46722
1.11482
-0.659945
1.43141
0.993678
-0.0133194
-0.0707604
1.44491
1.46493
1.45944
1.46917
1.44494
1.4365
1.42476
0.844126
0.16722
0.156592
0.145506
-0.0474553
-0.0364728
-0.0556921
0.809818
1.11106
0.939261
0.616837
1.44106
1.45717
1.45238
1.47292
1.47007
1.4599
1.46131
1.44851
1.4417
1.01357
0.111537
1.45901
1.45995
0.00980034
1.46263
1.45938
0.167667
0.0678126
0.769882
-0.621239
-0.521094
1.4403
-1.283
1.44371
1.14169
1.52459
-0.830861
1.44419
1.35553
1.40627
-0.715486
-0.663689
-1.24635
0.846154
0.23996
-0.711103
1.4513
0.199009
1.52816
1.44252
0.0911102
1.60427
1.77817
0.0752302
1.25955
1.12639
1.43466
1.45395
1.45187
-0.873866
0.811086
0.358745
1.44233
1.45678
-1.21899
0.198986
1.44272
0.365332
-0.0703787
1.44452
0.241114
1.41319
1.45516
-0.27798
1.45441
0.0735685
1.44509
1.49507
-1.81609
1.46117
1.46808
0.357529
1.04101
1.44802
1.44603
0.498124
-0.568989
1.17192
1.76365
1.45135
1.44893
1.44903
0.0909887
1.44753
1.44274
1.449
1.44608
1.44627
1.4478
1.53431
0.404605
-1.5649
1.44909
1.4379
0.618773
0.261104
0.463745
0.208309
1.26973
-0.647885
0.0274924
0.0215714
1.44391
1.19961
0.136289
0.0981194
0.138807
0.289216
-0.971956
0.124842
-0.30115
-0.775401
-0.0927108
1.45205
0.0550802
1.43974
1.32731
-0.768488
1.68384
0.291085
-0.865465
1.24925
1.55718
0.783393
-0.669226
1.43215
0.112567
1.44922
0.342237
1.45016
-0.722361
1.44041
0.253311
0.617469
1.45095
1.46813
1.34544
-0.0521222
-0.656863
-0.400285
-0.323272
1.46629
1.3083
-0.110195
1.43699
1.48298
1.42441
-0.639483
-1.95901
-0.270674
-0.93746
0.836451
1.44317
0.310888
1.4476
-1.12771
1.43879
1.47769
1.45364
-0.0309405
0.135452
1.48015
-1.16194
1.45579
1.45834
0.466787
-1.18808
1.338
1.55865
1.43827
1.4264
-0.467715
-0.75122
1.427
0.862631
1.45338
1.30332
-0.729068
-1.11378
1.24339
1.68792
1.43628
0.799804
0.119545
-0.370659
-0.0162561
-0.12651
1.43853
0.769387
1.41621
-1.12251
-0.775856
-0.567328
0.803979
-0.611979
0.155843
-0.791136
1.43777
-0.668187
1.30437
-0.915638
0.234708
-0.656917
0.0965908
-0.504756
1.39962
-0.535904
-0.49149
-0.83725
0.032275
1.44164
-0.476788
0.106158
0.106332
1.49691
0.239484
-0.915836
1.507
1.43847
1.43244
0.980568
-0.570811
1.43827
1.46076
-0.0245949
-0.614717
1.43735
1.2532
1.69134
1.4554
0.66843
-0.439366
-0.668215
-1.26092
-0.768669
-0.692349
-0.287957
-0.534479
1.25932
0.397186
1.45358
1.64322
1.43109
-0.659238
-0.786798
1.4384
-0.350375
-0.909915
1.43367
0.330699
-0.72867
-1.49539
-0.120275
1.36019
1.32855
0.136487
1.32188
1.04194
-0.171158
1.44011
-1.17982
1.19881
-0.880263
1.45203
-0.0987184
0.898633
1.44009
1.51598
0.525873
-1.77818
1.22505
1.81166
1.46017
1.42913
-0.345571
1.66802
-0.507944
-0.940501
-0.485056
0.923778
0.599074
1.54888
1.60274
-0.98566
0.0827593
1.43233
0.234452
1.32732
1.46891
1.37943
0.734561
1.43941
0.163611
1.47168
0.0208625
-0.466698
0.144411
1.4434
0.0286818
-0.210304
-0.0650243
1.46483
-0.49696
1.62401
0.706683
1.77883
1.3956
0.0874597
1.44038
-0.689314
1.39358
1.40205
-0.760429
-0.177565
1.55018
1.41886
1.66695
1.37647
0.54792
1.37422
1.44722
1.25913
1.44503
-0.476241
-0.608917
-0.360277
1.55501
0.0465289
-0.711001
-0.717697
-0.0737688
-0.0756585
0.576351
1.26374
-0.376159
1.41791
1.47041
-0.609476
-0.580722
0.227054
-0.519108
-0.323584
-0.655997
1.43531
0.27017
1.45554
1.67197
1.50011
0.166563
1.46242
1.35059
-0.103411
1.42494
1.40931
-0.77609
1.41308
1.34602
0.157716
0.45783
1.88072
0.632828
-1.16703
-1.28986
0.677313
1.43087
-1.02738
0.394464
-0.709564
1.56508
-0.592123
1.24902
1.44516
1.44675
-0.12349
1.44249
0.258227
1.45125
1.4666
-0.096569
1.4574
0.864231
1.45034
1.19009
-0.739871
-0.0712757
-0.0331437
-0.145043
1.67901
0.917551
1.45683
1.84745
0.270836
-0.00403212
1.51123
0.0759156
1.50776
0.178023
0.46796
1.5022
1.50675
0.874203
-0.967072
1.14938
-0.815683
-0.719469
-0.467885
1.45949
1.45935
1.82632
-0.668439
-0.573726
1.1996
-1.21407
1.50087
1.39721
1.45557
1.42467
1.42037
-2.09298
-0.706297
-1.23173
1.20188
1.33223
-0.143752
-0.644021
-0.951369
1.45998
1.49087
0.191135
-1.64742
1.47415
-0.104971
0.591937
1.1666
1.33096
0.489929
-1.22438
0.188866
-1.25449
-0.663823
-1.35877
0.15553
1.77576
1.83693
-0.651815
-1.29205
1.45852
1.43705
-0.692107
0.412611
0.028688
1.03094
1.53041
-0.819848
1.44648
0.397558
-1.24198
0.0639834
-1.04077
-0.820187
1.44761
-1.26867
-0.86675
1.81801
-1.25315
1.44728
1.66742
-0.626452
1.49036
1.67417
-0.565194
1.69929
-1.2442
-1.158
1.43279
-0.35742
1.46466
1.45111
-1.22716
1.51673
0.610731
-2.12341
1.47776
1.4798
-0.580909
-1.33952
1.35965
1.4391
-1.11278
-0.216238
1.74525
-1.20175
1.32075
0.32314
1.41137
-0.649863
-1.88114
-0.92901
-0.57617
1.5263
1.49178
1.7057
1.65643
1.39528
1.4976
1.4906
-0.871844
1.57229
1.58251
-0.575572
-1.16425
-0.802644
1.79152
0.469743
-1.11551
-0.418793
1.3499
-0.56497
-0.743028
1.44308
1.46969
-0.990009
-0.616102
-1.21095
0.157164
-0.678881
-0.564154
-0.820383
1.29873
1.35021
-0.65932
-0.167565
-0.539212
1.24546
-1.20815
-0.602846
-0.777648
1.40157
-1.34163
-0.601547
1.73968
1.37181
0.910291
1.63039
-0.774726
1.43292
1.44762
1.57538
1.64161
0.363855
1.07132
1.42732
0.710707
-0.741459
1.8706
1.4428
1.38815
1.52337
-0.588221
-1.38744
1.34208
1.1931
1.42476
-1.96716
-1.98932
1.44015
-0.81749
1.31899
0.071315
1.89006
-0.714983
1.13097
1.19865
-0.69468
-0.693246
-0.419838
1.51687
-0.684698
-0.679374
1.16539
1.0033
-1.23816
1.50218
1.31859
-0.672841
-0.937112
1.36739
-1.89341
-0.680032
-1.04678
-0.713634
-0.151518
1.39594
1.46935
-1.79326
1.08056
1.4515
1.79115
0.747503
0.65076
0.368528
1.35212
-0.0586956
-0.702231
0.612227
-0.248181
-0.707554
1.42187
-0.7491
0.531612
-0.670167
0.929718
1.03309
-0.711657
1.10856
-1.12665
0.958221
-0.714356
0.848909
-0.711787
0.844624
-0.661085
0.758294
-0.717179
1.28515
-1.51543
-0.722901
-0.735564
-0.703513
1.4585
0.527245
-0.765969
-0.662872
0.386263
0.514419
-0.774187
-0.729128
-0.809164
0.29695
-0.675081
0.207325
-0.709414
-0.0234908
-0.891517
0.113199
1.29213
-0.0492706
-1.86507
1.40169
0.392415
0.141019
0.934377
1.43024
-0.415511
-2.04871
-0.660257
-1.51186
1.37774
1.87903
0.307259
0.1894
0.479899
-1.24787
0.0991851
0.0612749
1.38844
-0.752411
1.42223
0.576917
1.95228
0.975173
1.81839
-0.631019
1.62551
-0.257319
1.47496
-0.191046
-0.659291
1.51957
1.45408
-0.389942
-0.672294
-0.717506
1.38114
-0.911152
1.41792
0.25285
-0.992373
-0.959617
1.75056
1.46011
1.5572
1.43846
1.46284
0.0214733
0.0367272
1.65432
-1.58802
-1.29269
1.88753
-0.687705
1.32118
1.42655
1.8109
1.84492
-0.744883
-0.990555
1.49023
0.704177
-0.0775195
-0.68003
0.287968
-1.73927
-0.62821
1.07444
-1.28292
1.63605
0.0456517
1.46671
1.56361
1.45501
0.274052
-0.64412
-1.18769
1.53468
-1.1756
1.61762
-0.453992
-1.02256
1.69007
1.72495
-0.664662
0.432182
1.4134
-1.23229
-0.818148
1.15878
1.73147
1.67058
-0.638036
1.2865
1.24399
-0.6612
1.67938
0.644342
-0.646163
0.361382
0.670111
0.0830357
1.54446
-1.20783
0.617422
0.291632
-0.505572
-1.32822
-0.650101
1.41459
-0.516102
1.43986
0.247658
0.531092
1.19605
0.769434
-0.650453
-0.381622
-0.883317
0.540379
0.193898
0.343685
1.34369
-1.66679
-1.23237
1.42409
-1.2041
-0.578656
1.45792
-0.487142
1.38399
0.388285
-0.811657
0.12875
1.27693
-0.391569
-1.11044
1.36553
-1.0343
1.5292
-0.213562
-1.12683
-1.28131
-0.662549
1.88039
-1.47837
1.58096
0.231254
1.42245
1.62217
1.20963
1.49037
1.60062
0.30984
0.959816
1.43807
1.5484
1.7847
-1.26209
1.47575
1.05491
-1.25005
1.26088
1.6379
-0.331819
1.81403
0.492788
-0.685262
1.29974
-1.23864
-0.723843
1.42126
-0.205982
1.51267
1.49955
1.37249
-0.620048
1.30686
1.72213
-0.696131
0.0200806
-0.968083
-1.08803
-1.1613
-0.680968
1.75919
1.21531
-0.567499
1.36525
-1.21753
-1.14739
1.69079
1.67869
-0.323622
-1.42082
-0.663511
-0.943594
1.44777
-0.562207
0.558087
-0.71524
-0.0733168
1.51583
-1.13775
1.86435
1.47787
1.35903
1.44927
1.76875
-1.12626
-1.18573
1.48244
1.5941
-1.16109
1.46433
-1.72352
-0.903391
-1.07766
1.51262
1.54924
-0.962804
-0.575975
1.03402
0.413568
-0.339465
1.40874
1.37497
-1.4188
1.42012
1.46773
-0.7125
-0.568688
-0.584436
-0.844848
-1.04345
1.73309
-0.665519
1.32362
-0.562372
1.7226
1.2782
1.2702
1.35071
-1.99179
0.274461
-0.796572
0.896356
-0.607401
1.37382
0.736799
-0.208629
1.26014
1.45364
1.48136
1.43523
0.110021
1.48669
0.148236
0.901704
1.19233
-0.281099
-0.580742
-0.816012
-0.457165
1.45633
1.42033
1.45682
-1.19918
-0.467315
-0.7566
-0.652316
1.44899
1.7411
1.46342
-0.593338
-1.03052
-1.17172
-0.297444
-0.665878
-0.664251
0.0904102
1.42158
-0.813057
-0.665356
0.202739
0.335224
1.10585
-1.42331
-0.726288
-0.516844
1.34329
1.86428
0.0194645
1.5543
1.93011
1.03901
1.64332
-0.583641
0.251929
1.79744
-0.702762
0.793206
-0.622332
-1.05661
-0.71674
-0.689917
1.44941
1.1917
1.63705
1.5936
-0.00646951
1.2382
0.381628
0.0745416
-0.683958
1.5582
1.10795
1.45923
1.47537
0.584272
0.108274
1.47844
0.109167
-0.666353
-0.67819
-0.732893
1.08492
-0.698684
1.42103
1.12852
-0.709928
1.65632
-0.597348
-0.0581724
1.43637
-1.17947
-1.23331
-1.44599
0.968762
-0.651402
-0.854032
1.31948
1.46729
0.129015
0.539966
-1.75951
-0.671723
-0.949015
-0.648183
0.284771
1.0594
-1.15073
-0.705215
1.71696
0.59688
0.707954
-0.709871
-1.08155
1.44609
1.49023
0.891419
0.993908
-0.7129
-1.24916
-0.364207
0.807193
0.897305
-0.715807
1.2342
0.467719
-0.718467
1.9141
-0.726577
-1.13511
-1.02723
-0.648483
1.29763
-0.746331
-0.573014
-0.666083
0.4312
-0.784772
0.30761
-0.690465
0.82497
1.61072
-0.843282
0.229166
-0.69154
0.107912
1.80591
1.80424
1.67932
1.45078
1.65265
-0.569678
1.4323
-0.588037
1.49022
-0.660903
-0.506585
1.68455
-0.379226
0.986448
-0.444332
1.82302
0.309119
1.76588
0.966999
1.15634
-0.637202
-0.614431
-0.660809
-0.783875
1.74923
1.62897
1.42604
1.13174
1.44234
1.32188
1.20562
-0.700048
-0.878182
0.622083
0.237459
1.17784
1.45138
0.393479
-0.662712
-0.709248
-0.880033
-0.659314
0.951088
1.75289
1.47042
1.44531
0.528196
0.180942
1.47474
0.317894
-0.675859
-1.74094
-1.24853
1.16277
-0.671256
-0.712296
0.0975122
1.42751
-1.32567
-1.02592
1.44083
1.06812
1.22334
1.4333
-0.665653
1.25738
1.6356
1.29705
-0.660045
1.44371
0.802519
0.806575
-1.05809
-0.693844
1.89745
0.762994
-0.117656
0.52836
1.29839
1.37358
-1.25934
-1.35202
0.591267
-0.842991
-0.584573
-0.572443
0.413747
1.4265
-0.626582
1.40629
1.71402
1.53297
1.39862
1.50142
1.57085
1.43885
-1.3486
-0.313922
-0.1702
-0.73396
-0.406099
-0.712698
1.57397
1.46193
-1.21971
1.43618
-0.953156
-0.897487
-0.719693
0.357423
1.03959
-0.690037
1.42144
1.29942
-0.876066
-0.0209636
1.77668
-1.14544
-0.632964
-0.551797
-0.582506
-0.69203
1.4979
1.14575
1.55027
-1.22386
0.260852
-0.619096
-0.0898329
-1.23251
-0.21506
-0.90245
-1.63196
1.30232
-0.316706
1.84932
-0.988946
-0.154999
-0.685496
-0.713181
1.40898
-0.716566
-1.20075
-0.456961
0.193117
1.63227
1.66148
-1.88583
0.1908
1.20195
-0.674941
-0.424385
1.56141
0.0204594
0.814123
-0.670966
1.12051
0.0160892
-1.23526
1.42696
0.433783
-0.563989
1.43165
-0.94944
-1.26786
-0.668967
-0.799931
0.408675
-1.24177
1.77003
-0.726378
0.657927
-0.660676
1.16685
-0.743394
-1.06522
1.0116
1.25766
1.50471
1.428
1.60678
-0.736558
1.32977
1.0484
-0.807492
1.33187
-0.124463
-0.937568
-1.45093
1.62532
1.61437
-0.591631
-0.998677
-1.19587
1.42098
-0.824328
0.499376
-0.745631
-0.721734
1.72711
1.41715
-0.627262
-0.618673
-0.6443
-0.656156
1.30045
-0.591995
1.37922
0.555733
1.07683
1.21503
-0.691765
-0.918206
1.33441
-0.717872
0.318711
1.71833
-0.801164
-0.673753
1.20179
-0.744399
-0.589277
0.296167
-1.2552
1.78873
-0.21015
0.656494
-0.621845
1.71761
-0.601154
-0.648444
1.00615
-0.675616
-0.66096
1.76789
1.03903
1.45416
-0.57847
1.67548
0.447145
-0.346201
-0.569702
-0.567213
-0.593403
1.71296
0.932245
-1.05294
-0.608734
-1.2432
1.54472
-0.799604
1.69857
-0.661616
1.0858
-0.682048
0.709568
0.891804
0.854149
0.765886
0.637112
-0.732615
1.41149
-0.565917
-0.481923
-0.600547
0.763036
1.73413
0.190071
-0.608294
-0.599317
-0.676703
0.593684
-0.961757
-0.689514
1.30101
0.676265
-0.643758
1.79027
-1.23955
-1.39448
1.79099
-0.664764
0.469561
-0.848042
-0.715992
-0.699292
1.76981
-0.715363
1.71461
-0.701727
-0.825668
1.59973
0.278
-0.700607
0.921265
-1.25326
0.321118
0.0547425
-0.695841
1.29604
-0.766986
-0.68122
-0.714884
-0.717814
-0.663979
1.32881
0.130363
0.0755911
-0.636871
1.74025
-0.547762
-0.600348
-0.657297
0.252047
-0.854144
-0.696431
-0.650299
0.39165
1.69212
-0.589901
-0.653604
-0.681012
-0.269577
0.0424756
-0.669047
1.81905
1.76007
0.756439
-0.925084
-0.662777
0.663944
-0.659312
1.83497
0.532912
1.51473
1.06735
1.70506
0.405079
-0.86832
-1.00086
0.233992
-0.566038
0.23706
0.322245
-0.704367
1.73707
0.246915
0.545196
0.154862
-0.648376
-0.890772
)
;

boundaryField
{
    frontback
    {
        type            empty;
    }
    Top
    {
        type            zeroGradient;
    }
    outlet
    {
        type            fixedValue;
        value           uniform 0;
    }
    bottom
    {
        type            zeroGradient;
    }
    Inlet
    {
        type            zeroGradient;
    }
    rectangle
    {
        type            zeroGradient;
    }
}


// ************************************************************************* //
