/*--------------------------------*- C++ -*----------------------------------*\
| =========                 |                                                 |
| \\      /  F ield         | OpenFOAM: The Open Source CFD Toolbox           |
|  \\    /   O peration     | Version:  2306                                  |
|   \\  /    A nd           | Website:  www.openfoam.com                      |
|    \\/     M anipulation  |                                                 |
\*---------------------------------------------------------------------------*/
FoamFile
{
    version     2.0;
    format      ascii;
    arch        "LSB;label=32;scalar=64";
    class       surfaceScalarField;
    location    "47";
    object      phi;
}
// * * * * * * * * * * * * * * * * * * * * * * * * * * * * * * * * * * * * * //

dimensions      [0 3 -1 0 0 0 0];

oriented        oriented;

internalField   nonuniform List<scalar> 
3181
(
-1.08812
0.428206
0.659913
-0.416486
0.391066
0.0254198
0.557758
-0.383516
-0.174242
0.135348
-0.220811
0.0854632
0.00575269
-0.0441178
0.0383651
0.354467
0.701666
-1.05613
0.159051
-0.152355
-0.00669576
-0.0312373
-0.0139947
0.045232
0.613199
-0.872419
0.25922
-0.0735042
0.150916
-0.0774119
-0.0104957
-0.0476096
0.0581052
0.143289
0.0486252
-0.191915
0.0360301
0.0150675
-0.0510976
-1.10593
0.145489
0.960441
-0.350338
0.750547
-0.400209
-1.12032
0.63075
0.489567
0.0850695
-0.930297
0.845227
-0.041711
-0.157006
0.198717
-0.23643
-0.189319
0.00902018
0.0544613
-0.0634815
0.0160709
-0.0735625
0.0574915
0.0033948
0.00749808
-0.0108929
1.07503
-1.04419
-0.0308433
0.0308628
0.0427855
-0.0736483
-0.957051
0.318535
0.638516
-0.113638
0.248986
0.316696
-0.229916
-0.0867802
0.0316726
0.0666647
-0.0983372
-0.390768
0.317559
0.0732083
-0.030897
-0.0270617
0.0293973
-0.00233563
-0.028029
-0.929022
0.0843192
-0.0976046
0.0132854
-0.151424
1.18053
-1.02911
-0.064988
0.0449907
0.0199973
0.181137
0.252855
-0.433992
0.866347
-1.01777
0.064789
-0.0487181
1.40876
-0.840478
-0.56828
-0.176337
0.530804
0.00265855
0.0333716
0.0220577
-0.0186629
-0.440647
0.0903093
-0.102773
0.124831
-0.612828
0.135937
0.476892
-0.163833
0.0903292
-0.181096
0.18564
-0.00454395
-0.289364
-0.0820446
0.371409
0.518685
0.320839
-0.839524
0.0801608
-0.123234
0.0430735
-0.0180415
-0.0951796
0.100946
-0.00576619
0.547646
0.202901
-0.0985882
0.124439
-0.0258503
0.0483119
0.0360073
-0.184794
0.213225
-0.0284315
0.176308
0.0608515
-0.23716
0.116907
-0.123247
0.00634016
0.906845
0.501913
-0.888159
-0.19996
-0.226895
-1.27301
1.4999
0.531267
0.210047
-0.741314
-0.433245
-0.184544
0.617789
-0.592873
0.416536
-0.246133
0.7774
-0.345693
-0.108516
0.454209
-0.201352
-0.189416
-0.202909
0.159877
0.0430317
0.10524
0.2972
-0.402441
-0.348915
0.962114
0.0133773
-0.0446146
-1.75167
1.52477
0.210687
0.10601
-0.196771
-0.114407
0.311178
-0.27376
0.34105
-0.0672894
-0.0884932
0.0964133
-0.00792009
-1.23298
-0.919917
0.00934885
0.910569
-0.0207513
-0.0442367
-1.07522
0.698674
0.376546
-0.0518198
-0.344394
0.396214
-0.838005
0.245131
1.1012
-0.955715
-0.679378
1.16033
-0.199887
1.07318
0.151209
-0.180844
0.0296346
0.697003
0.00466326
0.92067
-0.92067
-0.00798964
-0.000901705
0.00889134
-0.231466
-0.0542319
0.285698
0.049542
-0.078769
0.029227
-0.450106
0.855624
-0.405519
0.00268789
-0.263855
0.261167
-1.08981
0.0456183
0.320315
0.0624125
-0.382728
0.141273
-0.82248
1.03253
0.0308222
-0.0965012
0.065679
-0.0175197
-0.167274
0.223906
0.068047
-0.291953
-0.17612
0.400026
0.103823
-0.926303
0.346014
-0.796119
0.92544
-0.840371
0.10793
-0.0433603
-0.0645698
0.0713773
0.0490908
-0.120468
-1.39698
-0.204002
1.60098
-0.267585
0.435526
-0.167941
0.345913
0.856302
-1.20221
-0.430822
-0.644398
0.0195148
0.0606459
-0.163851
0.157728
0.00612353
-0.0757497
-0.00557906
0.0813287
-0.659249
-0.213169
-0.0802883
-0.00461693
0.0849053
-1.14476
0.607879
0.53688
0.824968
-0.504129
-0.0164004
0.00841075
0.0612133
0.149474
-0.187339
0.368476
0.184459
-0.251033
0.0665745
0.129022
0.0651547
-0.194177
0.355657
-0.618783
0.263126
-0.5986
-0.521717
-0.355768
-0.788991
0.0544994
-0.0236772
-0.120239
0.199478
-0.0792391
0.313946
0.0264244
0.132627
-0.058456
0.0811034
-0.0226474
-0.105165
-0.0251956
0.130361
0.080467
-0.080467
-0.198352
0.224776
-0.22794
0.0612246
0.113658
0.0995668
-1.35687
1.00796
-1.23766
-0.0132932
1.25095
-0.0200653
0.00915574
0.0109095
-0.0255917
-0.0492305
0.0748222
0.56842
-0.0181797
-0.550241
0.0591297
-0.0574697
-0.00165993
-0.214628
0.0162767
0.155863
0.699761
-0.383935
0.539798
-0.082805
-1.31417
0.0917755
-0.0860228
0.515779
-0.32553
-0.190249
-0.0211577
0.00437652
0.0167812
0.0515365
-0.340901
0.0235779
-0.943495
0.0515132
-0.171753
-0.310409
-0.427738
0.0526208
1.27605
-0.855893
-0.420152
0.976701
0.299344
0.0715296
0.299879
-0.0256237
0.00555839
-0.376224
0.282354
0.0938701
-0.263932
-0.56986
0.833792
-0.381992
0.460573
0.345132
-0.534452
0.174152
0.0328844
-0.0671429
0.0342585
-2.14245
0.539635
1.60282
-0.260838
-1.88161
-0.303939
0.624254
-0.906719
-0.0213324
-0.00051065
-0.252615
0.253126
1.19355
-1.35418
0.160632
0.0273453
0.0644302
0.55519
-0.819122
-0.375658
0.100184
0.275474
-0.286936
-0.104013
0.390949
0.207037
-1.01071
-0.0790973
0.00324887
-0.0667303
-0.526114
0.34157
-0.235371
0.0193261
0.216045
-0.117341
0.144687
0.041074
-0.041074
-0.110637
0.120683
-0.0100458
-0.110412
-1.12725
0.0401377
-0.0336381
-0.0064996
-0.222215
0.238694
-0.0164798
-0.21042
0.00751129
0.889691
-0.0714017
-0.81829
-0.213895
0.475604
-0.261709
-0.0158678
0.0133056
0.00256223
1.18931
-0.843399
-0.182568
-0.00319882
0.185767
-0.192071
0.297311
-0.0955797
0.0938904
0.00168928
0.0670344
0.0393117
-0.106346
-0.276484
0.275817
0.000666353
-0.945025
-0.21463
1.15965
-0.234779
-0.0540664
0.288845
-0.71077
0.661168
0.0496026
-0.00921108
0.0519966
-0.0334034
0.0333442
5.91317e-05
-0.0100824
-0.0635659
1.05385
-0.228882
0.180557
-0.869871
0.689314
-0.00228765
1.31707
-1.31478
0.407263
0.759161
0.161509
0.0486889
0.192913
-0.0638908
-0.0677484
-0.0274313
0.256946
0.143936
-0.0725588
0.738614
-0.420079
0.0644554
0.221243
0.0366691
-0.150185
0.113516
-0.821198
-0.136753
0.95795
0.00727876
-0.00727876
0.0103255
-0.270023
0.522878
0.0127067
-0.247486
-0.26533
0.108324
-0.00569361
0.060193
0.125373
-0.135868
-0.346185
0.348873
0.0660976
0.0565472
-0.122645
0.417362
-0.368737
0.225736
-1.01988
0.794143
-0.220541
0.29207
0.197257
-0.522787
-0.214202
0.642408
0.178114
-0.0351808
0.0351808
-0.596532
0.173806
0.422726
0.41099
0.0245354
0.0251789
-0.0343022
0.00912333
-0.0534277
-0.140717
0.0604284
-0.0476934
0.173066
-0.169463
0.229312
-0.0598495
0.115903
0.0280331
-0.406338
0.176422
0.176378
-0.0604748
-0.0433182
-0.0522614
0.0304992
-0.0117067
-0.0187924
0.157743
-0.112093
-0.0456506
0.00532187
0.373079
-0.378401
-0.00864646
0.0220238
0.0985585
-0.102785
0.00422648
0.0234501
-0.225946
0.451682
-0.103624
0.0530467
0.0505774
-0.123406
0.116304
0.00710146
-0.0826039
0.0986021
-0.72094
0.622338
0.0427963
-1.55325
-0.217853
1.7711
-0.351438
1.65652
-1.30508
0.0884752
-0.342627
-0.276155
0.253824
0.248928
-0.502752
-0.203128
0.239797
0.153366
-0.921166
0.7678
-0.0988114
-0.0245942
-0.0227332
0.0259821
-1.00504
0.448607
0.556428
0.855893
-0.752071
-1.65873
1.45473
-1.19355
1.18026
0.0443732
-0.0702235
-0.0110793
-0.022324
-0.0141154
0.840457
-0.687091
0.133925
-0.0824117
0.421858
0.73847
-0.0203439
-1.20756
1.20527
-0.75657
-0.600303
-0.239094
-0.373734
0.0247251
-0.177279
0.228815
-0.583177
-0.401518
0.187623
0.823551
-0.255131
-0.885984
-0.772746
0.735747
0.116234
-0.215045
0.307663
0.0402616
-0.0402616
0.671851
0.147652
-0.819503
-0.224384
0.896235
1.21089
-0.916586
-0.294306
-0.0284047
0.0896293
0.00859099
0.00409278
-0.0126838
-1.27301
-0.142163
-0.361966
0.621946
0.267745
-0.0373714
-0.143725
-0.268848
0.816494
-0.186438
-0.0489339
-0.00345796
-0.0850352
-0.0469985
0.0960893
0.364982
-0.229045
-0.839375
-0.268438
-0.249217
0.00493988
0.244277
-0.491485
1.25065
-0.277112
0.332687
-0.055575
0.00677397
-0.0323976
-0.161968
0.186057
-0.0240893
0.0103803
0.443829
-0.0358761
0.0147184
-0.0174968
0.00558973
0.011907
-0.0192899
-0.163278
-0.701286
0.352245
0.349041
0.51949
-0.917087
0.397597
0.132075
-0.153214
0.0211394
0.0635897
-0.0440748
0.443443
-1.36411
-0.0785601
-0.0834077
0.0395931
0.0210529
0.146047
-0.333386
-0.409994
0.6227
-0.212706
0.0598676
0.0991095
0.058634
-0.821198
-1.36621
0.421185
0.128565
0.0574917
0.0428746
-0.636564
-0.0742065
0.0585038
0.117874
0.974682
0.0691594
-0.4716
0.131239
0.338303
-0.275891
-0.132059
0.0268934
0.229546
0.828497
-1.05804
0.101049
-0.733384
0.632335
-0.992825
0.856072
-1.61352
-0.0114345
1.62495
0.0239552
-0.0270108
0.00305567
0.151978
-0.438915
0.227416
-0.137086
-0.09033
0.0976216
0.0186825
0.0192396
-0.268457
0.0483528
0.021473
-0.0315554
0.0227511
0.0621018
-0.0848529
0.859454
0.0114727
-0.0120045
0.000531782
0.0340936
-0.0120698
0.860297
-0.0331092
0.0975393
-0.0520649
-0.0900981
-0.125381
0.0969767
0.00805061
0.0910589
-1.62495
1.36411
0.269263
0.0959856
-0.365248
-0.237533
0.0566897
0.118942
-0.089307
-0.00162283
0.0980361
0.045135
-0.155384
-0.254609
-0.0311726
0.0539237
0.738537
-0.24897
-0.0268088
-0.195406
0.31385
-0.0147525
0.0399314
-0.00853847
0.0890055
0.153441
0.187609
0.156101
-0.312635
0.156534
0.120358
0.579403
-0.0557924
-0.108041
0.960559
-0.252086
-0.708473
-1.61352
0.00489046
0.5146
0.866347
-0.319395
0.575837
-0.256442
0.397086
-0.0570906
-0.339996
-0.346716
-0.491289
-0.0642068
0.0642308
-2.40263e-05
0.388045
-0.199203
-0.188843
0.348415
-1.11706
0.768641
0.04381
0.648624
-0.692434
-0.0474973
-0.116354
-0.094774
-0.00884998
-0.292584
-0.303948
0.0280523
-0.00409712
-0.18929
0.142399
0.0468909
-0.0695241
-0.3067
0.0120161
-0.00524214
0.0159917
-0.0593521
0.0281224
0.00522181
0.185946
-0.449801
-0.0772376
1.73376
-0.0126114
0.00533261
-0.993634
-0.0170775
0.301594
-0.0793381
-0.0527207
-0.32971
-0.0459482
0.423585
0.205036
-0.62862
-0.0564399
-0.0689416
-0.934311
-0.0214036
-0.00104526
-0.648709
0.747311
-0.0191465
0.19726
-1.11048
0.193893
0.179294
-0.46439
0.285096
-0.177104
-0.0739295
-0.00479805
0.00379158
0.00100647
-0.0642307
-0.212253
-0.0230731
-0.144201
0.761883
-0.660834
-0.119368
-0.0264593
-0.346637
0.295832
-0.139731
0.363133
1.32905
0.0620702
-1.39112
-0.11489
0.134216
-0.501853
-0.199433
-0.575153
0.647485
-0.626255
-0.0212297
-0.158419
0.0390508
-1.20756
0.51061
-0.51061
-1.47181
1.47181
0.840457
0.918678
-1.43211
0.51343
-0.899138
-0.094496
0.610567
-0.337804
-0.272762
0.182126
-0.261365
-0.0142831
-0.00211724
-0.857283
-0.0690205
-0.933602
0.212663
0.110467
-0.105527
0.699311
-0.123506
-0.575805
0.386625
0.479722
-0.0077384
0.00294035
-0.965154
-1.06134
0.041459
-0.124359
-0.541319
0.665679
-0.092364
-0.770733
-0.583447
0.212965
-0.811565
-0.95795
1.40342
-0.445465
-0.147475
0.296668
-0.149194
-0.0124955
0.711807
-0.0956881
-1.01553
1.01553
-1.42459
0.0426541
1.38193
0.0011419
0.0103308
0.171362
-0.425554
0.842965
-0.144291
-0.0773646
-0.0368037
0.0153012
-0.0108554
-0.00501244
1.95885
-1.97029
-0.35756
0.424594
-0.612375
0.956402
-0.344027
0.126802
-0.205362
0.118049
-0.0528942
0.387885
-0.017464
0.0325316
0.349564
0.023515
0.0431735
-0.238411
0.195238
0.148897
0.0367429
0.0924571
0.175249
1.77925
-0.254475
0.601631
0.999604
-1.60124
-1.57563
2.11527
0.383457
-0.258626
0.0784699
-0.767558
0.689088
1.52031
0.151258
-0.497443
-0.0743959
0.144859
-0.0704632
0.149875
-0.22427
-0.430385
-0.0957294
-0.0668601
0.0696756
-0.00281551
-0.000689989
0.0288124
0.171091
-0.135083
0.687091
-0.632335
-0.0547564
-0.310259
0.322966
0.872307
0.689448
-0.292362
0.00425871
-0.0378968
-0.216415
0.316599
0.18696
-0.607726
0.420766
0.00158651
0.00220507
0.149526
0.628072
-0.777597
0.011372
-0.0170052
0.00563325
-0.0262766
0.0192507
0.0070259
-1.08417
1.08884
-0.250988
-1.30226
-0.181457
-0.752071
1.18026
1.45473
-0.206578
-0.184943
0.130877
-0.0596298
0.0650804
-0.00545061
0.240168
1.24104
-1.48121
0.505281
0.105285
-0.00683919
0.0084257
0.115907
0.266932
0.0368037
-0.0365412
0.00536865
0.0956663
-0.312081
0.0454078
-0.0511014
-0.261848
0.67921
0.976701
-0.635211
-0.0654506
0.00160061
0.06385
1.7228
-0.268068
-0.0653503
-0.0578966
-0.915532
0.163461
0.45665
-0.249613
-0.468224
-0.113151
0.581375
0.786691
-0.342703
-0.443988
0.447514
-0.0239298
-1.20527
-0.0677342
0.0132592
-0.0368479
0.0235887
0.0163486
1.30072
-0.184651
0.193242
0.436932
1.59094
-0.410688
-0.690033
0.0683392
0.621694
0.354231
0.0159159
-0.337179
0.554703
0.846873
0.158125
0.0813146
-0.0226806
-0.289116
-0.0767725
0.365889
0.638295
0.00762088
-0.0251176
-0.0411576
-0.350773
0.0898499
-0.292978
1.37987
-0.0508122
-0.092707
-0.065712
0.246123
-0.565518
-0.026093
0.0168819
0.118521
-0.158414
0.0398932
-0.318145
0.334048
-0.015903
1.0767
-1.01463
-0.331254
-0.581734
0.912989
0.293559
-0.220004
-0.0735551
0.253363
0.0424691
-0.6893
-0.67691
-0.639864
0.639864
1.4999
0.386625
-0.733384
0.344247
0.502626
0.0792547
0.343471
0.889819
-0.384538
0.00308658
-0.857863
0.854776
0.149801
0.00111468
0.0263026
-1.375
0.685698
0.122715
-0.173495
-0.131732
0.305227
-0.113615
-0.54184
0.368345
-0.95089
-0.276402
-0.636778
-0.0305889
-0.0113851
-0.000619421
-0.222786
0.0945912
0.149686
0.0374044
-0.132949
0.0955446
-0.302716
-1.12187
-0.00594069
0.0726054
-1.44285
1.78565
-0.342806
-0.598122
0.407873
-0.148251
0.204798
0.247159
0.00727815
-0.0300114
-0.493139
0.421738
0.0319828
0.0665756
-0.280387
-0.0662499
0.213099
0.0143174
-0.404921
2.04626
0.383382
-0.375394
0.868244
-0.789774
0.747223
-0.433373
-0.580849
0.155295
0.149351
-0.789478
0.752941
0.0365367
1.3519
0.0279652
-0.231137
-0.126423
-0.000807722
-0.0779613
0.953628
-0.837294
-0.116334
-0.167528
0.0949696
0.0290969
0.128631
0.874531
0.697475
-1.11704
0.419565
-0.339342
-0.062176
0.446617
-1.88947
0.261961
1.33902
0.284226
0.102399
0.176956
0.557671
-0.734627
0.371459
0.0480517
-0.00463904
0.0119172
-0.496097
-0.084752
-0.106663
-0.0106784
-0.174335
0.126642
-0.560473
0.298763
-0.991942
-1.19194
-0.282381
-0.72108
1.17791
0.0730422
-0.273379
-0.0904387
0.186105
-0.360196
0.281231
0.0683326
1.38702
-1.03861
-0.175518
0.115043
0.138301
-0.329395
0.191094
0.00239186
0.0108673
0.0462808
-0.0616979
-0.256447
-0.135868
0.697467
-0.409758
-0.28771
-0.475358
0.14556
-0.104672
-0.040888
0.238648
0.042583
0.304652
-1.60973
-0.0912068
0.134081
1.55429
-0.856815
-0.0297423
0.0368438
-0.0148381
0.0269235
-0.0120855
-0.0292436
0.0383993
-0.229055
0.0788698
0.0254294
-0.589012
0.441538
0.00743386
0.00993216
0.283627
-0.693366
1.35218
-1.40299
0.016559
-0.18106
0.164501
-0.131974
-0.551067
0.683041
0.0914714
-0.728035
-1.16799
0.836737
0.0304729
-0.00229878
-0.0281741
-0.264339
-0.647485
-0.173713
-0.160047
-0.289116
-0.217819
0.153928
-1.04241
-0.966615
0.0417325
0.260704
-0.302437
0.279259
0.126005
0.203734
0.535376
-0.73911
0.0237088
0.092525
0.754446
1.00514
-1.75959
-0.230022
0.752192
1.36308
-0.228821
0.168971
-1.01825
1.77044
-0.435226
0.503273
0.0307281
-0.0448436
-0.0495925
0.841862
-1.21726
0.693821
0.0928699
-0.140441
-0.0149433
0.280134
0.609685
0.977281
-0.0167219
-0.0149046
-0.284226
-0.636778
-0.712628
0.721977
-0.270454
-0.885984
0.648624
0.629909
-0.93179
0.129785
-0.0133483
-0.77613
-0.313133
0.634874
-0.783945
0.149071
0.0868228
0.0587376
1.01614
0.120532
0.22967
-0.350202
-0.0057279
-0.00565721
-0.250707
0.201773
0.726345
0.237333
-0.221056
-0.193482
0.859332
-0.251453
-0.4256
0.93903
-0.172867
1.75646
-1.58359
-0.441918
0.365145
1.24514
0.540517
0.137906
0.486421
-0.365889
-0.00586564
0.209492
-0.0250232
0.144242
0.157352
0.017147
-0.0284036
0.0112566
-1.01923
-0.0388096
0.328856
-0.806269
0.306596
1.34355
-1.65015
0.36163
0.594772
-0.053794
0.0574709
-0.00367688
0.355554
0.503778
-0.715606
0.496602
1.40215
-1.09556
0.297081
-0.0875891
-0.584833
-0.407108
-1.5283
1.35544
-0.0661806
-0.871211
-1.30306
-0.0117146
0.486421
0.04774
-0.854009
0.831118
-0.645224
-0.185894
-0.982035
0.397202
0.00116072
0.123799
-0.00105418
-0.122745
-0.97151
0.564402
-0.23048
0.90912
-0.930524
0.182268
-0.201558
-0.0894163
0.235463
1.41365
-0.129306
0.0324069
-1.59808
0.206957
1.5098
-1.35167
-0.552749
-0.518262
1.07101
0.447251
0.0142199
-0.0101271
-0.731244
0.692434
1.08712
-0.73157
-0.161509
0.203046
-0.0415367
0.149151
1.1944
0.783064
-0.813961
-0.493793
-0.449703
-0.471807
-0.499703
0.803516
-0.803516
0.683504
-0.683504
-0.731244
-0.448177
0.448177
-0.203046
-0.0611327
-0.0946059
-0.756976
-1.72235
1.72235
1.08712
-0.73157
0.783064
0.768343
-0.768343
0.813961
0.759117
-0.759117
0.506207
0.528193
0.481738
-0.635223
-0.500297
-0.550297
1.07849
-0.259389
-1.91271
0.384405
-0.284405
1.52954
0.245149
0.0349181
-0.0680272
-0.888904
0.103092
0.785812
-0.123513
0.148238
-0.998519
0.57844
0.965425
-0.621178
-0.128283
-0.0161013
-0.0199023
-0.788595
-0.0812755
-0.556428
-0.00525346
0.0312355
0.491549
-0.228559
0.286051
0.185073
-0.0105398
-0.00371327
0.0142531
-0.810185
0.0658817
0.744303
1.3843
0.0293589
-0.541543
0.39938
0.142163
0.919576
-0.738829
-0.180747
0.0894723
0.279004
-0.0134854
-0.0533747
-0.0483407
-0.0158661
1.15826
-1.64975
-0.810927
0.103568
-0.733984
0.798249
-0.0642649
0.124146
-0.899909
0.775764
-0.801383
0.907148
-0.105765
-0.0108547
-0.0183889
0.022366
-0.274981
0.300622
1.05481
-0.101712
-0.787192
0.917717
-0.093711
-0.824006
0.306529
-0.179728
1.09989
0.817864
-0.755511
0.463329
-0.358044
0.108531
-0.895723
1.01777
0.454036
-0.788671
0.0125416
1.01911
-0.894963
1.26992
0.957141
0.568747
-1.52589
-0.872979
-0.12554
-0.393012
0.0146113
-0.349519
-0.279101
-0.78542
0.78542
-0.586019
-0.0906234
-0.865152
0.126323
-0.894116
0.769757
0.0613142
-0.1984
-0.0612963
0.0708689
0.0102345
0.19207
0.827038
0.816525
0.7694
0.142842
-0.912242
0.504384
1.02516
-0.77874
-0.114141
0.892881
0.184093
-0.899699
-0.673081
0.889868
-0.781337
-0.113999
0.46051
-0.0440848
-0.416425
0.195553
0.295434
-0.490987
-0.0622532
-0.662832
0.725085
-0.892739
-0.833233
0.099249
0.480029
0.267194
-1.66563
1.03742
-0.548223
0.548223
-1.16917
-0.428914
-0.457176
1.14287
-1.14914
0.567403
0.775727
-0.217561
1.08831
0.000529281
-0.417622
-0.390711
0.808333
-0.103238
-0.813849
-0.0404481
1.46153
-0.733996
1.15518
-0.365946
0.302177
-0.212705
0.778269
-0.884034
-0.505138
1.5303
-0.162192
0.740632
0.558589
-0.558589
-0.033748
0.0013504
0.101484
-0.0640793
0.419489
-0.124056
-0.142871
-0.00378345
0.0052022
-0.00141875
-0.658422
0.69723
-0.0388079
1.29765
-0.728903
0.11447
-0.895807
-0.806846
0.919683
-0.112836
0.238833
0.878819
0.193364
1.10429
-0.752966
0.593352
-0.667558
-0.636598
0.134745
-1.14653
0.0298838
0.274686
-0.658892
-0.487634
0.0103662
-0.985372
0.0812092
0.71704
0.702854
-0.109502
0.0845674
0.775729
0.0963607
1.02639
-1.12275
0.0478621
0.554646
0.221568
-0.993371
0.759963
0.233408
-0.686991
-0.124574
1.44481
0.11184
-0.415788
-0.0474214
0.486351
0.513649
-0.768756
-0.115279
-0.469671
-0.158331
-1.18542
-0.822505
0.400512
0.599488
-0.148059
0.13599
-0.862467
-0.0838464
-0.583712
-0.169876
-0.261185
0.431061
0.0438773
0.00125769
0.104647
0.0684194
-0.12991
-0.099145
0.753279
-0.634385
0.718953
-0.723005
0.0641127
0.626644
-0.202495
-0.424149
-0.749113
-0.203336
0.952449
-0.257912
0.246277
-0.0250343
0.0604893
0.0841974
-0.0267416
0.669479
-0.121257
0.14038
0.106779
-0.738451
0.0800294
0.58024
-1.47301
0.103701
0.690441
0.408878
-0.296663
1.03513
-0.0129421
0.115837
0.321095
0.018864
0.0447178
-0.104578
-0.242132
0.822371
-0.881237
0.519751
0.361486
0.852528
-0.0312539
0.0112066
0.0200474
0.121206
0.0269783
0.00107397
0.233123
-0.114603
-0.553856
-0.595282
-0.272205
-0.609032
0.0118463
0.3084
0.317256
-0.940264
0.971951
-0.0316876
-0.776512
0.844186
-0.0676736
0.882976
-0.310975
-0.124252
-0.0543297
0.177358
-0.445244
-0.0962997
0.28602
0.475373
0.201114
-0.676487
0.429597
0.0551238
0.642106
-0.575732
0.546292
0.0294398
1.00665
-1.36685
0.00956685
-0.017745
0.00817812
0.690336
-0.00931752
-0.0842601
0.0209335
0.799375
-0.223947
1.10692
0.0277136
-0.361233
0.141228
-0.151477
0.189392
-0.0379151
0.0114685
0.00567847
1.91877
-0.913626
0.173395
0.236959
-0.0275367
-0.106341
0.21013
0.104152
0.0037908
0.17029
0.771545
-1.08501
0.329536
0.755475
1.01142
-0.7389
-0.272519
0.64085
0.129547
0.0270446
0.0576655
-0.0847102
-0.217555
-0.429863
0.0391515
0.00895586
0.726791
0.69968
-0.210602
0.866837
0.149304
0.824943
0.138006
0.225127
-0.84891
0.111739
-0.275376
0.970538
-0.18175
0.683556
0.0879892
0.012819
-0.204772
-0.106202
-0.270349
0.158869
0.0430313
-0.116594
0.422301
-0.0564614
0.935707
-0.0789896
0.175055
0.625491
0.385928
-0.165836
-0.256837
-0.07222
-0.11149
-0.0361016
0.000338733
0.0357629
-1.18697
-0.17988
-0.0214112
0.767223
-0.234177
-0.612264
0.62036
-0.00809671
0.0235825
0.763586
-0.345847
-0.0783024
0.0796005
-0.169017
0.621878
0.141707
0.532826
0.717821
-0.238388
0.701717
0.546001
0.276371
-0.622536
0.349685
0.272851
-0.954878
-0.0719838
0.0445846
0.0565227
-0.0446797
0.979887
0.735722
0.0892214
0.603308
0.230484
-0.859365
-0.0805483
-0.665946
0.678488
-0.0189843
-0.618822
0.448946
0.884793
0.677002
0.129369
-0.127007
-0.18642
-0.311023
1.31628
0.0359045
-0.377414
-0.00642267
0.444053
-0.167682
1.16008
-0.623205
-0.072971
0.36575
-0.753632
0.938507
-0.184875
-0.412721
-0.209815
0.0263481
-0.154941
-0.0396232
0.705647
0.000797172
0.00479256
0.62961
0.591779
0.0986621
0.593156
-0.133941
0.25761
0.649188
0.280955
-0.930143
0.277572
-0.922796
-0.16026
-1.24273
-0.191869
0.785251
-0.593382
-0.65683
-0.0454416
0.105931
-0.0544182
-1.10223
0.0376308
-0.0524688
0.229814
-0.323394
-0.0313218
0.354715
0.0478485
-0.583177
0.350202
-0.234366
-0.594225
-0.0141733
0.00363344
0.729509
-0.0533176
-0.577541
0.00180901
0.565772
0.319021
0.73533
1.03577
-0.262922
-0.379732
0.642654
-0.158175
-0.617622
0.617622
-0.12969
-0.89064
1.02033
0.0294295
-0.144319
0.696015
-0.130242
-0.229777
-0.330904
-0.084884
0.472797
0.156012
0.335176
0.1614
-0.108779
-0.937939
0.486543
0.0597487
0.0404797
0.0243093
-0.711449
-0.457532
-0.24885
0.693533
0.306467
-0.457532
0.693533
-1.59334
-0.688432
-1.59334
-0.696419
0.696419
0.303581
-0.0150938
0.295358
-0.0748928
0.248373
0.0455545
-0.469524
0.645225
-0.0520695
0.675644
-0.504146
-0.171498
-0.0687697
0.0719158
-0.00314608
-0.0149367
0.0111532
1.05904
0.0200182
0.0779705
-0.437097
-0.333835
0.111049
0.0530063
0.845709
-0.288038
0.34552
-0.159415
-0.0336458
-0.0230726
-0.0192054
0.669672
0.057119
0.293507
0.00857213
0.0033349
-0.037314
0.0865626
0.579366
-0.474208
-0.105158
1.21643
0.535723
-0.355004
0.841659
0.0109094
-0.0601399
0.100402
0.0726816
0.219801
1.04147
-0.392278
-0.0153203
-0.0152686
1.01445
0.615534
0.0243133
-0.0243133
0.0176483
-0.0176483
0.0332072
-0.0332072
-0.0126114
0.365862
0.452923
-0.162155
-0.757906
0.502775
0.20172
0.0314035
-0.0817359
-0.488645
1.01476
0.109706
-0.796697
-0.616466
0.810359
0.267649
0.0169986
0.00225213
0.0105141
-0.0105141
0.58585
0.0128129
-0.0128129
0.702464
0.0771401
0.00123837
0.00733377
0.00706781
-0.0725184
-0.0235535
0.0235535
0.015805
-0.015805
-0.0211592
0.0211592
0.01348
-0.01348
0.212074
-0.291252
-0.0884234
0.223154
0.01724
-0.01724
-0.369551
0.528357
-0.158806
0.530754
-0.234086
0.412804
-0.067284
0.565163
-0.388321
0.0610077
0.559353
0.568894
0.0219482
-0.0219482
0.169255
0.0232073
-0.0232073
0.021546
-0.021546
0.73068
-0.595627
0.0439454
1.0383
-0.410232
-0.0175003
0.0175003
-0.0203458
0.0203458
0.0177205
-0.0177205
0.0245618
-0.0245618
-0.0223905
0.0223905
0.0338299
-0.0338299
0.468863
-0.0305395
0.0305395
0.0164264
-0.0164264
0.0231711
-0.0231711
0.00791869
-0.00791869
-0.0202883
0.0202883
0.14395
-0.0232313
0.0232313
0.845348
-0.000178845
-0.0380563
0.0380563
-0.00797782
0.00797782
-0.0442791
0.0442791
0.0322288
-0.0322288
0.0268784
-0.0268784
-0.0178391
0.0178391
0.00336572
-0.00336572
-1.10042
-0.161649
0.0131996
-0.0131996
0.0133707
-0.0133707
-0.0368836
0.0368836
-0.0293099
0.0293099
0.00055931
-0.00055931
-0.365866
0.646
0.283551
-0.0311174
0.0311174
0.0380117
0.0249126
-0.0249126
0.010608
-0.010608
0.039172
-0.039172
-0.0940982
0.319225
-0.00501835
0.00501835
-0.024646
0.024646
-0.517998
0.0479493
-0.703184
-0.0328318
0.0328318
-0.459799
0.0370859
0.020385
0.205782
-0.346223
-0.0356678
0.0356678
-0.185934
0.129472
-0.0437241
0.00804576
-0.00804576
0.0208945
0.0365971
0.25872
-0.327866
-0.302885
0.630751
0.217334
0.0066113
-0.0066113
-0.410878
0.598964
-0.188086
0.798571
-0.419128
-0.379443
-0.435525
-0.664411
0.15679
-0.316205
-0.133703
0.181565
-0.570843
-0.0521369
0.190845
-0.215458
0.0122797
-0.0122797
0.0046325
-0.0046325
0.0299386
-0.0299386
0.0276434
-0.0276434
-0.00292646
0.00292646
0.00242744
-0.00242744
-0.514505
0.170111
0.194369
-0.322652
0.00243736
-0.00243736
-0.0476616
0.0476616
-0.0392335
0.0392335
0.273525
-0.304763
0.0312382
-0.0197813
0.338087
-0.572263
-0.00151453
0.00151453
0.0604521
-0.0604521
-0.0772458
-0.373238
0.530028
0.00142097
-0.00142097
0.136656
0.0107344
1.07095
-0.481695
-0.0620673
0.543762
-0.645705
-0.612704
0.263185
-0.0409658
0.0409658
-0.690053
0.294635
0.048706
-0.048706
-0.621425
0.348663
0.281481
0.126727
-0.00360513
0.00360513
-0.774088
-0.00298571
0.00298571
0.299256
0.41255
0.0534449
-0.0528542
0.0528542
-0.000100625
0.000100625
-0.0412855
0.0412855
-0.0572383
0.0572383
-0.00351749
0.00351749
-0.0633618
0.0633618
-0.0037204
0.0037204
-0.0446064
0.0446064
-0.0109814
-0.0482681
0.0482681
0.00318559
-0.00318559
0.0471829
-0.0471829
-0.00386506
0.00386506
0.050324
-0.050324
0.277361
-0.00482713
0.00482713
-0.00566229
0.00566229
-0.0543971
0.0890055
-0.0112955
0.0112955
0.00446254
-0.00446254
-0.0589175
0.0589175
0.30034
-0.0183214
0.0183214
-0.0614688
0.0614688
-0.00707565
0.00707565
-0.0672007
0.0672007
-0.0137379
0.0137379
-0.0811781
0.0811781
-0.0214523
0.0214523
-0.101362
0.101362
-0.676182
0.000394174
-0.511873
0.503776
-0.770733
0.396513
-0.596851
0.415101
-0.183204
-0.292154
0.00332856
-0.00332856
-0.0690054
-0.746993
0.03669
-0.0123807
-0.407467
0.887189
0.383139
0.269569
0.0151526
0.0748505
-0.418388
-0.558941
0.111242
0.38744
-0.830004
-0.0121309
0.0121309
-0.791711
0.0237775
-0.0237775
0.00188704
-0.00188704
0.335851
-0.231313
-0.00228388
0.00228388
0.0198106
0.0153703
0.596103
0.418389
-0.00373011
-0.00941481
-0.00548983
-0.079165
0.47092
-0.391755
0.231785
-0.272234
0.0216585
0.859115
0.043949
0.0705701
-0.404409
0.419021
-0.466477
-1.0301
-0.284069
-0.0640052
0.0170067
-0.608381
-0.0544514
0.000715684
0.000148789
0.0269059
0.756799
-0.578261
-0.0263886
0.0694199
-0.0311389
0.00332251
0.292036
0.43662
0.224547
-0.177284
0.22714
0.0559846
-0.016673
-0.804827
-0.0165066
0.330808
-0.36213
-0.0198766
-1.18937
-0.0708907
0.255942
-0.346902
0.370417
-0.0291105
-0.691969
0.0692599
-0.248918
0.0691903
-0.335688
0.477852
0.0694079
-0.214341
0.144933
-0.0259866
0.0259866
0.128088
-0.42045
0.194914
0.0437805
-0.0690738
0.0500894
-0.0719836
-0.00901554
0.0809991
-0.0293075
-0.151118
-0.087708
-0.233321
-0.298562
-0.37859
0.677151
0.0111677
0.0530631
0.15587
-0.0154897
0.0889711
0.054498
-0.144226
0.293577
-0.0146379
0.0346853
-0.0398865
0.195757
0.00632002
0.246806
-0.00060174
0.00060174
0.434161
0.725923
0.0773854
-0.157934
0.0702916
-0.162656
-0.470397
1.57468
-0.111626
0.0705525
-0.52974
0.0178679
-0.216822
0.0721188
-0.649002
0.264464
-0.0605494
0.40002
-0.698581
0.218339
0.541624
-0.0925375
0.0925375
-0.00105418
-0.991129
1.35343
-0.362306
-0.198114
0.143695
0.277755
0.00941659
-1.02405
-0.192484
0.0186888
-0.0297681
0.930264
0.302131
-0.172762
-0.0686412
0.395946
-1.4915
-0.0609869
-0.290843
0.845546
0.608367
-0.270281
-0.323739
0.632138
0.137638
0.438198
-0.2735
0.0592501
-0.477931
0.319126
0.132765
-0.132765
0.17951
0.0396904
-0.219201
-0.00209726
-0.00312991
0.0269235
-0.0599196
-0.157635
0.247067
-0.188826
-0.0582409
0.567019
-0.975725
0.201229
-0.291327
0.706461
-0.137761
-0.184891
-0.0571944
-0.0786735
-0.466762
0.0296653
-0.271152
0.000667137
-0.0198766
0.363491
-0.00558297
-0.0110719
0.00375995
0.0178404
-0.00735868
-0.0104817
-0.113078
-0.0227584
-0.163378
0.186137
-0.146469
-0.331462
0.0198106
0.344329
-0.00829458
-0.352925
0.0705436
0.00204805
-0.117179
-0.0449762
-0.0100561
0.0100561
-0.000332758
-0.00454083
-0.00986206
0.00430599
-0.14405
0.00100831
-0.00123132
0.247092
-0.29304
-0.000951366
0.000951366
0.0219361
0.53157
-0.00260538
-0.30896
0.624919
1.09518
-0.482157
0.357251
-0.436811
-0.0499524
0.244866
0.253887
-0.249252
-0.0511744
-0.0352252
0.00848363
0.0160752
-0.188978
-0.405968
0.908743
0.0180101
-0.532515
0.261802
-0.00160111
0.25312
-0.0142868
-0.00456674
-0.00437447
-0.0308508
-0.49222
0.00117271
8.4207e-05
0.690041
-0.635543
-0.241875
-0.477516
0.808968
-0.00276269
-0.00165263
-0.0437241
-0.00595346
0.81723
-0.432227
0.491976
-0.407182
0.905956
-1.51094
0.611436
-0.196335
0.674245
-0.00130739
0.00313091
0.0138677
-0.0845988
0.14049
-0.27324
0.0100202
0.00639213
0.0579061
-0.0406566
-0.0172494
-0.00159294
0.0921031
-0.155805
0.0637023
-0.106033
0.00435146
0.000850741
0.00223422
0.464077
-0.414359
-0.016173
-0.000955213
0.81341
0.540024
0.410841
-0.00572919
-0.00341326
0.245787
-0.0723919
-0.0315744
-0.140673
-0.0242164
-0.00356565
0.101351
-0.0324126
-0.000535816
0.434151
-0.00147868
0.0134646
-0.0134646
-0.00689443
-0.00252039
-0.000489103
-0.324375
-0.00359609
0.069093
-0.107097
0.129005
-0.00935463
-0.0655849
-0.000922835
0.000835162
0.488174
-0.000678668
0.00551256
0.0208355
-0.00205204
-0.00116105
-0.234646
0.0917753
-0.710133
0.494256
-0.900224
-0.42769
-0.0015216
-0.764739
-0.10406
-0.261886
0.6179
-0.0162725
0.284557
-0.00414821
-0.00152302
-0.548346
-0.00332087
-0.000202909
0.0130554
1.02412
-0.594527
-0.00257656
-0.000144662
-0.00606334
-0.000962066
0.0866755
-0.0233692
0.0233692
0.0370333
-0.0415741
-0.00261311
-0.00828316
-0.0748539
0.063782
-0.151048
0.0790639
-0.00666229
-0.0139775
0.0492683
-0.0139158
0.0569708
-0.039964
-0.625624
0.56136
-0.0236314
-0.00113398
0.385932
-0.210876
-0.0779813
-0.714333
-0.0883333
-0.134466
-0.0902278
0.0881758
0.655039
-0.0012853
-0.0131863
0.0115337
-0.00286097
0.0460237
-0.149041
0.103018
-0.0739076
-0.614613
0.902646
-0.540912
0.0190292
0.0120882
0.00702113
0.0190292
0.00178824