/*--------------------------------*- C++ -*----------------------------------*\
| =========                 |                                                 |
| \\      /  F ield         | OpenFOAM: The Open Source CFD Toolbox           |
|  \\    /   O peration     | Version:  2306                                  |
|   \\  /    A nd           | Website:  www.openfoam.com                      |
|    \\/     M anipulation  |                                                 |
\*---------------------------------------------------------------------------*/
FoamFile
{
    version     2.0;
    format      ascii;
    arch        "LSB;label=32;scalar=64";
    class       volVectorField;
    location    "47";
    object      U;
}
// * * * * * * * * * * * * * * * * * * * * * * * * * * * * * * * * * * * * * //

dimensions      [0 1 -1 0 0 0 0];

internalField   nonuniform List<vector> 
2186
(
(1.37203 -0.0716985 2.98916e-19)
(1.73487 -1.01453 -2.29725e-21)
(1.56578 -0.986026 1.00157e-20)
(0.812042 -0.656544 -1.79304e-19)
(0.117418 -0.446789 -1.17936e-19)
(0.883831 -0.026225 0)
(0.783806 -0.722929 0)
(0.220557 0.225435 1.48012e-19)
(1.79796 -0.0972774 7.70023e-20)
(0.610705 -0.409032 -2.14052e-21)
(0.628596 0.559778 0)
(0.928345 -0.314019 -9.46379e-20)
(0.30074 0.146809 -6.04551e-20)
(1.22196 0.0160047 -4.60237e-19)
(1.94149 -0.741658 -9.48975e-21)
(1.0103 -0.0125996 2.14454e-19)
(0.976437 0.012929 0)
(-0.482961 -0.856743 0)
(0.441703 0.264932 0)
(-0.133891 0.260908 -5.99016e-20)
(0.482145 -0.0269402 -1.33669e-19)
(0.0501656 0.148585 7.8464e-20)
(1.20335 0.0204428 3.78617e-19)
(-0.296654 -0.0582436 6.12203e-21)
(1.03876 -0.00530384 -2.98465e-19)
(0.864633 -0.631138 0)
(0.773511 -0.0984904 1.73205e-19)
(0.664208 -0.641072 -2.14639e-19)
(1.15294 0.653777 0)
(0.96547 0.0198428 -4.06567e-19)
(-0.0570223 0.12621 0)
(1.02945 -0.0226997 1.40999e-20)
(-0.336678 0.218772 0)
(1.76064 0.390084 -3.64457e-20)
(-0.208145 -0.126115 3.55434e-21)
(1.48524 0.698931 1.29136e-19)
(1.13318 0.198697 -4.87745e-20)
(0.491904 0.0246564 -3.99758e-19)
(1.80582 -0.131188 -1.14537e-19)
(0.577449 -0.245029 -2.2103e-20)
(0.181802 -0.0830768 0)
(0.114463 0.167881 0)
(2.04238 -0.953323 6.114e-20)
(-0.208854 0.236377 0)
(1.06904 0.239776 1.87118e-19)
(0.647995 -0.385143 3.29824e-19)
(1.00156 -0.851971 0)
(1.28351 -0.851222 1.59355e-19)
(1.16097 0.325765 0)
(-0.329883 -0.192578 1.31718e-19)
(-0.0431663 0.16745 8.85362e-20)
(0.594826 0.545553 9.954e-20)
(2.24727 -0.808035 4.30584e-20)
(0.558279 0.17469 -3.2381e-19)
(-0.224268 0.0767979 3.58771e-20)
(0.834126 -0.716045 0)
(1.80743 -1.05684 2.06499e-20)
(0.631604 -0.589702 0)
(1.93383 -0.0097742 2.69286e-20)
(1.191 -0.194369 -4.82731e-19)
(1.60752 -0.0169599 -1.32213e-19)
(1.28096 0.262252 -2.28026e-19)
(1.27666 0.483752 0)
(0.655471 0.225499 2.42148e-20)
(1.2874 0.355322 -1.45577e-19)
(1.34531 -0.797144 -2.33163e-19)
(1.11065 0.603587 6.69716e-20)
(0.672402 -0.0109766 -6.54868e-19)
(0.818206 -0.00919597 0)
(2.59854 -0.011166 -2.65922e-20)
(0.155326 0.184445 -1.62919e-19)
(1.72201 0.375935 1.15901e-19)
(0.735919 -0.12161 -2.88418e-19)
(0.946689 -0.584774 0)
(0.803641 0.113769 -1.07377e-19)
(0.604941 -0.569298 -3.55119e-19)
(1.84447 0.275788 0)
(1.00722 0.00801281 4.42363e-19)
(-0.234557 -0.134388 0)
(2.0297 0.0876529 0)
(0.10714 -0.659154 2.28552e-20)
(0.727541 0.194865 1.47804e-20)
(1.02493 -0.000750968 4.95758e-20)
(1.25797 0.355822 3.58484e-20)
(0.975201 0.0183106 5.20737e-19)
(1.04637 0.0179965 -1.23181e-20)
(0.647751 0.0881204 -3.9056e-19)
(0.679334 -0.583061 5.65144e-21)
(0.914856 -0.339003 0)
(-0.0703788 -0.052355 6.96758e-20)
(0.937932 -0.692074 -2.07383e-19)
(-0.338205 0.048922 3.2289e-21)
(1.15048 -0.0989464 3.1524e-19)
(0.855878 -0.248794 0)
(0.973441 0.0214669 4.94584e-20)
(1.29963 0.582953 0)
(1.75542 -1.02155 0)
(1.24044 0.202407 0)
(-0.133924 -0.288327 0)
(0.869829 -0.739581 3.60563e-19)
(-0.196858 -0.660187 8.26994e-20)
(-0.341458 -0.44692 1.90497e-20)
(1.47226 0.162124 0)
(1.17745 -0.123679 -2.88173e-19)
(1.12376 0.0217915 2.18818e-19)
(-0.330927 0.0435017 1.31397e-19)
(0.57648 0.427449 0)
(2.26843 -0.0765393 -3.0993e-20)
(1.03011 -0.540098 1.02437e-19)
(0.891834 1.561 1.74083e-19)
(1.75029 0.166458 9.44542e-20)
(-0.267166 -0.131268 -1.95333e-19)
(0.885438 -0.803538 0)
(0.511726 0.249927 1.96808e-19)
(1.93072 -0.173941 -2.37111e-19)
(0.0221876 -0.753901 -6.26111e-19)
(0.795946 -0.742607 -1.59614e-19)
(0.800831 0.445627 0)
(-0.0992074 -0.0668888 -2.08936e-19)
(0.727627 -0.152244 9.10667e-20)
(1.51203 0.816064 0)
(-0.404387 -0.387692 -1.91649e-19)
(0.829401 0.704932 -3.33201e-19)
(-0.687744 -1.12728 2.72591e-19)
(1.02769 -0.0299544 0)
(0.682051 -0.711991 2.01016e-19)
(-0.0721012 -0.270119 0)
(0.76846 -0.574629 -1.2843e-19)
(-0.585214 -0.969475 -1.38856e-19)
(0.857219 -0.779434 0)
(0.499489 -0.399148 4.72142e-19)
(0.609113 -0.537671 3.27208e-19)
(0.448836 -0.405932 0)
(1.0682 -0.850891 -1.7617e-19)
(0.316676 -0.674187 0)
(-0.425052 -0.259148 -1.03124e-19)
(0.886125 -0.766808 1.76341e-19)
(2.38226 -0.137284 1.13209e-19)
(1.86136 -0.0358014 0)
(0.0248159 0.17944 0)
(0.647676 0.600055 -4.2037e-19)
(1.94003 -0.665525 -3.07574e-20)
(0.309971 0.323219 0)
(1.07109 -0.877886 -1.86936e-20)
(1.18966 -0.117215 0)
(1.11936 -0.148379 4.98685e-19)
(2.21455 -0.0841082 -1.86785e-20)
(0.0431397 -0.454783 0)
(1.30909 -0.603844 -7.64303e-20)
(-0.0765818 0.248652 -4.4815e-20)
(-0.098265 -0.131757 0)
(1.17886 -0.884337 1.22414e-20)
(1.00772 0.00518827 -7.38852e-19)
(0.720484 -0.562267 -1.2488e-20)
(0.886085 -0.588118 0)
(1.29369 -0.792697 -1.32893e-19)
(0.620266 0.150951 3.0341e-19)
(1.14906 0.131601 0)
(1.34195 0.0322559 -3.94774e-19)
(1.28895 -0.927796 -3.15263e-19)
(-0.0298326 0.1461 -9.09599e-20)
(0.0942962 -1.06985 -1.53457e-19)
(1.05104 -0.00427983 2.75662e-19)
(0.988655 -0.528731 -1.28799e-19)
(0.568213 -0.12043 -5.23093e-21)
(0.623047 -0.309103 -2.10144e-20)
(0.846724 -0.143138 8.67761e-20)
(-0.214916 -0.0488252 -1.78484e-19)
(2.24768 -0.697552 0)
(2.07055 -0.42864 -5.1265e-20)
(1.38247 0.586468 1.91045e-19)
(0.884467 -0.687165 -2.63075e-19)
(0.996314 0.00760478 1.51364e-20)
(0.793779 -0.608663 3.52991e-19)
(1.24552 0.736093 1.69327e-19)
(1.57345 0.0100084 -9.25275e-21)
(0.114355 -0.578806 0)
(1.06817 0.0324522 -2.85058e-19)
(0.149154 -0.983157 -3.03073e-19)
(1.01203 0.434826 9.6328e-20)
(0.1018 -0.12963 1.07776e-19)
(1.16668 0.0227189 -5.2661e-20)
(-0.254472 0.129633 -1.45048e-19)
(1.23366 0.52432 -1.01468e-19)
(1.07972 0.829503 0)
(0.02693 -0.662639 -7.60962e-20)
(0.116213 -0.571537 0)
(0.598304 0.499745 -3.28351e-19)
(1.71138 -0.0768135 -1.38586e-21)
(0.179796 -0.129062 2.04006e-19)
(-0.198248 -1.07208 -5.73855e-19)
(0.720626 -0.00860437 2.87809e-19)
(1.36765 -0.0336044 2.7877e-20)
(1.04252 -0.400188 -3.74752e-20)
(0.0590977 0.123882 0)
(0.378784 1.72224 1.5604e-19)
(1.2887 0.91847 -4.93217e-20)
(0.831495 0.0099018 -1.58827e-19)
(0.517492 0.481478 2.29016e-19)
(0.660179 0.172393 0)
(-0.389099 -0.87114 -2.01294e-19)
(0.385964 1.56269 8.01644e-20)
(1.40264 -1.03201 8.75146e-22)
(0.997029 -0.0682999 -2.30454e-19)
(-0.190138 -0.1899 7.61032e-21)
(0.162924 -0.216944 1.00296e-19)
(-0.331664 -0.172437 -1.40436e-19)
(0.961799 0.596597 0)
(1.10309 0.0301977 -3.84053e-19)
(1.46643 -0.0208799 -1.3411e-19)
(1.37074 -0.672827 1.48833e-19)
(0.519736 -0.156543 -1.08352e-20)
(0.546224 0.233076 0)
(0.883568 0.690626 -1.98289e-20)
(0.642996 0.586262 2.21873e-19)
(0.97144 -0.632145 1.87746e-19)
(0.62455 0.424066 0)
(1.02578 -0.0109204 9.92505e-21)
(0.960465 -0.734167 2.67061e-19)
(0.78769 0.356348 -5.37258e-19)
(1.28959 -0.135951 0)
(0.0691308 0.0205317 -4.89468e-19)
(-0.30403 0.0581071 -9.68884e-20)
(1.52699 0.646167 0)
(1.4636 -1.01097 -7.49263e-22)
(-0.461514 -0.748105 0)
(0.0360874 -0.326538 7.52251e-20)
(0.677967 0.592079 -1.16566e-19)
(0.891358 -0.283746 0)
(-0.386153 -0.209172 0)
(1.80541 -0.486894 0)
(-0.07299 1.50161 1.8856e-19)
(1.31648 -0.953722 2.05426e-19)
(1.2651 -0.660953 8.48419e-20)
(1.12642 -0.190629 -2.24532e-19)
(0.962318 -0.765936 -2.12064e-19)
(0.198567 -0.20414 0)
(-0.747909 -0.879796 0)
(1.07925 -0.572408 2.29379e-19)
(0.147584 0.265385 0)
(-0.28623 -0.288821 0)
(0.0884335 -0.835403 5.39603e-19)
(0.732184 0.608569 1.01095e-19)
(0.953148 0.73526 0)
(0.634575 0.479761 -9.9951e-20)
(0.841274 -0.111629 -2.62693e-19)
(0.685984 0.492545 -2.67685e-19)
(0.547829 0.503791 -1.97351e-19)
(-0.0249575 0.127881 7.98013e-21)
(0.781408 -0.70126 0)
(0.87638 0.11586 -3.7915e-19)
(0.0512856 -0.0332241 7.63701e-20)
(0.566501 0.521088 4.47933e-19)
(0.896758 0.738589 0)
(-0.182066 0.664733 2.04714e-19)
(-0.349961 -0.12014 2.46306e-19)
(-0.295911 -0.101761 -1.07337e-19)
(0.60369 0.499951 -1.73773e-20)
(0.970546 -0.00941409 7.14693e-20)
(0.100742 -0.263735 0)
(2.20041 0.374913 -5.42944e-20)
(1.95172 0.145306 -7.31022e-21)
(0.709834 -0.658045 -9.38558e-20)
(-0.637814 -0.8699 7.56682e-21)
(1.1355 0.407844 2.21573e-19)
(0.835425 0.346263 0)
(1.1025 -0.206601 2.47492e-19)
(-0.313556 -0.396935 -1.59537e-20)
(-0.173447 0.107567 3.34085e-19)
(0.941445 0.0126348 -6.47998e-20)
(1.05962 0.134771 0)
(1.87355 0.100235 5.31969e-20)
(1.51762 -0.00469482 0)
(0.5093 0.153964 -5.3037e-19)
(0.156021 -0.2331 0)
(0.145881 0.254131 3.13928e-19)
(0.737261 0.122442 0)
(0.693389 -0.596235 -2.15102e-19)
(1.15799 0.0100588 2.56561e-19)
(-0.105304 -0.405872 2.66711e-20)
(1.44644 0.0282631 -1.83903e-20)
(2.37132 -0.145978 -5.45995e-20)
(1.07006 0.190833 -2.6108e-19)
(0.00255738 -0.198777 -1.53666e-19)
(1.16706 -0.922369 0)
(0.821814 0.0184773 -1.86566e-19)
(0.989557 -0.436797 -3.53543e-19)
(1.82153 -0.606598 4.57116e-21)
(1.72864 -0.0388534 -8.79323e-20)
(1.05818 -0.014771 4.58817e-19)
(-0.262438 -0.485235 -9.63335e-20)
(1.06379 -0.496074 -1.60625e-19)
(0.21022 -0.202374 3.0143e-19)
(1.00801 -0.00939404 0)
(1.00485 -0.00785967 0)
(1.10861 0.805755 5.4575e-20)
(-0.42376 -0.072142 -8.03253e-20)
(0.168576 -0.123166 -1.03989e-19)
(1.50791 0.0745325 7.22836e-21)
(0.122033 0.561038 0)
(1.03535 -0.0760086 1.12049e-19)
(1.02371 -0.890062 -1.23405e-19)
(1.9518 -0.596116 -3.25257e-20)
(1.04618 0.777092 0)
(0.520505 -0.505474 0)
(0.545448 0.445638 -2.07632e-19)
(1.04602 0.234259 -4.81462e-19)
(2.24872 -0.144948 9.61597e-23)
(0.840779 0.103059 1.62665e-19)
(-0.140706 -0.775297 -3.00968e-19)
(1.43857 -0.769084 1.42968e-20)
(-0.153303 -1.21409 0)
(-0.121807 0.095454 0)
(0.0167676 -0.892324 0)
(1.4415 -0.783858 -1.47927e-19)
(-0.152595 -0.0996102 -1.67084e-19)
(-0.0470961 -0.0716046 0)
(1.2447 0.919921 -5.23624e-20)
(1.07713 0.113347 -5.02206e-19)
(0.954823 0.0930349 4.00344e-20)
(1.03237 0.873647 1.15312e-19)
(-0.30736 -0.0469258 1.02954e-19)
(0.977034 -0.372173 0)
(-0.0286683 -1.08092 -4.32496e-19)
(-0.183215 -0.159489 1.83896e-19)
(0.772945 -0.0372942 2.14253e-19)
(1.49163 0.872921 -4.26335e-20)
(0.373832 -0.432677 5.42592e-20)
(-0.311602 0.115839 7.98937e-21)
(0.807872 -0.736999 -4.80768e-20)
(0.984108 -0.0378017 0)
(1.355 -0.0675145 0)
(1.12943 0.0678509 0)
(0.86991 1.34488 -5.64033e-20)
(-0.0694069 -1.05452 1.44862e-19)
(0.986424 0.784962 0)
(1.0086 -0.0267685 6.18833e-19)
(0.706594 0.534626 -2.69077e-19)
(0.696479 1.71512 -9.94768e-20)
(0.856011 -0.0389166 -4.85983e-20)
(0.777805 -0.709971 -2.75244e-19)
(1.32535 0.637288 -4.60737e-20)
(0.633314 -0.541729 -3.37197e-19)
(1.12241 -0.00808782 -5.54518e-19)
(0.840268 0.0404869 5.61054e-20)
(1.62287 -0.150822 1.22288e-19)
(1.79336 -0.196541 1.03313e-19)
(0.134233 0.204956 4.00884e-21)
(1.02557 0.411807 -3.19776e-19)
(1.40976 0.575476 5.84016e-20)
(-0.433482 -0.108484 0)
(-0.0835317 -0.984999 1.16227e-19)
(0.122341 -0.0675121 2.07502e-19)
(-0.202598 -0.133771 -9.65067e-20)
(0.418958 0.206035 0)
(1.4465 0.529719 0)
(-0.0696065 0.0690959 -1.18084e-19)
(-0.185411 -0.185411 -8.40202e-20)
(1.04117 -0.0354834 2.19735e-19)
(0.215911 -0.654596 -3.32329e-20)
(0.132032 0.16728 2.52527e-19)
(-0.376929 -0.142097 0)
(0.905558 -0.801819 -3.92408e-19)
(1.58872 -0.213342 -1.97458e-19)
(0.175137 -1.1043 1.91471e-19)
(0.697432 0.0800263 3.80715e-19)
(0.604119 0.0383554 1.22662e-19)
(0.550283 -0.524923 2.39926e-19)
(0.339168 0.305151 -1.7412e-19)
(0.330297 -0.096985 0)
(0.335886 0.244903 -2.26208e-19)
(1.02448 -0.0229781 -3.49995e-19)
(-0.224223 -1.09004 2.22488e-19)
(1.35334 0.407677 -1.63414e-19)
(0.111762 0.25366 -5.81344e-20)
(0.751531 -0.684672 -1.04508e-19)
(0.786443 0.119597 -2.4103e-19)
(0.924263 0.366387 2.71113e-20)
(1.19041 -0.165355 4.47214e-20)
(0.648192 -0.324399 -3.46253e-19)
(2.19368 -0.325898 -1.81139e-20)
(1.87942 0.0650924 0)
(0.980924 -0.100402 4.92682e-20)
(1.00382 0.213323 -4.32523e-21)
(1.38183 -0.103803 8.89494e-20)
(1.22849 0.276335 -1.53444e-19)
(0.724535 0.376731 -2.70161e-20)
(0.368127 0.321072 -2.94052e-19)
(-0.489676 -0.760608 1.47041e-19)
(2.51178 0.12712 0)
(0.918827 0.000159037 0)
(0.94804 -0.836342 8.02624e-20)
(-0.380054 -0.140555 -2.69311e-19)
(-0.529553 -0.855594 -1.70823e-19)
(0.153155 0.233697 -2.14483e-19)
(-0.401872 -0.466947 -1.01593e-19)
(-0.0231962 -1.16075 0)
(-0.0863785 0.070379 3.17657e-20)
(-0.0444998 -0.14085 -9.93692e-20)
(0.178545 -0.228762 -2.26717e-19)
(0.827917 -0.182584 0)
(1.92581 -0.0335139 2.09969e-20)
(0.0850316 0.0698288 0)
(0.994443 0.0239662 4.46102e-19)
(0.130128 -0.896347 3.21563e-20)
(0.606801 -0.512637 4.51971e-19)
(-0.032827 -1.0697 5.00116e-19)
(0.238771 1.05524 0)
(-0.249304 -0.068464 1.11051e-19)
(1.00745 0.0147288 -1.34735e-20)
(-0.197836 -0.158644 0)
(1.00566 -0.00960701 -6.90508e-20)
(0.938959 -0.793922 -3.65781e-19)
(0.856036 1.17543 0)
(0.979944 -0.32524 2.54824e-19)
(-0.429829 -0.405929 1.59468e-19)
(0.000333584 0.0366962 0)
(-0.325144 -1.0527 -5.50398e-21)
(0.796502 -0.700386 -5.12964e-19)
(0.992341 -0.0369756 -3.3313e-19)
(-0.473839 -0.290626 3.22731e-19)
(0.00788172 0.208037 1.79782e-19)
(-0.130206 -1.30638 0)
(0.903452 0.413272 0)
(0.281632 -0.947912 2.05481e-19)
(2.32691 0.771978 -5.41294e-20)
(1.02099 0.841151 2.41298e-20)
(1.03395 0.176369 -1.46897e-19)
(1.18192 0.00848436 -2.84075e-19)
(1.10721 -0.0879905 -1.07216e-19)
(-0.463676 -0.375401 -3.31992e-19)
(1.36361 0.0303212 -2.12517e-19)
(0.619989 0.0212798 2.51091e-19)
(1.68887 0.160498 -2.44081e-20)
(1.1111 -0.178475 0)
(1.48875 1.67773 3.27945e-19)
(1.14466 0.0225198 -6.04327e-19)
(1.67676 0.528973 4.03465e-20)
(0.805726 -0.530854 -1.90551e-19)
(-0.0978287 -0.0519318 1.56243e-19)
(0.867359 -0.762532 4.76649e-19)
(1.18424 0.178804 9.1308e-20)
(1.00679 -0.0076219 3.05642e-19)
(-0.194337 -0.724371 -1.23682e-19)
(1.01236 0.00109564 0)
(0.754055 0.166916 1.02208e-19)
(-0.0377152 0.0247067 0)
(1.01304 0.00801595 -1.82033e-19)
(0.199547 1.355 -2.68581e-19)
(1.57459 0.190615 6.66798e-20)
(0.0673056 -0.928065 2.42556e-19)
(1.37389 -0.0125325 3.9361e-20)
(1.01175 -0.0236753 6.33558e-20)
(1.3736 -0.11455 0)
(1.55097 -0.654745 -2.30187e-19)
(1.00919 0.00963857 -1.86406e-19)
(1.38361 0.724909 -9.974e-20)
(1.3769 -0.00822183 0)
(1.55306 -0.801414 8.41026e-20)
(-0.0796531 0.078118 0)
(1.44614 0.0749011 0)
(-0.0404199 -0.808469 0)
(1.17852 0.400171 0)
(1.85308 0.0475614 2.48831e-20)
(0.680619 0.550675 4.71866e-19)
(0.313081 -0.314754 -2.83885e-19)
(-0.136305 -0.0137015 -4.54737e-19)
(0.0232252 0.119254 0)
(2.04695 0.0571864 -7.71173e-20)
(1.49346 0.449597 0)
(1.37018 0.251315 0)
(-0.0173578 -1.35751 1.87786e-19)
(0.759166 0.664288 1.56303e-19)
(1.76159 0.0147506 0)
(0.308592 0.160381 1.17407e-19)
(0.875837 0.161541 2.22514e-19)
(2.51837 -0.377298 5.15236e-20)
(1.18669 0.868674 6.10585e-20)
(1.00113 -0.899102 -5.75077e-20)
(1.82838 -0.0730516 1.02704e-19)
(0.748227 0.671976 1.61496e-19)
(1.12939 0.872203 0)
(2.13643 0.254861 -1.28606e-19)
(1.57436 1.43009 0)
(1.93521 -0.664868 2.03161e-20)
(1.27154 0.0839448 1.91806e-19)
(1.00463 -0.00799383 0)
(0.877276 1.53538 1.5368e-19)
(0.919264 -0.230586 5.78957e-20)
(0.696075 -0.495019 0)
(0.726975 -0.464466 2.46985e-19)
(1.17971 0.504381 -4.15926e-20)
(0.437328 0.407179 3.25475e-19)
(0.204435 -0.289886 2.68079e-20)
(0.686547 -0.111897 1.11977e-19)
(0.791602 0.0747356 0)
(1.42386 -0.970891 -1.46819e-19)
(1.02122 -0.0461267 4.87722e-19)
(1.59272 0.271839 1.21399e-19)
(0.259529 0.103231 9.82433e-20)
(0.272602 -0.604093 0)
(1.29409 -0.260562 -1.50478e-19)
(0.0170752 0.0492381 -1.42001e-19)
(1.37047 0.838025 -5.19371e-20)
(-0.1473 0.0864606 -1.32945e-21)
(-0.201258 0.120005 2.75035e-19)
(0.942617 -0.558418 -8.06138e-21)
(2.26049 0.127223 7.27164e-20)
(1.13137 0.40208 -3.57289e-19)
(0.760034 -0.0397209 0)
(1.34695 -0.077104 -9.23457e-20)
(1.6641 0.113239 -1.54242e-20)
(0.990949 -0.832353 1.8306e-19)
(1.25341 -1.05474 -7.99957e-20)
(0.443999 0.407779 2.18773e-19)
(1.93639 1.43505 0)
(1.69113 0.472159 1.28708e-21)
(0.00608592 0.0630603 -2.93265e-19)
(0.83365 0.720441 0)
(0.520999 -0.384877 0)
(0.31512 -0.315881 -3.53649e-21)
(0.272622 0.212168 0)
(0.0809913 -0.663339 -4.88886e-19)
(0.127838 -0.315504 -8.00039e-20)
(1.90868 -0.449711 0)
(1.14118 0.111962 3.00826e-19)
(-0.859683 -1.1381 1.40851e-19)
(0.581979 -0.552598 -5.59025e-19)
(1.7741 0.0516849 6.77472e-21)
(0.664345 -0.605854 0)
(0.96991 0.105156 0)
(1.51755 -0.276086 0)
(1.07758 0.193768 -2.81481e-19)
(1.27679 0.0848862 4.01468e-19)
(0.0921132 0.855736 0)
(0.929291 -0.0772621 0)
(1.48397 0.0262786 9.94598e-21)
(-0.159451 0.0299492 8.8876e-20)
(1.68757 0.121064 1.78666e-19)
(1.15678 -0.575956 1.31782e-19)
(1.3805 0.060665 2.06652e-19)
(-0.404145 -1.01588 -1.03589e-19)
(1.43426 -0.0220865 8.29428e-20)
(1.02236 -0.0403488 5.04885e-19)
(1.45398 0.526104 0)
(-0.0990506 -0.211466 2.16673e-20)
(1.08906 -0.897577 2.36438e-19)
(0.869222 -0.0740719 5.68074e-20)
(0.701733 -0.516947 0)
(2.08239 -0.558129 -4.88426e-21)
(1.27269 -0.221355 2.02472e-19)
(2.27683 -0.457584 0)
(0.659645 -0.611924 5.73617e-19)
(0.413563 -0.0535614 9.79974e-20)
(1.44799 0.148991 -3.21411e-19)
(-0.132033 -0.0432103 -1.73189e-19)
(1.27165 0.560002 1.94619e-19)
(1.09582 0.358393 4.42674e-21)
(0.86133 0.312037 2.64189e-19)
(2.18519 0.738558 -5.48647e-20)
(-0.496583 -0.44565 2.82636e-21)
(1.29596 -0.00855763 0)
(-0.145729 -0.126727 2.55077e-19)
(1.18668 -1.03112 0)
(1.14758 -0.715247 2.82504e-20)
(1.99913 0.520567 -4.31064e-19)
(0.789116 -0.742584 -3.72565e-21)
(-0.087681 -1.28627 -4.24003e-19)
(0.935624 0.423817 2.08569e-19)
(0.509742 1.48411 6.23728e-20)
(0.674967 -0.0394505 0)
(1.72979 0.103564 0)
(0.391263 0.0852278 -7.59013e-21)
(0.801355 -0.0157592 0)
(1.43179 -0.21433 -2.08343e-19)
(-0.444899 -1.11735 5.41811e-19)
(1.83442 0.396991 -3.65623e-20)
(1.02126 -0.0377265 0)
(0.613884 -0.446004 1.22672e-19)
(1.00884 0.0273462 2.39125e-19)
(1.07017 1.15419 -4.09328e-21)
(-0.510004 -0.749758 0)
(1.19503 -0.530109 6.34756e-19)
(1.76646 -0.0846697 4.26879e-22)
(1.17351 -0.549097 -2.75908e-19)
(2.01823 0.0754778 4.03677e-20)
(1.22974 0.732035 0)
(0.839721 0.0135607 0)
(0.0912252 -0.279571 -2.52518e-19)
(-0.0722054 0.0607115 1.32931e-19)
(0.902313 0.311707 -2.45356e-19)
(0.151281 -0.641239 -7.52639e-20)
(0.595418 0.327778 2.82503e-19)
(1.26195 -0.741147 0)
(0.583453 -0.541652 0)
(1.24766 -1.3942 -4.47816e-21)
(1.31467 -0.552733 -1.34046e-19)
(0.811664 -0.0117781 8.4465e-21)
(0.757603 -0.233758 1.38002e-19)
(-0.143927 0.0674587 -2.38335e-19)
(0.614178 -0.403501 -9.49005e-20)
(0.62001 0.574727 0)
(1.21137 0.634414 0)
(1.51806 0.224308 0)
(-0.183691 -1.34409 -1.89396e-19)
(1.34289 0.525869 1.83067e-19)
(1.72264 0.230121 -6.61305e-21)
(0.870873 -0.00487505 0)
(1.89828 -0.837928 0)
(1.47616 -0.0376361 1.54939e-19)
(1.08897 1.24447 4.82559e-21)
(1.00547 0.00205 -2.38759e-19)
(1.41214 0.431544 0)
(-0.452282 -0.489526 0)
(1.18592 0.26991 3.51892e-19)
(0.967249 0.46976 -1.56208e-19)
(1.05943 0.0089291 0)
(2.17108 1.1485 0)
(2.01702 0.547203 -2.39764e-19)
(-0.345671 0.00109121 -1.18653e-21)
(0.99876 0.00945345 0)
(0.653105 0.397108 -3.9089e-20)
(1.01435 -0.891317 0)
(0.9992 0.0127853 5.56822e-20)
(1.31227 -0.831399 -2.47882e-19)
(0.95487 -0.379389 3.74177e-19)
(1.60445 -1.48971 1.44486e-19)
(2.24408 0.0571442 7.85093e-20)
(0.496262 0.0358795 -4.83877e-20)
(0.817515 -0.0384057 0)
(1.03697 0.00280337 0)
(0.322437 -0.830556 0)
(0.629933 0.600846 -2.281e-19)
(-0.10161 0.0431006 1.59253e-19)
(1.1158 0.306155 -5.62709e-19)
(-0.12945 -0.624707 0)
(0.769143 0.577186 1.99166e-19)
(1.06452 -0.385649 0)
(1.00584 -0.00257119 1.3962e-19)
(1.52308 1.29614 4.27108e-20)
(0.982823 0.353208 3.07824e-19)
(1.04023 -0.379459 0)
(1.68953 -0.068972 2.08774e-20)
(0.847489 -0.173736 -4.3167e-19)
(0.208506 -0.269127 -6.71502e-19)
(1.45201 1.32577 0)
(0.844651 0.179911 2.05333e-19)
(2.37394 0.173824 0)
(0.720093 0.451777 4.2645e-19)
(-0.313315 -0.582129 2.52737e-19)
(-0.086758 -0.00745511 0)
(0.551573 0.521806 -8.37168e-20)
(1.10682 -0.70389 -1.98334e-19)
(0.534179 -0.361975 -1.37343e-19)
(1.02445 -0.0305527 0)
(-0.523825 -1.0229 -8.39885e-20)
(0.700817 -0.631827 9.67695e-20)
(0.868194 0.228849 0)
(1.57699 0.423455 -1.23959e-20)
(0.93059 0.78458 3.01305e-20)
(1.70898 -1.24584 2.11276e-19)
(0.180516 -0.00187535 -1.41759e-19)
(0.258371 -0.218615 -6.19292e-19)
(-0.0291054 0.193966 9.49041e-21)
(0.771995 0.288694 2.8934e-19)
(-0.110498 -0.16226 -3.84155e-21)
(1.5155 -0.696542 3.30543e-21)
(1.02719 -0.00962947 -4.1726e-19)
(-0.140139 -1.32399 0)
(1.02456 0.0116842 -4.86744e-19)
(2.01251 0.808749 4.56168e-20)
(0.826658 0.627009 3.37322e-19)
(1.16128 -0.0923655 1.99581e-19)
(1.0117 -0.0533922 1.92844e-19)
(0.922937 -1.07983 3.00231e-21)
(0.193991 0.145207 -1.43754e-21)
(1.86676 -0.943118 1.69775e-20)
(1.20069 -0.151515 -1.07791e-19)
(0.872289 0.0639105 1.24745e-19)
(0.960798 -0.349408 1.08109e-19)
(0.28689 -0.00694657 0)
(0.901838 0.672658 0)
(1.76533 1.31842 -5.08898e-20)
(1.81659 0.079631 1.40625e-20)
(-0.143134 -1.14322 2.03884e-19)
(1.09775 -0.596128 -6.55347e-19)
(0.681444 -0.603877 4.57998e-19)
(1.39904 -0.298136 -3.36717e-20)
(0.0473857 -0.393615 9.2953e-21)
(1.97348 -1.20714 0)
(0.741198 0.0417941 -7.83991e-21)
(2.16559 -0.959601 -1.84189e-20)
(0.980227 0.700625 0)
(1.77669 -1.00641 0)
(-0.653755 -0.294164 0)
(0.230746 0.305415 -7.4433e-20)
(0.202994 0.0994627 0)
(1.24802 0.871197 -3.76169e-20)
(1.16986 0.165389 7.76726e-21)
(0.11792 1.76894 1.39533e-19)
(0.172695 0.0421931 -4.20442e-20)
(1.75177 0.334364 -2.09231e-20)
(2.15999 -0.251275 -1.26624e-20)
(-0.178861 0.0531259 -1.91123e-19)
(-0.257013 -1.11498 4.10185e-21)
(0.389873 -0.0646285 0)
(0.66511 -0.0342955 0)
(1.00001 -0.000124838 1.76357e-22)
(-0.0867539 -1.3928 0)
(1.47419 0.110643 5.17778e-20)
(0.6713 -0.0308978 0)
(1.08272 0.00421392 1.59873e-19)
(0.986149 0.0142812 -5.43805e-20)
(0.370768 -0.422822 -3.40817e-20)
(1.05032 -0.0266027 -1.11557e-21)
(0.988195 -0.234912 -6.54054e-20)
(1.03635 -0.0483785 4.50557e-19)
(0.736433 -0.675059 2.20846e-19)
(0.144109 1.53004 -9.54049e-20)
(0.43131 -0.148848 -9.49809e-20)
(-0.0788098 0.0610146 0)
(1.0679 0.73516 0)
(1.03881 -0.0278493 0)
(1.08484 -0.842005 -1.40279e-19)
(1.12733 -0.961208 8.61823e-20)
(0.435019 -0.648402 1.49461e-19)
(1.30847 1.7184 -6.30951e-19)
(1.48692 -1.30199 1.28413e-20)
(0.647869 -0.476358 -7.26758e-19)
(0.589985 -0.0766214 1.11663e-19)
(1.32314 -1.48757 2.25151e-20)
(2.28203 -0.2567 2.21069e-20)
(0.466412 -0.0774202 1.05575e-19)
(0.301725 0.248531 -1.69726e-19)
(1.0565 0.496686 2.40679e-19)
(-0.369593 -0.255347 0)
(0.310989 -0.761833 2.66892e-19)
(-0.143454 -0.0176944 1.02412e-21)
(1.02173 -0.0466044 3.9981e-19)
(1.02863 -0.0142156 -1.03543e-20)
(1.10531 -0.0164434 -1.10512e-19)
(1.2158 -0.950138 1.96726e-20)
(1.52316 0.273718 9.03387e-20)
(0.443059 -0.419768 -3.63962e-19)
(0.924337 -0.408593 -2.81626e-19)
(1.04344 -0.0157954 -2.96945e-19)
(0.185932 -0.176971 9.76867e-20)
(1.23219 -1.19666 0)
(1.05198 0.535478 -4.52424e-19)
(1.00234 -0.00535634 1.13931e-19)
(0.620754 0.544814 3.04994e-19)
(1.43458 -0.884241 -5.51745e-21)
(1.05215 -0.0201376 -3.62455e-20)
(1.11374 0.00351985 1.03049e-21)
(1.6608 -0.0480562 -8.9396e-21)
(0.549941 -0.1252 0)
(1.0417 -0.0415313 0)
(1.04922 -0.0351572 6.99086e-19)
(1.00272 -0.00263654 0)
(-0.044039 0.0817673 0)
(1.03005 -0.645735 0)
(1.00109 -0.00038447 -6.62713e-19)
(1.24525 -0.742756 1.17417e-19)
(1.02517 -0.0113568 1.40017e-20)
(1.29395 0.892737 -4.32544e-20)
(1.48575 0.940085 9.76523e-20)
(1.48826 -1.27164 -1.49508e-20)
(1.85823 1.08209 3.92053e-20)
(0.18789 0.0712402 0)
(-0.416732 -0.0482475 0)
(2.37542 0.368213 2.07723e-19)
(1.58463 -0.333859 0)
(1.00008 -0.00465097 -2.04625e-19)
(1.01049 -0.000476925 3.97837e-19)
(1.36609 0.116752 -8.56229e-20)
(-0.020978 -0.112674 1.97419e-19)
(0.963728 -0.00414963 2.16654e-19)
(1.15814 -0.378452 -1.72209e-19)
(0.381432 0.190202 7.87152e-21)
(1.21264 -1.00079 -4.76732e-23)
(0.936718 0.0154568 -2.19866e-19)
(1.0038 0.00386551 2.5766e-19)
(1.00034 2.48699e-05 1.52088e-20)
(0.789887 -0.0124399 0)
(0.725959 -0.0266796 0)
(0.72074 -0.0272042 8.36059e-22)
(0.695078 -0.0287603 0)
(1.4721 -0.329805 0)
(0.0094224 -0.0682372 0)
(0.43914 -0.123896 -4.52437e-20)
(0.504794 0.313109 2.525e-20)
(0.54792 0.388977 0)
(0.456169 0.266599 8.95595e-21)
(0.922425 -0.173141 0)
(1.69702 -0.385193 0)
(1.16846 -0.115652 0)
(0.779246 -0.0463945 1.20662e-20)
(0.431322 -0.00810167 -1.98472e-19)
(0.786714 0.0219784 0)
(0.787202 0.0201112 0)
(0.973017 0.0179005 -2.70605e-19)
(0.813997 0.00900484 5.02242e-19)
(1.00906 -0.001183 0)
(1.00021 -0.000250918 4.75965e-19)
(1.00009 -0.000736277 -2.97688e-22)
(0.789093 0.0216346 4.29938e-19)
(0.988748 -0.00942699 -2.48699e-19)
(1.60602 -0.230952 0)
(0.0638208 -0.109149 -7.87894e-21)
(1.00073 -0.00106789 -2.40241e-19)
(0.999288 0.000982436 -4.12843e-19)
(1.4377 -0.305118 0)
(0.99904 0.00217645 0)
(0.999635 0.000429625 0)
(1.73217 -1.02953 -1.80258e-20)
(1.11119 -1.23492 3.39681e-20)
(0.617959 -0.310878 0)
(0.291537 -0.611462 1.5032e-19)
(1.18808 1.65657 -1.47061e-19)
(1.01789 -0.0267211 -3.20994e-19)
(-0.148297 -0.70626 -1.49488e-19)
(1.01936 -0.0108092 -2.59302e-19)
(1.23764 -0.241963 -1.5342e-19)
(0.863367 -0.541902 3.64208e-19)
(0.0938542 0.198585 -8.07409e-20)
(1.0348 0.00312171 0)
(1.0279 -0.019601 -6.99203e-20)
(0.876081 0.0184977 0)
(-0.146435 0.0880152 2.37785e-19)
(1.67882 -0.501776 0)
(-0.121747 -1.33227 -3.68648e-19)
(0.759738 -0.182136 1.46418e-19)
(1.59786 0.595396 -8.23591e-20)
(-0.0832772 0.0548977 0)
(1.05216 -0.0387842 2.16259e-19)
(1.30364 -0.969266 2.98215e-21)
(0.926218 -0.0537811 3.36068e-19)
(1.01074 -0.0138118 -2.1831e-19)
(1.63612 0.773459 3.88673e-21)
(0.477803 0.440884 0)
(0.390216 0.31761 2.36684e-19)
(1.93859 -0.993725 2.59489e-21)
(1.11196 0.105767 2.33822e-19)
(1.16984 -0.775354 0)
(1.01938 -0.00545776 0)
(0.999527 -0.020052 -5.02388e-19)
(1.01979 0.0106629 -4.91739e-19)
(-0.106352 0.144165 0)
(1.16563 0.760773 -1.72874e-19)
(1.3424 -0.505106 5.87488e-21)
(1.01669 -0.0019064 1.88968e-19)
(1.01226 0.0107643 -2.37039e-19)
(-0.0774288 -1.35957 -3.58202e-20)
(1.14313 -1.00837 -5.76112e-20)
(1.01657 -0.0240661 8.04969e-19)
(0.923757 -0.086673 0)
(1.81118 0.529449 -2.04135e-21)
(1.01449 -0.0192714 -2.51012e-19)
(1.48374 0.192468 2.28505e-20)
(1.05384 -0.00450076 -5.77412e-22)
(1.01028 -0.0118661 5.00899e-20)
(2.29186 -0.0285154 -9.9838e-20)
(1.01667 0.00422489 2.43947e-19)
(0.909781 -1.44115 -2.00264e-20)
(1.02013 -0.00870303 0)
(0.908314 0.101575 5.8536e-20)
(0.561417 0.975114 6.45895e-21)
(1.00325 0.0195724 2.42097e-19)
(1.04283 0.0188441 -5.55374e-22)
(1.13166 -0.57974 -3.00821e-20)
(1.19718 0.285526 5.1228e-19)
(0.999969 0.0102834 1.67133e-19)
(1.0163 -0.0198563 5.53496e-22)
(1.59682 0.179017 -4.41018e-20)
(1.8183 0.885537 -9.57965e-20)
(0.838412 -0.751566 7.60521e-20)
(0.512516 -0.431088 -3.47346e-19)
(1.00641 -0.0148738 0)
(1.02146 -0.0019214 6.05642e-20)
(1.0103 -0.0133848 1.27493e-19)
(1.06071 -1.34517 -3.59411e-21)
(1.01499 -0.00264646 -2.54145e-19)
(1.03697 -0.0388128 2.92811e-19)
(1.00768 -0.0110786 -2.38267e-19)
(1.01369 -0.00157251 -4.63322e-22)
(1.01377 -0.00243033 -4.02453e-22)
(1.02765 0.00690067 2.43447e-19)
(0.889972 0.0355447 6.00997e-19)
(0.347977 0.278004 0)
(1.42156 0.507058 2.39683e-19)
(1.01268 -0.0113275 0)
(1.01898 -0.0327177 -7.04136e-20)
(1.45911 0.369494 -1.26897e-19)
(1.29054 0.140175 0)
(2.41889 -0.00851423 8.05574e-20)
(0.907447 0.70168 8.46462e-21)
(0.710128 -0.0160908 0)
(2.34982 0.427758 0)
(0.710163 1.0187 1.53098e-20)
(0.800456 -0.862677 -1.139e-20)
(1.01684 -0.0129432 -2.55899e-19)
(1.19589 -0.617621 -7.87905e-20)
(0.895046 -0.810112 -1.31179e-20)
(0.416748 -0.789926 0)
(1.6087 -1.04226 0)
(1.08591 0.0209011 0)
(0.10006 -0.329745 1.17931e-19)
(0.885163 -1.20155 5.37939e-20)
(0.356878 1.21029 0)
(-0.501624 -0.745695 -1.7151e-19)
(1.66666 0.89474 -5.71105e-21)
(1.00838 -0.00746009 -4.99845e-19)
(0.977273 -1.15775 1.66584e-20)
(1.02317 -0.00740458 3.31796e-19)
(0.656835 -0.0409064 0)
(-0.192269 0.0512774 -2.29883e-20)
(0.558119 0.350539 -3.98534e-19)
(0.45755 0.441226 -5.62297e-20)
(-0.145667 -0.259778 0)
(0.845076 0.0706731 1.05155e-19)
(0.481201 0.454501 6.09074e-20)
(1.13146 0.826771 -4.75869e-20)
(-0.0542181 -0.0121744 1.00854e-19)
(1.01364 -0.00169521 0)
(0.745433 -1.10365 1.75955e-20)
(1.01183 -0.00906797 1.87645e-19)
(1.74942 -0.120134 0)
(1.01213 0.00186047 3.1474e-19)
(0.269569 -0.59535 -1.19884e-19)
(1.01882 0.000325234 -1.95071e-19)
(0.876096 -1.17572 0)
(1.9525 0.318586 -4.617e-22)
(1.00892 -0.00029983 -1.30603e-19)
(0.994582 -0.0581614 3.44219e-19)
(1.06403 0.0687851 -3.216e-21)
(0.685899 -1.08132 3.55579e-20)
(-0.14783 -0.11206 2.59295e-19)
(1.95886 -0.0340765 7.04431e-20)
(0.684676 -1.02928 -4.42881e-20)
(0.799124 0.0154537 -4.71745e-19)
(0.771185 0.0209187 0)
(0.908452 -1.26695 -2.00463e-20)
(1.01823 -0.032312 -3.78204e-20)
(0.978478 -0.00734595 0)
(1.04623 -0.0101893 -2.39542e-19)
(1.14182 -0.841548 1.309e-19)
(-0.0304756 -0.25879 3.1862e-19)
(2.34539 -0.600612 0)
(-0.234335 0.699696 -3.32037e-19)
(1.59944 -0.367521 0)
(1.03852 -0.021893 7.0322e-20)
(1.45233 -0.830829 -4.03966e-21)
(1.01528 -0.0132435 2.03249e-19)
(-0.690769 -0.72156 3.60728e-19)
(1.01817 -0.00429533 0)
(0.993463 0.00387944 -4.85181e-19)
(1.00832 0.00465967 2.58051e-19)
(0.654546 0.336314 0)
(1.97008 -0.187608 2.41516e-20)
(0.956401 -0.000913091 -2.20061e-19)
(-0.314375 -0.626375 4.92227e-19)
(1.0037 -0.00314194 -2.51505e-19)
(1.00454 0.0010103 -5.91344e-19)