/*--------------------------------*- C++ -*----------------------------------*\
| =========                 |                                                 |
| \\      /  F ield         | OpenFOAM: The Open Source CFD Toolbox           |
|  \\    /   O peration     | Version:  2306                                  |
|   \\  /    A nd           | Website:  www.openfoam.com                      |
|    \\/     M anipulation  |                                                 |
\*---------------------------------------------------------------------------*/
FoamFile
{
    version     2.0;
    format      ascii;
    arch        "LSB;label=32;scalar=64";
    class       volVectorField;
    location    "25.4";
    object      U;
}
// * * * * * * * * * * * * * * * * * * * * * * * * * * * * * * * * * * * * * //

dimensions      [0 1 -1 0 0 0 0];

internalField   nonuniform List<vector> 
2186
(
(1.28218 -0.0653232 2.74134e-19)
(1.56499 -0.906171 1.83342e-20)
(1.41388 -0.88417 1.04661e-20)
(0.708423 -0.546556 -1.74473e-19)
(-0.382355 0.347996 -1.65871e-19)
(1.68364 -0.52106 0)
(0.695404 -0.641857 0)
(0.00100305 0.00736405 5.76486e-20)
(1.40589 -0.15813 5.77274e-20)
(0.526069 -0.262577 -2.09101e-21)
(0.714201 0.646561 0)
(0.824463 -0.264569 -6.53562e-20)
(0.00176768 -0.00674326 -2.36472e-20)
(1.20148 0.026973 -4.29302e-19)
(1.74651 -0.660258 6.79179e-21)
(1.01618 0.00118211 2.00557e-19)
(0.979889 0.0126664 0)
(-0.409826 0.0718602 0)
(1.64993 -0.430401 0)
(-0.0717054 0.329397 -6.45947e-20)
(0.493722 0.159946 -1.25403e-19)
(-0.172754 0.223697 8.70821e-20)
(1.19071 0.0305035 3.53602e-19)
(-0.186256 -0.0538092 4.76744e-21)
(1.02843 0.0138017 -2.78412e-19)
(0.759005 -0.523533 0)
(0.759263 0.00853935 1.6441e-19)
(0.586595 -0.56622 -2.08456e-19)
(1.2589 0.748613 0)
(0.960536 0.025511 -3.797e-19)
(-0.0258684 0.112192 0)
(1.0222 -0.00548699 1.31624e-20)
(-0.0191383 0.304486 0)
(2.49711 -0.127234 1.61134e-19)
(-0.17933 -0.110222 3.36021e-22)
(1.59813 0.811152 9.43525e-20)
(2.08725 0.0553258 1.10003e-19)
(0.524584 0.207269 -3.73189e-19)
(2.044 0.23393 -3.0648e-19)
(1.39028 -0.419762 -1.83637e-20)
(-0.0229561 -0.0434086 0)
(-0.128074 0.205025 0)
(1.82082 -0.842948 4.26508e-20)
(-0.428594 0.25362 0)
(1.14117 0.303827 1.72891e-19)
(0.57425 -0.245566 3.20403e-19)
(0.887704 -0.755861 0)
(1.14694 -0.759428 1.53497e-19)
(2.36119 -0.197059 0)
(-0.312314 0.332658 1.7343e-19)
(-0.0159433 0.183528 9.55083e-20)
(0.662312 0.61159 8.87821e-20)
(2.00586 -0.723539 2.52981e-20)
(0.61765 0.328378 -2.99919e-19)
(-0.25135 0.131004 3.39511e-20)
(0.732848 -0.620569 0)
(1.61356 -0.928164 1.74132e-20)
(0.556889 -0.517571 0)
(2.38973 0.210795 9.53839e-20)
(1.10889 -0.154245 -4.43118e-19)
(1.85288 -0.0409482 1.27589e-19)
(1.40084 0.324718 -2.0489e-19)
(1.39213 0.565809 0)
(1.22621 -0.361412 2.01122e-20)
(1.40832 0.408088 -1.26262e-19)
(1.212 -0.702878 -2.23497e-19)
(1.21655 0.695936 5.93884e-20)
(0.684278 0.116002 -6.17254e-19)
(0.824236 0.0925579 0)
(1.92685 -0.164301 -1.77663e-20)
(-0.0231513 -0.00842547 -6.52817e-20)
(2.26751 -0.152378 -1.11342e-19)
(0.722463 0.00608293 -2.73689e-19)
(0.844867 -0.486174 0)
(0.842209 0.21727 -1.00668e-19)
(0.520689 -0.478897 -3.47645e-19)
(2.1883 -0.138336 0)
(1.00697 0.0105636 4.1385e-19)
(-0.178761 -0.116383 0)
(2.10452 0.401453 0)
(0.527216 -0.0471701 8.4845e-20)
(1.22005 -0.348851 2.64979e-20)
(1.02316 0.00928487 4.62584e-20)
(1.36882 0.440197 3.15802e-20)
(0.965481 0.026274 4.85715e-19)
(1.03497 0.0323875 -1.14992e-20)
(0.682107 0.225924 -3.65463e-19)
(1.56401 -0.427417 3.73247e-21)
(1.41067 -0.188277 0)
(-0.0688354 -0.0555395 4.80054e-20)
(0.829404 -0.591121 -2.00269e-19)
(-0.1386 0.4337 -2.12055e-21)
(1.09653 -0.0629161 2.91662e-19)
(0.801037 -0.148595 0)
(0.970948 0.0238145 4.62256e-20)
(1.41881 0.676207 0)
(1.57178 -0.9179 0)
(1.3479 0.236826 0)
(-0.376008 0.348636 0)
(0.758695 -0.63241 3.4998e-19)
(-0.309396 0.304013 -2.66983e-19)
(0.331716 0.164032 1.45647e-19)
(1.61886 0.199016 0)
(1.13327 -0.0914783 -2.66632e-19)
(1.12309 0.0243991 2.04744e-19)
(-0.00474066 0.392874 1.27128e-19)
(0.676041 0.551118 0)
(2.08002 -0.177621 -2.98034e-20)
(0.936827 -0.44812 9.80188e-20)
(-1.04372 -0.607982 1.59868e-19)
(1.83593 0.329497 1.14964e-19)
(-0.287727 0.383699 -2.59903e-19)
(0.78688 -0.714517 0)
(0.599789 0.402402 1.80168e-19)
(1.58149 -0.162539 -1.76143e-19)
(-0.0142663 0.0262673 -2.71783e-19)
(1.25486 0.703307 5.70241e-21)
(1.85358 -0.201159 0)
(-0.0910701 -0.0711886 -1.43469e-19)
(0.701753 -0.0292941 8.69848e-20)
(1.62151 0.919604 0)
(-0.232811 0.213647 -2.42219e-19)
(0.928456 0.800343 -2.9872e-19)
(-0.399121 0.0611217 2.59854e-19)
(1.03215 -0.0212446 0)
(1.51306 0.773197 -7.18755e-21)
(-0.367547 0.382957 0)
(0.667975 -0.458154 -1.25076e-19)
(-0.379444 0.063003 -1.46235e-19)
(0.760033 -0.692785 0)
(0.405128 -0.216021 4.64191e-19)
(0.509954 -0.417348 3.21752e-19)
(0.3973 -0.359316 0)
(0.949098 -0.752458 -1.70857e-19)
(0.0228921 0.0909456 0)
(-0.20137 0.289052 -1.35906e-19)
(0.779268 -0.666496 1.70802e-19)
(2.22416 -0.222955 7.33002e-20)
(2.273 0.165605 0)
(-0.0425505 -0.011084 0)
(0.719029 0.668364 -3.73752e-19)
(1.72321 -0.596886 -3.33466e-20)
(0.0248959 0.0272979 0)
(0.949558 -0.77587 -1.81091e-20)
(1.12706 -0.0907519 0)
(1.06802 -0.108823 4.61535e-19)
(1.99168 -0.154525 -1.77371e-20)
(-0.377488 0.334174 0)
(1.18623 -0.530492 -7.26986e-20)
(-0.161804 0.387036 -4.23725e-20)
(-0.309415 0.44888 0)
(1.05979 -0.783554 1.15863e-20)
(1.00663 0.00483381 -6.91245e-19)
(0.620639 -0.441562 -1.2201e-20)
(0.787675 -0.481911 0)
(1.16276 -0.701802 -1.27906e-19)
(0.679413 0.285408 2.81294e-19)
(1.26796 0.133425 0)
(1.5528 0.0762501 -2.93111e-19)
(1.16114 -0.825012 -3.07551e-19)
(-0.0510729 -0.0186465 -5.12873e-20)
(-0.103195 -0.188822 -6.84338e-20)
(1.08223 0.0146383 2.58261e-19)
(0.889425 -0.433447 -1.23272e-19)
(1.59192 -0.466069 -3.4553e-21)
(1.12878 -0.201037 -5.83245e-20)
(0.732945 -0.120385 5.95109e-20)
(-0.129175 -0.0501525 -1.33093e-19)
(1.74989 -0.14053 0)
(2.30436 -0.275334 6.55021e-20)
(1.49716 0.680292 1.58651e-19)
(0.777856 -0.58198 -2.5524e-19)
(0.995262 0.0095844 1.41619e-20)
(0.689535 -0.496514 3.43921e-19)
(1.35523 0.836285 1.42837e-19)
(1.91804 0.0353814 1.3778e-20)
(-0.363754 0.286778 0)
(1.0943 0.0642486 -2.67564e-19)
(-0.333496 -0.0791916 -1.14557e-19)
(1.11149 0.519323 8.76593e-20)
(0.1311 -0.121007 8.04229e-20)
(1.16058 0.0300163 -4.92052e-20)
(-0.174017 0.285141 -1.56545e-19)
(1.34527 0.613233 -8.72334e-20)
(1.18513 0.925287 0)
(-0.35322 0.253932 -7.94643e-20)
(0.0341207 0.10488 0)
(0.690847 0.599242 -2.9801e-19)
(2.14645 0.163452 -1.96315e-20)
(-0.0105795 -0.0294636 8.27057e-20)
(-0.322407 0.0736311 -4.2142e-19)
(0.731312 0.120204 2.71244e-19)
(2.11213 -0.0620611 -3.97087e-20)
(0.955225 -0.32025 -3.56403e-20)
(-0.0213267 -0.00973451 0)
(-1.1302 -0.868229 3.41989e-19)
(1.38225 1.01282 -2.77693e-20)
(0.848576 0.112019 -1.4927e-19)
(0.585677 0.550672 2.0791e-19)
(0.452679 0.198859 0)
(-0.110947 -0.134269 -9.44434e-20)
(-1.21084 -0.885232 2.93164e-19)
(1.25553 -0.925568 8.98262e-22)
(0.983631 -0.0130299 -2.16019e-19)
(-0.142927 -0.146953 5.58139e-21)
(-0.223756 0.252535 1.41426e-19)
(-0.248615 -0.172716 -9.69271e-20)
(1.85543 -0.183202 0)
(1.14758 0.0511763 -3.59509e-19)
(2.36963 -0.0035899 1.85849e-19)
(1.23677 -0.593516 1.42413e-19)
(0.996728 -0.112102 -5.9198e-21)
(0.622168 0.382458 0)
(0.985388 0.786902 -1.77264e-20)
(0.71727 0.661344 1.99245e-19)
(0.867153 -0.532659 1.80359e-19)
(0.72254 0.543703 0)
(1.02011 0.00790351 9.26374e-21)
(0.850582 -0.632872 2.57749e-19)
(0.870904 0.460294 -4.94121e-19)
(1.18601 -0.0989806 0)
(0.0187725 0.0423862 -1.99455e-19)
(0.0142407 0.383375 -9.80802e-20)
(1.64561 0.753754 0)
(1.30652 -0.906099 -7.68633e-22)
(-0.406314 0.0892062 0)
(-0.385309 0.41046 1.05772e-19)
(0.773951 0.689509 -1.05528e-19)
(0.835266 -0.185506 0)
(-0.179789 -0.0288656 0)
(1.57173 -0.435772 0)
(-0.118332 -0.108303 4.10741e-19)
(1.17242 -0.853068 2.00989e-19)
(1.14182 -0.577392 8.07517e-20)
(1.02722 -0.157353 -2.0448e-19)
(0.844914 -0.662536 -2.05174e-19)
(0.177574 -0.180725 0)
(-0.409137 0.109672 0)
(0.971392 -0.484129 2.16917e-19)
(-0.0157974 0.0061324 0)
(-0.356562 0.290555 0)
(-0.0406497 0.0429448 2.35091e-19)
(0.831006 0.707251 9.15852e-20)
(1.05522 0.830666 0)
(0.734514 0.594608 -9.10288e-20)
(0.827882 -0.00728596 -2.48851e-19)
(0.782979 0.60125 -2.4421e-19)
(0.623026 0.581608 -1.78918e-19)
(-0.0568716 -0.0248791 2.16793e-22)
(0.692133 -0.619792 0)
(0.916372 0.206863 -3.54227e-19)
(-0.0488848 -0.0482058 2.89383e-20)
(0.634025 0.588969 4.04496e-19)
(0.999239 0.834783 0)
(-0.373945 -0.1323 3.1366e-19)
(-0.181119 -0.0711155 1.52253e-19)
(-0.168746 0.064305 -7.47749e-20)
(0.701874 0.609971 -1.57795e-20)
(0.968876 -0.00671929 6.68133e-20)
(-0.0344452 -0.0611735 0)
(2.15759 -0.177031 -8.91512e-20)
(1.71315 -0.319201 -1.69752e-19)
(0.625023 -0.577021 -9.12422e-20)
(-0.315794 0.0944691 9.1115e-21)
(1.23529 0.48646 1.9996e-19)
(0.917684 0.449006 0)
(1.02403 -0.156862 2.2872e-19)
(-0.153657 -0.0739003 -1.09503e-21)
(-0.116008 0.220206 3.62816e-19)
(0.91046 0.0207069 -6.03831e-20)
(1.15975 0.162519 0)
(1.81974 -0.0561613 -4.13347e-20)
(1.9661 0.0561909 0)
(0.567568 0.310778 -4.91542e-19)
(-0.253101 0.298792 0)
(-0.0212925 -0.00153415 1.27545e-19)
(0.671387 0.0956399 0)
(0.58873 -0.476179 -2.1033e-19)
(1.13339 0.0215855 2.3907e-19)
(-0.397848 0.291611 3.61781e-20)
(2.05703 -0.0682863 7.08983e-22)
(1.96723 -0.21202 -3.7488e-20)
(1.14423 0.249885 -2.42399e-19)
(-0.0509572 -0.0666422 -5.661e-20)
(1.0391 -0.820293 0)
(0.807035 0.0166572 -1.73845e-19)
(0.902192 -0.34678 -3.36604e-19)
(1.67326 -0.553108 5.35982e-21)
(1.64874 0.018806 -6.91498e-21)
(1.0957 -0.00079151 4.30421e-19)
(-0.126375 -0.0600178 -6.50452e-20)
(0.968716 -0.410114 -1.51953e-19)
(0.18602 -0.178574 2.9573e-19)
(1.00823 -0.00589596 0)
(1.00468 -0.00393304 0)
(0.110108 -0.0143772 2.65959e-20)
(-0.163609 0.341481 -9.68641e-20)
(0.19377 -0.112301 -7.51245e-20)
(1.86143 -0.0177083 5.74708e-21)
(0.943893 -0.0866181 0)
(1.95494 -0.0393516 -1.237e-19)
(0.910369 -0.790576 -1.21994e-19)
(1.73762 -0.536747 -1.91021e-20)
(1.14951 0.873562 0)
(0.446832 -0.426243 0)
(0.642633 0.559761 -1.88469e-19)
(1.13006 0.302199 -4.4472e-19)
(2.15184 -0.245819 7.1152e-23)
(0.878167 0.189928 1.52323e-19)
(-0.100747 -0.13256 -1.70181e-19)
(1.49468 -0.309565 1.58558e-20)
(-0.0993578 -0.182942 0)
(-0.0849576 -0.0347239 0)
(-0.0592905 -0.0605167 0)
(1.29901 -0.696096 -1.43075e-19)
(-0.304817 0.469201 -2.13345e-19)
(-0.183441 0.303654 0)
(1.33985 1.0147 -3.95758e-20)
(1.14039 0.166365 -4.66668e-19)
(2.61528 0.394739 -1.10918e-19)
(1.12459 0.961117 9.39214e-20)
(-0.253277 0.43199 1.33858e-19)
(1.20361 -0.0821602 0)
(-0.067495 -0.0411669 -1.83068e-19)
(-0.330811 0.435657 2.508e-19)
(0.782258 0.068919 2.02533e-19)
(1.59158 0.984622 -1.28573e-20)
(1.91194 0.955697 -4.19903e-20)
(-0.165715 0.428746 -1.3387e-21)
(0.716688 -0.653218 -4.65214e-20)
(1.16918 -0.0339692 0)
(1.74689 -0.0129222 0)
(0.972467 0.0452546 0)
(-0.727049 -0.391643 -3.70834e-19)
(-0.0822853 -0.102372 5.85536e-20)
(1.09037 0.881208 0)
(0.993373 0.0120159 5.79435e-19)
(0.805973 0.643913 -2.44282e-19)
(-1.05584 -0.746101 -1.90843e-19)
(0.867657 0.048573 -4.57797e-20)
(0.686878 -0.624561 -2.66783e-19)
(1.43659 0.740636 -3.68775e-20)
(0.530586 -0.407152 -3.32201e-19)
(1.13394 0.00401108 -5.18585e-19)
(0.793233 0.0457099 5.20401e-20)
(1.47458 -0.176749 1.10349e-19)
(1.58569 -0.0598084 -6.16598e-20)
(-0.00369842 0.00663311 2.09611e-22)
(1.11571 0.500498 -2.92666e-19)
(1.38195 0.648284 7.31961e-20)
(-0.22625 0.0100179 0)
(-0.0798835 -0.185977 6.43018e-20)
(0.0182296 0.0855185 8.51526e-20)
(-0.170965 -0.123965 -6.69856e-20)
(0.514018 0.378516 0)
(1.48508 0.00362522 0)
(-0.0273559 0.0359439 -1.31741e-19)
(-0.0822492 -0.0698078 -2.93565e-20)
(1.05222 -0.0271004 2.05587e-19)
(-0.342989 0.326373 -3.96394e-20)
(1.40328 -0.0673509 -3.53831e-19)
(-0.0574842 0.362996 0)
(0.802147 -0.709846 -3.79899e-19)
(1.42665 -0.0682706 8.9414e-20)
(-0.205532 -0.127918 7.26346e-20)
(0.735438 0.20443 3.56246e-19)
(0.636594 0.19432 1.14601e-19)
(0.475952 -0.447848 2.34664e-19)
(0.0253379 0.0232526 -6.98539e-20)
(1.8286 0.894264 0)
(0.43028 0.403473 -2.0554e-19)
(1.03031 -0.0114846 -3.27326e-19)
(-0.354515 0.0707128 1.67227e-19)
(1.47302 0.505284 -1.35759e-19)
(-0.0221645 0.00384979 -2.5683e-20)
(0.661394 -0.603121 -1.07352e-19)
(0.837986 0.222108 -2.24332e-19)
(1.00921 0.456895 2.49261e-20)
(1.12973 -0.122946 4.1309e-20)
(0.588409 -0.182093 -3.36351e-19)
(1.93407 -0.316183 -1.02167e-20)
(1.70867 -0.0201192 0)
(2.15622 0.316267 -5.94958e-20)
(2.16296 -0.115639 9.64826e-21)
(0.400944 -0.0632588 3.01952e-20)
(0.988806 0.373774 -1.76632e-19)
(1.45025 -0.383719 -4.50642e-20)
(0.452611 0.429983 -2.67129e-19)
(-0.326375 0.014217 1.94468e-19)
(1.68934 -0.155167 0)
(0.944321 0.00754039 0)
(0.840955 -0.743031 7.79749e-20)
(-0.177349 -0.0644576 -1.67029e-19)
(-0.384909 0.153042 -1.7184e-19)
(-0.00375579 0.00832926 -1.0921e-19)
(-0.339307 0.19906 -1.33483e-19)
(-0.149284 -0.160315 0)
(-0.0796451 -0.0425651 1.9448e-20)
(0.218323 0.404608 -9.70096e-20)
(-0.243232 0.265796 -3.22025e-19)
(0.790202 -0.0744904 0)
(1.69529 -0.258108 7.46155e-20)
(0.0163574 0.0413719 0)
(0.992699 0.0246546 4.17061e-19)
(-0.0918883 -0.182814 1.3405e-20)
(0.507277 -0.378674 4.45413e-19)
(-0.354687 -0.0222678 1.89752e-19)
(-0.887686 -0.314266 0)
(0.123603 0.267235 1.12671e-19)
(0.999722 0.0272995 -1.25785e-20)
(-0.0950237 -0.0704132 0)
(1.00477 -0.00800257 -6.46349e-20)
(0.82761 -0.695736 -3.54099e-19)
(1.22885 -0.350847 0)
(0.914482 -0.241906 2.40551e-19)
(-0.0554962 0.184762 2.01992e-19)
(-0.0331728 -0.0251191 0)
(-0.0992201 -0.155028 -2.60235e-21)
(0.694763 -0.601627 -5.00173e-19)
(0.936184 -0.0226258 -3.08608e-19)
(-0.180376 -0.04913 1.93874e-19)
(-0.0511036 -0.0164944 7.75391e-20)
(-0.111379 -0.172939 0)
(0.991571 0.50728 0)
(-0.166168 -0.159169 7.58256e-20)
(1.43894 -0.29596 -8.30718e-20)
(1.11877 0.935197 2.06095e-20)
(1.09268 0.231652 -1.37635e-19)
(1.11882 0.00938158 -2.62553e-19)
(1.01528 -0.060007 -9.77546e-20)
(-0.152193 -0.0764097 -1.79408e-19)
(1.92726 0.082435 3.80014e-19)
(0.705245 0.0401428 2.33104e-19)
(1.92817 -0.141418 7.15973e-20)
(1.02232 -0.135393 0)
(0.120269 -0.105472 2.72423e-19)
(1.14245 0.027651 -5.65025e-19)
(1.80725 0.645851 1.73843e-20)
(0.710908 -0.417439 -1.84785e-19)
(-0.0853475 -0.0661501 1.07326e-19)
(0.766424 -0.6701 4.61821e-19)
(1.27774 0.21084 8.34137e-20)
(1.00748 -0.00781448 2.86141e-19)
(-0.118121 -0.135995 -7.25026e-20)
(1.0324 0.0273903 0)
(2.10677 0.0784327 -2.22733e-19)
(-0.0512946 -0.0336166 0)
(1.01472 0.0162323 -1.69982e-19)
(-0.884806 -0.399315 -4.69387e-19)
(1.76986 0.317885 4.18749e-20)
(-0.0264257 0.0928915 1.12922e-19)
(1.65995 0.0364218 -2.87644e-22)
(1.01571 -0.0158874 5.92785e-20)
(1.27148 -0.0818201 0)
(1.40098 -0.586193 -2.19804e-19)
(1.02942 0.047557 -1.74656e-19)
(1.49528 0.823384 -6.95803e-20)
(1.30478 -0.0558087 0)
(0.539915 0.280297 -1.24808e-20)
(-0.0321278 0.0419601 0)
(1.27491 0.0433909 0)
(-0.0653894 -0.0984735 0)
(1.28072 0.473685 0)
(1.98477 0.291676 4.93508e-20)
(0.779773 0.653678 4.2832e-19)
(0.27729 -0.278203 -2.77864e-19)
(-0.0831503 -0.0525893 -1.82334e-19)
(-0.0314523 -0.0129326 0)
(2.31745 -0.176458 8.26789e-20)
(1.4005 0.545149 0)
(1.51426 0.303843 0)
(-0.095576 -0.0452537 7.96113e-20)
(0.845962 0.748371 1.39262e-19)
(1.5998 -0.0248214 0)
(0.0142266 0.0086737 4.56754e-20)
(0.930138 0.253978 2.07744e-19)
(1.88748 -0.0844341 -5.59074e-20)
(1.29106 0.966063 5.0788e-20)
(0.887195 -0.797575 -5.7672e-20)
(1.62279 -0.0382536 -3.21387e-20)
(0.832015 0.75221 1.4334e-19)
(1.22647 0.964562 0)
(2.07567 -0.103257 1.23612e-19)
(0.610396 -0.530915 0)
(1.51325 -0.355441 4.03525e-20)
(1.05921 0.131155 1.85875e-19)
(1.00569 -0.00252025 0)
(-0.600352 -0.6288 3.65859e-19)
(0.873381 -0.139589 5.46448e-20)
(0.599611 -0.365666 0)
(0.641365 -0.33822 2.40117e-19)
(1.28441 0.586223 -3.70183e-20)
(0.504373 0.477914 2.95025e-19)
(-0.274162 0.314476 3.78912e-20)
(0.240829 0.0213054 9.86524e-20)
(0.734081 0.0631833 0)
(1.28285 -0.86837 -1.48058e-19)
(1.03706 -0.0423918 4.56207e-19)
(1.57109 0.356921 1.39885e-19)
(0.00887776 -0.00316251 3.90084e-20)
(-0.418239 -0.0685635 0)
(1.19884 -0.22452 -1.38783e-19)
(-0.0297214 -0.0206282 -8.94931e-20)
(-0.510198 -0.656438 -2.73586e-20)
(-0.142467 0.0570379 -7.73881e-22)
(-0.218309 0.105322 2.96221e-19)
(1.23426 -0.326583 -1.71284e-20)
(2.21755 -0.159448 1.19401e-19)
(1.23689 0.486665 -3.22475e-19)
(0.902237 -0.0686535 0)
(1.88329 -0.0676581 2.09514e-19)
(1.75812 0.0638939 2.52218e-20)
(0.877263 -0.734649 1.77248e-19)
(1.11685 -0.938546 -8.28753e-20)
(0.507806 0.472976 1.98631e-19)
(0.833234 -0.362413 0)
(1.8329 0.60297 2.34207e-20)
(-0.0355163 -0.0221598 -1.82344e-19)
(0.924082 0.807721 0)
(1.49346 0.864992 0)
(0.277124 -0.275951 -3.53288e-21)
(0.361521 0.360819 0)
(-0.489887 -0.0810645 -2.01696e-19)
(-0.347939 0.399441 -1.12839e-19)
(1.69247 -0.405887 0)
(1.30907 0.0805978 2.16573e-19)
(-0.316855 0.0676328 1.4423e-19)
(0.508718 -0.481454 -5.45257e-19)
(1.86299 -0.0683739 -1.818e-20)
(0.584526 -0.528193 0)
(1.06948 0.140202 0)
(1.34463 -0.223722 0)
(1.14572 0.248148 -2.6057e-19)
(1.39003 0.112616 3.71574e-19)
(-0.779802 -0.175974 0)
(0.862487 -0.0528981 0)
(1.97547 -0.0762694 1.21552e-21)
(-0.164246 0.314296 1.00552e-19)
(2.3235 -0.0836224 -2.44105e-19)
(1.04128 -0.485337 9.04027e-20)
(1.90379 0.0261091 -2.61756e-19)
(-0.396548 0.100191 -1.13238e-19)
(2.00297 0.0536431 -1.77316e-19)
(1.01462 -0.0123246 4.71648e-19)
(1.57872 0.630876 0)
(-0.368373 0.406487 3.03994e-20)
(0.967197 -0.797526 2.29645e-19)
(0.854882 0.0168164 5.35091e-20)
(0.602552 -0.389646 0)
(1.83537 -0.502531 -5.72335e-21)
(1.17574 -0.177387 1.86005e-19)
(1.66192 -0.231893 0)
(0.582592 -0.540099 5.55017e-19)
(1.35959 0.157051 -1.72589e-20)
(2.45642 -0.131769 4.05506e-19)
(-0.212926 0.38747 -2.0856e-19)
(1.38343 0.649911 1.67409e-19)
(1.18811 0.433916 4.03805e-21)
(0.935655 0.409431 2.44325e-19)
(1.54856 -0.241514 -1.17947e-19)
(-0.147058 -0.0851143 4.95419e-22)
(0.367688 -0.0850853 0)
(-0.135225 -0.100001 1.76741e-19)
(1.05304 -0.913936 0)
(1.02679 -0.622958 2.71439e-20)
(0.751435 -0.261486 -2.15143e-19)
(1.50462 0.327121 -4.66927e-20)
(-0.200442 -0.0885049 -1.89543e-19)
(1.02623 0.517706 1.90196e-19)
(-0.776908 -0.575163 4.09519e-19)
(0.705066 -0.0403658 0)
(1.79642 -0.0253346 0)
(2.03491 -0.0057118 6.29128e-21)
(0.770361 -0.0119292 0)
(1.324 -0.198692 -1.91396e-19)
(-0.46745 0.101661 3.02033e-19)
(1.98783 0.518398 1.74124e-21)
(1.05446 -0.031496 0)
(0.521504 -0.299867 1.19865e-19)
(1.00824 0.0264 2.23605e-19)
(0.348906 -0.320153 -3.68391e-19)
(-0.263246 0.0792335 0)
(1.07553 -0.452623 6.00729e-19)
(1.71983 -0.0299734 -3.70177e-22)
(1.06728 -0.468929 -2.61132e-19)
(2.3902 0.222554 1.66527e-19)
(1.3376 0.828078 0)
(0.885094 0.0240145 0)
(-0.0202137 -0.0288299 -1.02422e-19)
(-0.0306043 0.0403264 1.48264e-19)
(0.982073 0.398864 -2.26781e-19)
(-0.0483288 -0.132803 -5.09736e-20)
(0.680939 0.456652 2.58529e-19)
(0.759875 0.32792 0)
(0.514284 -0.477811 0)
(0.0787207 0.063462 2.51052e-21)
(1.19342 -0.481935 -1.265e-19)
(0.712261 0.0203505 6.34323e-21)
(0.723271 -0.108431 1.32103e-19)
(-0.123603 0.222763 -2.65624e-19)
(1.20205 0.0428146 2.23972e-19)
(0.695745 0.649636 0)
(1.32093 0.729522 0)
(1.67546 0.270751 0)
(-0.127767 -0.14397 -7.90885e-20)
(1.3199 0.597068 2.00803e-19)
(1.95631 -0.00788328 1.7734e-20)
(0.961884 -0.019264 0)
(2.31666 -0.31687 0)
(2.10984 -0.0722026 -2.91634e-19)
(0.63713 -0.185056 4.41527e-19)
(1.00522 0.00636003 -2.23367e-19)
(1.54395 0.503837 0)
(-0.317946 0.163284 0)
(1.28817 0.341669 3.2078e-19)
(1.06232 0.561088 -1.42048e-19)
(1.07923 0.0325237 0)
(1.22096 -0.288553 0)
(2.08153 0.702576 -2.88515e-19)
(-0.168845 0.477918 -4.04833e-21)
(0.994068 0.0156162 0)
(0.744715 0.518494 -3.57581e-20)
(0.900103 -0.792443 0)
(1.00224 0.0177791 5.2028e-20)
(-0.673451 -0.00271636 -1.12887e-20)
(0.878982 -0.291251 3.55861e-19)
(0.249081 -0.358872 -2.46442e-20)
(2.03123 -0.133156 7.25829e-20)
(1.97887 0.132892 1.16267e-19)
(0.77597 -0.0227439 0)
(1.00132 0.0131505 0)
(-0.29349 -0.0654781 0)
(0.699098 0.669942 -2.04161e-19)
(-0.0954763 0.157277 1.79077e-19)
(1.2036 0.374574 -5.14035e-19)
(-0.387436 0.20389 0)
(0.869327 0.682418 1.80745e-19)
(0.981141 -0.303991 0)
(1.00551 0.000943777 1.30633e-19)
(-0.000674626 -0.525699 4.06956e-20)
(1.0711 0.434447 2.81583e-19)
(1.46801 0.140575 0)
(2.24057 0.115615 -7.38696e-20)
(0.818107 -0.0750891 -4.07909e-19)
(-0.55246 -0.103755 -2.75506e-19)
(0.868039 -0.221784 0)
(0.902516 0.276858 1.9089e-19)
(1.80743 -0.214193 0)
(0.813369 0.563131 3.89055e-19)
(-0.538754 0.0832975 1.2372e-19)
(-0.130506 0.228581 0)
(0.623464 0.59408 -7.59062e-20)
(0.991539 -0.609909 -1.89183e-19)
(0.44834 -0.185042 -1.35717e-19)
(1.0197 -0.00587176 0)
(-0.279045 -0.0126503 -1.54648e-19)
(0.606907 -0.53563 9.44267e-20)
(0.932475 0.323624 0)
(1.64147 -0.161288 8.28215e-20)
(1.02631 0.875725 2.65745e-20)
(0.695387 -0.118338 -7.32375e-22)
(0.0519283 0.0808093 -1.14637e-19)
(0.202678 0.0714787 -6.00807e-19)
(-0.0511026 -0.0086401 4.72737e-21)
(0.850627 0.397699 2.66583e-19)
(-0.327952 0.449136 -5.20007e-21)
(1.36797 -0.621341 3.17304e-21)
(1.02109 0.0205085 -3.89679e-19)
(-0.183676 -0.125725 0)
(1.03892 0.0461631 -4.56111e-19)
(1.96118 -0.252251 9.80732e-20)
(0.928528 0.728128 3.04631e-19)
(1.11916 -0.0573683 1.84488e-19)
(1.0001 -0.0139603 1.80283e-19)
(1.64828 0.391872 4.23629e-20)
(0.0207627 0.0166054 1.4329e-22)
(1.6793 -0.836194 1.44433e-20)
(1.09992 -0.120991 -9.76879e-20)
(0.750964 0.0441767 1.13034e-19)
(0.886819 -0.262134 1.02672e-19)
(1.74638 0.246059 0)
(1.00431 0.772569 0)
(0.542056 -0.463378 -4.85108e-20)
(2.11381 0.212101 -2.0941e-20)
(-0.397748 0.0104847 1.05019e-19)
(0.99748 -0.508873 -6.23452e-19)
(0.584628 -0.497472 4.48324e-19)
(1.41623 0.168895 -1.37567e-19)
(-0.11994 -0.103217 6.38663e-21)
(1.49309 -0.334447 0)
(0.762732 0.160332 -7.37646e-21)
(1.55618 -0.213965 -7.72907e-20)
(1.08336 0.798787 0)
(0.723544 -0.28302 0)
(0.12008 0.112636 0)
(-0.00318396 0.0161379 -3.0726e-20)
(-0.130697 0.179149 0)
(1.48293 -0.000427615 4.97101e-19)
(1.25684 0.194332 7.16642e-21)
(-1.0493 -0.546518 1.86397e-19)
(2.08616 0.893928 2.72578e-20)
(1.91199 0.48092 -5.78312e-20)
(2.0426 -0.299904 -9.94366e-21)
(-0.186162 0.0211667 -2.07742e-19)
(-0.111979 -0.170259 1.93888e-21)
(1.73429 0.179325 0)
(0.684773 -0.0347794 0)
(1.00111 0.00149124 2.01887e-22)
(-0.14321 -0.137834 0)
(1.43427 -0.00312329 1.57103e-20)
(0.683995 -0.0310675 0)
(1.04047 0.0140653 1.48327e-19)
(0.989597 0.0169509 -5.0845e-20)
(1.28342 0.0252198 1.29618e-19)
(1.07329 -0.0126726 -1.04346e-21)
(0.928984 -0.1652 -6.1736e-20)
(1.01822 -0.0198542 4.19929e-19)
(0.639553 -0.575342 2.15113e-19)
(-0.997688 -0.675954 -2.38684e-19)
(1.41186 0.667828 3.89203e-21)
(-0.0382256 0.0625591 0)
(1.17147 0.831854 0)
(1.02171 0.00728576 0)
(0.967199 -0.74189 -1.35065e-19)
(1.00105 -0.857747 8.92181e-20)
(1.08274 0.485452 1.18337e-20)
(-0.442052 -0.305382 -5.39835e-19)
(0.651401 -0.0421368 1.1815e-20)
(0.552561 -0.333524 -7.12962e-19)
(1.80695 0.510366 -7.7938e-20)
(0.165879 0.0192469 -7.27273e-20)
(1.97162 -0.268383 1.52731e-20)
(0.95428 0.13598 -3.78414e-22)
(0.0112538 0.00914894 -6.64388e-20)
(1.15416 0.585515 2.1691e-19)
(-0.252469 -0.138275 0)
(-0.0230004 -0.201384 1.22726e-19)
(-0.11103 -0.0670171 -1.13498e-22)
(1.02917 -0.0427595 3.73886e-19)
(1.02056 0.0112658 -9.66467e-21)
(1.11218 -0.00797023 -1.03368e-19)
(1.43401 0.299515 6.70009e-21)
(1.69467 0.333678 6.8899e-20)
(0.372142 -0.345406 -3.57797e-19)
(0.712377 0.413397 -2.20355e-20)
(1.02857 0.0128889 -2.76823e-19)
(1.51999 0.55088 -4.00827e-21)
(1.28546 0.421278 0)
(1.15259 0.623992 -4.06804e-19)
(1.0029 -0.002681 1.06603e-19)
(0.713406 0.64251 2.76651e-19)
(1.18425 -0.328112 -2.78345e-21)
(1.07959 -0.00351411 -3.39499e-20)
(1.13712 0.0195905 9.63871e-22)
(2.32509 -0.0316485 1.51537e-20)
(0.882278 0.25317 0)
(1.04395 -0.0393548 0)
(1.04776 -0.0341054 6.54382e-19)
(1.00269 -0.00220162 0)
(-0.0580115 -0.0280785 0)
(0.93127 -0.554344 0)
(1.00081 0.000115127 -6.20098e-19)
(1.11781 -0.652101 1.12997e-19)
(1.02151 0.000917111 1.30715e-20)
(1.39714 0.995716 -3.19305e-20)
(1.58694 1.04557 2.39548e-20)
(0.640691 -0.148794 -2.13268e-20)
(1.33409 -0.264597 1.53565e-19)
(2.03987 0.16286 0)
(-0.0270764 0.412507 0)
(1.81998 -0.1721 1.6728e-19)
(0.959042 -0.303089 0)
(0.999795 -0.00450901 -1.91509e-19)
(1.01094 -0.000848727 3.72345e-19)
(1.4963 0.145714 -7.82228e-20)
(0.0179583 -0.11569 1.40511e-19)
(0.980282 0.00148188 2.02582e-19)
(0.194667 0.0700648 -2.16708e-20)
(0.740602 -0.120517 3.37581e-20)
(1.50541 0.341409 -8.49103e-23)
(0.924367 0.0188538 -2.05358e-19)
(1.00359 0.00456668 2.41069e-19)
(1.00007 -2.86537e-05 1.42306e-20)
(0.790724 -0.0128508 0)
(0.730891 -0.0264142 0)
(0.726914 -0.0268388 8.04557e-22)
(0.704074 -0.0291437 0)
(1.45911 -0.0966527 0)
(1.14131 -0.172264 0)
(0.634267 -0.139052 -5.54684e-20)
(0.448838 -0.102342 3.13183e-20)
(1.49485 -0.438623 0)
(1.27317 -0.110847 3.89004e-20)
(1.59932 0.224787 0)
(0.0318135 0.192834 0)
(0.173135 0.0574386 0)
(0.506796 0.154881 -5.20984e-21)
(1.35461 0.249891 1.778e-20)
(0.773831 0.0240682 0)
(0.78612 0.0202333 0)
(0.963444 0.0215935 -2.52874e-19)
(0.815598 0.00787539 4.70059e-19)
(1.00795 -0.00130168 0)
(1.00013 -0.000337609 4.45328e-19)
(1.00029 -0.000554837 -2.84008e-22)
(0.783898 0.0224895 4.01659e-19)
(0.997979 -0.00535284 -2.3257e-19)
(-0.0512775 0.186924 0)
(0.860218 -0.160255 -3.37799e-20)
(1.00069 -0.000747494 -2.24847e-19)
(1.00002 0.00163242 -3.86269e-19)
(1.1409 0.19475 0)
(0.998853 0.00174999 0)
(0.999708 0.000558506 0)
(1.68458 -0.448285 -1.93645e-20)
(0.0697724 0.161606 4.59086e-20)
(1.00681 0.531451 0)
(-0.343979 0.326399 1.86698e-19)
(-0.326447 -0.427297 -3.62425e-19)
(1.02103 -0.00927687 -3.00211e-19)
(-0.0767893 -0.110964 -5.64987e-20)
(1.01722 0.0107739 -2.42065e-19)
(1.133 -0.201085 -1.3793e-19)
(0.767981 -0.435349 3.51369e-19)
(-0.0152776 0.00285558 -4.40267e-20)
(1.02796 0.0174392 0)
(1.07071 -0.00854004 -6.53243e-20)
(0.841382 0.0273786 0)
(-0.0876663 0.140601 2.61381e-19)
(0.78217 -0.14712 0)
(-0.109147 -0.119779 -1.52484e-19)
(0.486854 0.139585 2.55187e-20)
(1.7235 0.714348 -2.54851e-20)
(-0.0634328 0.00936132 0)
(1.05199 -0.036972 2.02431e-19)
(0.406018 0.0346385 3.74208e-21)
(0.930884 0.0166155 3.15658e-19)
(1.0132 -0.00427037 -2.04317e-19)
(1.74024 0.898797 2.99276e-20)
(0.555809 0.525318 0)
(0.484328 0.453475 2.15011e-19)
(2.17118 -0.367304 -8.82429e-22)
(1.18083 0.137944 2.16488e-19)
(1.04948 -0.680454 0)
(1.0246 0.00933255 0)
(1.00007 -0.0165962 -4.69918e-19)
(1.01807 0.0189012 -4.59607e-19)
(-0.081203 -0.0323887 0)
(1.27028 0.859224 -1.45794e-19)
(1.41371 -0.426586 2.96369e-21)
(1.01622 0.00952089 1.76742e-19)
(1.01147 0.016033 -2.21661e-19)
(-0.132987 -0.0659789 -1.57319e-20)
(0.517103 -0.0909084 -1.0261e-19)
(1.0198 -0.00948757 7.5322e-19)
(1.52316 -0.415106 0)
(1.93494 0.680946 -3.71483e-20)
(1.01669 -0.00679901 -2.3477e-19)
(2.0245 -0.00450116 -6.56041e-20)
(1.06898 0.0147046 -5.40496e-22)
(1.00993 -0.00812648 4.68674e-20)
(1.91342 -0.208678 -7.32751e-20)
(1.01523 0.00852634 2.28024e-19)
(1.05813 0.665648 6.94067e-21)
(1.0181 0.010595 0)
(0.951429 0.178939 5.47313e-20)
(-1.09934 -0.449041 3.43923e-21)
(0.997084 0.0231944 2.26467e-19)
(1.03887 0.021717 -5.62762e-22)
(1.10525 -0.31063 -1.5433e-20)
(1.29763 0.335042 4.62727e-19)
(0.993357 0.0192564 1.56038e-19)
(1.01804 -0.0102604 5.12077e-22)
(1.81862 0.252284 -2.77008e-20)
(1.85497 0.990299 -1.05126e-19)
(0.743638 -0.666375 7.37495e-20)
(0.414967 -0.264101 -3.42622e-19)
(1.00834 -0.00782321 0)
(1.01856 0.00617827 5.66262e-20)
(1.01152 -0.00613737 1.1926e-19)
(0.939312 0.521701 5.97917e-21)
(1.01462 0.0110388 -2.37421e-19)
(1.0232 -0.0138798 2.72967e-19)
(1.00872 -0.00493806 -2.22887e-19)
(1.01399 0.0100455 -5.25019e-22)
(1.01324 0.00663898 -3.82062e-22)
(1.02366 0.0189569 2.27481e-19)
(0.91374 0.119568 5.64381e-19)
(1.98481 0.458908 0)
(0.263744 -0.605784 1.02914e-19)
(1.01023 0.00112682 0)
(1.02381 -0.0106127 -6.58423e-20)
(1.59703 0.465434 -9.70075e-20)
(1.94691 -0.127525 0)
(1.97114 -0.0533585 -8.63643e-20)
(1.48026 0.102074 -9.70835e-20)
(0.785019 -0.0181206 0)
(1.6358 -0.254913 0)
(0.431019 0.0886895 -4.89828e-19)
(1.21978 0.194941 -3.94537e-20)
(1.01771 0.00161385 -2.39068e-19)
(1.08197 -0.536227 -7.48126e-20)
(0.962009 -0.207846 -5.46682e-20)
(1.05381 0.769514 0)
(1.49682 -0.338753 0)
(2.2838 0.260092 0)
(0.0804065 0.212155 1.01832e-19)
(0.971935 0.386941 8.76241e-20)
(-0.641334 -0.242054 0)
(-0.129781 0.162366 -2.2765e-19)
(1.76516 1.00851 -4.39611e-20)
(1.00729 0.000682676 -4.67295e-19)
(0.686562 0.28395 5.46364e-20)
(1.02125 0.0163542 3.0974e-19)
(0.706609 -0.0439631 0)
(-0.120821 -0.0566112 -1.34597e-20)
(0.650895 0.483607 -3.64943e-19)
(1.86332 0.435747 2.79941e-19)
(0.0808 0.228888 0)
(0.752352 0.0745876 9.58212e-20)
(0.551065 0.529308 5.52263e-20)
(1.23504 0.923911 -3.95655e-20)
(-0.059814 -0.0462285 6.71321e-20)
(1.02449 0.0234623 0)
(1.01167 0.533114 2.71673e-20)
(1.01173 0.0023438 1.75361e-19)
(2.3636 0.0327617 0)
(1.01162 0.0117967 2.94224e-19)
(-0.00113259 -0.166116 -5.62416e-20)
(1.0187 0.0175319 -1.82203e-19)
(1.51903 0.88693 0)
(2.2948 -0.159643 4.00374e-22)
(1.00873 0.00705474 -1.2212e-19)
(0.995783 -0.00922103 3.2181e-19)
(1.11787 0.110592 -3.54287e-21)
(1.11372 0.756833 -1.78139e-21)
(-0.129911 -0.100525 1.79846e-19)
(2.12636 0.279445 1.84114e-19)
(0.169472 0.421198 -7.87346e-22)
(0.800179 0.0145414 -4.4134e-19)
(0.826993 0.0308851 0)
(0.0562537 0.0994377 4.19609e-20)
(1.02474 -0.0056461 -3.53641e-20)
(0.97197 0.0468663 0)
(1.05545 0.00672185 -2.2412e-19)
(-0.455631 0.344231 2.45826e-20)
(-0.595573 -0.0317149 1.11246e-19)
(2.07896 -0.539815 0)
(-0.663086 -0.0954767 -5.55303e-19)
(1.46167 -0.328435 0)
(1.04253 -0.0153501 6.57561e-20)
(0.942228 0.269659 1.76596e-21)
(1.01221 0.00535112 1.89874e-19)
(-0.395752 0.134619 2.8642e-19)
(1.01998 0.00815343 0)
(0.994598 0.00372594 -4.54494e-19)
(1.00825 0.0103184 2.41258e-19)
(0.96899 -0.296856 0)
(0.456531 0.0957334 -8.82937e-21)