/*--------------------------------*- C++ -*----------------------------------*\
| =========                 |                                                 |
| \\      /  F ield         | OpenFOAM: The Open Source CFD Toolbox           |
|  \\    /   O peration     | Version:  2306                                  |
|   \\  /    A nd           | Website:  www.openfoam.com                      |
|    \\/     M anipulation  |                                                 |
\*---------------------------------------------------------------------------*/
FoamFile
{
    version     2.0;
    format      ascii;
    arch        "LSB;label=32;scalar=64";
    class       volVectorField;
    location    "1.1";
    object      U;
}
// * * * * * * * * * * * * * * * * * * * * * * * * * * * * * * * * * * * * * //

dimensions      [0 1 -1 0 0 0 0];

internalField   nonuniform List<vector> 
2186
(
(1.27886 0.019226 1.45907e-19)
(1.92273 -0.937264 -2.09053e-19)
(1.62152 -0.925305 -4.89343e-21)
(0.750816 -0.582167 -1.14702e-19)
(0.437216 -0.353139 2.36801e-20)
(1.0023 -0.0456185 0)
(0.803582 -0.732731 0)
(0.372101 0.385188 -1.67719e-21)
(1.20497 0.426729 2.44879e-20)
(0.568175 -0.325872 -2.4026e-21)
(0.704877 0.619922 0)
(2.44062 0.358305 -3.22049e-19)
(0.376756 0.365429 3.58563e-21)
(1.04362 0.0281544 -3.24199e-19)
(2.14228 -0.375675 -1.67856e-19)
(1.08874 0.0373389 1.46653e-19)
(0.992775 -0.00745827 0)
(0.682663 -0.217346 0)
(1.00761 -0.0121846 0)
(0.570702 -1.31066 -1.66322e-19)
(0.506115 0.087568 -9.50474e-20)
(1.78973 -0.662476 3.52071e-19)
(0.997612 0.00484529 2.69908e-19)
(1.12965 0.292621 4.87153e-20)
(1.04636 -0.0294339 -2.06097e-19)
(0.790867 -0.559568 0)
(0.726291 -0.0636031 1.18649e-19)
(0.674535 -0.642146 -1.27207e-19)
(1.24014 0.660601 0)
(1.00939 -0.0281849 -2.89866e-19)
(0.105809 -0.592635 0)
(0.960783 -0.0804458 9.86908e-21)
(0.850387 -1.10567 0)
(1.09234 0.00890067 -2.00927e-20)
(0.630463 0.973595 -2.11444e-20)
(1.66686 0.632102 -2.55892e-20)
(1.03458 0.0437335 -1.19273e-20)
(0.517798 0.128313 -2.82228e-19)
(1.32131 -0.305305 -3.59432e-20)
(0.974995 0.0406179 -1.71386e-21)
(0.452883 0.413507 0)
(1.61064 -0.967493 0)
(2.43978 -0.563197 2.0182e-19)
(1.10207 -1.15422 0)
(1.11596 0.299201 1.1734e-19)
(0.615216 -0.306312 2.31502e-19)
(1.07153 -0.883006 0)
(1.25723 -0.723444 6.27423e-20)
(1.04729 -0.0139822 0)
(0.636598 -0.448995 -1.16977e-20)
(-0.232912 -0.584302 2.44338e-19)
(0.678275 0.616443 5.83356e-20)
(2.29294 -0.207322 1.59613e-19)
(0.568709 0.256999 -2.26122e-19)
(0.855843 -1.27627 5.12303e-20)
(0.78993 -0.657453 0)
(2.33568 -0.946387 3.97238e-20)
(0.626343 -0.578255 0)
(1.30748 -0.277698 2.56226e-21)
(1.12194 -0.133186 -2.39499e-19)
(1.05181 -0.0259801 -1.67416e-20)
(1.31526 0.211867 -1.29558e-19)
(1.33332 0.471245 0)
(1.00014 -0.0695895 1.87777e-21)
(1.31237 0.318643 -6.78927e-20)
(1.31953 -0.673222 -7.55186e-20)
(1.18659 0.571473 3.58267e-20)
(0.675968 0.0586409 -4.56684e-19)
(0.83285 0.0651711 0)
(1.1931 0.299512 -6.46772e-21)
(0.393067 0.437256 -7.98307e-21)
(1.05162 -0.000791694 1.19895e-20)
(0.718445 -0.0461456 -2.00329e-19)
(0.891799 -0.509402 0)
(0.785583 0.175577 -7.34484e-20)
(0.582007 -0.527998 -2.37306e-19)
(1.04093 -0.0562402 0)
(1.02306 0.0230761 3.19443e-19)
(0.373622 0.864297 0)
(1.63926 -0.513644 0)
(0.985108 -0.261978 -1.00222e-20)
(1.06628 0.0855687 4.64867e-21)
(0.999374 -0.0273065 3.55292e-20)
(1.32624 0.298549 1.81907e-20)
(0.948261 -0.0354902 3.66026e-19)
(0.99177 0.0644023 -8.62223e-21)
(0.64269 0.176445 -2.70592e-19)
(1.0197 0.0162511 7.63335e-22)
(0.95682 0.0363108 0)
(-0.563069 -0.810005 2.76767e-19)
(0.88633 -0.597199 -1.22935e-19)
(0.422605 -0.743655 1.72807e-20)
(1.06546 -0.186936 2.14412e-19)
(0.801449 -0.163456 0)
(1.01289 -0.00936031 3.57524e-20)
(1.41566 0.511424 0)
(1.77159 -0.83385 0)
(1.28484 0.0946548 0)
(0.553501 -0.418356 0)
(0.804183 -0.659579 2.23943e-19)
(0.955286 -0.137176 2.94846e-20)
(0.967932 -0.194764 -2.01395e-20)
(1.32943 0.132084 0)
(1.02825 -0.0674539 -1.96056e-19)
(0.915839 -0.0113176 1.57072e-19)
(0.75524 -0.807464 2.92876e-20)
(0.640811 0.48637 0)
(1.3527 0.095575 1.38453e-21)
(0.972834 -0.433447 6.22711e-20)
(0.995714 0.009172 -1.85093e-20)
(1.69124 -0.541631 1.12068e-19)
(0.583188 -0.497663 -2.42119e-21)
(0.92032 -0.818257 0)
(0.544934 0.332888 1.36695e-19)
(1.31341 0.475719 -9.46747e-20)
(0.247057 0.193833 1.10102e-19)
(1.01773 -0.0995695 -1.66486e-20)
(0.957547 -0.0460531 0)
(-0.723009 -0.758328 -8.2867e-19)
(0.71983 -0.0667638 6.35087e-20)
(1.69194 0.86826 0)
(0.72562 -0.401585 2.44994e-20)
(0.910855 0.758623 -2.00956e-19)
(0.74933 -0.161308 -6.06541e-20)
(0.981554 -0.0172019 0)
(1.02243 0.0220819 2.09757e-20)
(0.531001 -0.433349 0)
(0.707919 -0.495356 -8.43747e-20)
(0.713202 -0.185131 3.33706e-20)
(0.874255 -0.780188 0)
(0.446729 -0.296809 3.40547e-19)
(0.561654 -0.471136 2.24617e-19)
(0.507853 -0.457033 0)
(1.04789 -0.794363 -7.68617e-20)
(0.95144 -0.233363 0)
(0.69685 -0.468079 9.14173e-21)
(0.844682 -0.702777 1.04252e-19)
(1.41503 0.296156 1.68585e-20)
(1.34376 -0.121369 0)
(-0.0404053 0.270771 0)
(0.749819 0.686059 -2.39064e-19)
(1.81718 -0.313234 3.75196e-20)
(0.17549 0.203799 0)
(1.02665 -0.806961 -8.82763e-21)
(1.1153 0.0988287 0)
(0.966041 -0.0239253 3.2966e-19)
(1.43963 0.226828 -1.07629e-21)
(0.473601 -0.353197 0)
(1.23161 -0.494309 -3.56449e-20)
(1.27187 -1.39859 -6.43072e-20)
(0.517567 -0.485488 0)
(1.15466 -0.797911 1.43671e-20)
(1.03883 -0.0202069 -5.33854e-19)
(0.663326 -0.492235 -8.37588e-21)
(0.817205 -0.529893 0)
(1.28776 -0.669599 -5.37189e-20)
(0.624015 0.22099 2.11865e-19)
(1.20409 0.0651032 0)
(1.58151 -0.110061 -1.24306e-19)
(1.30037 -0.860403 -7.57337e-20)
(-0.0772038 0.291202 -7.93469e-20)
(0.792776 0.330646 2.07501e-20)
(0.97662 0.0376544 1.91426e-19)
(0.93292 -0.478121 -7.83022e-20)
(1.0181 0.00787975 -7.06689e-22)
(1.02927 0.00897947 4.81475e-22)
(2.20874 0.469318 3.45165e-19)
(1.86377 1.05106 -6.31529e-19)
(1.04965 -0.032063 0)
(0.980195 -0.00238415 -1.5139e-20)
(1.4613 0.612133 6.77331e-20)
(0.821608 -0.610824 -1.63342e-19)
(1.03433 0.00310614 1.10539e-20)
(0.740764 -0.532071 2.32094e-19)
(1.39605 0.713114 5.76785e-20)
(1.53751 -0.149619 -4.89967e-22)
(0.429292 -0.320676 0)
(1.0328 0.0011538 -2.01011e-19)
(0.80856 0.124417 3.85364e-20)
(1.07827 0.479275 5.87957e-20)
(2.30748 1.03846 3.78397e-19)
(1.00264 -0.0146999 -3.75918e-20)
(0.215272 -0.943987 -2.18007e-19)
(1.31547 0.470134 -4.16733e-20)
(1.20207 0.88039 0)
(0.453647 -0.277315 2.45676e-20)
(0.028146 0.0102433 0)
(0.659655 0.554457 -2.18215e-19)
(1.4405 -0.204853 -1.58151e-21)
(0.395475 0.336423 -2.38759e-20)
(0.492557 -0.0465595 1.59515e-19)
(0.748461 0.0519294 2.00514e-19)
(0.988738 -0.150774 4.3578e-21)
(0.984064 -0.332965 -2.30112e-20)
(-0.248835 -0.0331144 0)
(0.976857 0.0160506 -3.00221e-20)
(1.52321 1.02054 6.8374e-20)
(0.801221 0.0434796 -1.08453e-19)
(0.58122 0.536539 1.5075e-19)
(1.9118 0.103133 0)
(0.67649 0.543397 3.14501e-21)
(0.981727 -0.0212441 -2.58152e-20)
(1.46513 -1.02334 -2.15722e-22)
(0.900736 -0.0739521 -1.59815e-19)
(0.82877 -0.399535 -1.39578e-20)
(0.214689 -0.203752 -4.14463e-21)
(0.973945 0.21888 -5.92096e-19)
(1.04413 -0.0649966 0)
(0.983345 -0.0385537 -2.6733e-19)
(1.12693 -0.0648943 -1.72823e-20)
(1.30752 -0.547547 5.05277e-20)
(1.03211 -0.0260473 -2.95676e-21)
(0.567193 0.309211 0)
(0.962638 0.733967 -1.16355e-20)
(0.733006 0.660619 1.36519e-19)
(0.917604 -0.5193 1.1264e-19)
(0.685593 0.486397 0)
(1.02794 -0.00910959 6.84087e-21)
(0.931686 -0.652482 1.58271e-19)
(0.807741 0.396697 -3.57976e-19)
(1.29697 0.0257978 0)
(0.0332661 0.0196206 7.77874e-20)
(0.748406 -1.0113 -4.67122e-20)
(1.67953 0.649497 0)
(1.48908 -0.929829 1.84729e-22)
(0.693872 -0.25726 0)
(0.492577 -0.397021 -1.06462e-20)
(0.7458 0.643696 -7.50842e-20)
(0.843465 -0.212814 0)
(1.15682 1.42478 0)
(2.47092 0.40158 0)
(0.975733 -0.0183725 -3.96856e-20)
(1.3279 -0.880753 5.01512e-20)
(1.23138 -0.561961 3.95892e-20)
(0.971485 -0.151956 -1.09131e-19)
(0.911031 -0.682856 -1.23897e-19)
(0.204027 -0.207499 0)
(0.806639 -0.0645337 0)
(1.06994 -0.470848 1.25302e-19)
(0.162492 0.327481 0)
(0.637528 -0.389944 0)
(0.248225 0.172669 -9.58665e-20)
(0.799399 0.652028 6.51381e-20)
(1.04338 0.771764 0)
(0.694221 0.537498 -6.67489e-20)
(0.840707 -0.0613242 -1.8011e-19)
(0.7437 0.54631 -1.77364e-19)
(0.613747 0.560073 -1.29757e-19)
(0.365189 0.527127 -8.73807e-21)
(0.77936 -0.68616 0)
(0.893643 0.152664 -2.55667e-19)
(0.466076 0.4858 4.35796e-22)
(0.638588 0.582407 2.86103e-19)
(0.982192 0.791341 0)
(0.966159 -0.00391142 -3.70199e-20)
(0.673812 1.10002 1.59204e-19)
(1.08316 1.21617 -6.16371e-20)
(0.667004 0.558401 -1.16309e-20)
(0.931613 0.0511602 5.2225e-20)
(0.461885 0.40097 0)
(1.12887 0.0923464 1.32101e-20)
(1.03255 -0.016565 2.91529e-20)
(0.706896 -0.642712 -5.65654e-20)
(0.802645 -0.168602 -1.77432e-21)
(1.17275 0.419402 1.24613e-19)
(0.869102 0.390185 0)
(1.12253 -0.28976 1.47839e-19)
(1.01531 1.01047 2.44632e-20)
(-0.0853828 -0.849608 4.73807e-19)
(1.08006 0.0482567 -4.49577e-20)
(1.23326 0.0498576 0)
(1.30643 0.134154 -2.00935e-20)
(1.28128 -0.104376 0)
(0.524599 0.240129 -3.73166e-19)
(0.272015 -0.245117 0)
(0.354262 0.443975 1.91818e-20)
(1.10755 0.230521 0)
(0.636908 -0.519467 -1.43876e-19)
(1.06107 -0.0969134 1.80053e-19)
(0.528239 -0.372736 -6.92582e-21)
(1.09396 -0.00430163 -3.29072e-21)
(1.29711 0.34992 -2.80181e-20)
(1.06047 0.181721 -1.66284e-19)
(0.485797 0.460603 7.38218e-21)
(1.15368 -0.852751 0)
(0.906713 0.0603571 -1.31421e-19)
(0.917012 -0.326884 -2.23563e-19)
(1.85209 -0.18564 -1.42785e-20)
(1.26754 0.0223855 1.39612e-20)
(0.970713 0.0850813 3.23755e-19)
(0.899372 0.788425 -1.04262e-20)
(0.982712 -0.395771 -9.57627e-20)
(0.210174 -0.199154 2.04482e-19)
(1.0497 0.0579699 0)
(0.969708 -0.058016 0)
(1.02842 -0.0268084 -1.21627e-20)
(0.691366 -0.52956 -4.56062e-21)
(0.742805 -0.0974192 -3.40057e-19)
(0.956505 -0.00171809 -1.47813e-21)
(1.01033 -0.0409578 0)
(1.07313 -0.15441 1.11145e-20)
(1.08881 -0.916039 -2.9212e-20)
(2.11742 0.0187428 -1.20154e-19)
(1.1573 0.809558 0)
(0.500889 -0.473209 0)
(0.609189 0.504242 -1.40762e-19)
(1.07385 0.261534 -3.02668e-19)
(1.49607 0.268271 4.88554e-23)
(0.887241 0.167375 1.10561e-19)
(0.873422 0.504734 1.7232e-20)
(0.92127 0.030815 6.7886e-21)
(0.672009 0.392325 0)
(-0.168064 0.390174 0)
(0.454337 0.322898 0)
(1.41099 -0.658063 -1.97558e-20)
(0.508485 -0.521749 -2.81585e-20)
(0.334985 -0.449294 0)
(1.45019 1.01729 8.59518e-21)
(0.997097 0.0997402 -3.30184e-19)
(1.0523 0.0389967 8.56319e-21)
(1.19607 0.983125 2.11766e-20)
(0.611968 -0.546136 3.73778e-21)
(0.98921 -0.037639 0)
(0.421924 0.294281 7.07295e-20)
(0.56329 -0.474137 -2.60054e-21)
(0.794088 1.84887e-05 1.47022e-19)
(1.74199 0.849314 1.19096e-19)
(1.02529 0.0266193 1.02119e-20)
(0.401091 -0.836657 7.78631e-21)
(0.814332 -0.730989 -2.5603e-20)
(1.30836 -0.00288101 0)
(1.26826 -0.0487705 0)
(1.14694 -0.0275196 0)
(0.960658 0.00612074 2.74043e-20)
(0.504954 0.35721 -1.94815e-20)
(1.08775 0.833206 0)
(1.06764 0.0368415 4.21314e-19)
(0.76216 0.584613 -1.76891e-19)
(0.995974 0.00821133 1.50584e-20)
(0.846373 -0.0628221 -3.31549e-20)
(0.766058 -0.68059 -1.60018e-19)
(1.44853 0.58094 -5.89941e-21)
(0.583373 -0.46603 -2.3462e-19)
(1.00474 -0.00174188 -3.93279e-19)
(1.05794 -0.00696228 3.7256e-20)
(1.39192 -0.178479 3.82665e-20)
(1.01333 -0.00801051 1.38274e-20)
(-0.0269772 0.069022 -8.70767e-21)
(1.10035 0.447944 -1.98882e-19)
(2.10732 0.648323 1.96017e-19)
(1.31376 1.55596 0)
(0.813009 0.450533 -1.01277e-20)
(0.0490211 0.0446895 -3.34001e-20)
(0.262844 -0.0317409 -4.25204e-19)
(0.466721 0.307584 0)
(0.969007 -0.0429458 0)
(-0.68347 0.442909 -2.62031e-19)
(0.488886 0.545582 9.54933e-21)
(0.962414 0.00730235 1.55313e-19)
(0.345908 -0.264436 9.38825e-21)
(1.01984 -0.080103 3.90456e-20)
(0.758972 -0.607252 0)
(0.901275 -0.782608 -2.04344e-19)
(0.998505 -0.013401 -2.61734e-20)
(0.783138 0.21157 -2.73121e-20)
(0.668098 0.173982 2.63669e-19)
(0.622789 0.132808 8.60348e-20)
(0.533476 -0.496724 1.59425e-19)
(0.204543 0.255177 -1.27439e-21)
(0.953319 0.0306993 0)
(0.390554 0.346091 -1.5838e-19)
(0.972729 -0.0287693 -2.39848e-19)
(0.544229 -0.0769435 -6.39587e-20)
(1.44385 0.330597 -5.79366e-20)
(0.237202 0.412817 -9.48949e-21)
(0.86488 -0.770578 2.91203e-20)
(0.808999 0.146592 -1.63243e-19)
(0.971335 0.393927 1.73355e-20)
(1.1075 -0.0421802 2.61657e-20)
(0.617134 -0.233873 -2.42829e-19)
(1.67159 0.162236 -7.83096e-20)
(0.940373 -0.0282673 0)
(0.97273 0.0579508 6.93054e-21)
(0.998002 -0.0202344 4.33806e-21)
(1.01725 0.24741 -8.25479e-21)
(2.4871 -0.600905 -3.64063e-19)
(0.975268 -0.0125636 -1.10976e-20)
(0.417862 0.387155 -2.03465e-19)
(0.787353 -0.300317 -2.79015e-20)
(1.07977 0.295474 0)
(1.01304 -0.0096363 0)
(0.975776 -0.83742 3.47009e-20)
(0.561044 1.01031 -1.77018e-19)
(0.81818 -0.0916731 3.25018e-20)
(0.033112 0.178949 -9.67696e-20)
(0.689066 -0.333571 2.4223e-20)
(0.711112 0.322606 0)
(-0.280649 0.246668 4.87948e-20)
(1.03144 -0.733165 -2.36786e-20)
(0.190823 -0.181201 1.15695e-20)
(0.825344 -0.0942705 0)
(0.9956 -0.00240074 -1.3229e-20)
(0.0672504 0.0495089 0)
(1.01089 0.0100681 3.16678e-19)
(0.817601 0.382771 -7.02987e-21)
(0.559416 -0.437872 3.14435e-19)
(0.757475 0.12061 -6.37229e-20)
(0.930114 -0.00660987 0)
(0.899025 -0.564342 4.91671e-21)
(1.00962 0.0166494 -9.53268e-21)
(1.86604 1.3286 0)
(0.953915 -0.0248018 -4.98692e-20)
(0.90256 -0.741551 -2.04099e-19)
(0.945025 -0.0352287 0)
(0.955804 -0.277819 1.60657e-19)
(0.83113 -0.401339 -2.03967e-20)
(-0.545799 -0.43952 0)
(0.672018 0.494886 4.3753e-22)
(0.742448 -0.640937 -3.25298e-19)
(0.953976 -0.00518149 -2.24349e-19)
(0.719997 0.952898 9.80233e-20)
(0.289168 0.509076 2.52429e-20)
(0.662794 0.361189 0)
(0.964614 0.435463 0)
(0.801528 0.282442 -2.72024e-20)
(1.03732 0.118472 1.3585e-20)
(1.16112 0.92798 9.40688e-21)
(0.981989 0.256704 -9.59577e-20)
(1.12675 0.0278767 -1.69703e-19)
(1.35627 0.0692871 -5.08288e-20)
(0.636268 0.847114 -6.9321e-20)
(1.04841 -0.061905 -3.67871e-20)
(1.01159 -0.0551013 1.56904e-19)
(1.04264 0.0533283 -9.59984e-21)
(1.06394 -0.297034 0)
(1.00089 0.0441492 -3.49021e-20)
(0.997586 -0.00609752 -4.29766e-19)
(1.81991 0.471465 -5.16833e-20)
(0.747357 -0.451583 -1.27132e-19)
(-0.685922 -0.564891 6.30117e-19)
(0.852516 -0.728795 2.72264e-19)
(1.23663 0.129862 5.49194e-20)
(1.04191 0.0229106 2.21312e-19)
(0.903771 0.638179 -4.11969e-21)
(1.09213 0.0701369 0)
(1.07168 -0.0185004 1.74178e-20)
(-0.595974 -0.3035 0)
(1.00551 0.000524661 -1.29909e-19)
(0.980174 -0.023213 4.4753e-20)
(1.52696 0.118459 1.57198e-20)
(0.182526 0.138106 -4.95783e-20)
(1.29989 -0.00984929 -1.33501e-22)
(0.982393 -0.0415811 4.49503e-20)
(1.22688 -0.022532 0)
(1.45314 -0.47918 -4.64275e-20)
(0.903152 -0.0364484 -1.26644e-19)
(1.51845 0.764665 3.51942e-20)
(1.24471 0.0498185 0)
(1.05842 0.0565946 -1.86316e-21)
(-0.675594 0.243702 0)
(1.47378 0.0210525 0)
(0.512554 0.395498 0)
(1.20251 0.352243 0)
(1.45321 -0.456761 1.57539e-20)
(0.742259 0.5977 3.09614e-19)
(0.316158 -0.316342 -1.88676e-19)
(0.438483 0.593289 -2.50193e-20)
(-0.296923 -0.0217978 0)
(1.01035 -0.00111621 -1.6965e-20)
(2.56398 0.0815148 0)
(1.40553 0.247566 0)
(0.435407 0.278908 -3.13695e-20)
(0.851051 0.730583 9.02717e-20)
(1.59205 0.158466 0)
(0.330676 0.304598 -6.98395e-21)
(0.902543 0.200866 1.49807e-19)
(1.03771 -0.00564523 1.33453e-20)
(1.33747 0.915732 1.54883e-20)
(1.08111 -0.951994 -3.67871e-21)
(0.947271 -0.0249894 1.34876e-20)
(0.849624 0.750346 9.04072e-20)
(1.29547 0.954292 0)
(1.06533 -0.0120823 -1.33099e-20)
(0.999215 0.0273635 0)
(1.06543 0.0354322 -1.48106e-20)
(1.85826 -1.03825 2.70701e-19)
(0.997318 0.0436172 0)
(0.956949 0.0189778 -3.56606e-20)
(0.91829 -0.219585 3.76731e-20)
(0.640087 -0.419107 0)
(0.672035 -0.391475 1.69145e-19)
(1.23429 0.546684 -2.20731e-20)
(0.491172 0.458182 2.19649e-19)
(0.235809 -0.235128 -2.67015e-21)
(1.31349 -0.972789 8.1533e-20)
(1.07539 0.0324445 0)
(1.44614 -0.920031 2.20168e-20)
(1.00334 0.0308449 3.40856e-19)
(2.09438 -0.583525 2.85831e-19)
(0.318039 0.289494 -7.1432e-21)
(0.79994 0.107876 0)
(1.10868 -0.17333 -8.17881e-20)
(-0.512637 -0.250941 -2.67024e-19)
(0.93932 0.100759 4.41466e-21)
(-0.425111 0.819778 6.89462e-21)
(-0.264881 0.61034 8.61142e-19)
(1.0022 -0.0046408 -4.06803e-21)
(1.28503 0.104427 -1.77225e-20)
(1.19919 0.400543 -2.00936e-19)
(1.0671 0.014209 0)
(1.23619 -0.0374314 -2.63457e-20)
(1.29135 0.0240636 7.30499e-21)
(0.950549 -0.783494 9.58565e-20)
(1.37985 -1.10428 2.67551e-20)
(0.499774 0.459404 1.45777e-19)
(0.996574 0.0425405 0)
(1.91138 0.107445 9.53616e-20)
(-0.457934 -0.135026 -5.03095e-19)
(0.935926 0.790644 0)
(0.998517 0.034982 0)
(0.31528 -0.310762 -3.74494e-21)
(0.329184 0.306871 0)
(0.854086 0.0602827 5.56668e-20)
(0.426859 -0.379013 3.37199e-21)
(2.12259 0.529721 0)
(1.21576 0.0408916 8.59015e-20)
(0.809157 -0.141115 -2.74196e-20)
(0.575018 -0.540133 -3.56915e-19)
(1.15744 0.0541255 2.98033e-21)
(0.654444 -0.58666 0)
(1.24508 0.0401218 0)
(1.87403 0.904646 0)
(1.12822 0.189483 -1.75195e-19)
(1.1325 0.0390506 2.49262e-19)
(0.905052 0.0267607 0)
(0.861759 -0.125145 0)
(1.07287 -0.00794139 4.67973e-22)
(0.169311 -0.554947 6.30943e-20)
(1.12035 -0.034491 2.28934e-20)
(1.89807 -0.724264 4.53761e-19)
(0.995099 -0.00583507 3.32707e-20)
(0.747954 -0.106595 2.31897e-20)
(1.12506 -0.0765627 2.38651e-20)
(0.971465 -0.0323946 3.47886e-19)
(1.56259 0.397731 0)
(0.542336 -0.450433 -2.25186e-22)
(1.07024 -0.846951 1.04355e-19)
(0.788491 0.0451621 3.87524e-20)
(0.6452 -0.444304 0)
(1.93311 -0.280524 1.52393e-20)
(1.16858 -0.0982144 9.84518e-20)
(0.960533 -0.046346 0)
(0.670885 -0.619856 3.0594e-19)
(1.01249 -0.0043196 1.25848e-20)
(0.97353 -0.12838 -4.07135e-20)
(0.372038 -0.544899 -6.8254e-20)
(1.36292 0.527642 7.99757e-20)
(1.10279 0.327793 2.6616e-21)
(0.89761 0.338916 1.75602e-19)
(0.998412 0.105727 1.8422e-20)
(0.612125 0.750335 9.20935e-21)
(1.10275 0.264485 0)
(0.011456 -0.587655 1.0386e-18)
(1.35659 -1.1314 0)
(1.07075 -0.652305 1.48147e-20)
(0.982292 0.148456 4.75029e-20)
(1.02615 0.0549794 3.64824e-22)
(0.631612 0.224811 7.38323e-20)
(1.00517 0.459091 1.30975e-19)
(0.96621 0.0254042 -3.02496e-20)
(0.900045 -0.00319308 0)
(0.956003 -0.0405166 0)
(0.93969 0.0280443 3.25468e-21)
(0.949542 -0.0270211 0)
(1.31152 -0.2019 -1.01285e-19)
(0.768805 -0.0465706 -7.59406e-20)
(1.81816 0.139632 4.67621e-20)
(1.02936 0.00467194 0)
(0.568504 -0.361987 8.27429e-20)
(0.99111 -0.0173839 1.70666e-19)
(0.994027 0.0151891 2.23147e-20)
(0.738871 -0.275429 0)
(1.06918 -0.430116 3.46966e-19)
(1.02648 0.00258829 6.938e-23)
(1.09888 -0.464277 -1.51491e-19)
(1.48509 -0.23618 1.4613e-20)
(1.33676 0.755764 0)
(1.04777 0.0156921 0)
(0.38782 0.323859 2.96244e-20)
(-0.651665 0.140361 2.95465e-19)
(0.947624 0.334946 -1.59557e-19)
(0.89526 0.397329 -6.33768e-21)
(0.653464 0.384472 1.95119e-19)
(1.01327 -0.0166336 0)
(0.59804 -0.549066 0)
(0.988052 0.00939629 1.23021e-21)
(1.26808 -0.449066 -6.56503e-20)
(1.44696 0.937271 8.74408e-21)
(0.744466 -0.142855 9.49218e-20)
(-0.114142 -0.54315 -2.78238e-19)
(0.981725 -0.169126 -2.45877e-20)
(0.703682 0.641975 0)
(1.30253 0.594212 0)
(1.4099 0.178936 0)
(0.631343 0.335018 2.52995e-20)
(1.99049 0.649756 5.83083e-19)
(1.21441 0.102022 -2.91167e-21)
(1.03834 0.0492187 0)
(1.01614 0.0449675 0)
(1.25244 -0.139869 2.74865e-20)
(0.990954 0.0296558 -2.63484e-20)
(1.0118 0.00797261 -1.69582e-19)
(1.41973 0.370575 0)
(0.724115 -0.336914 0)
(1.23824 0.260977 2.1139e-19)
(1.00405 0.493339 -9.5308e-20)
(1.00471 0.0192014 0)
(1.02498 0.0926858 0)
(2.52139 0.375112 -7.304e-19)
(0.443051 -0.678083 1.1698e-20)
(1.01671 -0.0180319 0)
(0.714234 0.46207 -2.63223e-20)
(1.05965 -0.901542 0)
(1.0108 0.0157875 3.97476e-20)
(1.0003 -0.040919 2.68998e-20)
(0.885475 -0.293667 2.33989e-19)
(0.967345 -0.00910267 -2.01536e-20)
(1.32007 0.035207 3.14865e-21)
(1.0038 0.0165616 -1.36231e-20)
(0.93725 -0.0111363 0)
(1.10107 -0.0353001 0)
(0.793374 0.18504 0)
(0.726624 0.683981 -1.36611e-19)
(-0.155986 -0.446522 1.62712e-19)
(1.14123 0.279809 -3.42849e-19)
(0.519194 -0.276835 0)
(0.830449 0.616646 1.2853e-19)
(1.00255 -0.361552 0)
(1.05335 0.0464989 1.03201e-19)
(1.00354 0.0536317 -3.77796e-21)
(1.01707 0.346144 1.91142e-19)
(1.03055 -0.190477 0)
(1.311 -0.0940488 5.1696e-21)
(0.747754 -0.0802783 -2.91062e-19)
(0.832056 0.0602419 6.36199e-20)
(0.986561 0.0423573 0)
(0.864868 0.226991 1.37757e-19)
(1.17284 0.221392 0)
(0.770475 0.50912 2.82881e-19)
(0.857394 -0.0366464 -2.47649e-20)
(0.16483 -0.461121 0)
(0.621434 0.579843 -5.44645e-20)
(1.0504 -0.664587 -1.04883e-19)
(0.487116 -0.261974 -1.00271e-19)
(0.93337 0.0209337 0)
(0.800971 -0.228848 2.4892e-20)
(0.663949 -0.580072 6.33747e-20)
(0.903168 0.292773 0)
(1.01876 0.0211011 -1.36121e-20)
(1.0494 0.857371 1.59608e-20)
(1.04604 0.0542259 -2.37198e-20)
(1.14013 0.691901 -1.21283e-19)
(0.247092 -0.0623093 -4.58905e-19)
(0.0756484 0.410974 3.68412e-21)
(0.793104 0.32862 1.93295e-19)
(0.51859 -0.471513 -1.06057e-22)
(1.43216 -0.581578 -1.31302e-21)
(0.982063 0.0335654 -2.88093e-19)
(0.669488 0.262782 0)
(1.0208 0.037688 -3.39097e-19)
(1.04699 0.110178 -1.53212e-20)
(0.898583 0.66534 2.09145e-19)
(0.961253 -0.0765363 1.35777e-19)
(0.939079 -0.0678305 1.33242e-19)
(1.01852 -0.0828688 -9.08793e-23)
(0.179997 0.165183 -1.54006e-21)
(2.17839 -0.808425 2.76914e-20)
(1.32031 0.00852417 -5.51454e-20)
(1.12756 0.00999357 6.30392e-20)
(0.892318 -0.265311 7.0509e-20)
(0.893349 -0.0214563 0)
(0.974126 0.71674 0)
(1.00989 0.0512392 4.50129e-21)
(1.37124 -0.0805044 7.44935e-22)
(0.774384 0.0190828 -3.00526e-20)
(1.01412 -0.54667 -3.70013e-19)
(0.639102 -0.540674 3.07676e-19)
(1.11072 -0.39411 1.18436e-22)
(0.980113 0.526125 1.53736e-21)
(0.957912 0.0229573 0)
(0.703308 0.12039 -5.42052e-21)
(0.925098 -0.0241542 2.87992e-20)
(1.063 0.734641 0)
(0.925486 0.0039348 0)
(0.947254 -0.124036 0)
(0.274128 0.353738 -6.57566e-21)
(2.2966 -0.812242 0)
(1.02394 0.033349 -2.95375e-20)
(1.14401 0.150871 4.9543e-21)
(0.966623 -0.0399819 -1.79974e-20)
(1.02976 0.000692665 -6.18945e-21)
(1.79775 -0.0543216 -9.75888e-20)
(1.58252 0.218853 -3.44246e-21)
(-0.424075 0.891398 -6.79658e-19)
(0.720067 0.430045 -3.24655e-22)
(1.04169 -0.0134193 0)
(0.908635 0.00228464 0)
(0.945595 0.0345414 6.05273e-22)
(0.626576 0.307045 0)
(1.19582 0.0415626 -2.33423e-21)
(0.921777 0.00759356 0)
(1.07224 -0.0816478 1.07291e-19)
(1.0014 0.00429111 -3.86828e-20)
(1.01627 -0.129756 -1.36842e-20)
(1.00727 0.0264017 -7.75034e-22)
(0.905473 -0.169133 -4.25608e-20)
(0.9677 -0.0796127 3.08223e-19)
(0.698876 -0.619967 1.41666e-19)
(0.929784 0.00134664 2.35565e-20)
(1.00259 -0.0475219 -6.79539e-21)
(-0.558849 -0.0987836 0)
(1.16707 0.762095 0)
(0.991873 0.0446034 0)
(1.02651 -0.757764 -6.79804e-20)
(1.22507 -1.00767 -2.88163e-20)
(1.05321 0.042684 8.06666e-21)
(0.984951 0.110363 6.82957e-20)
(1.03789 -0.00764459 4.89874e-21)
(0.603651 -0.394382 -5.08194e-19)
(1.01727 0.0100666 1.37073e-20)
(0.975227 -0.00464267 -1.78512e-20)
(1.55334 0.257139 3.84178e-20)
(0.999901 0.0268003 1.24139e-20)
(0.34057 0.345631 1.91809e-21)
(1.13026 0.550567 1.382e-19)
(1.38252 1.46505 0)
(0.873951 0.325773 -2.67683e-20)
(-0.330832 0.279816 -2.04009e-20)
(1.0157 -0.0109725 2.84447e-19)
(1.01396 -0.0433661 -7.13673e-21)
(1.00061 0.00409423 -7.82719e-20)
(1.00591 -0.0253094 1.17248e-20)
(1.43671 0.135318 3.06801e-20)
(0.417807 -0.38912 -2.50692e-19)
(0.962692 -0.0582615 -1.28805e-20)
(0.984866 0.0340514 -2.02852e-19)
(1.05933 0.0176243 6.99371e-21)
(0.974191 0.0239257 0)
(1.12553 0.545184 -2.56382e-19)
(0.871257 -0.0231547 8.90511e-20)
(0.687487 0.600071 2.0272e-19)
(0.99545 -0.00359047 -8.4259e-22)
(0.996926 0.0476532 -2.51049e-20)
(1.01996 -0.00460558 7.15918e-22)
(1.1988 -0.115035 -1.55417e-21)
(0.91959 -0.0277165 0)
(1.05136 0.00849703 0)
(0.906559 0.0278808 5.14561e-19)
(1.0291 -0.0282629 0)
(-0.343052 0.174783 0)
(1.5744 -0.894207 0)
(1.0322 0.0339622 -4.97223e-19)
(1.20018 -0.617826 4.74645e-20)
(1.00802 0.00517101 9.9064e-21)
(1.48934 0.927539 1.12134e-20)
(1.7286 1.01793 -3.08755e-19)
(0.98579 -0.033002 -9.09407e-21)
(0.998815 0.0699652 -1.55509e-20)
(0.964417 -0.0489766 0)
(0.733592 -0.714483 0)
(1.0628 0.130347 -3.19141e-20)
(1.00669 0.0706821 0)
(0.98395 -0.0319226 -1.54684e-19)
(0.955939 -0.00709292 3.0033e-19)
(1.15724 0.0734468 -5.15051e-20)
(0.163053 -0.23728 6.634e-19)
(1.00852 -0.00492266 1.5326e-19)
(1.03142 0.00118095 -7.87018e-21)
(1.03521 0.00358281 9.23827e-21)
(1.02714 -0.0281489 -2.9371e-23)
(1.06523 0.0362342 -1.58896e-19)
(1.0507 -0.0676342 1.86274e-19)
(1.02704 -0.00196542 1.1311e-20)
(0.861933 0.0709423 0)
(0.912706 -0.033081 0)
(0.93661 0.0253699 1.58375e-21)
(0.913373 0.0288197 0)
(0.943431 -0.0153446 0)
(0.953904 -0.00956125 0)
(0.860152 0.0444096 -8.68837e-21)
(1.04773 -0.0557206 7.26503e-21)
(1.00812 0.0157063 0)
(1.00667 -0.003091 -2.01867e-21)
(0.987686 0.000340073 0)
(0.865598 -0.0564561 0)
(0.923534 0.0161161 0)
(0.892956 0.00218918 -1.42911e-21)
(0.907807 -0.0165172 -2.42342e-20)
(0.85889 -0.051098 0)
(0.929897 -0.00142914 0)
(1.02106 0.0214384 -1.95279e-19)
(0.901484 -0.0292715 3.72761e-19)
(1.00995 0.0157975 0)
(0.975919 0.00841022 3.58819e-19)
(0.977161 0.00215808 -1.91814e-21)
(0.897141 -0.0423591 3.10422e-19)
(0.985041 0.0092806 -1.76993e-19)
(1.04874 0.0161048 0)
(0.855424 0.0376457 -9.24577e-21)
(1.03229 0.00786001 -1.79385e-19)
(0.912914 -0.0231076 -3.11224e-19)
(1.0142 0.00179177 0)
(0.916163 0.035928 0)
(0.913231 0.0029645 0)
(1.02386 -0.0331679 -5.43584e-21)
(1.02778 0.0172944 8.46585e-21)
(0.938674 -0.000275749 0)
(0.291785 -0.244831 -4.10041e-20)
(0.975576 0.0216941 3.51132e-20)
(1.02239 0.0155978 -2.30092e-19)
(0.542082 0.464726 1.38614e-20)
(1.09419 0.0215416 -1.82099e-19)
(1.22097 -0.214843 -6.29731e-20)
(0.799714 -0.461467 2.34965e-19)
(-0.0385229 0.116132 -5.60784e-20)
(1.02107 0.0329567 0)
(1.05124 0.0174121 -4.86041e-20)
(1.00084 -0.0537215 0)
(-0.529472 -0.321086 5.2748e-19)
(1.05694 -0.0327734 0)
(0.541196 0.344962 5.39879e-20)
(1.02877 0.018835 8.75033e-21)
(1.81361 0.425866 1.60483e-19)
(-0.247055 0.380401 0)
(0.977821 -0.0641614 1.55337e-19)
(1.05106 -0.00653997 8.02803e-22)
(0.922134 -0.0490512 2.28349e-19)
(1.02545 0.0147428 -1.56068e-19)
(1.89502 0.687157 1.59348e-19)
(0.538609 0.496323 0)
(0.444285 0.40145 1.65082e-19)
(1.04806 -0.0914696 1.60292e-21)
(1.15494 0.107959 1.45508e-19)
(1.12389 -0.690078 0)
(0.998805 -0.000855217 0)
(1.00808 -0.0690926 -3.54993e-19)
(1.00309 0.0043507 -3.52082e-19)
(0.148526 0.58192 0)
(1.29071 0.786163 -5.88638e-20)
(1.00053 0.0364815 8.97067e-22)
(0.965895 0.0194858 1.3598e-19)
(0.994773 0.0137267 -1.71208e-19)
(0.503333 0.270936 6.25714e-21)
(0.9012 -0.0192237 -1.72671e-20)
(0.930215 -0.0894474 5.69802e-19)
(0.993298 -0.00885067 0)
(2.09532 0.343772 -1.51238e-19)
(0.992085 -0.0301814 -1.80605e-19)
(1.13037 -0.0181417 8.12808e-21)
(1.00802 -0.00373519 -4.01877e-22)
(1.03207 0.0674436 3.63381e-20)
(1.25933 0.288224 -1.69076e-20)
(1.0073 0.0155592 1.7439e-19)
(1.01309 0.00907645 -8.90778e-23)
(0.958981 0.0433547 0)
(0.896415 0.129287 3.91932e-20)
(0.9665 0.0991653 -4.9638e-22)
(1.0208 0.0065935 1.71511e-19)
(1.05554 0.0517116 -7.955e-21)
(1.03841 -0.0259321 -3.26871e-21)
(1.18994 0.256776 2.97191e-19)
(1.01213 -0.00968024 1.19178e-19)
(1.00019 0.0199584 1.23014e-21)
(1.58642 0.094062 -1.03947e-20)
(2.42155 0.969511 -2.62877e-19)
(0.84698 -0.748014 3.91361e-20)
(0.460876 -0.338655 -2.48467e-19)
(0.960601 -0.0377281 0)
(1.00173 0.0140299 4.35393e-20)
(1.03436 -0.0422624 8.95558e-20)
(1.06913 0.0114581 1.96141e-21)
(1.01307 0.0151296 -1.83447e-19)
(1.04689 -0.0514543 2.00491e-19)
(0.945475 -0.00463887 -1.69104e-19)
(1.00402 -0.00992042 -1.71198e-21)
(1.02302 0.0433163 1.84127e-21)
(0.998087 -0.00122242 1.74382e-19)
(0.870114 0.0891402 4.10381e-19)
(1.0502 -0.0122718 0)
(0.967641 0.0850262 -2.05297e-20)
(0.990116 -0.0101238 0)
(1.00602 0.0140108 -4.99356e-20)
(1.545 0.302189 -3.61397e-20)
(0.999206 0.0425371 0)
(1.00456 -0.0337725 1.77212e-20)
(0.994301 0.0281264 5.27256e-21)
(1.12279 -0.00164789 0)
(1.06597 0.146848 0)
(0.996976 0.0126762 2.58312e-20)
(1.01756 -0.012212 -3.43609e-21)
(1.02353 -0.0227085 -1.80879e-19)
(1.10871 -0.577256 -4.19741e-20)
(0.912085 -0.0283244 -2.78779e-21)
(1.00906 0.0276137 0)
(1.04782 0.0596314 0)
(0.930688 0.0321181 0)
(0.99344 -0.609109 5.92425e-21)
(1.01064 0.00773431 1.46519e-20)
(0.986527 -0.00172887 0)
(0.83044 -0.352047 3.2799e-20)
(1.92685 0.95923 -2.33844e-19)
(1.00071 0.00174322 -3.57817e-19)
(1.02502 0.00520584 7.33386e-21)
(0.866379 0.0540822 2.32989e-19)
(0.922537 -0.00918422 0)
(0.0105881 0.749966 -2.35076e-20)
(0.61169 0.411356 -2.74408e-19)
(1.00723 0.038577 -1.85314e-20)
(0.831654 -0.469007 0)
(1.13939 -0.0885567 4.98973e-20)
(0.540847 0.510133 4.07622e-20)
(1.26193 0.871384 -1.2065e-20)
(-0.723513 -0.604194 3.12935e-19)
(0.982241 0.0760608 0)
(0.996379 -0.00224917 9.7522e-21)
(1.00168 -0.000588257 1.33475e-19)
(1.1531 -0.121825 0)
(1.01113 0.00487735 2.25219e-19)
(0.889407 0.393989 1.01142e-20)
(0.997218 0.0446313 -1.37756e-19)
(0.9774 0.0119654 0)
(0.993679 -0.0250101 -7.50508e-23)
(0.98057 0.00802437 -9.56708e-20)
(0.974366 -0.020987 2.37558e-19)
(1.13613 0.0982998 -2.76032e-21)
(0.996945 -0.0100112 -1.31078e-20)
(-0.284967 -0.577853 1.11723e-18)
(1.39298 -0.475205 2.4751e-20)
(0.995343 0.00703292 1.45267e-20)
(0.958346 -0.000170407 -3.33942e-19)
(0.999913 -0.0418552 0)
(1.02131 0.00563247 9.15275e-21)
(1.01603 -0.0044079 -2.6139e-20)
(0.944013 0.010392 0)
(1.01362 -0.0296396 -1.69313e-19)
(1.00404 -0.0210951 -1.57929e-20)
(0.901883 0.0346683 -2.86641e-20)
(2.10682 -0.0362583 0)
(0.907547 -0.0416077 6.32382e-20)
(1.44575 -0.172619 0)
(1.02654 0.000484897 4.97183e-20)
(1.01357 0.00457274 -5.2599e-23)
(1.01273 -0.0143825 1.46709e-19)
(0.870459 -0.0429093 -5.03835e-20)
(1.01883 -0.000707922 0)
(0.959208 -0.0530614 -3.67415e-19)
(1.01673 -0.00179605 1.8478e-19)
(0.998925 -0.000773272 0)
(1.00091 -0.00249354 1.33712e-21)
(0.891 0.0103043 -1.62049e-19)
(0.553051 0.550233 -4.80843e-21)
(1.01561 -0.0105019 -1.81693e-19)
(0.975631 0.0138167 -4.08089e-19)
(1.66662 -0.356069 1.18876e-20)
(0.16812 0.190449 5.41163e-21)