/*--------------------------------*- C++ -*----------------------------------*\
| =========                 |                                                 |
| \\      /  F ield         | OpenFOAM: The Open Source CFD Toolbox           |
|  \\    /   O peration     | Version:  2306                                  |
|   \\  /    A nd           | Website:  www.openfoam.com                      |
|    \\/     M anipulation  |                                                 |
\*---------------------------------------------------------------------------*/
FoamFile
{
    version     2.0;
    format      ascii;
    arch        "LSB;label=32;scalar=64";
    class       volScalarField;
    location    "44";
    object      p;
}
// * * * * * * * * * * * * * * * * * * * * * * * * * * * * * * * * * * * * * //

dimensions      [0 2 -2 0 0 0 0];

internalField   nonuniform List<scalar> 
2186
(
0.737037
-0.781862
-0.376581
1.02306
-0.56467
-0.0488313
0.524404
-1.63212
-1.46092
1.34238
1.3264
-1.62295
-1.611
1.11261
-1.04166
1.15406
1.15497
-0.567581
-0.139852
-0.277209
1.551
-0.297919
1.12691
-1.7659
1.1189
0.993013
1.34122
0.80411
0.945237
1.11491
-0.259856
1.11911
-0.255887
-0.0750022
-1.63986
0.541342
-0.0117848
1.5552
0.0526049
0.124595
-1.61523
-0.262551
-1.23125
-0.420287
1.16603
1.32932
0.100441
0.328438
-0.795316
-0.448108
-0.257061
1.20086
-1.18081
1.52317
-0.313942
0.868162
-1.31754
0.900581
0.0442247
0.790722
-0.105692
0.968633
0.910319
0.191164
0.921283
0.261859
1.00719
1.43332
1.3334
-1.38117
-1.64568
-0.236847
1.36879
0.945776
1.36258
1.12667
-0.455249
1.15188
-1.66384
-0.154078
-0.189103
0.218707
1.11224
0.960897
1.09695
1.11188
1.47483
-0.199281
0.0217895
-1.67921
0.875044
-0.365374
0.957656
1.2163
1.1291
0.800356
-0.53744
0.930123
-0.512495
0.920585
-0.646153
-0.482494
0.969172
0.986379
1.15617
-0.297899
1.46393
-0.775113
0.871293
-1.019
-0.174003
-0.465372
0.352581
1.54095
-1.52126
-1.4105
-0.559239
-1.10314
-1.68048
1.35729
0.42287
-0.370068
1.16692
-0.671157
1.15674
-0.434777
-0.50523
1.12258
-0.630284
0.498654
1.42304
1.23168
-0.0386589
0.488807
-0.271591
-0.393208
0.831766
-1.10377
0.0673982
-1.66535
1.12066
-0.579723
-1.62809
0.555462
0.930958
0.981243
-0.842422
-0.57551
0.462516
-0.323533
-0.462222
0.406001
1.15456
1.16925
1.00029
0.343913
1.48991
0.820291
0.756527
0.206484
-1.66772
-2.01327
1.15785
0.938565
-0.139507
-0.27642
-1.62369
-1.63783
-0.183586
-0.423486
0.752188
0.930348
1.15654
1.07651
0.806049
0.282119
-0.613938
1.16114
-1.89738
1.1595
-1.59883
1.13642
-0.29093
0.903828
0.894455
-0.643375
-1.44483
1.40273
0.112415
-1.56048
-0.932264
1.40822
-0.425563
0.945723
-1.66753
-1.08417
0.51374
1.33837
1.35013
-0.280441
-1.76084
-1.40237
-0.231032
1.13675
-1.64542
-0.500363
-1.71857
-1.02376
1.14245
-0.371706
0.346462
-0.0133192
1.5231
1.14382
1.22392
0.882029
1.44028
1.12603
0.807703
1.35528
0.224806
-1.41235
-0.309412
0.533817
-0.0926431
-0.50187
-0.530747
1.32362
1.17832
-1.73643
-1.52998
-1.59168
0.139555
0.512393
0.751819
0.807083
1.0849
-0.928428
0.8093
-1.65706
-0.481598
-1.36476
1.29043
1.06183
1.41555
1.28617
1.38142
1.36761
-1.65922
0.714638
1.31321
-1.65122
1.28075
1.10159
-1.51839
-1.67645
-1.71108
1.41873
1.16764
-1.59522
-0.663083
-0.474141
0.8774
-0.589599
1.06597
1.32968
0.872304
-1.70964
-0.27453
1.07546
0.952819
-0.576068
0.15276
1.53891
-0.493384
-1.64855
0.854722
1.17066
1.09726
-0.533933
-0.169074
-1.09865
1.17251
-1.64394
0.361612
1.07572
1.00004
-0.555759
-0.539544
1.15548
-1.74551
0.880055
1.1811
1.16087
1.15726
-0.97219
-0.35985
-1.7676
-0.21129
-1.31441
-0.545423
0.144678
-1.01807
0.960913
1.15196
1.46343
1.18734
-0.98297
1.33088
-1.8514
0.107568
-1.82279
-1.6703
-1.52923
0.125876
-0.451936
-0.379631
0.582841
1.17276
0.75896
0.769009
-0.439272
-0.315346
-1.47377
-0.485486
1.35812
0.428817
-0.135767
-0.360682
0.668529
0.90484
0.214345
0.408796
-1.06072
-1.57941
1.00564
1.14097
1.35321
-1.29837
1.29111
0.796945
0.765524
1.24729
1.1545
1.00615
0.214189
0.189991
-1.66447
1.16571
-0.353371
-1.69711
-1.90159
-1.35248
-1.69238
1.58152
-0.750584
-0.263886
-1.67076
1.15247
-0.661009
-1.23005
-0.301967
0.632914
-0.226685
-2.0579
1.4384
1.49028
1.09649
-1.62697
-0.0021681
1.59927
1.15186
-0.887882
0.828925
-1.65707
-0.120357
1.38236
1.25772
0.885059
1.35763
-0.869143
0.218349
0.727097
0.114082
-1.93124
-0.290004
0.162712
1.54854
-0.405204
-1.26912
1.15122
0.40926
-1.68084
-0.876199
-1.6626
-0.47654
-1.95455
-1.66791
-0.230318
-0.518694
1.26806
-0.175168
-1.44047
1.13924
-2.00002
1.27081
-1.72373
-1.26581
-0.197769
1.11971
-1.54863
1.16537
0.74739
-1.18781
1.05764
-0.283335
-1.67405
-1.7667
0.95627
1.01254
-1.69739
-1.66013
-1.83467
1.26223
-2.12945
-0.738938
0.880324
1.18391
0.909011
0.65872
-1.6983
-0.106039
1.08683
-0.432498
0.796573
-0.468717
1.14657
0.420268
1.11798
-1.67766
0.752555
1.01393
1.17334
-1.81218
1.16219
0.28069
-1.67341
1.12325
-1.5187
0.58524
-1.31644
0.395653
1.15349
-0.0803013
0.055424
1.17064
0.65177
-0.327256
0.0320401
-0.261442
0.0732937
-1.61321
1.03076
0.00307327
1.35392
1.10627
-1.66881
-1.66952
-0.179235
-0.269366
0.814123
-1.44143
1.15592
-0.225759
-1.59225
1.31729
-0.360808
0.762748
0.0386075
0.013998
1.1242
0.738538
-0.297944
0.108266
-0.083903
-0.250562
1.15259
-0.20439
1.15935
1.23592
1.22632
0.993618
1.43434
-0.531482
-0.252499
0.943471
-0.049648
1.15106
-0.310223
-1.56106
-1.91079
0.748222
-1.66984
-0.920418
-0.282732
-0.313261
-0.328165
-0.664248
1.06174
1.00978
0.086066
-0.514951
0.623512
-0.243084
1.4106
-0.100238
0.300319
-1.67066
1.09324
-0.124253
1.15612
1.60913
-1.59855
-0.5184
-1.41848
0.733787
-0.701491
0.987406
-0.45526
0.931808
1.04541
-1.65604
1.13451
1.09532
-1.31561
0.908439
-0.181959
-0.336634
-0.473592
-1.60728
-0.192802
-0.826293
-0.00853701
1.1203
0.632902
-0.491861
0.420459
1.27
1.21557
-0.743077
0.702088
-0.212684
0.65589
0.611174
-0.558839
-0.388847
0.868251
1.11873
1.31937
-0.322391
-1.70701
-1.83552
-1.6798
-0.489753
0.605772
-0.95301
-0.39758
-1.667
1.23486
-0.667268
1.14227
0.019175
0.365425
1.02574
0.587515
-1.07593
0.312531
1.1433
1.31822
1.14917
-0.0622053
-0.454267
0.709629
0.0794515
0.697894
0.0880449
0.825818
1.14259
-1.53258
-0.26355
1.2841
-1.87008
1.48135
0.0188623
0.781661
-0.478684
0.493282
-1.62659
1.31997
-0.292991
-0.395003
1.26458
0.890961
0.870604
-1.76057
-0.264392
-0.4198
1.04596
-0.217175
-0.0904837
0.258318
1.15171
0.784156
-0.431116
1.06038
1.19667
1.15634
-0.304647
-0.209899
-0.395161
1.14101
1.43332
0.293828
1.13533
-0.131784
1.05544
-0.466988
-0.850897
0.505734
0.982072
1.05613
-2.12007
1.17312
-0.287967
1.10698
-0.598755
1.29583
0.930858
1.15461
-0.46912
1.20998
-0.202063
-0.00484358
1.25993
-1.57925
0.234159
1.34178
-1.10214
1.37762
-1.2332
-0.328039
1.3342
0.672118
1.40785
1.12477
-0.457818
1.04753
1.32573
-0.516807
0.991812
-0.117178
-1.65958
1.59646
-1.66696
1.38545
-0.471528
0.0777938
1.12467
-1.79447
1.1598
-0.156231
1.23305
1.01627
1.12857
-0.586001
-1.52081
-1.13756
0.485574
0.608445
1.08274
0.698679
1.15318
-0.606186
0.230129
-1.41281
0.751426
1.12738
0.0337596
-1.7259
0.150984
1.4083
-0.116903
1.07441
-0.0178252
-0.854797
-1.6501
-0.317186
0.380802
1.08093
-1.36443
0.42089
0.198623
-0.855308
-0.297239
-1.85327
0.680352
1.146
1.15156
-1.74373
-0.506614
1.14942
0.998849
1.14653
-0.643081
1.15183
1.09301
1.10205
1.0176
-1.52542
0.30076
-0.26182
0.977059
1.10909
0.574619
-0.138765
-0.174676
-0.876464
-0.173825
1.27646
0.563126
-0.864416
-1.00657
0.43366
-1.61591
1.10983
-1.72171
-2.06702
-1.6664
1.15485
1.12414
1.16218
-0.327886
0.7572
1.23647
0.116605
1.10963
0.0766076
-0.275622
1.09223
1.15625
1.37457
-0.0989277
1.15645
1.14802
-0.319322
0.359
1.16156
1.16905
1.15894
-1.67071
-1.71363
1.15644
0.457589
1.12722
0.628345
0.340741
-0.440844
-0.0440831
0.699092
-0.346802
-0.687672
-0.391873
1.16707
1.17247
1.05033
-1.68774
1.15567
0.435164
0.155396
-0.206544
1.11563
1.15609
1.1573
1.17891
1.16045
1.15756
1.15393
-0.305675
0.13784
0.274719
0.209935
-0.108339
-0.0871877
-0.0627638
0.394193
0.651191
0.388397
0.568719
1.10709
1.13652
1.12963
1.15859
1.15984
1.15585
1.16418
1.12213
1.15971
0.632623
0.213436
1.16032
1.15432
-0.0551083
1.15564
1.15892
0.0964388
-0.890922
0.121413
-0.641735
-0.782586
1.14452
-1.67078
1.13075
0.563877
1.05547
-1.66672
1.1267
1.13838
1.03701
-0.263408
-0.197627
-1.61245
0.30714
0.419182
-0.266931
1.1644
-0.533289
1.22759
1.15144
0.297689
1.44787
1.5643
0.0884385
1.13523
0.526732
1.14613
1.16282
1.14005
-1.66726
0.865001
-0.160413
1.14751
1.14632
-1.48402
-0.761667
1.15174
-0.0314395
0.167965
1.14664
-0.226288
1.15269
1.16303
-0.928908
1.14203
-1.0574
1.13542
1.28372
-1.31725
1.14297
1.15281
-0.349094
1.01941
1.12999
1.15186
0.627385
-0.197181
0.58671
1.38807
1.15929
1.13442
1.14934
-1.05419
1.13873
1.10467
1.15483
1.14354
1.14923
1.13377
1.287
0.475608
-1.2132
1.13897
1.1447
0.707108
-0.106678
-0.232638
0.327633
1.10685
-0.932157
-0.159633
-0.442284
1.13957
0.618772
-0.559022
-0.551563
0.182899
0.724416
-0.139489
-1.05085
-0.878179
-0.291891
0.158829
1.14319
-0.892197
1.13152
1.12987
-1.66881
1.49593
0.565888
-0.204544
0.727772
1.41634
0.844138
-1.67503
1.15686
-0.879097
1.14448
-0.116319
1.14226
-1.99865
1.13924
-0.943601
-0.147752
1.14767
1.15665
1.18624
-0.719275
-1.67992
0.0388286
-0.600914
1.14953
1.12297
-0.826467
1.14736
1.18194
1.15209
-0.411048
-1.32134
-1.14883
-1.41919
0.164166
1.15547
-0.124424
1.1355
-0.992973
1.14664
1.18517
1.14644
0.0877025
-0.0565176
1.16851
-1.69704
1.14765
1.15377
-0.284059
-1.62106
1.26001
1.3892
1.13574
1.15159
-0.510933
-0.498579
1.07676
0.202025
1.14887
0.753565
-0.697282
-1.63908
1.09349
1.32216
1.15286
0.119434
0.160362
-0.687204
-1.63947
-0.31727
1.09633
-0.349274
1.15163
-0.908134
-1.66767
-0.532075
0.84857
-1.74832
0.0761929
-0.77504
1.13911
-1.66957
1.23647
-1.66111
-0.555321
-0.483739
-0.584272
-0.767637
1.14661
-0.402222
-1.52902
-0.6049
-0.0185873
1.10417
-1.07212
-0.458373
-1.04484
1.34025
0.371345
-1.66196
1.21357
1.10272
1.08338
0.349379
-1.49605
1.16126
1.20191
0.406581
-0.441506
1.1366
0.689399
1.49142
1.16732
-0.669833
-1.34597
-0.443106
-1.64509
-0.711836
-1.67084
0.11831
-1.83821
0.69645
-0.361356
1.13258
1.41924
1.15092
-1.67559
-1.7691
1.14224
-1.55624
-0.648499
1.0875
-0.416809
-0.734798
-1.13662
-0.328367
1.15791
1.13885
0.526121
0.846132
1.03936
-1.66863
1.09267
-2.21001
1.08849
-0.245321
0.989064
-1.6704
0.238497
1.14111
1.38787
-1.07217
-1.44335
1.09328
1.51762
1.16465
1.32375
-1.51529
1.2502
-1.67076
-0.32658
-1.43182
0.276785
-1.26573
1.26232
1.16595
-1.65565
0.347958
1.14984
-0.0532988
0.793729
1.17571
1.17749
-0.888233
1.14601
0.0342564
1.16047
-0.083103
-0.511119
0.342654
1.14662
0.119448
0.0589831
-0.0519264
1.05794
-0.532728
1.45103
0.0125357
1.55762
1.30216
0.00679014
1.08269
-0.368253
1.16632
1.14742
-0.285458
-0.464593
1.40306
1.15381
1.48722
1.14546
-0.188557
1.16371
1.08923
1.14351
1.15666
-1.73803
-0.547258
-1.67109
1.17154
0.0523862
-0.920609
-0.316411
0.157416
-0.14091
-0.487313
1.20513
-0.234931
1.04081
1.07933
-0.454438
-1.42665
-0.0631455
-0.892346
0.0301667
-0.364475
1.16755
-1.54542
1.16373
1.26663
1.19231
0.368924
1.17175
1.1373
-0.218589
1.03221
1.15666
-0.743603
1.15152
1.26509
0.0667636
-0.181161
1.5626
-1.4787
-1.11776
-1.66114
-0.0246307
1.08613
-0.846511
0.615301
-0.264597
1.31804
-1.20985
1.19485
1.18712
1.07709
-0.4892
1.0313
-1.45378
1.16488
1.17732
0.154365
1.16333
0.906126
1.08378
0.615494
-1.00582
-0.1939
-0.215489
-0.0183538
1.46564
0.308315
1.21157
1.58948
0.583182
0.156191
1.19783
0.240827
1.19437
-0.110713
0.0542746
1.21097
1.21528
0.218338
-2.17512
1.1218
-0.158269
-0.427618
-0.134469
1.17688
1.08005
1.47885
-1.67535
-1.29169
0.620289
-1.57737
1.27006
1.26951
1.06147
1.15237
1.0505
-1.48284
-1.66764
-1.89469
1.12683
1.14653
-1.37568
-0.396774
-1.66746
1.14928
1.12845
0.114058
-1.20885
1.18813
-1.49897
0.676898
1.1338
1.2553
0.624848
-1.6852
0.371866
-1.50276
-0.283012
-1.01159
-1.63071
1.40554
1.6037
-0.689059
-1.46626
1.15288
1.12642
-0.623862
-0.355523
-0.805902
1.03342
1.2653
-1.55987
1.15889
-1.08186
-1.69919
-0.00255827
-0.953301
-0.345065
1.06772
-1.50735
-1.37623
1.57473
-1.53792
1.15811
1.4679
-0.41367
1.00585
1.26001
-0.565107
1.51286
-1.5687
-1.75058
1.28696
-0.348144
0.968238
1.15463
-1.59197
1.14428
-0.114494
-1.39256
1.20399
0.990602
-1.56018
-1.9387
1.17392
1.15183
-1.63729
-1.19829
1.54428
-1.61023
1.14557
-0.9308
1.00131
-1.64789
-1.05142
-1.66215
-0.596314
1.39475
1.11614
1.30589
1.48391
1.30245
1.22076
1.37078
-1.66593
1.42652
1.12991
-0.487829
-1.62814
-0.758896
1.57541
-1.44661
-1.73887
-0.304344
1.27039
-0.512718
-0.765483
1.33716
0.97687
-1.6561
-0.413566
-1.70232
-0.728568
-1.1565
-0.536075
-1.66827
1.23263
0.816524
-0.33424
0.0982779
-1.49745
1.19395
-1.61248
-0.636458
-1.67021
0.881932
-2.26203
-0.439131
1.35428
0.95029
0.253921
1.19745
-0.354064
0.926915
1.17786
1.21424
1.21093
0.441645
1.06458
1.32036
0.0123355
-1.67113
1.57882
1.01651
0.907777
1.13534
-0.464246
-1.90085
0.852351
1.12949
1.06058
-1.74855
-1.3274
1.10968
-1.67058
0.806276
-0.133111
1.63751
-1.67215
1.1084
0.622269
-0.274841
-1.67322
-0.0193874
1.05042
-0.290788
-1.66832
0.574832
1.01329
-1.42188
1.24
0.791078
-0.310274
-0.905287
1.18962
-1.60253
-1.67417
-1.71523
-0.266424
-0.743421
1.21226
1.10529
-1.27584
0.47246
1.13958
1.53268
0.0536005
0.741231
0.524422
0.819598
-0.906688
-0.266088
-1.19911
0.00772472
-0.259221
1.17666
-0.323314
0.648426
-1.67493
0.957521
0.407507
-0.259731
0.502009
-0.537949
0.314488
-0.260496
0.895521
-0.268742
0.181053
-1.67843
0.825759
-0.262038
0.725451
-2.22742
-0.266703
-0.275732
-1.66805
1.16176
-0.210678
-0.300592
-1.68484
0.535378
0.608666
-0.304283
-1.67163
-0.337408
-0.477801
-1.70135
0.395989
-1.74551
0.218282
-0.406291
-0.70946
1.14987
0.197874
-1.99652
1.19068
0.495618
-0.026616
0.284827
1.07207
-0.387447
-1.25305
-1.68118
-1.50178
0.902149
1.61467
0.27803
0.231506
-0.26833
-1.50817
0.269284
-0.757798
1.19931
-0.741512
1.037
-0.320524
1.67781
0.339598
1.465
-0.386843
1.1896
0.0211598
0.993455
-0.783284
-1.68094
1.04692
1.10011
-0.824423
-1.67048
-0.272649
1.24276
-0.0314138
1.15552
-0.0860282
-1.6999
-1.65877
1.47329
1.2634
1.09422
1.23786
1.15047
0.0323772
-0.713505
1.48138
-1.53397
-1.447
1.63253
-0.417991
1.14415
0.964608
1.50127
1.50883
-0.389209
-2.17159
1.15294
0.00268757
-0.929739
-0.245878
0.578894
-1.06944
-0.425249
0.47172
-1.20589
1.20168
-0.200954
1.34621
1.36847
1.28236
-0.126883
-1.67305
-1.41545
1.21648
-1.28487
1.45836
-0.164061
-1.03159
1.50461
1.33268
-1.69241
0.568811
1.03436
-1.50777
-0.7533
0.571305
1.53372
1.28787
-0.482204
1.13088
1.18597
-1.66788
1.29209
0.734281
-0.359922
-0.65694
-0.234821
0.11783
1.39504
-1.19507
0.715541
-0.927321
0.0801976
-1.20033
-1.68227
1.18769
-0.669064
1.2618
0.432474
-0.199894
0.621463
0.0809734
-1.66875
-0.055203
-1.95916
0.41176
-0.94256
-0.171461
1.2616
-2.15653
-1.34825
1.27183
-1.62988
-0.491947
1.15419
-1.75268
1.28879
-0.337442
-1.6774
-0.687198
0.733393
-1.42678
-1.84575
0.86202
-1.68071
1.17311
-1.1183
-1.22076
-1.48709
-1.67614
1.54503
-1.20454
1.15555
-1.09039
1.06131
1.37194
0.640786
1.08423
1.44464
0.43435
-1.01231
1.0566
1.0971
1.42744
-1.52235
1.24447
1.05054
-1.55567
0.697689
1.20942
-0.0281918
1.59066
0.61896
-0.720833
0.750037
-1.58097
-0.271489
1.01345
0.0657175
1.16872
1.01961
1.20606
-0.659263
1.20968
1.52833
-0.589429
0.244958
-1.19183
-0.576087
-1.30337
-1.67114
1.3815
0.638543
-0.579229
0.837286
-1.60275
-1.18585
1.28399
1.49925
-0.497853
-1.73232
-1.67751
-1.67617
1.02519
-0.550293
-0.179651
-0.275874
0.183318
1.18654
-1.63451
1.62222
1.23177
0.859279
1.23233
1.56046
-1.16745
-1.62228
1.05892
1.15923
-1.05577
1.11238
-1.30015
-1.6643
-1.64199
1.38703
1.41033
-1.65981
-0.550219
0.412933
-0.351149
0.00896386
1.17554
1.28862
-1.39176
1.32062
1.35466
-2.00063
-0.500959
-0.614413
-1.66774
-1.64931
1.34517
-0.646312
1.25078
-0.522486
1.32989
1.13158
1.21167
1.23557
-1.2963
0.294568
-1.66995
0.931018
-0.42617
0.847605
0.0495877
0.0932477
1.17351
0.954717
1.18934
1.20285
0.28055
1.17384
-0.101893
0.242687
1.10753
-0.0113823
-0.476581
-0.349184
-0.143222
1.15228
0.907339
1.15014
-2.00146
-1.42737
-1.67101
-0.231331
1.16364
1.53749
1.17517
-0.451921
-0.993613
-1.22147
-0.00700797
-1.67462
-1.67855
0.297225
1.18743
-0.816135
-0.320919
-0.734953
-0.435714
1.09038
-0.716351
-1.67287
-1.86235
1.22504
1.55675
-0.885602
1.20737
1.63966
1.04053
1.43321
-0.506798
-0.593988
1.43493
-1.67311
0.107951
-0.399871
-1.65022
-0.272457
-0.280981
1.00836
0.608377
1.47163
1.44117
-0.0769616
0.671082
0.532625
-0.588992
-1.67345
1.2314
1.09134
1.16751
1.18463
0.259228
0.270502
1.16452
-0.291374
-1.68211
-0.298521
-0.277157
0.474413
-0.267401
1.06187
0.531181
-1.67141
1.23551
-0.467978
0.184379
1.09834
-1.10982
-1.35901
-1.68835
0.987329
-0.34585
-0.099963
1.2465
1.17574
-0.12944
-0.192138
-1.80115
-1.6744
-0.758431
-0.217168
-0.499369
0.441511
-1.28037
-0.261105
1.52245
0.699445
0.786132
-0.257989
-1.64795
1.13975
1.00428
0.928357
0.358939
-0.258344
-1.4901
-1.31234
0.863643
0.243843
-0.260054
1.10769
0.59884
-0.262602
1.65119
-0.268866
-1.53731
-1.65101
-0.224548
0.74921
-0.284673
-0.575847
-1.68852
-0.32067
-0.315836
0.474264
-0.711082
0.0517336
1.43682
-0.365533
-0.56519
-1.7241
0.319091
1.58234
1.44664
1.49856
1.15176
1.48115
-0.157955
1.14901
-0.476937
1.00365
-1.68226
-1.63113
1.27497
-0.990101
0.347313
-0.2549
1.48341
0.469604
1.4087
0.985334
1.09243
-0.372634
-0.427952
-1.68159
-0.0437174
1.44039
1.44213
1.15767
0.539662
1.13192
0.780532
1.16194
-0.267173
-1.68154
0.716675
-0.753033
1.14192
1.1624
-0.362467
-0.409641
-0.265495
-2.07611
-1.68116
-0.808533
1.37327
1.17879
1.15616
-0.0536087
0.269902
1.1612
0.556483
-1.67398
-1.14541
-1.54167
1.13275
-0.32638
-0.260354
-0.716203
1.20945
-2.26118
-1.65337
1.1359
0.453422
0.677994
1.14987
-1.67656
1.20021
1.2415
0.742185
-1.67681
1.11191
0.128854
0.862294
-1.11449
-0.286219
1.61673
0.0686051
0.00778289
-0.198707
1.22589
1.22729
-1.46841
-1.8034
-0.183537
0.0183116
-1.58115
-0.580073
-0.682457
1.14983
-0.525873
1.20134
1.34106
1.0623
1.23441
1.36357
1.40889
1.15004
-1.49518
-1.22335
0.104582
-1.77893
-1.42874
-0.263243
1.38614
1.33938
-1.5992
0.997022
-0.896633
-0.492251
-0.267149
0.643377
0.414221
-1.91497
1.15278
1.23228
-0.102856
-0.875899
1.48491
-2.2167
-1.08735
-1.79779
-0.595426
-0.24398
1.14779
1.11622
1.10613
-1.57334
0.455509
-1.61618
0.153726
-1.58974
-0.54089
-0.730683
-2.08464
1.23128
-1.30586
1.50538
-0.486396
-1.01668
-1.71221
-0.260993
0.952218
-1.7208
-1.45449
-1.63915
-0.575206
1.46726
1.25835
-1.31675
0.36401
1.1568
-1.70178
-1.47113
1.137
-0.0518515
-0.844681
0.0914119
1.09895
-0.817342
-1.57815
1.1507
0.54896
-0.0725868
1.18361
-0.909238
-1.09155
-0.545571
-0.328087
-0.32848
-1.57198
1.55682
-1.67088
-0.0537445
-1.68043
1.1342
-0.0818937
-1.09397
1.01873
0.707635
1.1811
1.03701
1.41236
-0.27965
0.845102
0.4337
-0.705208
1.19595
0.132058
-0.0542697
-2.17644
1.20873
1.20114
0.0116231
-0.987419
-1.38913
1.32046
-0.815467
0.581391
-1.86178
-0.273225
1.5252
1.30692
-0.401168
-0.653744
-0.425592
-0.348696
1.13954
-0.492604
1.28239
0.665636
1.06805
1.16885
-0.261345
-0.905574
1.24978
-0.261287
-0.596838
1.41413
-1.66778
-0.346018
1.16121
-0.62676
-0.610885
-0.473673
-1.44385
1.46726
-1.09393
-0.057654
-0.414077
1.32428
-0.452963
-0.677726
1.01487
-1.72816
-1.68376
1.42167
1.03964
0.957163
-0.590485
1.49637
0.63733
-1.29128
-0.558885
-0.558501
-0.465472
1.52158
0.958665
-1.65078
-0.441008
-1.5538
1.3736
-0.792784
1.29565
-1.6814
1.0471
-0.302438
0.786339
0.927659
0.898653
0.830347
-0.0776474
-0.739973
1.29821
-0.547782
-0.141731
-1.71539
0.0696261
1.34611
-0.59071
-0.621355
-0.481863
-0.315129
0.695916
-0.489881
-0.292658
0.749574
-0.0358345
-0.375949
1.42613
-1.56645
-1.1858
1.45835
-0.336372
0.598963
-0.830758
-0.263199
-0.279336
1.39628
-0.266374
1.35312
-0.271433
-0.814927
1.41556
-0.469396
-0.70737
0.950375
-1.47409
0.483654
-0.768056
-0.301006
0.76023
-1.7327
-0.316205
-0.262942
-0.265984
-1.68492
0.813012
0.334362
-0.694751
-0.38812
1.3933
-1.52293
-0.62758
-0.270465
-0.535716
-0.379009
-0.264544
-0.362393
-0.341141
1.50772
-0.477929
-1.66884
-0.521748
-1.19248
0.262689
-1.69267
1.48923
1.43919
0.822786
-0.918544
-1.6811
0.750668
-1.67828
1.51948
0.648473
1.03784
1.0615
1.30387
0.548141
-0.391581
-1.03962
0.415283
-0.548937
0.416601
-0.456409
-0.280804
1.40279
-0.501401
0.65749
-0.600196
-1.64702
-0.861786
)
;

boundaryField
{
    frontback
    {
        type            empty;
    }
    Top
    {
        type            zeroGradient;
    }
    outlet
    {
        type            fixedValue;
        value           uniform 0;
    }
    bottom
    {
        type            zeroGradient;
    }
    Inlet
    {
        type            zeroGradient;
    }
    rectangle
    {
        type            zeroGradient;
    }
}


// ************************************************************************* //
