/*--------------------------------*- C++ -*----------------------------------*\
| =========                 |                                                 |
| \\      /  F ield         | OpenFOAM: The Open Source CFD Toolbox           |
|  \\    /   O peration     | Version:  2306                                  |
|   \\  /    A nd           | Website:  www.openfoam.com                      |
|    \\/     M anipulation  |                                                 |
\*---------------------------------------------------------------------------*/
FoamFile
{
    version     2.0;
    format      ascii;
    arch        "LSB;label=32;scalar=64";
    class       surfaceScalarField;
    location    "44";
    object      phi;
}
// * * * * * * * * * * * * * * * * * * * * * * * * * * * * * * * * * * * * * //

dimensions      [0 3 -1 0 0 0 0];

oriented        oriented;

internalField   nonuniform List<scalar> 
3181
(
-1.07465
0.416462
0.658193
-0.431372
0.399281
0.0320908
0.567133
-0.392545
-0.174588
0.135122
-0.221559
0.0864368
0.0333678
-0.0404119
0.00704417
0.391548
-0.151752
-0.239797
0.164408
-0.157469
-0.00693897
0.0651503
0.00531603
-0.0704663
0.509407
-0.949164
0.439757
-0.0741801
0.152363
-0.078183
-0.00999132
-0.0459169
0.0559082
0.210496
0.0175325
-0.228028
-0.00847205
-0.055576
0.0640481
-1.10869
0.148177
0.960516
-0.344286
0.767475
-0.423189
-1.1172
0.630808
0.486391
0.0867638
-0.931989
0.845225
-0.215786
0.23617
-0.0203831
0.867925
-1.60594
0.0334687
-0.021456
-0.0120127
0.0142607
-0.0721127
0.057852
-0.0601813
0.0558656
0.00431568
1.07633
-1.04703
-0.0293014
0.0536717
0.0311875
-0.0848592
-0.96003
0.32275
0.63728
-0.115001
0.250123
0.317283
-0.229441
-0.087842
0.0328675
0.0697675
-0.102635
-0.386286
0.316682
0.0696035
-0.0323628
-0.0260728
0.016783
0.00928982
-0.0316073
-0.928422
-0.0268466
-0.0492987
0.0761453
-0.033023
0.850343
-0.81732
-0.0392174
0.0402158
-0.000998357
0.169612
0.258805
-0.428417
0.772719
-0.805742
0.0634908
-0.0492301
1.40797
-0.754522
-0.65345
0.169577
0.221972
-0.104651
0.0961792
-0.0644487
0.00426742
-0.458106
0.11382
-0.10257
0.0381212
-0.609689
0.132396
0.477293
-0.165223
0.0910433
-0.187867
0.192741
-0.00487391
-0.291348
-0.0849025
0.376251
0.0516312
1.50149
-1.55312
0.00778599
0.0969639
-0.10475
0.00739593
-0.0909418
0.0963094
-0.00536764
0.528839
0.238636
-0.0979794
0.122661
-0.0246818
0.124026
-0.150873
-0.186986
0.216063
-0.0290766
0.177304
0.0714328
-0.248737
0.121183
-0.127767
0.00658398
1.15782
0.250152
-0.876048
-0.198607
0.158408
-1.61437
1.45597
0.528885
0.214023
-0.742907
-0.425319
-0.189804
0.615122
-0.387039
0.556615
-0.252925
0.78181
-0.346999
-0.113446
0.460445
-0.197117
-0.189169
-0.203543
0.159812
0.0437311
0.104682
0.297076
-0.401759
-0.49531
1.00472
-0.0158037
0.080954
-1.93177
2.09018
0.212001
0.105282
-0.197295
-0.115686
0.312981
-0.273676
0.339819
-0.0661431
-0.0914194
0.0998072
-0.00838781
-1.88014
-0.918792
0.00691004
0.911882
-0.0513108
0.0120933
-1.02288
0.720388
0.302491
0.406803
-0.105783
-0.301019
-0.505439
0.1184
1.10467
-0.956493
-0.678244
1.16151
-0.200994
1.07306
0.149661
-0.179876
0.0302142
0.50441
-0.656161
0.31624
-0.31624
-0.00733771
-0.00288572
0.0102234
-0.232086
-0.0555225
0.287608
-0.0292476
-0.000717
0.0299646
-0.453419
0.857327
-0.403907
0.00243886
-0.265143
0.262704
-1.09225
0.0452188
0.324519
0.0545093
-0.379029
0.135761
-0.824713
1.03874
-0.0306444
0.047359
-0.0167145
-0.0180369
-0.168949
-0.426652
-0.149342
0.575994
-0.0104275
-0.416224
0.109353
-0.934066
0.344362
-0.797781
0.927739
-0.840975
0.0999309
-0.0118463
-0.0880845
0.0711921
0.0481057
-0.119298
-1.26066
-0.252431
1.51309
-0.268384
0.438305
-0.169921
-0.568626
0.71886
-0.150233
-0.441795
-0.581084
0.0193896
-0.0116036
-0.169237
0.162798
0.00643973
-0.074797
-0.0054896
0.0802866
-0.768769
-0.180395
-0.122724
0.0451621
0.0775621
-1.66784
-0.185064
1.8529
2.02494
-0.523455
-0.0242052
0.0168675
0.0624148
0.149587
-0.188311
0.357923
0.0303721
0.170849
-0.201221
0.127632
0.0633377
-0.19097
0.099256
0.301403
-0.400659
-0.596204
-0.520994
-1.19233
-0.475506
0.00399456
-0.034639
-0.120134
0.200716
-0.0805815
-0.11653
0.0269078
0.1375
-0.0593995
0.0821929
-0.0227933
-0.106492
-0.0256791
0.132172
0.0854629
-0.0854629
-0.201528
0.228436
0.396375
0.127336
0.114479
0.101584
-1.28835
0.793042
-1.47952
0.104874
1.37465
0.0430079
-0.0375511
-0.00545684
-0.0245532
-0.0464194
0.0709727
0.551373
0.00136182
-0.552734
-0.0480286
0.0490311
-0.00100249
-0.217471
0.0159429
0.158715
0.698612
-0.38182
0.540535
0.00614611
-1.26681
0.0229467
0.010421
0.518882
-0.323811
-0.195071
-0.0540935
0.0554096
-0.00131614
0.0532897
-0.344638
0.0251752
-0.943967
0.0524634
-0.172598
-0.312296
-0.431901
0.0516819
1.31007
-0.882742
-0.427323
1.02757
0.282495
0.0744537
0.301797
0.0397507
0.00325723
-0.0623318
0.047697
0.0146348
-0.261273
-0.570437
0.831709
-0.38407
1.37233
-0.437319
-1.16862
0.264168
-0.0168656
0.00733058
0.00953499
-1.49477
0.44235
1.05242
-0.35289
-1.14188
-0.291806
0.616325
-0.906813
-0.020843
0.00310139
-0.25046
0.247359
1.36302
-1.48051
0.117491
0.0129252
0.0100215
0.554979
-0.816252
0.331545
-0.259831
-0.071714
-0.283408
-0.105774
0.389182
0.247302
-1.01339
-0.0788543
0.0403143
-0.052327
-0.523197
0.333393
-0.230757
0.0178563
0.2129
0.00342907
0.00949616
0.0569331
-0.0569331
-0.108448
0.118265
-0.00981633
-0.277704
-1.20182
0.0805049
0.0284426
-0.108948
-0.0508462
-0.00595716
0.0568033
-0.209234
0.00569137
1.4411
-0.514186
-0.926917
-0.212932
0.476988
-0.264056
0.0224607
-0.0219248
-0.000535971
0.371418
-0.940044
-0.173812
-0.00423812
0.178051
-0.191034
0.295717
-0.0914941
0.0898982
0.00159589
0.073127
0.00760357
-0.0807306
-0.090389
0.120649
-0.0302599
0.232759
-0.162361
-0.0703979
-0.241153
-0.0544681
0.295621
-0.710704
0.662888
0.0478151
-0.0114792
0.0426667
-0.032699
0.035628
-0.00292896
-0.0356907
-0.0491685
0.969969
1.05497
0.179519
-0.874523
0.695003
0.0167581
1.98973
-2.00649
0.405436
-0.113357
0.429597
0.0478643
0.189935
-0.0623029
-0.064526
-0.0264158
0.257459
0.142645
-0.0714533
0.739573
-0.416823
0.065427
0.222181
0.0372637
-0.149531
0.112267
-0.803405
-0.127367
0.930771
-0.0470286
0.0470286
0.0506321
-0.253809
0.512614
0.0101304
-0.251283
0.193186
0.0429837
-0.033183
0.0371775
0.123779
-0.133771
-0.347109
0.349548
-0.0119236
0.12179
-0.109866
0.420639
-0.403107
-0.113738
-0.307789
0.421527
-0.223652
0.298106
0.200907
-0.524718
-0.213594
0.630056
0.179906
-0.038193
0.038193
0.199214
0.290688
-0.489902
0.411962
0.0263423
-0.0385455
0.0441011
-0.00555557
-0.0573909
-0.0996898
-0.0230344
-0.0468125
0.170592
-0.167383
0.225473
-0.0580901
0.115277
0.0273687
-0.405932
0.176491
0.17476
-0.0594837
-0.0419011
-0.0495929
-0.0634048
0.0613108
0.00209399
0.162643
-0.114973
-0.0476702
0.00532315
0.371636
-0.376959
-0.102541
0.0867372
0.0944431
-0.0983886
0.00394553
0.0225527
-0.42219
0.308452
-0.0744579
-0.0019039
0.0763618
-0.0760216
0.0214112
0.0546104
-0.0810795
0.10007
-0.72114
0.62107
-0.0241464
-1.37647
-0.056203
1.43267
1.08227
0.994142
-2.07641
0.092106
-0.146534
0.447936
0.257033
0.242268
-0.499302
-0.201186
0.23845
0.15606
-0.914601
0.758541
-0.00815409
-0.0678675
0.0229126
0.0174018
-1.00165
0.450038
0.551613
0.882742
-0.773389
-1.52691
1.27448
-1.36302
1.46789
0.0443683
-0.0690501
0.00152315
-0.0342222
0.0175492
0.833678
-0.677617
0.135404
-0.0829406
0.420537
0.740974
-0.00629354
-1.68091
1.69767
-0.782558
-0.505794
-0.238187
-0.371502
-0.00636175
-0.179666
0.232955
-0.581114
-0.402311
0.189379
0.830501
-0.279128
-0.821278
-0.705635
0.734499
0.0764196
-0.0845737
0.307067
0.0434793
-0.0434793
0.673651
0.145196
-0.818847
-0.222074
0.895725
0.455647
-1.70693
1.25128
0.116057
0.0112789
0.00285819
0.0141535
-0.0170116
-1.61437
-1.36404
0.840583
1.06432
0.376781
-0.0388364
-0.149031
-0.300809
0.829648
-0.184151
-0.046606
-0.00353304
-0.0878863
-0.0459769
0.0940826
0.362822
-0.230426
-0.776412
-0.268353
-0.047313
-0.053738
0.101051
-0.796297
0.68294
-0.0973655
0.102598
-0.00523277
0.04726
-0.00750933
-0.117327
0.0701957
0.0471312
0.0144972
0.445948
-0.0224432
-0.0316502
-0.0149408
-0.0283996
0.0433404
-0.0156555
-0.158157
-0.699492
0.353266
0.346226
0.92277
-0.904336
-0.0184346
0.128699
-0.148413
0.0197138
-0.00125886
0.0206485
-0.206565
-0.109675
-0.0986545
-0.0186724
0.0157892
-0.0273928
0.135703
-0.324014
-1.20159
1.3408
-0.139208
0.0213846
0.101853
0.0607898
-0.803405
0.224564
0.00819483
0.111229
-0.0410336
0.0413219
-0.636919
-0.073785
0.0574071
0.117353
0.209057
0.0693216
-0.47108
0.134451
0.328658
-0.274148
-0.133192
0.0266999
0.225035
0.829498
-1.05453
0.102563
-0.728056
0.625493
-0.976358
0.848992
-1.03042
0.567857
0.462565
-0.0224621
0.0233226
-0.000860539
0.153039
-0.436447
0.19263
-0.113166
-0.0794639
0.0535715
-0.0321603
0.0500164
-0.0973294
0.00990445
0.00981968
-0.0455104
0.0223203
0.0609255
-0.0832457
1.53791
-0.00574442
0.00494821
0.000796217
0.0818103
0.00492696
0.855843
-0.0250734
0.0350949
-0.63273
-0.731308
0.0303071
0.0857499
0.00813141
0.093722
-0.462565
0.109675
0.00310361
-0.0830787
0.0799751
-0.235265
0.0553893
0.11828
-0.088066
-0.00175326
0.10156
-0.0427126
-0.0162828
-1.18531
-0.0292095
0.0515298
0.737287
-0.250896
-0.12926
0.0784141
0.323316
0.00528082
-0.0438263
-0.00926173
0.0947246
0.153291
0.186528
0.154075
-0.311124
0.157049
0.117507
0.581105
-0.0565402
-0.108683
0.915998
-0.200066
-0.715931
-1.03042
0.152165
0.770605
0.772719
-0.675697
0.756935
-0.0812384
0.34369
-0.0750983
-0.268591
-0.0719182
-0.433521
-0.0617842
0.0617575
2.67327e-05
-0.135755
-0.130408
0.266163
0.105078
-1.05245
0.947372
0.0420458
0.65223
-0.694276
-0.0487701
-0.120467
-0.0158911
-0.0585668
0.512957
-0.313744
-0.0210693
-0.0013928
0.14379
-0.0287301
-0.11506
0.00827496
-0.0706067
0.0081394
0.0391206
-0.131531
0.119684
0.0323951
0.00323285
0.185125
-0.450267
-0.728914
1.72306
0.0299197
0.0171089
-0.996559
-0.0168339
0.0977133
-0.0802571
-0.0529353
0.11683
0.214715
0.915055
-0.34175
-0.573305
0.112888
-0.0825805
-0.937802
-0.0186908
-0.00459299
-0.647017
0.747087
-0.019478
0.199384
-0.141122
-1.56581
0.181021
-0.466878
0.285857
-0.0502288
0.221078
0.0125898
-0.0132361
0.000646277
-0.00526894
-0.0851201
-0.0233038
-0.145645
0.75567
-0.653108
-0.0837586
0.0665916
-0.0890906
0.29392
-0.139845
0.0177384
0.865113
0.335327
-1.20044
-0.111941
0.129797
-0.499335
-0.200158
-0.57024
0.637958
-0.620084
-0.0178747
-0.0637982
-0.0199604
-1.68091
0.521709
-0.521709
-1.19216
1.19216
0.833678
-0.0315591
-0.918667
0.950226
-0.900874
-0.0956855
0.598044
-0.347299
-0.250745
0.182619
-0.263201
-0.0159718
-0.00823343
-0.861701
-0.0723649
-0.932764
0.211625
0.0133697
-0.0671077
0.697845
-0.119827
-0.578018
0.639479
0.13324
-0.00174929
0.0143391
-0.967103
-0.377109
0.0693207
-0.0756373
-0.576449
0.652086
-0.0897853
-0.823186
-0.657326
0.214273
-0.810478
-0.930771
1.35706
-0.426293
-0.156075
0.302539
-0.146464
-0.0147771
0.712622
-0.0997597
-0.964843
0.964843
-1.97608
1.70134
0.274742
-0.00602519
0.000280769
0.0870829
-0.421211
0.766924
-0.0465352
-0.0763634
-0.0399463
0.0839043
0.0106336
0.0118271
1.87079
-1.30294
-0.310479
0.383606
-0.611413
0.965999
-0.354586
-0.0192121
-0.0794424
0.114234
-0.0508964
0.392222
0.00799321
-0.0635692
0.348575
0.0230612
0.0403818
-0.232452
0.19207
0.154015
0.0387261
0.0896809
0.169081
1.48957
0.600609
0.744478
-0.0486879
-0.69579
-1.00492
1.44727
0.182313
-0.144192
0.0813323
-0.769353
0.688021
0.712919
0.152261
-0.49937
-0.0754798
0.145898
-0.0704181
0.15056
-0.22604
-0.425465
-0.0977323
-0.0637789
0.0663679
-0.00258903
0.010194
0.0222012
-0.137713
-0.0131593
0.677617
-0.625493
-0.0521241
-0.316294
0.326425
0.871543
0.585987
-0.242298
-0.0312075
0.0596501
0.186314
-0.446144
0.181241
-0.604292
0.423051
-0.0122446
-0.000991563
-0.20827
0.575211
-0.366941
0.0066448
-0.0118726
0.00522781
-0.0224186
0.015328
0.0070906
-0.252029
-0.404132
-0.269565
-1.1069
-0.183196
-0.773389
1.46789
1.27448
-0.20934
-0.191575
0.137107
-0.0565516
0.0614155
-0.00486394
0.337108
0.540485
-0.877593
0.524547
0.0734963
0.00120525
-0.0134498
0.112234
0.14847
0.0399463
-0.0341631
0.0049536
-0.435476
0.62179
0.0272594
-0.0604424
-0.306908
0.727547
1.02757
0.366424
-0.0686842
0.00175761
0.0669266
1.46173
-0.187247
-0.0672133
-0.0605532
-0.931098
0.157709
0.558949
-0.311647
-0.46455
-0.115079
0.579629
0.795059
-0.348576
-0.446483
0.671876
0.243179
-1.69767
0.0832932
0.0208945
0.0241524
-0.0450469
0.192887
1.79684
-0.20581
0.208668
-0.10997
2.10404
-0.636145
-0.686763
0.0650406
0.621722
0.362516
-0.0188498
-0.33661
0.529693
0.839435
0.718133
0.0848577
-0.0240679
-1.2181
-0.304759
1.52286
1.25721
-0.054117
0.0391762
-0.0456354
-0.346263
0.0900767
-0.291263
0.935184
-0.0700702
-0.0814609
0.0176627
0.027759
-0.703456
-0.0255989
0.0141196
0.122704
-0.165768
0.0430644
-0.321549
0.336541
-0.0149921
1.05325
-0.717925
-1.94625
1.03047
0.915778
0.0577366
-0.122231
0.064494
0.252948
0.0409722
-0.00256066
0.227125
-0.647831
0.647831
1.45597
0.639479
-0.728056
0.337255
0.50218
-0.518314
0.0284117
0.875366
-0.350818
0.00521259
-0.862066
0.856854
0.150675
0.00168793
0.026865
-0.0286332
0.0260725
0.0574313
-0.176418
-0.129954
0.306373
0.425544
-0.544881
0.368462
-1.03223
-0.271047
-0.642618
-0.0618163
0.00271628
0.00223192
-0.221047
0.130325
-0.0292743
0.0367464
-0.13141
0.0946638
-1.74726
-0.228816
-0.00648716
0.0762546
-0.5494
0.86381
-0.31441
-0.602622
0.407551
-0.246472
0.368262
0.247539
0.0230685
-0.000155932
-0.787043
0.272857
0.0310245
0.0634186
-0.114331
0.0252404
0.184805
0.00782524
-0.409389
0.845854
0.42313
-0.077321
0.869216
-0.787884
0.75054
-0.427224
-0.58131
0.1601
0.147174
-0.786123
0.752814
0.0333082
0.75589
0.179293
-0.187476
-0.123003
0.0288758
-0.0295928
0.955606
-0.838039
-0.117567
-0.16596
0.0945064
0.0295327
0.133265
0.876752
0.275045
-1.04775
0.772709
-0.340447
-0.0618644
0.75285
-1.30225
0.342958
1.17014
1.06594
-0.42646
0.176442
0.557825
-0.734267
-0.154793
0.0454129
0.0276082
-0.00453974
-0.492816
-0.0884942
0.0438559
-0.0404269
-0.172763
0.125951
-0.562853
0.298797
-0.991427
-0.581559
-0.279398
-0.390668
1.45969
-0.0850447
-0.273777
0.270974
-0.70645
-0.155306
0.280029
0.0685461
1.11707
-1.01199
-0.174114
0.114631
-0.747665
0.404497
0.343168
0.0352787
-0.0143843
0.0439813
-0.0636624
-0.257886
-0.137583
0.697668
-0.413391
-0.284277
0.317528
0.147968
-0.106173
-0.0417949
0.236827
0.0432018
-0.612175
-1.46423
-0.0887381
0.13006
0.834469
-0.559424
-0.156562
0.211173
-0.0141986
0.0290608
-0.0148622
0.00515719
-0.0427083
-0.227645
0.0781134
0.0280168
-0.594934
0.438859
0.0109051
0.0622874
-0.00455089
-0.690264
0.952114
-1.02218
0.0157697
-0.179174
0.163405
-0.133306
-0.551422
0.684728
0.0882032
-0.725122
-0.773181
-1.17307
-0.0671824
0.000311581
0.0668708
-0.280802
-0.637958
-0.165446
-0.159426
-1.2181
-0.215331
0.153028
-0.789829
-1.08433
-0.446644
0.126744
0.3199
0.282008
0.127016
0.41195
0.167843
-0.579793
0.147741
-0.0713219
0.517439
0.433244
-0.950684
-0.229573
0.373793
1.07348
-0.226011
0.167921
-0.552592
0.926385
0.356008
-0.50535
-0.030336
0.0478852
-0.0192327
0.222293
-0.299614
0.703992
0.0910663
-0.898716
0.882434
0.232562
0.642804
0.976598
-0.0606003
-0.0157738
-1.06594
-0.642618
-0.714637
0.721547
-0.0520435
-0.821278
0.65223
0.622364
-0.933724
0.848851
-0.00980531
-0.776317
-0.314618
0.636761
-0.783221
0.14646
0.0887595
0.0592086
0.278377
0.216597
1.74793
-1.96452
-0.00637599
0.00909227
-0.247014
0.200408
0.724964
0.239091
-0.223148
-0.200837
1.78433
-1.96939
0.402863
0.547363
-0.304838
0.637261
-0.332423
-1.38685
1.08209
0.529407
0.334403
0.200187
1.73946
-1.52286
-0.00641825
0.205986
-0.0562948
-0.0341154
0.131829
0.00666975
-0.044012
0.0373423
-1.01726
-0.0372697
0.326182
-0.80299
-1.65568
1.85753
-0.201842
0.360123
0.605876
-0.0562469
0.0603751
-0.00412827
-0.3289
2.11323
-0.71818
1.8964
0.112369
-1.76805
0.294849
-0.0888632
-0.587123
-0.404304
-0.538205
0.233367
-0.0634372
-0.871871
-1.79419
-0.212298
1.73946
0.0486813
-0.851671
0.829737
-0.643638
-0.186098
-0.981862
0.394739
0.018773
0.134377
0.00184178
-0.136219
-0.971518
0.567214
-0.230994
0.912182
-0.930873
0.180096
-0.195752
-0.0894461
0.225149
0.322851
-0.121702
-0.00233465
-1.22085
0.0204137
1.65667
-0.938537
-0.553863
-0.517262
1.07113
0.446137
0.0230697
-0.00891621
-0.731546
0.694276
1.33757
-1.66647
-0.429597
0.539021
-0.109424
1.88831
-0.0307871
0.782109
-0.814471
-0.49299
-0.450977
-0.470643
-0.500876
0.802824
-0.802824
0.682864
-0.682864
-0.731546
-0.657421
0.657421
-0.539021
0.721143
-1.35026
0.505587
-0.886417
0.886417
1.33757
-1.66647
0.782109
0.769253
-0.769253
0.814471
0.759222
-0.759222
0.50701
0.529357
0.482738
0.451149
-0.499124
-0.549023
1.07838
-1.60167
-0.689793
0.151588
0.245031
0.284377
-0.072994
0.0125555
-0.0376289
-0.886605
0.0996586
0.786946
-0.102388
0.0960259
-0.998963
0.58214
0.949435
-0.612181
-0.129677
0.0178658
-0.0162404
-0.793416
-0.0811065
-0.551613
0.0194705
-0.00206866
1.10408
-0.120708
0.0796746
0.165316
-0.00119846
-0.0104193
0.0116177
-0.808547
0.0661389
0.742408
0.284057
0.0387938
-0.539573
0.39856
0.141014
0.91725
-0.737998
-0.179253
0.0762153
0.281708
-0.013003
-0.0507758
-0.0462806
-0.0155036
0.172354
-0.968651
-0.813126
0.105547
-0.73628
0.796582
-0.0603026
0.125529
-0.899605
0.774076
-0.801859
0.908445
-0.106585
-0.0614414
0.0665986
0.0195515
-0.270011
0.0201318
0.213236
-0.0998428
-0.786762
0.919427
-0.0960444
-0.823382
0.0819294
-0.101142
0.529088
0.817408
-0.219665
0.435376
-0.36188
0.107677
-0.894439
0.805742
0.386423
-0.785387
0.00906961
1.01781
-0.892283
1.136
0.844528
0.0427452
-0.887274
-0.876884
-0.122078
-0.391769
0.0148092
-1.06528
0.491974
-0.786087
0.786087
-0.582808
-0.0903515
-0.864285
0.126287
-0.888371
0.812734
0.0706743
-0.183841
-0.0637472
0.0714125
0.0107803
0.19309
0.824722
0.818093
0.768152
0.144399
-0.912551
-0.509778
0.794155
-0.780616
-0.112508
0.893125
0.181224
-0.899404
-0.671195
0.889888
-0.782211
-0.112779
0.459387
-0.0444352
-0.414952
-0.354107
0.382388
-0.0282801
-0.442716
-0.275657
0.718373
-0.893396
-0.830957
0.0946776
0.499563
0.250978
-1.91511
-0.131815
-0.557345
0.557345
-1.06086
-0.15999
0.314625
-0.288553
-0.112328
1.1428
0.777379
-0.218345
0.223229
-0.627361
-0.551844
-0.713713
1.26556
-0.362818
-0.541518
-0.0186429
0.33475
0.465547
-0.457353
0.215934
0.285328
-0.209113
0.778991
-0.885577
1.15599
-0.361837
-0.157467
0.739608
0.566724
-0.566724
-0.0656154
0.058106
0.10026
-0.0635137
-0.259238
0.641626
0.138497
0.00425032
0.00999054
-0.0142409
-0.659886
0.695782
-0.0358963
0.851183
-0.808438
0.114404
-0.896615
-1.01904
1.37106
-0.352019
0.0962098
0.877038
-0.650843
1.50203
-0.752216
0.592321
-0.666106
-0.636648
0.137313
-1.36028
0.0266872
0.113474
-0.600603
-0.759678
0.00937862
-0.552871
0.0775916
0.718991
0.700202
-0.10788
0.0797405
0.776103
0.837425
0.559699
-1.39712
-0.476691
0.52274
0.249686
-0.987962
0.748107
0.239855
-0.686002
-0.124476
1.8137
-0.713936
0.400192
-0.0440114
0.486627
0.513373
-0.768576
-0.117
-0.943115
0.144165
-0.212037
-0.883113
0.399803
0.600197
-0.0952833
0.10021
-0.864621
-0.0813566
-0.58475
-0.184418
-0.255502
0.43992
-0.0382013
-0.0045113
0.103632
0.0669595
-0.129087
-0.0985573
0.75496
-0.636191
0.715931
-1.46697
0.866366
0.629545
-1.33581
0.706262
-0.749085
-0.199017
0.948102
-0.262488
0.248096
-0.0259146
-0.00780174
0.0172979
0.0186951
0.683007
-0.125662
0.140718
0.106821
-0.736415
0.0765293
0.18281
-1.31255
0.656823
-0.235297
0.176995
-0.292341
1.03331
-0.00928427
0.210054
-0.320025
-0.0186675
0.0374534
-0.0712039
0.689098
-0.506288
0.619123
0.754025
-1.37315
0.849637
-0.0363439
-0.00286278
0.0392067
0.119402
-0.0207325
-0.000336804
0.243736
-0.121033
0.945391
-1.05772
-0.498476
1.1176
0.0096122
0.312476
-0.581782
-0.877285
1.17516
-0.297871
-0.780721
0.844779
-0.0640573
-0.955829
0.601499
-0.245491
-0.0544359
0.42986
-0.443756
-0.0958174
0.28423
0.476607
0.192369
-0.668976
0.4159
0.0517836
0.643999
-0.575347
0.547558
0.0277893
0.419756
-0.575062
0.0460518
-0.0505536
0.0045018
0.69217
-0.00995556
-0.083546
0.0211898
1.57058
-0.598164
-0.357664
-0.0237021
-0.0149474
-0.107283
0.0618353
0.00783041
-0.0696657
0.026648
-0.0199782
0.800205
-0.366961
0.118467
0.238141
-0.0286606
-0.1034
0.208681
0.101096
0.00108834
0.0535412
0.769761
0.0172323
1.03003
-1.04726
1.14987
0.520607
-1.67048
0.645761
0.143565
0.00542529
0.0257073
-0.0311326
-0.309439
-1.31414
0.600424
0.00600578
0.728493
0.704382
0.120143
-0.372952
0.65133
0.826986
-0.0827405
0.100479
-0.855872
-0.018029
-0.276996
0.283871
-0.189498
0.686363
0.0833986
0.0118226
0.799915
-0.198417
0.175146
0.161298
0.044412
-0.116525
0.424108
-0.0554098
-0.668562
-0.081926
0.2117
-0.0563236
1.2062
-0.164471
0.167185
-0.0725205
-0.112641
0.0262881
-0.000300705
-0.0259874
-0.630528
0.0554659
-0.0174245
0.82355
-0.237813
-0.609873
0.620548
-0.0106749
0.650434
0.762892
-0.446468
1.15273
0.0736145
-0.163061
0.624377
0.138515
0.542944
0.139995
-0.253671
0.689047
-0.848125
0.341837
-0.620919
0.350374
0.270545
0.67113
-0.0712958
0.0468222
0.0554359
-0.0424804
1.07278
0.738223
0.088763
0.603867
0.227842
-0.862259
-0.0796079
-0.666244
0.675313
-0.0190376
-0.626412
0.441994
0.884682
0.67616
0.139851
0.0375624
-0.187216
-0.312154
0.752231
0.199884
-0.852541
-0.0452028
-0.70496
1.0468
0.823208
1.02969
-0.0715682
0.44777
-0.754894
0.941582
-0.186688
-0.412952
-0.207967
0.0447356
-0.0477333
-0.19549
0.662102
-0.0364129
0.00801323
0.629222
0.468417
-0.703714
0.594804
-0.134997
0.256446
0.711442
0.235811
-0.947253
0.278535
-0.922173
-0.112887
-0.909298
-0.191718
0.785965
-0.594247
-0.656956
-0.031846
0.0240443
-0.0532238
-0.291583
0.0394201
-0.0536187
1.309
0.146597
-0.203099
0.0565013
-0.0153047
-0.581114
-0.0173371
0.227391
-0.391098
-0.00560326
0.00440479
-1.21021
-0.0519262
-0.579249
0.00390143
0.567543
0.31714
0.543784
0.888884
-0.261301
-0.382058
0.643359
-0.536529
-0.616726
0.616726
-0.213241
-0.878615
1.09186
0.0281073
-0.140048
0.696626
-0.129083
-0.23416
-0.09582
0.496012
-0.207464
1.42136
0.467782
0.159855
-0.108173
-1.29611
0.485616
0.0619423
0.0388774
0.0246134
-0.967977
-0.749577
-0.608625
0.693261
0.306739
-0.749577
0.693261
-0.201879
-0.0761664
-0.201879
-0.696179
0.696179
0.303821
-0.0157658
0.0490882
-0.0729833
0.169154
0.0319274
-0.441146
0.644777
-0.0499728
0.674253
-0.504908
-0.169345
-0.0706008
0.0737753
-0.00317445
-0.0220359
0.0262862
-0.180179
0.0211105
-0.0387788
-0.436204
-0.332415
0.111368
0.0496876
0.839796
-0.281971
-0.321993
-0.384458
-0.00489136
-0.0751576
-0.0155226
0.669116
0.0593767
-0.228077
0.0458013
-0.0024609
0.0051502
0.0884994
0.578282
-0.47435
-0.103931
1.05023
0.536896
-1.18838
0.859685
0.0101025
-0.0565219
0.0979839
-0.616244
0.104915
1.07123
-0.359792
0.0141109
-0.0759273
0.610536
-0.904509
0.0265518
-0.0265518
0.0155178
-0.0155178
0.0165636
-0.0165636
0.0299197
0.363743
0.455331
0.0214084
-0.764271
0.485143
0.20833
0.0354061
-0.0790929
-0.487473
0.975131
0.109263
-0.795265
-1.45946
-0.106345
0.0896102
0.0175005
-0.00217248
-0.0220817
0.0220817
0.815141
-0.0223933
0.0223933
0.700247
0.076309
0.0378539
0.00794742
0.00755666
-0.0762408
-0.0258878
0.0258878
0.0118815
-0.0118815
-0.018937
0.018937
-0.0183276
0.0183276
0.0843775
-0.289213
-0.0905172
0.22453
-0.0180189
0.0180189
-0.370315
0.529128
-0.158813
0.535903
-0.233364
0.370678
-0.692671
0.564686
0.00481753
0.0631732
0.557374
0.566511
-0.0119974
0.0119974
-0.473568
0.0207937
-0.0207937
-0.0175112
0.0175112
0.732289
-1.12635
0.0356228
0.265286
0.309925
0.00846331
-0.00846331
-0.012979
0.012979
0.016013
-0.016013
0.0270117
-0.0270117
-0.0201229
0.0201229
0.0309323
-0.0309323
0.468868
-0.0278356
0.0278356
-0.00812651
0.00812651
0.0208769
-0.0208769
0.0121374
-0.0121374
0.0129999
-0.0129999
-0.0240156
-0.0207669
0.0207669
0.404492
-0.000742643
-0.0348779
0.0348779
-0.00920848
0.00920848
-0.0211243
0.0211243
0.0294315
-0.0294315
0.0292744
-0.0292744
0.00876402
-0.00876402
0.0136789
-0.0136789
0.0982727
-0.569388
0.0124413
-0.0124413
-0.00726597
0.00726597
-0.0337705
0.0337705
-0.0317028
0.0317028
-0.0113189
0.0113189
-0.393664
0.626226
0.322487
-0.0284028
0.0284028
-0.0446195
0.0137559
-0.0137559
-0.00646423
0.00646423
0.0422318
-0.0422318
0.171364
-0.0708848
-0.0139947
0.0139947
-0.0270458
0.0270458
-0.511356
0.049231
-0.624414
-0.0356478
0.0356478
-0.460993
0.0386553
0.0217198
-0.891769
-0.00694704
-0.032709
0.032709
-0.18425
0.12884
-0.0467369
-0.00592826
0.00592826
0.0228759
0.0349761
0.261539
-0.330686
-0.301914
0.632599
0.216974
0.0134162
-0.0134162
-0.543397
0.343324
0.200073
0.798252
-0.415754
-0.382498
-0.434757
-0.666131
-0.526236
0.141778
-0.862653
0.385962
-0.573222
0.000983256
0.19396
-0.584888
0.0105642
-0.0105642
-0.00430559
0.00430559
0.0273963
-0.0273963
0.0297322
-0.0297322
0.00590524
-0.00590524
-0.00331402
0.00331402
0.0724181
-0.178202
0.194691
-0.324368
-0.00818294
0.00818294
-0.0508427
0.0508427
-0.036028
0.036028
0.0933332
0.087678
-0.181011
-0.0186045
0.337254
-0.575067
0.0100476
-0.0100476
0.0297755
-0.0297755
-0.0792734
-0.55755
0.0313143
-0.0039603
0.0039603
0.0699504
0.0210504
0.982889
-0.479863
-0.0632088
0.543072
-0.643696
-0.668149
-0.39713
-0.0439038
0.0439038
-0.68815
0.299484
0.044624
-0.044624
-0.613494
0.362748
0.283801
0.118479
0.00363782
-0.00363782
-0.794325
0.0014059
-0.0014059
0.30188
0.410742
-0.0238183
-0.048269
0.048269
-0.00405857
0.00405857
-0.0379253
0.0379253
-0.0609369
0.0609369
0.000609678
-0.000609678
-0.0673766
0.0673766
-0.000268226
0.000268226
-0.0409989
0.0409989
0.0130945
-0.0516108
0.0516108
0.00581567
-0.00581567
0.0433373
-0.0433373
-0.00130462
0.00130462
0.0538001
-0.0538001
0.016571
-0.00283737
0.00283737
-0.00419322
0.00419322
-0.0562021
0.0947246
-0.00942103
0.00942103
0.00476152
-0.00476152
-0.05357
0.05357
0.283237
-0.0165116
0.0165116
-0.066064
0.066064
-0.00817619
0.00817619
-0.0608324
0.0608324
-0.0151699
0.0151699
-0.0729368
0.0729368
-0.0196115
0.0196115
-0.109128
0.109128
-0.675812
-0.304366
-0.513507
0.502832
-0.823186
-0.122797
-0.602678
0.41318
0.0591379
0.25839
0.00349198
-0.00349198
0.243574
-0.74644
0.0348604
-0.0102469
-0.692829
0.826069
-0.461909
0.280401
-0.0530714
-0.013095
-0.421827
-0.559136
0.0227232
0.390161
-1.13921
-0.00986694
0.00986694
-0.783989
0.0258864
-0.0258864
0.0131922
-0.0131922
0.295383
-0.124011
-0.00292995
0.00292995
0.0217177
0.0164753
0.595881
-0.00933743
-0.0248987
-0.0118965
-0.00387734
-0.0799649
0.470391
-0.390426
-0.0313466
0.0127037
0.0183575
0.823136
-0.0115105
0.0717458
-0.404096
0.418905
-0.467305
-0.956356
-0.310454
-0.0622601
0.0162832
-0.709265
0.433608
0.062271
0.000697253
0.00517369
0.763759
-0.57891
-0.0256205
0.0700325
-0.0311807
-0.288647
0.337735
0.43691
0.225979
-0.187553
0.240421
0.0135659
-0.00596236
-0.270955
-0.0126997
-0.174812
-0.0282866
-0.0217595
-0.930207
-0.0696196
0.255074
-0.346117
0.369178
0.316079
-0.706747
0.0442015
-0.0444339
-0.0567077
-0.33621
0.477223
-0.0391455
-0.0633313
0.102477
-0.023466
0.023466
0.168099
-0.410397
-0.0741449
0.0681877
-0.0677956
0.048758
-0.0731005
-0.00895266
0.0820531
-0.0396335
-0.143917
0.0783858
0.00874845
-0.303152
-0.377612
0.680764
0.0110905
0.050667
0.156537
-0.0158187
-0.086121
0.0564769
-0.143586
0.29076
0.00401069
0.035196
-0.0403246
0.196861
0.00368141
0.243677
-0.0126285
0.0126285
-0.817116
1.64032
0.0770199
-0.156628
-0.0163981
-0.0733872
0.889376
0.61265
-0.0660839
0.00915084
-0.529722
0.0162148
0.357086
0.072788
-0.645985
0.295167
-0.0661203
0.39567
-0.698823
0.20267
0.545438
-0.0815271
0.0815271
0.00184178
-1.22413
0.0891079
1.13502
-0.19615
0.142926
-0.287795
0.36594
-1.08387
-0.0908223
0.039078
-0.0375549
0.930957
0.46664
-0.326789
-0.0673092
-1.41151
-0.356544
-0.0575835
-0.319208
0.848901
0.611772
-0.274518
-0.398689
0.711165
0.488212
0.268724
-0.27627
0.0723937
-0.479193
0.32038
0.144534
-0.144534
0.0835793
-0.0653843
-0.018195
0.00783792
0.0103144
0.0290608
0.319702
-0.629141
0.248282
-0.190123
-0.0581593
0.567348
-1.01712
0.295907
-1.02722
0.7073
-0.13795
-0.186418
-0.0585403
-0.0790423
-0.467011
0.0308076
-0.268262
0.00406576
-0.0217595
0.356003
-0.00524915
-0.0045607
0.000308697
0.0132285
-0.0090013
-0.00422716
-0.113053
-0.0160359
-0.154845
0.170881
-0.146215
-0.332979
0.0217177
0.342914
-0.00280765
-0.351333
0.0719347
0.00185669
0.120635
-0.0992263
-0.0108967
0.0108967
-0.00049403
-0.00109752
-0.010529
0.000507675
-0.0797294
0.00112387
-0.00118596
0.102466
0.112249
-0.00338179
0.00338179
0.0775439
0.532084
0.000559846
-0.322277
0.471645
1.07876
-0.482424
0.356329
-0.436497
-0.144179
0.0700345
0.25273
-0.250591
-0.0363084
0.0241401
-0.00544507
-0.0032344
-0.195127
-0.420342
0.905485
0.342516
-0.270097
0.0687617
-0.00150088
0.369885
-0.273675
-0.000776937
0.00221168
0.0219285
0.599376
0.00110741
3.41538e-05
0.694574
-0.638097
-0.239965
-0.382746
0.357398
0.00080174
-0.00031583
-0.0467369
-0.00637338
0.817193
-0.430859
0.492801
-0.464459
0.906936
-0.959279
0.616336
-0.203156
0.670695
0.00127878
0.00309989
0.0144006
-0.115015
0.143073
-0.0551856
0.0083157
-0.00566676
0.0567051
-0.0399323
-0.0167728
0.000578514
0.0642364
-0.0532112
-0.0110252
-0.0851438
0.0106673
-0.000676773
0.00243388
0.447024
-0.414644
-0.00865119
-0.00127124
1.37491
-1.2858
0.416162
-0.00531263
0.00162267
0.396976
-0.278508
-0.0307429
-0.140613
-0.0247291
-0.00331908
0.100507
-0.0213644
-0.000665405
0.428783
-0.000486704
-0.00655234
0.00655234
-0.00261644
-0.00928003
-0.00227769
-0.326179
-0.00334301
0.0656601
-0.106645
0.684538
-0.0921561
-0.0659609
-0.00186471
0.00135585
0.485637
-0.00226742
-0.00501658
0.0497522
-0.00189725
-0.00130961
0.133601
0.00489671
-0.710549
0.471456
-0.891799
-0.123942
-9.82718e-05
-1.0711
0.0426292
0.173305
0.586277
-0.0170331
0.00465017
-0.00364499
-0.00128664
-0.549634
-0.00307356
-0.000877905
-0.0452335
1.05738
-0.641484
-0.00233848
-0.0010364
-0.00530107
-0.00153275
0.0618021
-0.0252156
0.0252156
0.0270276
-0.0281251
-0.00341467
-0.00726233
-0.0342686
0.0297079
-0.14981
0.0785144
-0.00699368
-0.0121044
0.0509819
-0.0135021
0.0541188
-0.0378356
-0.623596
0.563293
-0.0329434
-0.00126954
0.507185
-0.295485
-0.0808021
-0.714511
-0.089721
-0.135582
-0.0858365
0.0839392
0.655173
-0.000563702
-0.0331955
0.0328797
0.102254