/*--------------------------------*- C++ -*----------------------------------*\
| =========                 |                                                 |
| \\      /  F ield         | OpenFOAM: The Open Source CFD Toolbox           |
|  \\    /   O peration     | Version:  2306                                  |
|   \\  /    A nd           | Website:  www.openfoam.com                      |
|    \\/     M anipulation  |                                                 |
\*---------------------------------------------------------------------------*/
FoamFile
{
    version     2.0;
    format      ascii;
    arch        "LSB;label=32;scalar=64";
    class       volVectorField;
    location    "44";
    object      U;
}
// * * * * * * * * * * * * * * * * * * * * * * * * * * * * * * * * * * * * * //

dimensions      [0 1 -1 0 0 0 0];

internalField   nonuniform List<vector> 
2186
(
(1.35731 -0.0679484 1.80292e-19)
(1.80668 -1.01624 -2.04095e-19)
(1.61487 -0.990414 -6.07713e-21)
(0.817797 -0.659524 -1.21168e-19)
(0.189115 -0.170131 -1.14381e-19)
(0.179205 0.32187 0)
(0.813723 -0.750482 0)
(-0.295607 -0.420737 1.95038e-19)
(2.12286 0.18133 2.9161e-19)
(0.617653 -0.410074 -3.08107e-21)
(0.610719 0.546893 0)
(1.24958 -0.264454 -2.39952e-19)
(-0.330458 -0.465252 -7.71219e-20)
(1.21777 0.0195638 -3.53138e-19)
(2.01531 -0.689864 -1.99785e-19)
(1.00627 -0.00787441 1.72232e-19)
(0.97938 0.0102152 0)
(-0.279373 0.616311 0)
(0.753283 1.21998 0)
(-0.202403 0.0308356 -2.1511e-20)
(0.475125 -0.0376793 -1.13536e-19)
(-0.185539 0.152801 3.12249e-20)
(1.20179 0.022759 2.93131e-19)
(-0.261353 -0.158091 6.21967e-21)
(1.03986 -0.000363801 -2.30574e-19)
(0.870079 -0.630098 0)
(0.772238 -0.104188 1.37101e-19)
(0.690898 -0.668662 -1.30306e-19)
(1.13162 0.656118 0)
(0.972933 0.0224636 -3.14838e-19)
(-0.110994 0.0194898 0)
(1.03125 -0.0189006 1.09118e-20)
(-0.30533 -0.106884 0)
(1.18049 0.233795 -4.89026e-21)
(-0.0976927 -0.187447 2.51925e-21)
(1.4395 0.723122 1.64244e-19)
(1.09685 0.0661889 -7.83073e-21)
(0.486574 0.0141637 -3.42055e-19)
(1.69766 0.240501 2.60662e-20)
(0.337829 0.163399 -2.12606e-20)
(-0.341099 -0.486908 0)
(-0.128622 0.0611827 0)
(2.15406 -0.911137 1.57541e-19)
(-0.381594 -0.0333003 0)
(1.05567 0.24541 1.72898e-19)
(0.652647 -0.387961 2.57222e-19)
(1.04239 -0.8809 0)
(1.29934 -0.850633 5.86082e-20)
(2.428 -0.23758 0)
(-0.0591065 0.269991 8.11588e-20)
(-0.117949 -0.000235047 3.17645e-20)
(0.565448 0.521234 9.62005e-20)
(2.32329 -0.716673 2.00955e-19)
(0.554429 0.171893 -2.80973e-19)
(-0.374326 -0.281119 1.32738e-20)
(0.848452 -0.725582 0)
(1.94083 -1.06373 2.60491e-20)
(0.657826 -0.614617 0)
(2.11536 0.211766 -3.90465e-21)
(1.1844 -0.189135 -2.92487e-19)
(1.72588 -0.219448 2.66383e-20)
(1.27937 0.273221 -2.25776e-19)
(1.26825 0.493193 0)
(0.48899 0.340777 2.32982e-20)
(1.29147 0.3603 -1.50744e-19)
(1.36221 -0.795955 -6.95259e-20)
(1.0946 0.609254 6.70361e-20)
(0.677792 -0.0122992 -5.45924e-19)
(0.811981 -0.0076593 0)
(2.4796 0.26502 -8.34641e-20)
(-0.267457 -0.432167 -2.30706e-19)
(2.02488 -0.271685 -4.40527e-20)
(0.738233 -0.121534 -2.36014e-19)
(0.95217 -0.585347 0)
(0.802583 0.112139 -9.13694e-20)
(0.623126 -0.584965 -2.5332e-19)
(2.55812 -0.317811 0)
(1.00717 0.0059475 3.48793e-19)
(-0.063822 -0.245348 0)
(1.88011 0.324298 0)
(0.448531 0.583768 1.81519e-20)
(0.466709 0.0369809 2.80632e-20)
(1.02694 0.00158198 3.82447e-20)
(1.24105 0.379155 3.64864e-20)
(0.981467 0.019527 3.99288e-19)
(1.04822 0.0215496 -9.53288e-21)
(0.643806 0.0875911 -3.34352e-19)
(0.521053 0.298823 -5.44338e-21)
(-0.0322077 -0.0524165 0)
(-0.0741952 -0.0832169 1.77385e-19)
(0.944576 -0.693821 -1.27026e-19)
(-0.070778 -0.153705 -3.18166e-21)
(1.15072 -0.0967546 2.19008e-19)
(0.858159 -0.251637 0)
(0.979554 0.0219013 3.8479e-20)
(1.28152 0.599336 0)
(1.80021 -1.01187 0)
(1.23161 0.206305 0)
(0.0749242 0.0741296 0)
(0.877071 -0.745269 2.32857e-19)
(0.618871 0.730346 -1.36833e-19)
(0.56808 0.771048 6.72802e-20)
(1.49681 0.181326 0)
(1.17795 -0.117193 -2.00202e-19)
(1.12631 0.0218791 1.72226e-19)
(-0.314563 0.0661122 3.99824e-20)
(0.568485 0.424253 0)
(2.06991 0.0831788 -1.22585e-19)
(1.0409 -0.542866 6.57694e-20)
(-0.525108 0.939061 1.12062e-19)
(1.63374 0.289715 3.80308e-20)
(-0.0084527 0.107891 -1.40077e-19)
(0.91755 -0.831899 0)
(0.505799 0.250882 1.73363e-19)
(2.11024 0.0522148 -8.71429e-19)
(-0.443096 -0.573783 -6.98971e-19)
(1.81066 0.272622 1.59777e-19)
(2.17332 -0.346904 0)
(-0.102325 -0.122312 -5.3006e-19)
(0.731805 -0.158505 7.33294e-20)
(1.45863 0.822095 0)
(-0.208131 0.50202 -8.31502e-20)
(0.812289 0.693196 -3.18899e-19)
(-0.511133 0.764008 2.12402e-19)
(1.02541 -0.0294188 0)
(1.65433 -0.150568 -2.0126e-19)
(0.145039 -0.0627387 0)
(0.771305 -0.572729 -9.02937e-20)
(-0.352906 0.642768 -1.07424e-19)
(0.884536 -0.806404 0)
(0.504877 -0.398251 3.75146e-19)
(0.62025 -0.541914 2.4181e-19)
(0.479393 -0.434102 0)
(1.08954 -0.860496 -7.36853e-20)
(0.510387 0.516307 0)
(-0.151876 0.410121 -6.3644e-20)
(0.900558 -0.778238 1.06623e-19)
(2.20609 0.119044 3.29093e-19)
(2.1301 0.138158 0)
(-0.16675 -0.234579 0)
(0.619388 0.573558 -4.10043e-19)
(1.95367 -0.607181 5.47202e-20)
(-0.23578 -0.281588 0)
(1.08463 -0.887052 -8.64316e-21)
(1.1856 -0.110369 0)
(1.11477 -0.143044 3.45341e-19)
(2.08177 0.00168523 -1.46268e-19)
(0.137677 -0.0878642 0)
(1.32043 -0.597349 -3.40934e-20)
(-0.462442 0.0444257 -1.65626e-20)
(0.184766 -0.194647 0)
(1.19964 -0.892296 1.53935e-20)
(1.00783 0.00264733 -5.82662e-19)
(0.727806 -0.563575 -9.00096e-21)
(0.895194 -0.590879 0)
(1.31139 -0.793732 -5.16079e-20)
(0.614213 0.147206 2.63333e-19)
(1.15984 0.100966 0)
(1.39188 0.0985813 -4.36808e-19)
(1.31446 -0.935955 -6.22992e-20)
(-0.158275 -0.221945 -1.92354e-19)
(0.0217348 -0.157579 -3.18838e-19)
(1.05457 -0.00833668 2.2784e-19)
(0.995688 -0.527917 -8.26943e-20)
(0.521954 1.04157 5.04017e-21)
(0.692109 1.16839 9.55586e-20)
(1.07583 -0.153753 2.20223e-19)
(0.0410645 -0.00117775 -4.86123e-19)
(1.28948 -0.36395 0)
(1.56923 -0.770319 6.25273e-20)
(1.35968 0.602621 2.11015e-19)
(0.890488 -0.688946 -1.69902e-19)
(0.995812 0.00672026 1.19309e-20)
(0.801512 -0.607267 2.47995e-19)
(1.21772 0.743919 1.82898e-19)
(1.7691 0.104978 -1.31351e-20)
(0.083045 -0.0948021 0)
(1.06898 0.0423229 -2.39267e-19)
(-0.605566 0.585662 -3.424e-19)
(1.00544 0.440839 9.16186e-20)
(0.537562 -0.0982455 2.93199e-19)
(1.16793 0.0241422 -4.11316e-20)
(-0.219262 -0.150638 -5.54174e-20)
(1.21373 0.534331 -1.07163e-19)
(1.05449 0.819082 0)
(0.00853363 -0.0178975 -7.30875e-20)
(-0.178542 -0.473303 0)
(0.583495 0.493104 -3.00379e-19)
(1.93483 0.236074 3.75893e-21)
(-0.401684 -0.512277 2.52066e-19)
(-0.410729 0.13897 -5.61387e-19)
(0.717482 -0.0141655 2.40098e-19)
(1.89334 0.283468 -1.84118e-20)
(1.04869 -0.397641 -2.50916e-20)
(-0.112371 -0.132121 0)
(-0.297232 1.17579 2.92124e-19)
(1.22792 0.900451 -7.8145e-20)
(0.826169 0.00572887 -1.33753e-19)
(0.492974 0.460634 2.10919e-19)
(0.394452 0.192014 0)
(-0.0487676 -0.389286 -3.77298e-19)
(0.271837 -0.417991 3.11429e-19)
(1.44611 -1.0504 -2.63395e-22)
(1.00108 -0.0659047 -1.78529e-19)
(-0.12646 -0.201703 5.505e-21)
(0.220203 -0.21947 8.98233e-20)
(-0.237706 -0.269809 -3.46547e-19)
(2.24881 -0.457125 0)
(1.1093 0.0363252 -3.26126e-19)
(2.23612 0.221675 8.34447e-20)
(1.3839 -0.662059 4.71006e-20)
(0.60887 0.166597 -3.27025e-21)
(0.537964 0.228631 0)
(0.869257 0.685039 -1.9171e-20)
(0.616344 0.564539 2.1083e-19)
(0.979875 -0.633171 1.16085e-19)
(0.617949 0.424003 0)
(1.02715 -0.0075983 7.72337e-21)
(0.970177 -0.737666 1.63585e-19)
(0.783759 0.355458 -4.85702e-19)
(1.2752 -0.120435 0)
(-0.215597 -0.275104 -5.07968e-19)
(-0.270205 -0.0552304 -4.18446e-20)
(1.48833 0.6742 0)
(1.4993 -1.0146 2.25541e-22)
(-0.211072 0.593953 0)
(0.213974 -0.17725 7.00185e-20)
(0.666471 0.583808 -1.08551e-19)
(0.886527 -0.27847 0)
(-0.158303 -0.291535 0)
(2.0432 -0.406925 0)
(0.262796 0.384723 5.23678e-19)
(1.34326 -0.960566 4.1342e-20)
(1.27893 -0.657907 3.78451e-20)
(1.105 -0.184067 -1.28394e-19)
(0.970309 -0.767637 -1.26508e-19)
(0.217987 -0.223014 0)
(-0.733155 0.909148 0)
(1.08679 -0.566393 1.30738e-19)
(-0.201062 -0.279434 0)
(-0.0240018 0.318175 0)
(-0.380488 -0.568226 5.96617e-19)
(0.722986 0.602758 9.41406e-20)
(0.936889 0.728355 0)
(0.629067 0.47885 -9.10074e-20)
(0.844187 -0.110309 -2.11298e-19)
(0.678435 0.489765 -2.44615e-19)
(0.526144 0.485025 -1.81838e-19)
(-0.223255 -0.403116 6.31917e-22)
(0.804546 -0.71991 0)
(0.87384 0.116952 -3.2799e-19)
(-0.27276 -0.466363 1.03198e-19)
(0.537998 0.49745 4.18901e-19)
(0.881487 0.729893 0)
(0.244113 0.862738 3.41879e-19)
(-0.126942 -0.27748 5.9622e-19)
(-0.128732 -0.156371 -3.15339e-19)
(0.594503 0.495775 -1.58165e-20)
(0.969328 -0.0109091 5.70678e-20)
(-0.34508 -0.503614 0)
(1.75591 0.382454 -1.88086e-19)
(2.06545 -1.01935 -1.42024e-19)
(0.735668 -0.682254 -5.81912e-20)
(-0.165613 0.809115 6.02869e-21)
(1.12341 0.41536 2.17687e-19)
(0.831255 0.349645 0)
(1.09768 -0.197868 1.64225e-19)
(-0.0294752 -0.300804 1.64314e-21)
(-0.121708 -0.144831 1.29343e-19)
(0.937091 0.0175696 -4.88424e-20)
(1.05554 0.120039 0)
(1.63653 0.117352 -2.4691e-19)
(1.83532 0.143605 0)
(0.50877 0.145447 -4.57675e-19)
(0.252501 -0.238481 0)
(-0.258514 -0.402363 4.53821e-19)
(0.737266 0.101757 0)
(0.699009 -0.596954 -1.53996e-19)
(1.15446 0.0142945 1.94718e-19)
(0.0317626 0.113124 2.4013e-20)
(1.99487 -0.155967 7.70974e-21)
(2.25583 0.0448012 -1.9672e-19)
(1.0637 0.193457 -2.36318e-19)
(-0.277891 -0.491809 -1.96789e-19)
(1.18645 -0.93259 0)
(0.821896 0.0161955 -1.41918e-19)
(0.993425 -0.437332 -2.44428e-19)
(1.86701 -0.565406 -1.8647e-20)
(1.63913 -0.0100492 2.71999e-19)
(1.05717 -0.0181738 3.85865e-19)
(-0.0242992 -0.217904 -2.82794e-19)
(1.06698 -0.494077 -9.89954e-20)
(0.229274 -0.221226 2.18623e-19)
(1.00738 -0.0121571 0)
(1.00489 -0.0106557 0)
(1.65288 -0.972974 1.24163e-19)
(-0.134449 0.327772 -4.31622e-20)
(0.276638 -0.111136 -2.52681e-19)
(2.02366 -0.0428397 6.39705e-21)
(1.60068 -0.0306003 0)
(1.84644 0.212998 -4.64247e-20)
(1.06317 -0.919701 -2.48829e-20)
(2.01023 -0.520705 -1.51714e-19)
(1.02468 0.770638 0)
(0.541008 -0.524853 0)
(0.535068 0.440295 -1.86992e-19)
(1.04472 0.24339 -4.45382e-19)
(2.15428 0.0214174 5.7663e-22)
(0.842655 0.101923 1.3951e-19)
(0.0926188 -0.250393 -7.99872e-19)
(0.92194 0.311593 1.22947e-20)
(-0.110871 -0.32527 0)
(-0.157542 -0.235818 0)
(-0.394455 -0.50999 0)
(1.46617 -0.773448 -9.38189e-21)
(0.147788 -0.187515 -1.13901e-19)
(0.190625 -0.266729 0)
(1.19328 0.901473 -6.45847e-20)
(1.06321 0.121811 -4.51178e-19)
(0.943293 -0.356687 7.9832e-20)
(0.993476 0.846167 1.2976e-19)
(-0.0223777 0.0661395 6.97482e-20)
(0.533249 0.289984 0)
(-0.400988 -0.48497 -5.02734e-19)
(0.127956 -0.0529594 1.40436e-19)
(0.77536 -0.0383781 1.75026e-19)
(1.42653 0.882261 -8.67305e-20)
(1.19756 -0.727223 -6.85634e-20)
(-0.156402 -0.174025 -4.18845e-21)
(0.836938 -0.761285 -2.55907e-20)
(1.05069 0.0053334 0)
(1.53114 -0.0836155 0)
(1.08199 0.0550559 0)
(-0.061016 -0.0424969 -1.79147e-19)
(-0.328419 -0.462389 1.84166e-19)
(0.966534 0.775584 0)
(1.00766 -0.0287608 4.79518e-19)
(0.698135 0.532673 -2.47703e-19)
(0.121969 0.512862 -1.25201e-19)
(0.858831 -0.039771 -3.92266e-20)
(0.796626 -0.728703 -1.63278e-19)
(1.29733 0.657498 -5.36799e-20)
(0.641088 -0.543589 -2.54129e-19)
(1.11711 -0.0022521 -4.48205e-19)
(0.837399 0.0292038 4.03961e-20)
(1.58822 -0.143161 1.99328e-20)
(0.720083 -0.315564 1.62458e-20)
(-0.132208 -0.155266 -4.95349e-22)
(1.0132 0.412969 -3.00847e-19)
(1.20557 0.561517 1.39147e-20)
(-0.123308 -0.24381 0)
(0.142537 -0.279912 2.95877e-19)
(-0.276267 -0.386539 2.12969e-19)
(-0.150575 -0.238073 -2.46202e-19)
(0.408607 0.201635 0)
(1.77135 -1.15234 0)
(0.00578063 -0.0347716 -4.39419e-20)
(-0.2087 -0.459413 -1.06583e-19)
(1.04018 -0.0346559 1.77518e-19)
(0.139301 -0.214217 -3.41415e-20)
(1.74741 0.0888672 -3.57913e-19)
(-0.300634 0.28828 0)
(0.927775 -0.820344 -2.03332e-19)
(0.394528 0.0456352 3.0989e-20)
(-0.221108 0.16475 2.52581e-19)
(0.69177 0.075301 3.26201e-19)
(0.60065 0.0304705 1.04779e-19)
(0.571894 -0.544227 1.69207e-19)
(-0.257099 -0.327786 -2.38007e-19)
(0.928245 -1.02554 0)
(0.325264 0.233357 -1.97786e-19)
(1.02562 -0.0209787 -2.81099e-19)
(-0.416516 0.238171 2.20406e-19)
(1.33083 0.44602 -1.80497e-19)
(-0.21277 -0.31744 -9.28543e-20)
(0.799551 -0.725717 3.11238e-20)
(0.7792 0.122874 -2.09754e-19)
(0.91952 0.369035 2.51488e-20)
(1.19499 -0.168087 2.90367e-20)
(0.65358 -0.326001 -2.69683e-19)
(2.15744 -0.187574 -2.88859e-19)
(1.25564 -0.336833 0)
(1.35143 -0.398068 7.06793e-20)
(0.739444 0.167738 -2.28056e-20)
(1.69932 0.532848 1.99593e-19)
(0.833368 0.346026 -7.04214e-20)
(0.526979 0.0605883 -4.26384e-20)
(0.351246 0.30715 -2.60004e-19)
(-0.0926768 0.65423 6.66599e-20)
(2.35486 0.468889 0)
(0.929064 0.00454449 0)
(0.978106 -0.862346 3.30711e-20)
(-0.116165 -0.312603 -6.5318e-19)
(-0.387225 0.963309 -1.41246e-19)
(-0.155706 -0.193076 -4.05313e-19)
(-0.182211 0.489899 -7.52668e-20)
(-0.114552 -0.280104 0)
(-0.154467 -0.210373 7.33753e-20)
(-0.394604 0.17703 -3.19197e-20)
(0.217435 -0.209019 -2.06084e-19)
(0.836659 -0.179713 0)
(1.55923 -0.912771 5.11277e-20)
(-0.272774 -0.344799 0)
(0.998466 0.0225796 3.49288e-19)
(0.116638 -0.229221 3.4099e-20)
(0.616324 -0.516373 3.40445e-19)
(-0.479632 0.394612 5.68528e-19)
(-0.618922 1.15767 0)
(-0.171619 0.296196 2.063e-20)
(1.00943 0.0177175 -1.04869e-20)
(0.0820445 -0.0743695 0)
(1.00397 -0.0113713 -5.51729e-20)
(0.949938 -0.804125 -2.07028e-19)
(2.03 -1.06248 0)
(0.985598 -0.327461 1.76657e-19)
(-0.0951445 0.495222 6.94079e-20)
(-0.0834524 -0.0873973 0)
(-0.0395529 -0.397738 -1.06521e-20)
(0.807051 -0.709977 -3.40394e-19)
(0.97698 -0.024455 -2.38729e-19)
(-0.0940414 -0.323928 7.93028e-19)
(-0.213814 -0.362701 2.82651e-19)
(-0.120955 -0.3569 0)
(0.900733 0.417052 0)
(0.0390278 -0.0797304 3.3764e-19)
(1.72722 0.727642 -9.39003e-20)
(0.992891 0.823974 2.54004e-20)
(1.03859 0.178718 -1.28707e-19)
(1.16783 0.000515095 -1.88504e-19)
(1.10211 -0.0755603 -6.05311e-20)
(-0.0881913 -0.346119 -7.15386e-19)
(1.96533 0.150147 5.45878e-20)
(0.630874 0.034543 2.25654e-19)
(1.26803 0.184723 4.86205e-20)
(1.09237 -0.165915 0)
(0.299313 1.22903 1.91949e-19)
(1.14732 0.0230236 -4.73427e-19)
(1.64633 0.580202 7.07793e-20)
(0.81404 -0.531534 -1.37274e-19)
(-0.114454 -0.121949 3.96313e-19)
(0.886699 -0.778015 2.76947e-19)
(1.1728 0.17757 8.7331e-20)
(1.00622 -0.00930246 2.44483e-19)
(0.116935 -0.32587 -3.02923e-19)
(1.01303 0.00205733 0)
(0.941305 -0.05148 7.38407e-20)
(-0.106462 -0.106968 0)
(1.01671 0.0088639 -1.41839e-19)
(0.0856996 0.651715 -5.75394e-19)
(1.63747 0.299079 8.21244e-20)
(-0.374737 -0.597001 2.38023e-19)
(1.47256 -0.0025998 5.35233e-20)
(1.01088 -0.0220166 5.10545e-20)
(1.33512 -0.108166 0)
(1.5724 -0.631435 -2.75309e-20)
(1.01283 0.0144872 -1.53749e-19)
(1.34715 0.734007 -1.3194e-19)
(1.29543 -0.0415188 0)
(2.10841 1.00807 -2.5555e-21)
(-0.0111533 -0.0335704 0)
(1.38812 0.0827273 0)
(-0.329491 -0.478383 0)
(1.17531 0.404302 0)
(1.69442 0.217795 -3.59911e-21)
(0.671285 0.547121 4.34729e-19)
(0.337154 -0.339978 -2.00175e-19)
(-0.203027 -0.426815 -6.64048e-19)
(-0.117161 -0.14027 0)
(1.63033 -0.876819 3.41358e-20)
(1.22065 0.494229 0)
(1.37154 0.276445 0)
(-0.368713 -0.465105 2.19124e-19)
(0.736496 0.648323 1.5171e-19)
(1.69868 0.0464204 0)
(-0.355832 -0.452889 1.47536e-19)
(0.870944 0.161428 1.92666e-19)
(1.72984 -0.807201 -5.82613e-20)
(1.15297 0.859195 6.72865e-20)
(1.04439 -0.935356 -1.8046e-21)
(0.489335 -0.214456 -4.74788e-20)
(0.721997 0.650607 1.58311e-19)
(1.09113 0.855715 0)
(2.39498 -0.522008 4.89268e-20)
(0.122129 0.932099 0)
(1.38518 -0.716992 1.71854e-20)
(0.973301 0.0796689 6.85391e-20)
(1.0053 -0.010407 0)
(-0.290376 1.14282 1.29703e-19)
(0.929098 -0.23217 4.23384e-20)
(0.699851 -0.493276 0)
(0.734778 -0.466685 1.85577e-19)
(1.16183 0.510356 -4.16721e-20)
(0.41413 0.38703 2.94496e-19)
(0.239088 -0.223592 2.56453e-20)
(-0.28424 -0.160627 2.73246e-20)
(0.788033 0.0543053 0)
(1.45775 -0.976739 3.10477e-20)
(1.02585 -0.0469569 3.95914e-19)
(1.42642 0.325 5.5833e-20)
(-0.377742 -0.471569 1.27195e-19)
(-0.468559 0.81142 0)
(1.29191 -0.252142 -8.60457e-20)
(-0.0862781 -0.0922443 -3.38145e-19)
(0.570074 0.94851 -2.87439e-20)
(-0.121599 0.0528127 -7.22613e-22)
(-0.182097 0.0880157 1.11846e-19)
(0.355559 0.469961 4.00156e-20)
(1.96203 0.225932 2.52037e-19)
(1.12154 0.421192 -3.51011e-19)
(0.817757 -0.0407955 0)
(1.70362 -0.141449 -1.17949e-20)
(1.50965 0.0918264 9.17426e-20)
(1.0065 -0.844751 9.54944e-20)
(1.3063 -1.08819 2.79755e-20)
(0.419552 0.386983 2.00104e-19)
(1.14588 0.767344 0)
(1.64828 0.544684 -3.2441e-20)
(-0.101311 -0.118261 -6.87966e-19)
(0.812005 0.705006 0)
(1.54289 -0.345753 0)
(0.340002 -0.339612 -4.71157e-21)
(0.256991 0.195737 0)
(-0.820032 0.945758 -4.08104e-19)
(0.27532 -0.242548 -6.9435e-20)
(2.0037 -0.350128 0)
(1.20644 0.0625858 3.31871e-19)
(-0.39002 0.906954 1.15648e-19)
(0.605637 -0.576831 -3.7401e-19)
(1.47007 0.0982183 -2.58949e-20)
(0.68915 -0.627375 0)
(0.967401 0.11177 0)
(1.62465 -0.205604 0)
(1.0728 0.193529 -2.55381e-19)
(1.30325 0.0970767 3.64707e-19)
(-0.538639 1.08064 0)
(0.905894 -0.0579377 0)
(1.91641 -0.206629 -1.53773e-21)
(0.057294 -0.247081 4.10671e-20)
(2.51753 -0.0456157 -1.12908e-19)
(1.3196 -0.597847 3.5273e-19)
(2.03593 0.0358994 -5.99284e-20)
(-0.527996 0.782926 -7.84794e-20)
(1.92361 0.175359 1.7543e-20)
(1.02271 -0.0378556 3.92422e-19)
(1.42317 0.560739 0)
(0.164328 -0.0802224 1.83687e-20)
(1.11078 -0.911637 1.00242e-19)
(0.866677 -0.0752601 4.58527e-20)
(0.70827 -0.514681 0)
(2.07829 -0.468344 1.9922e-20)
(1.26863 -0.214729 1.08747e-19)
(1.70647 -0.817103 0)
(0.686215 -0.637999 3.05093e-19)
(1.66855 -0.0855863 1.01762e-19)
(2.36758 0.0377776 2.12116e-19)
(0.126828 -0.259353 -1.00821e-19)
(1.24877 0.57141 2.05519e-19)
(1.08409 0.364185 4.22141e-21)
(0.853027 0.311762 2.37917e-19)
(1.37752 0.64248 -4.01385e-20)
(-0.0736074 -0.375057 -3.42857e-21)
(1.64403 0.480871 0)
(-0.117048 -0.106439 6.47022e-19)
(1.25094 -1.07744 0)
(1.16278 -0.714068 1.48103e-20)
(1.5021 1.05798 -3.60627e-19)
(1.44191 1.22893 1.07599e-19)
(-0.420963 -0.0910104 -5.68274e-19)
(0.923583 0.42948 1.95411e-19)
(-0.211437 -0.368636 1.97768e-19)
(0.683342 -0.0421531 0)
(1.75917 -0.140835 0)
(0.64213 -0.0122339 1.85925e-20)
(0.794302 -0.00652004 0)
(1.41834 -0.210158 -1.119e-19)
(-0.703964 0.90815 4.07096e-19)
(1.82889 0.469957 -8.60678e-20)
(1.02916 -0.0371012 0)
(0.622289 -0.444592 8.94566e-20)
(1.01072 0.0253025 1.87589e-19)
(0.10793 0.32939 2.57668e-20)
(-0.248748 0.634584 0)
(1.19047 -0.512405 3.52026e-19)
(1.36435 -0.241918 -2.43313e-23)
(1.18143 -0.549404 -1.5385e-19)
(2.21324 0.227539 -2.08002e-20)
(1.20659 0.730904 0)
(0.851394 0.0171469 0)
(-0.405982 -0.514333 -3.10909e-19)
(0.0109339 -0.0531058 4.94251e-20)
(0.898215 0.313805 -2.23363e-19)
(0.305987 -0.20596 -2.74137e-19)
(0.589384 0.32454 2.50726e-19)
(1.74799 0.911247 0)
(0.612211 -0.568737 0)
(0.399422 -0.671134 -1.01834e-20)
(1.32616 -0.545142 -6.47535e-20)
(1.09411 -0.0772958 2.75153e-20)
(0.753541 -0.237821 1.08345e-19)
(-0.0242191 -0.193012 -9.59329e-20)
(1.08279 0.322192 9.49123e-20)
(0.593269 0.550394 0)
(1.18966 0.642783 0)
(1.53944 0.240136 0)
(-0.287953 -0.34073 -2.75437e-19)
(1.14551 0.50726 6.54016e-20)
(1.4949 0.218791 2.52917e-20)
(0.89664 -0.00898084 0)
(1.2059 -0.151687 0)
(1.99456 -0.107014 -3.70736e-20)
(-0.194567 -0.179194 -2.35538e-20)
(1.00565 -0.00168061 -1.88972e-19)
(1.41601 0.44251 0)
(-0.131975 0.532591 0)
(1.17711 0.284368 3.36891e-19)
(0.958997 0.472813 -1.48569e-19)
(1.05707 0.0168432 0)
(1.35368 0.76106 0)
(1.85045 0.635949 -8.02929e-20)
(-0.0700477 -0.103008 -2.23904e-21)
(0.998563 0.00877046 0)
(0.645978 0.395156 -3.52838e-20)
(1.04905 -0.919456 0)
(1.00315 0.0124367 4.34913e-20)
(1.08671 -1.03022 -5.78706e-20)
(0.962339 -0.378255 2.55304e-19)
(0.688473 -1.15489 1.45946e-19)
(1.99652 0.12356 3.78683e-19)
(1.10468 -0.19548 -6.55921e-20)
(0.804707 -0.0183328 0)
(1.03361 0.00429623 0)
(-0.183382 0.283822 0)
(0.599006 0.57158 -2.1884e-19)
(0.0165945 -0.18844 6.55652e-20)
(1.11196 0.311934 -5.36017e-19)
(-0.0965007 0.152775 0)
(0.760524 0.575415 1.85181e-19)
(1.0702 -0.385181 0)
(1.00514 -0.00524919 1.10853e-19)
(0.663581 1.24867 1.96916e-20)
(0.97644 0.355494 2.89834e-19)
(1.09121 0.466473 0)
(2.03834 0.19973 -2.76301e-21)
(0.843177 -0.176687 -3.3517e-19)
(-0.760229 1.21028 -4.95866e-19)
(0.372677 0.77785 0)
(0.841513 0.184093 1.80102e-19)
(2.08297 0.434347 0)
(0.712462 0.450555 3.89507e-19)
(-0.862847 1.18142 1.75161e-19)
(0.106379 -0.242624 0)
(0.526426 0.497435 -7.7655e-20)
(1.11881 -0.704655 -1.05658e-19)
(0.544418 -0.364697 -1.10279e-19)
(1.02174 -0.0269771 0)
(-0.235096 0.778723 -6.56344e-20)
(0.714539 -0.64286 6.72457e-20)
(0.861954 0.23222 0)
(1.89663 -0.814424 8.38489e-20)
(0.906481 0.768552 3.00307e-20)
(0.801418 -0.935521 5.16556e-20)
(0.696314 -0.000596231 -5.11213e-19)
(0.266192 -0.245098 -5.15147e-19)
(-0.18157 -0.273809 1.75227e-20)
(0.761298 0.291742 2.60765e-19)
(0.198557 -0.180045 -2.96664e-21)
(1.53447 -0.685242 3.27001e-21)
(1.02774 -0.00429872 -3.24341e-19)
(-0.263681 -0.253337 0)
(1.01908 0.0170857 -4.01537e-19)
(1.35809 0.458508 3.33766e-20)
(0.818078 0.623823 3.1973e-19)
(1.15519 -0.0803091 1.42503e-19)
(1.013 -0.0476025 1.49933e-19)
(1.39047 1.21182 -9.81489e-20)
(-0.367909 -0.404997 -1.33874e-21)
(1.96411 -0.925968 2.07006e-20)
(1.19314 -0.136517 -5.32998e-20)
(0.846978 0.0450595 6.01469e-20)
(0.958479 -0.34344 7.78396e-20)
(1.38481 -0.209312 0)
(0.889531 0.668695 0)
(0.947763 1.01599 -2.34814e-20)
(1.93857 0.14619 1.99631e-20)
(-0.819879 0.794546 1.78519e-19)
(1.11085 -0.599595 -3.8593e-19)
(0.69203 -0.61033 3.29457e-19)
(1.00278 0.137485 1.35887e-20)
(0.404575 -0.0666904 3.16608e-20)
(0.937401 -0.386258 0)
(0.737702 0.0370773 -6.58572e-21)
(1.34588 -0.454405 -4.13123e-20)
(0.964999 0.69777 0)
(1.13266 -0.598472 0)
(0.541702 0.828917 0)
(-0.237377 -0.341026 -1.10897e-19)
(-0.105473 0.183485 0)
(0.137041 0.373757 -1.25992e-19)
(1.17233 0.161954 7.12916e-21)
(-0.452688 0.732394 2.12739e-19)
(0.942156 -0.734981 -3.68098e-20)
(1.70978 0.436397 3.74327e-20)
(2.12219 -0.143119 -4.81916e-20)
(-0.157846 0.027326 -7.38532e-20)
(-0.0292995 -0.384411 7.93532e-21)
(1.32059 -0.13843 0)
(0.66663 -0.0362641 0)
(1.00075 -0.0030428 2.66163e-22)
(-0.283733 -0.307337 0)
(1.3159 0.0797198 -1.33364e-19)
(0.66872 -0.0325303 0)
(1.0785 -0.0075811 1.14718e-19)
(0.989695 0.0122553 -4.26568e-20)
(1.12575 0.578963 9.48233e-20)
(1.0493 -0.0250699 -9.16054e-22)
(0.990449 -0.235894 -4.783e-20)
(1.03422 -0.0482611 3.43646e-19)
(0.749699 -0.687749 1.49272e-19)
(0.165782 0.233445 -2.6402e-19)
(1.64292 -0.489849 -2.68907e-20)
(0.0111471 -0.0860738 0)
(1.04681 0.731142 0)
(1.04005 -0.0244632 0)
(1.09656 -0.847207 -6.66325e-20)
(1.17457 -0.994497 -3.01414e-20)
(2.48759 0.13648 -5.82309e-21)
(-0.130044 1.4864 -3.65513e-19)
(0.344165 -0.541324 -4.51353e-20)
(0.658639 -0.477661 -5.54542e-19)
(1.49986 -0.509688 1.23685e-19)
(0.547986 -0.795825 2.89809e-19)
(2.22119 -0.0868211 1.8529e-19)
(1.93827 0.0531956 8.17302e-20)
(-0.322202 -0.430342 -2.26609e-19)
(1.04477 0.498229 2.34918e-19)
(-0.111486 -0.353166 0)
(0.293337 -0.173003 6.54342e-19)
(-0.1589 -0.200038 -3.19159e-22)
(1.02202 -0.0479258 3.22783e-19)
(1.02944 -0.0106496 -8.05746e-21)
(1.09992 -0.0137124 -8.88031e-20)
(1.54695 1.10039 -1.52127e-19)
(1.54435 0.293644 1.02056e-19)
(0.464779 -0.439717 -2.69733e-19)
(2.04176 0.470428 -6.31866e-21)
(1.04503 -0.0118056 -2.26892e-19)
(2.31482 -0.298679 2.76907e-20)
(1.89806 1.19523 0)
(1.03849 0.537291 -4.43378e-19)
(1.00269 -0.00804244 9.03299e-20)
(0.605959 0.534107 2.78932e-19)
(0.260732 -0.503922 2.48276e-21)
(1.05013 -0.0200319 -3.01379e-20)
(1.11246 0.00969287 8.46185e-22)
(2.37286 0.105987 5.07397e-21)
(2.00015 -0.168521 0)
(1.03957 -0.0425566 0)
(1.04788 -0.0365724 5.60342e-19)
(1.00252 -0.0051407 0)
(-0.137536 -0.172571 0)
(1.1688 -0.703649 0)
(1.00063 -0.00344595 -5.25271e-19)
(1.26007 -0.742824 4.55992e-20)
(1.02763 -0.00873334 1.08979e-20)
(1.25058 0.889282 -5.5012e-20)
(1.42307 0.935004 2.08204e-19)
(0.282766 -0.598818 6.41765e-20)
(0.97954 0.746526 -7.66985e-21)
(1.0055 -0.131512 0)
(-0.277388 0.138739 0)
(1.69321 0.679503 2.31079e-19)
(1.52066 -1.12462 0)
(0.999383 -0.00654838 -1.63642e-19)
(1.01082 -0.00157796 3.17659e-19)
(1.39596 0.131989 -8.18922e-20)
(0.0399071 -0.110009 4.99513e-19)
(0.971153 -0.00015013 1.74745e-19)
(1.79634 0.165088 -7.27992e-20)
(0.65003 0.130975 2.95415e-20)
(1.715 1.30154 -1.20913e-21)
(0.937311 0.0156225 -1.7004e-19)
(1.00379 0.00241666 2.03264e-19)
(1.00051 -0.00187573 1.20591e-20)
(0.788291 -0.0138208 0)
(0.722578 -0.0273378 0)
(0.716263 -0.0278938 3.28103e-22)
(0.69055 -0.0304451 0)
(-0.152095 -0.0772804 0)
(0.312477 -0.0163671 0)
(0.696733 -0.0754249 -8.32923e-20)
(0.791624 0.20005 4.04445e-20)
(0.67308 1.01128 0)
(0.896492 1.2341 -5.87124e-20)
(1.36629 0.913972 0)
(1.04918 0.309213 0)
(1.60588 0.366795 0)
(1.95705 0.0758707 1.04718e-20)
(1.73819 -0.194086 -1.7817e-19)
(0.783323 0.0238285 0)
(0.790014 0.0202115 0)
(0.97264 0.0185234 -2.10149e-19)
(0.815201 0.00780738 3.95049e-19)
(1.00843 -0.00134393 0)
(1.00004 -0.0010261 3.766e-19)
(1.00038 -0.00118411 -5.28946e-22)
(0.790375 0.0224443 3.33119e-19)
(0.992207 -0.00666014 -2.00223e-19)
(1.05727 0.418239 0)
(0.540944 0.0034181 -2.95706e-20)
(1.00077 -0.00274273 -1.91224e-19)
(0.999594 -0.000985057 -3.26656e-19)
(1.56363 0.686876 0)
(0.999043 0.000963417 0)
(0.99959 -0.000409213 0)
(0.500927 -0.284611 -1.64724e-20)
(0.548838 -0.0124461 -1.23978e-19)
(1.91082 0.00257816 0)
(0.194484 -0.24955 1.54747e-19)
(-0.321704 1.2823 -1.30104e-19)
(1.01703 -0.0221265 -2.55076e-19)
(-0.260532 -0.475559 -1.95891e-19)
(1.02135 -0.00561371 -2.03483e-19)
(1.23225 -0.231812 -6.11183e-20)
(0.869376 -0.543622 2.52176e-19)
(-0.140053 -0.1724 -1.65143e-19)
(1.03507 0.00526338 0)
(1.03609 -0.0179175 -5.87968e-20)
(0.871831 0.0148362 0)
(-0.0764106 -0.0889907 8.89825e-20)
(1.29515 -1.16672 0)
(-0.336612 -0.412987 -4.74586e-19)
(2.05176 0.167018 5.6994e-20)
(1.55299 0.640529 -1.6105e-19)
(-0.0817663 0.00656887 0)
(1.05028 -0.0397633 1.73456e-19)
(0.353483 -0.120217 -1.06825e-20)
(0.925986 -0.0519409 2.70281e-19)
(1.00991 -0.0142248 -1.7448e-19)
(1.56628 0.807133 -4.44243e-20)
(0.457947 0.423587 0)
(0.377022 0.307047 2.07743e-19)
(0.85231 0.121531 6.70013e-22)
(1.10299 0.105914 2.12142e-19)
(1.18542 -0.778617 0)
(1.02053 -0.00435556 0)
(0.999068 -0.0213883 -4.02083e-19)
(1.02053 0.0104277 -3.85847e-19)
(-0.185111 -0.315394 0)
(1.1391 0.7595 -1.86743e-19)
(0.201329 -0.0864399 -2.64382e-21)
(1.01494 -0.00252908 1.50136e-19)
(1.01287 0.00937489 -1.86559e-19)
(-0.372118 -0.398811 -4.51943e-20)
(0.526698 -0.073538 3.30834e-19)
(1.01554 -0.0196268 6.42801e-19)
(0.242853 -0.125228 0)
(1.74538 0.608636 5.14495e-20)
(1.01423 -0.0176159 -1.99356e-19)
(1.28297 0.095207 -4.7962e-20)
(1.05009 0.00156976 -4.70214e-22)
(1.00724 -0.0138456 4.00478e-20)
(2.05075 0.255855 -3.15293e-19)
(1.01855 0.00253293 1.91553e-19)
(0.875525 -0.527217 3.98341e-21)
(1.01945 -0.00428951 0)
(0.905526 0.105023 5.04522e-20)
(-1.00777 1.40047 4.26804e-21)
(1.00268 0.0203881 1.89584e-19)
(1.04187 0.0197613 -7.56568e-22)
(0.221782 -0.166168 2.81266e-20)
(1.1932 0.28956 5.02461e-19)
(1.00076 0.0112685 1.30025e-19)
(1.01494 -0.0193786 2.9512e-22)
(1.65501 0.246666 -5.43284e-20)
(1.63041 0.866661 -4.40639e-20)
(0.865641 -0.775047 3.88554e-20)
(0.522768 -0.432349 -2.71847e-19)
(1.0053 -0.0146722 0)
(1.02389 -0.00188667 4.7602e-20)
(1.0106 -0.0144548 1.01452e-19)
(0.901318 0.145166 -8.52047e-21)
(1.01656 -0.000688164 -1.99672e-19)
(1.03755 -0.0352242 2.24943e-19)
(1.00676 -0.0133412 -1.89843e-19)
(1.01383 -0.000537686 -4.31467e-22)
(1.01202 -0.00354569 -2.39875e-22)
(1.02825 0.00782912 1.90624e-19)
(0.886299 0.0316561 5.02342e-19)
(0.318411 -0.390037 0)
(0.801515 1.24989 1.59434e-19)
(1.01312 -0.00948416 0)
(1.0175 -0.0259089 -5.59231e-20)
(1.44634 0.413399 -1.45039e-19)
(0.892766 0.125991 0)
(2.06784 -0.700613 -3.56532e-20)
(0.413489 -0.19149 1.91407e-20)
(0.73464 -0.0199421 0)
(1.92481 0.589203 0)
(-0.0549976 -0.262968 -3.66343e-21)
(1.11304 1.23487 9.7674e-20)
(1.01765 -0.0112839 -2.0216e-19)
(1.20654 -0.615675 -4.23002e-20)
(0.557384 0.602965 1.26548e-19)
(0.544838 -1.19175 0)
(0.736203 -0.135981 0)
(0.920889 -0.30132 0)
(-0.308176 0.106215 -2.12959e-21)
(0.947526 0.00045956 -3.98083e-19)
(0.0108662 -0.72443 0)
(-0.130727 0.653562 -7.82035e-20)
(1.59129 0.903556 6.52969e-20)
(1.00904 -0.00854423 -3.93746e-19)
(0.906035 0.717929 -1.13422e-19)
(1.023 -0.0021376 2.60372e-19)
(0.6763 -0.0443648 0)
(-0.165515 -0.280867 -5.12434e-20)
(0.553595 0.349599 -3.54426e-19)
(0.475459 -0.428015 -9.92964e-20)
(-0.164336 0.430753 0)
(0.838557 0.0779777 5.93637e-20)
(0.458423 0.434014 5.54837e-20)
(1.10471 0.819044 -5.24465e-20)
(-0.101513 -0.104735 2.50881e-19)
(1.01696 -0.000903156 0)
(0.803859 -0.683655 -1.8239e-19)
(1.01213 -0.00851836 1.48386e-19)
(2.24729 0.203976 0)
(1.01417 0.00144831 2.47929e-19)
(0.374864 -0.0441779 -3.11062e-19)
(1.01849 0.00354706 -1.53998e-19)
(1.52049 -0.156705 0)
(1.85323 -0.582386 2.63165e-23)
(1.0097 -0.00213192 -1.03097e-19)
(0.995924 -0.0563087 2.72126e-19)
(1.0545 0.0743513 -5.44252e-22)
(0.854525 -1.23048 1.25871e-19)
(-0.0983759 -0.169299 6.61242e-19)
(1.82562 0.201555 -1.34568e-20)
(0.485089 -1.33674 -1.36895e-19)
(0.801688 0.0146701 -3.6978e-19)
(0.775147 0.0259444 0)
(0.554267 -0.77665 -1.2893e-19)
(1.01647 -0.0255493 -3.01141e-20)
(0.972963 -0.00320307 0)
(1.04247 -0.00336307 -1.93519e-19)
(0.902467 -1.47647 6.911e-20)
(-0.835794 1.12583 2.41652e-19)
(2.36912 -0.472671 0)
(-0.311334 1.1033 -6.31017e-19)
(1.60114 -0.346498 0)
(1.0364 -0.0215393 5.63478e-20)
(1.77128 0.975683 2.45699e-21)
(1.01624 -0.0091107 1.59685e-19)
(-0.593871 1.0518 2.94559e-19)
(1.01746 -0.00447979 0)
(0.994097 0.00350509 -3.89059e-19)
(1.01021 0.00219618 2.03342e-19)
(0.797159 0.697133 0)
(1.10835 0.214611 -1.40184e-20)
(0.955714 -0.00170159 -1.73617e-19)
(-0.175329 -0.448385 7.00098e-19)
(1.00467 -0.00618155 -1.98431e-19)
(1.00182 0.00584178 -4.66317e-19)
(1.7911 -0.595544 1.72807e-20)