/*--------------------------------*- C++ -*----------------------------------*\
| =========                 |                                                 |
| \\      /  F ield         | OpenFOAM: The Open Source CFD Toolbox           |
|  \\    /   O peration     | Version:  2306                                  |
|   \\  /    A nd           | Website:  www.openfoam.com                      |
|    \\/     M anipulation  |                                                 |
\*---------------------------------------------------------------------------*/
FoamFile
{
    version     2.0;
    format      ascii;
    arch        "LSB;label=32;scalar=64";
    class       volScalarField;
    location    "0.1";
    object      p;
}
// * * * * * * * * * * * * * * * * * * * * * * * * * * * * * * * * * * * * * //

dimensions      [0 2 -2 0 0 0 0];

internalField   nonuniform List<scalar> 
2186
(
0.651755
-1.54683
-1.00505
0.662383
-0.361955
0.0619324
0.256238
-0.43086
-0.299996
0.933204
0.687484
-1.19051
-0.403039
0.738098
-1.29852
0.858652
0.870309
-0.396759
0.141503
-1.03802
0.994203
-1.32046
0.697006
-1.41013
0.950903
0.662922
0.736658
0.526161
0.061393
0.785807
-1.23909
0.771834
-0.818475
-0.120707
-0.903935
-0.651696
-0.0981538
0.989047
-0.48955
0.140797
-0.390328
-1.21026
-1.82372
-1.06067
0.27883
0.909551
-0.222935
-0.0459143
-0.213956
-0.453056
-1.10811
0.519583
-1.28085
0.902982
-0.85271
0.53899
-2.18218
0.586962
-0.358589
0.551904
-0.160258
0.0673179
0.0902776
0.0575434
0.0158724
-0.126918
0.125206
0.83481
0.681619
-0.328262
-0.425161
-0.20361
0.789089
0.591485
0.617554
0.806617
-0.17682
0.882991
-0.838123
-0.698619
-0.491244
0.04154
0.785223
0.0915583
0.86255
0.904585
0.868433
0.0370648
-0.0653512
-1.67978
0.536255
-0.677399
0.69582
0.790691
0.753902
-0.130935
-1.1998
-0.00408495
-0.374507
0.589231
-0.344531
-0.444559
0.0386696
0.664889
0.871934
-0.677709
0.814108
-0.368377
0.483684
-0.324995
-0.770254
-0.502676
0.095596
0.904225
-0.44503
-0.278289
-0.0928775
-0.356174
-1.56767
0.862009
-0.932599
-0.452238
0.430657
-0.334763
0.586785
-0.350256
-0.397599
0.73897
-0.373881
0.252093
1.02868
0.89112
-0.505401
0.144149
-0.401336
-0.477137
0.530918
-0.328561
-0.453874
-0.697378
0.466504
-0.847386
-0.470712
0.232516
0.358546
0.684344
-0.359026
-0.360148
0.175472
-1.02824
-0.477422
0.0643069
0.712386
0.792815
0.638236
-0.0866736
0.868295
-0.0457411
-0.0363086
-0.0897297
-0.75679
-0.320106
0.466288
0.535888
0.0728139
0.0956134
-1.2757
-1.12434
-0.162001
-0.177894
-0.233442
0.618439
0.761904
0.693707
-0.222732
-0.283402
-0.327559
0.529856
-0.300266
0.319178
-1.04757
0.685348
-0.916724
-0.0596688
0.0384363
-0.31339
-0.253025
0.753534
-0.442305
-0.365744
-0.305409
0.763943
-0.290799
0.584782
-0.833201
-0.301796
-0.680394
0.722535
0.719651
-1.73544
-0.446015
-0.186853
-0.558955
0.615572
-1.726
-0.41134
-1.34704
-0.161258
0.447617
-0.120766
0.0796957
0.0851109
0.884382
0.42506
0.583022
0.571885
0.781105
1.02594
0.447047
0.671691
0.0224347
-0.275896
-0.727502
-0.580131
-0.478379
-0.451705
-0.377654
0.667236
0.708861
-0.853133
-1.16501
-0.301889
-0.238473
0.131764
0.929979
0.493537
0.792535
-0.378202
0.411494
-0.588111
-0.429158
-0.265506
0.582715
0.29443
0.75449
0.715717
0.687469
0.734997
-0.482667
0.427122
0.563082
-0.416073
0.592499
0.386878
-0.327196
-0.741975
-0.709492
0.768108
0.80797
-0.370676
-0.186612
-0.139039
0.581611
-0.305595
0.144723
0.591108
0.454734
-0.636596
-0.896306
1.00933
0.0619039
-0.346127
-0.263273
0.943653
-0.413994
-0.463375
0.769303
0.828377
0.914145
-0.362257
-0.160681
-0.431505
0.159623
-0.394188
0.0218095
0.812672
0.584531
-0.704153
-0.481786
0.413502
-0.538256
0.524471
0.84499
0.631812
0.779926
-0.0699116
-0.529241
-5.31397
-0.141873
-0.303464
-0.141489
-0.14534
-0.842149
0.134584
0.836754
0.830731
0.378566
-0.372489
0.624661
-0.44181
0.0479411
-0.388998
-0.776206
-0.332848
-0.318291
-0.462207
-0.637407
-0.502216
0.336267
-0.144023
-0.158927
-0.508171
-0.10138
-0.318179
-0.481105
0.74655
-1.10744
-0.0987567
-0.68482
0.339593
-0.00416419
-0.232957
0.208211
-0.176796
-0.339047
0.221745
0.636011
0.660238
-0.295308
0.647707
0.533586
-0.233052
0.915614
0.746772
0.951675
-0.0415146
-0.179658
-0.660629
0.319038
-4.29244
-0.725349
-0.423571
-0.262043
-1.40495
0.966964
-0.0557438
-1.10193
-0.437476
0.845264
-0.326775
-0.342629
-0.525421
0.332361
-0.173034
-0.32584
0.796535
0.89345
0.77175
-0.440811
-0.291441
1.00926
0.960596
-0.305877
-0.0819481
-0.570145
-0.583151
0.683749
0.5011
0.647846
0.917349
-0.552554
-0.199791
-0.136917
-0.157282
-0.361358
-1.12934
-0.135768
0.936512
-0.39974
-0.271769
0.639318
0.160769
-0.690326
-0.343266
-0.630669
-0.375058
-0.322744
-0.848982
-0.581587
-0.404669
0.757733
-0.155471
-0.297395
0.689441
-0.359789
0.91154
-0.344012
-0.260301
-0.498317
0.762829
-1.0007
0.817574
0.471496
-0.241867
0.603061
-0.420318
-1.04625
-0.454509
0.64033
0.971176
-0.626178
-0.543686
-0.339977
0.46305
-0.322866
-0.122145
0.0125747
0.164256
0.576127
0.674243
-0.573622
-0.115561
0.121524
-0.0382938
0.527206
-0.256325
0.712097
-0.591056
0.744661
-1.45
0.493731
0.0725121
0.850512
-0.473287
0.474718
-0.162341
-1.07032
0.732738
-0.257181
-0.10381
-0.255079
-0.418025
0.599559
-0.324191
-0.238965
0.425657
-0.52289
-0.224757
0.0261733
-1.13579
-0.177328
-0.362966
0.139555
-0.492925
0.691898
0.806417
-0.466689
-0.851989
-0.162024
-1.52066
-0.130644
-0.303725
0.453609
-0.234695
-0.392055
0.531288
-0.157626
-0.23041
-0.289465
-0.225495
0.440384
-0.241173
-0.156964
-0.26885
-0.165902
-0.911543
0.873783
-0.287549
0.663371
0.840254
0.829894
0.00874864
0.825595
-0.400751
-0.744028
0.714952
-0.524816
0.598131
-0.924127
-0.370252
-0.31577
0.532452
-0.988355
-0.223195
-2.16142
-2.74083
-0.0578029
-0.219575
0.104278
0.22546
-0.347669
-0.420668
0.28072
-0.768052
0.794805
-0.254888
-0.602668
-0.970164
0.345869
-0.10474
0.842392
1.02786
-0.313645
-0.396705
-1.0394
0.0208324
-0.355244
0.669064
-0.342046
0.621288
0.255992
-0.821951
0.314311
0.299865
-0.367726
0.695248
-0.108768
-0.750635
-0.125546
-3.86625
-0.0893707
-0.365211
-0.311802
0.754292
-0.387042
-0.426732
0.0955812
0.684176
0.82104
-0.766878
0.569192
-0.156478
0.380026
-0.232592
-0.125693
-0.63394
-0.10344
0.218685
0.577596
-0.157435
-0.541201
-0.342594
-1.87322
-1.32432
0.245315
-0.175602
-0.0127953
-0.331585
0.408429
-0.191998
0.433846
-0.184843
-0.157372
0.971282
0.331903
-0.384598
-0.547377
0.493334
0.915899
0.7365
-0.255673
-0.434529
0.423322
-0.166033
0.404604
-0.401619
-0.103059
0.485878
-0.344346
-1.04765
0.52657
-0.390266
0.841171
-0.079998
0.500816
-0.175385
0.204926
-0.594159
0.821044
-0.856476
-0.283243
0.583494
0.0130501
0.0137202
-0.333298
-4.34356
-0.282143
0.0613768
-0.21389
-0.234375
-0.263802
0.86436
-0.139977
-0.419729
0.164524
0.428693
0.558844
-0.208177
-1.71241
-0.629339
0.72176
0.760967
0.0460368
0.707763
-0.349633
0.580652
-0.122898
-0.193486
-0.24584
0.812882
0.796187
-0.308079
0.482671
-0.874504
0.193204
-0.316537
0.589324
0.546385
0.889136
-0.246214
0.390091
-0.32214
-0.348166
0.678662
-0.359783
-0.260865
0.615852
-0.233269
0.675443
-0.325287
-0.761688
0.694897
0.295994
0.997514
0.77134
-0.378265
0.725059
0.579916
-0.102807
0.189212
-0.097003
-0.570816
1.14039
-0.657412
0.679329
-0.488879
-0.18772
0.667968
-0.329685
0.5467
-0.168479
0.548559
0.754799
0.653016
-0.291138
-0.343066
-2.36403
0.27828
0.653292
0.617725
-0.184487
0.423297
-0.246252
-0.392694
-0.330627
0.473491
0.800428
-0.46799
-0.408811
-0.167353
0.752005
-0.196466
0.290055
-0.17527
-0.360517
-0.499622
-1.37688
-0.281261
0.171148
-0.275003
-0.353907
-0.69223
-0.546781
-2.29596
-0.426536
-0.187564
0.525634
0.912227
-0.32657
-0.449641
0.605334
0.814168
0.737058
-0.304596
0.578356
0.643373
0.758494
0.69323
-0.3311
-0.159311
-1.0323
0.146146
0.712324
0.317276
-0.629174
-0.127521
-0.358222
-0.0270399
0.884243
-0.271415
-0.207007
-0.446633
-0.159888
-0.40897
0.25785
-0.815211
-0.335272
-0.914937
0.677025
0.690585
0.624621
-0.021501
-0.10695
0.908218
-0.186899
0.783987
-0.141085
-0.0112562
0.257266
0.745342
0.72836
0.047372
0.546913
0.546685
-0.312305
-0.155536
0.763937
0.794854
0.764482
-0.861241
-6.47837
0.741614
0.108431
0.778809
-0.375128
-1.32986
-0.151628
-0.23075
-0.183772
-0.605406
-0.185778
-0.157699
0.222166
1.36353
0.153858
-4.07023
0.679295
-0.0803176
-0.00405572
-0.00274765
0.749589
0.452102
0.405506
0.950144
0.715823
0.705014
0.672158
-0.191775
0.0198908
-0.0259991
0.0295764
0.0449498
-0.00954611
0.0440631
-0.109574
-0.119798
-0.13215
-0.171362
0.726934
0.719737
0.720684
0.91407
1.15673
1.18811
1.22597
0.695872
0.69219
-0.105561
0.0229262
0.339446
0.224902
0.0195312
1.22347
1.15607
-0.00190836
-0.208
-0.162773
-0.326739
-0.23353
0.839564
-0.384283
0.849294
0.426196
0.664102
-0.669704
0.79382
0.435843
0.822705
-1.03331
-0.168792
-0.329277
-0.150437
-0.723038
-1.44809
0.740063
-0.112768
0.638231
0.791581
-1.16255
0.83588
0.951024
-0.0219315
0.39
0.211925
0.752869
0.701328
0.773052
-0.622207
-0.0567956
-0.0506965
0.878221
0.804001
-0.298972
-0.184688
0.804228
0.00426082
-0.878486
0.843209
-0.104716
0.59411
0.77077
-0.169347
0.750519
-0.232576
0.78892
0.508343
-0.334665
0.716471
0.776235
-0.0523118
0.108037
0.745965
0.806912
-0.0812367
-2.99475
0.33803
1.01292
0.82158
0.7584
0.85855
-0.209927
0.815365
0.791185
0.899921
0.830468
0.829876
0.773009
0.51163
-0.32683
-0.241394
0.793845
0.807861
-0.170702
-0.0585917
-0.142496
-0.30446
0.105305
-0.224337
-0.270515
0.00872101
0.813972
0.205472
-0.0678725
-0.273053
-0.124728
-0.344218
-0.525432
-0.225791
-0.250732
-0.454693
-1.73339
0.794575
-0.258179
0.836761
0.32397
-0.715612
0.848198
-0.341013
-0.456615
0.808926
0.807178
-0.0608054
-1.2043
0.586933
-0.230122
0.82096
-0.364958
0.808181
-0.344093
0.821125
-0.204022
-0.143527
0.834503
0.605793
0.369236
-0.249588
-1.61346
-0.6243
-0.251803
0.742202
0.389092
-0.218444
0.718609
0.582036
0.677492
-0.246937
-0.367249
-0.947906
-0.387068
-0.0630087
0.912248
0.0364822
0.783755
-0.329673
0.819624
1.21048
0.80626
-0.0229158
-0.00474993
1.12877
-0.420892
0.840463
0.588669
-0.627446
-0.424277
0.536768
0.683459
0.84173
0.813321
-0.260862
-0.252419
0.867354
-0.133626
0.801958
0.433215
-0.305529
-0.502717
0.118666
0.823966
0.647979
-0.151579
-0.301243
-0.232952
-0.328649
-0.264353
0.944473
-0.082819
0.591844
-0.341583
-0.773643
-0.390312
-0.0579837
-0.498613
-0.326718
-0.270254
0.808775
-1.08088
0.561737
-0.609319
-1.42135
-0.243346
-0.125894
-0.271458
0.555051
-0.183936
-0.6648
-0.263158
-0.411937
0.865512
-0.263736
-0.0497269
-0.338075
0.613561
-0.354658
-0.631109
0.629845
0.90848
0.920156
0.198352
-0.827444
0.587843
0.516005
-0.262627
-0.506945
0.841656
0.383907
0.849195
0.777225
-0.125676
-0.262496
-0.471084
-0.308553
-0.300306
-0.98213
-0.21945
-0.410356
0.40333
-1.04963
0.635321
0.777152
0.765009
-1.80327
-0.407298
0.757762
-0.26907
-0.264534
0.870376
-0.339022
-0.29526
-0.322884
-0.284533
0.311635
0.302162
-0.283595
0.669473
0.200029
-0.298913
0.817401
-0.304534
0.224014
-0.681738
0.586097
-0.313037
-0.0672692
0.700464
0.764105
-0.318808
-0.329705
0.154517
0.961844
0.869085
0.620153
-0.262905
0.919759
-0.614117
-0.117824
-1.56294
-0.0758832
-0.336552
0.607478
0.763253
-0.572096
-0.260422
0.661774
-0.315524
0.446963
0.308699
0.327311
-0.309081
0.653937
0.0375501
0.459225
0.030005
-0.27168
-1.20694
0.623661
0.0828358
-0.810083
-0.302197
0.651194
-0.275061
0.791894
-0.410337
0.937932
0.64716
-0.296051
0.770899
-0.667623
0.441245
0.559325
-0.0866188
-0.280661
0.715464
0.656108
0.83412
0.476965
-0.286166
0.374399
0.81276
0.301245
0.610869
-0.456303
-0.348859
-0.282257
0.654538
-0.192646
-0.230701
-0.829143
-0.244754
-0.302097
-0.0728987
0.504002
-0.284827
0.758812
0.684245
-0.450607
-0.446573
-0.300555
-0.173153
-0.37887
-0.671656
0.586903
-0.345008
0.556444
0.835921
0.643693
-0.3837
0.695306
0.412072
-0.149005
0.782929
0.602563
-0.309689
0.579798
0.556221
-0.095837
-0.254853
1.09048
-0.35178
-0.314591
-0.373583
-0.430332
0.79738
-0.322372
-0.268655
-1.38476
0.644834
-0.254666
0.479549
0.514022
0.849387
-0.0610349
0.655919
-0.333259
0.716439
0.904043
-0.538741
0.626997
0.038173
0.827722
0.361493
-0.369393
-0.0377189
-0.0294632
-0.250768
0.826806
-0.0703114
0.479379
1.01053
-0.242381
-0.0617264
1.21666
-0.104874
0.807743
-0.0622896
-0.141455
0.835806
1.22948
-0.0684065
-0.29558
0.357302
-0.783852
-0.498265
-1.48467
0.541088
0.750571
1.07826
-1.19035
-0.261734
0.388892
-0.30922
0.536695
0.481331
0.738362
0.656851
0.95404
-0.335891
-0.84059
-0.334674
0.228297
0.276315
-0.32047
-0.620018
-0.578148
0.771657
0.735365
-0.341176
-0.418651
0.549339
-0.240658
-0.189695
0.479604
0.562453
-0.394068
-0.340388
-0.235407
-0.330052
-0.867141
-0.187796
-0.29399
1.05226
1.01643
-0.320653
-0.31276
0.93584
0.894109
-0.312941
-0.505035
-2.13406
0.19971
0.563633
-0.352849
0.690252
-0.28393
-0.371883
-0.334563
-0.304723
-3.05809
0.794553
-0.336131
-0.342468
0.966224
-0.358488
0.935397
0.810672
-0.58921
0.692793
0.947824
-0.382916
0.923803
-0.384098
-0.366096
0.499178
-0.271606
0.672255
0.760986
-0.402336
0.672755
-0.510342
-0.384124
0.543694
0.674767
-3.61774
-0.351578
0.281778
1.0093
-0.502062
-0.334686
0.954916
-0.435092
0.270223
-0.349735
0.794127
-0.902317
-0.422897
-0.589906
-0.360744
0.788455
0.69267
0.982798
0.888817
0.668913
0.565025
0.745861
-0.650295
0.840036
0.822728
-0.425575
-0.466148
-0.317834
0.980782
-0.327224
-0.378585
-0.12164
0.63066
-0.413725
-0.299091
0.703278
0.669151
-0.542079
-0.577876
-0.404635
-0.0995044
-0.380086
-0.397913
-0.711896
0.611098
0.567122
-0.734135
-0.77214
-2.32281
0.572706
-0.391716
-0.341744
-0.79266
0.59477
-0.301919
-0.525269
1.01859
0.743845
-0.194691
0.85861
-0.329402
0.622406
0.551844
0.681973
0.88593
-0.370529
0.344736
0.608958
-0.359384
-0.880138
1.0494
0.713149
0.505048
0.668675
-0.47314
-0.294021
0.511213
0.216546
0.841297
-0.314075
-0.379829
0.688849
-0.653441
0.526666
-0.278389
1.07984
-0.968222
0.416468
0.406782
-0.927681
-1.04256
-0.502238
0.646248
-0.864306
-0.970566
0.288393
0.25186
-0.333488
0.54553
0.461675
-0.794878
-0.282594
0.309561
-0.322456
-1.11312
-0.41439
-1.24551
-0.177249
0.323187
0.769232
-0.186144
0.221312
0.635146
0.935926
-0.382744
-0.193358
-0.423547
0.541244
-2.04771
-1.01392
-0.226751
-0.702697
-1.10025
0.618277
-0.793527
-0.406416
-1.24787
0.169206
0.100064
-1.20159
0.156373
-0.195141
0.0359154
-1.36098
0.0655077
-1.02049
-0.0602462
-1.59241
-0.0495486
-1.56921
0.435182
-0.287964
-1.83607
-2.19172
-0.764941
0.836314
-0.713279
-2.76935
-2.78575
-0.705965
-0.107206
-0.826336
-0.725972
-3.92069
-1.0782
-3.98153
-1.13742
-5.55281
-1.8087
-6.14914
-1.73186
0.245426
0.0838027
-0.30215
0.359778
-0.250255
-0.0968367
0.022416
1.02919
-0.419991
-0.332868
-2.20644
-0.389781
0.625109
1.04115
-0.105482
-0.382613
-0.74086
-0.331156
-0.390667
-1.14935
0.312998
-0.284727
0.983521
-0.343917
1.1515
0.180046
1.09456
-0.626195
0.862045
-0.898282
0.568313
-0.243888
-1.85848
0.769484
0.74699
-0.374271
-1.09883
-2.01914
0.360878
-0.551516
0.591135
-0.378306
-0.455237
-0.573167
0.888407
0.431609
0.76732
0.403511
0.742265
-0.31768
-0.385611
0.867257
-0.2857
-0.287773
1.05056
-0.567502
0.177995
0.565825
0.981813
1.06261
-0.54038
-0.310261
0.785859
-0.118239
-2.10795
-1.65233
-0.297472
-0.130058
-0.57388
0.297233
-0.353093
0.865563
-0.159854
0.630516
0.652333
0.482065
-0.376146
-0.677019
-0.297267
0.653375
-0.267587
0.864613
-0.834949
-0.297286
0.879861
0.972364
-1.11136
-0.65635
0.944716
-0.313658
-0.315827
0.241882
0.920623
0.811478
-0.387911
0.239979
0.354966
-1.17288
0.820773
-0.278664
-0.678061
-0.316517
0.0231725
0.0642776
0.723518
-0.245827
-0.285933
-0.103592
-0.0950656
-0.250609
-0.74388
0.422748
-0.378297
0.407624
-0.330776
-0.878508
0.303667
-0.0982639
-1.05461
-3.53123
-9.20923
-0.307223
-0.090241
-0.253807
0.525391
-0.279185
-0.268346
0.489472
-0.298855
-0.411356
0.776806
-0.455773
0.566139
-0.0208148
-0.602529
-0.639032
0.412533
-0.611603
-0.346822
0.524861
-0.479686
0.691158
-3.2808
-0.275176
-0.327629
-1.29321
1.16034
-0.332973
0.720539
-0.209149
1.01007
0.704727
0.34733
0.651847
0.813149
-0.171156
-0.345463
0.94493
0.650478
0.984427
-0.346094
0.489436
0.196957
-0.373143
0.42391
0.893315
-2.1846
0.989816
-0.302224
-0.30992
0.431698
-0.393931
-1.80403
0.702314
-2.00711
0.712483
0.744763
0.385485
-0.332141
0.407109
0.94163
-0.340361
-0.481645
-0.338208
-9.05782
-0.280601
-1.04481
1.03829
0.371574
-0.373302
0.558293
-0.41449
-0.259159
0.967494
0.906532
-0.434429
-0.362131
-1.35744
-0.543274
0.71252
-0.391996
-0.326617
-0.778172
-0.548943
0.685859
-0.477282
1.04485
0.503773
0.486941
0.432692
0.965654
-0.305287
-0.459279
0.618551
0.722948
-0.261884
0.777075
-0.358242
-0.619553
-0.511058
0.763619
0.824833
-0.565104
-0.377901
0.140698
-0.457644
-0.512876
0.615918
0.647089
-0.34768
0.683826
0.734295
-0.33726
-0.409209
-0.35102
-0.675446
-0.533975
0.982848
-0.312985
0.618974
-0.401313
0.997883
0.222928
0.597123
0.462258
-0.349669
-0.0992512
-0.748837
0.0864961
-0.554119
0.585688
-0.252548
-0.465213
0.295342
0.645539
0.639055
0.428199
0.0386934
0.564947
0.011763
0.0391914
0.118266
-0.791972
-0.450322
-4.41132
-1.05178
0.726817
0.609532
0.767016
-0.290404
-4.49727
-0.837168
-1.60831
0.654874
0.928301
0.824433
-0.498889
-0.246422
-0.309684
-1.60719
-1.2742
-1.44113
-1.08428
0.474539
-0.290662
-0.765608
-0.0893775
-0.691168
0.390707
-0.480205
-0.92867
-0.403463
0.424546
1.05159
-0.190708
0.685852
1.13677
0.296195
0.782905
-0.403414
-0.219449
1.06682
-0.993398
-0.0222606
-0.601965
-0.524393
-1.78933
-0.898908
0.602865
0.351112
0.875297
0.849902
-0.0923568
0.423776
-0.246565
-0.146634
-1.07298
0.667132
0.405387
0.664002
0.669207
0.115514
0.104401
0.699158
0.0232408
-1.26999
-0.82653
-1.94028
0.139346
-0.964814
0.989169
0.27522
-0.963352
0.926106
-0.448532
-1.45077
0.873178
-0.249725
-0.278771
-0.260729
0.211883
-0.704551
-0.482206
0.618802
0.753129
-0.066306
-0.339695
-0.310941
-1.18079
-0.277957
-0.439091
-0.480437
0.142096
-0.28894
-1.04532
0.901159
-0.287865
-0.109395
-1.14538
-0.514452
0.641199
0.707642
0.123846
0.0704044
-1.27916
-0.309127
-0.716976
0.00833753
-0.0169574
-1.45534
0.212498
-0.5274
-1.68689
1.10549
-1.97242
-0.362844
-0.532027
-2.73091
0.49729
-2.43138
-0.369423
-3.23145
-0.872606
-3.21131
-0.876722
-0.302288
0.00484874
0.78023
-5.15597
-1.35764
-4.95709
-1.43389
0.978627
1.05366
0.880273
0.733643
0.874011
-1.27494
0.797693
-0.445138
0.667884
-2.43979
-0.485321
0.940649
-0.316232
0.0921376
-0.439071
1.02364
-0.404141
0.954887
0.225969
0.191997
-0.65259
-0.545577
-1.69684
-0.516117
0.895583
0.780407
0.603539
0.107279
0.642212
0.525134
0.527967
-1.36897
-0.556993
-0.0138878
-0.0106725
0.501131
0.7366
-0.621422
-0.612657
-1.70908
-0.307568
-2.01053
-0.284936
1.02188
0.552523
0.805398
0.157257
0.0834838
0.630908
-0.30865
-1.16217
-0.265255
-0.353288
0.464787
-0.750197
-1.12917
-1.42673
0.393422
-0.250826
-0.550823
0.767881
0.179357
0.459345
0.724515
-1.2892
0.478288
0.760364
0.463483
-1.49115
0.902775
-0.143517
0.0364933
-0.278818
-0.880418
1.07573
-0.126182
-0.470126
-0.315865
0.493565
0.328648
-0.295226
-0.389796
-0.00562369
-0.552527
-2.14501
-0.358106
-0.0227761
0.669845
-0.350111
0.344195
0.889345
0.742435
0.395165
0.641606
0.762277
0.91065
-0.326279
-2.5279
-2.44653
-5.41682
-0.452116
-1.25407
0.66948
0.587239
-0.401413
0.604263
-0.258349
-0.200242
-1.61406
-0.268932
0.128058
-0.354661
0.602882
0.608857
-0.420585
-2.33327
0.925051
-0.257255
-0.172437
-0.476791
-0.341187
-2.04605
0.804658
0.283052
0.673449
-0.308294
-0.294246
-2.44607
-1.29901
-0.392791
-0.0823667
-0.323878
-0.272235
0.492929
-0.601368
1.12204
-6.8108
-0.797945
-2.69556
-1.29754
0.514797
-1.96603
-0.309963
-0.376498
-0.322494
0.858985
0.814276
-0.296485
-0.204596
0.322034
-4.05446
-0.486754
0.726256
-0.446336
-0.231129
-0.520562
0.277202
-0.680742
-0.381729
0.659031
-0.142133
-0.577468
0.584549
-0.262415
-0.34682
-0.368574
-2.74901
-0.351758
-0.379121
0.948599
-0.906575
-0.321734
-2.26565
0.382862
-0.627355
-0.257518
0.220633
0.327707
0.790364
0.775285
0.768173
-2.30071
0.510961
0.149561
-0.317392
0.412368
-2.07295
-0.603104
-0.262363
0.764568
0.736801
-0.629676
-0.258022
-0.293724
0.699397
-0.279395
-0.134444
-0.350754
-1.06797
0.906103
0.54216
-0.588036
-0.324472
-0.569836
-0.689345
0.352733
-0.385248
0.542489
-0.296884
0.344303
0.441428
-1.31895
-0.270319
0.526547
-1.25469
-0.120383
0.880405
-0.721757
-0.716367
0.492246
-0.323326
-0.343374
-0.420592
-0.298824
0.938822
-0.680146
-0.214361
-0.561805
0.988989
-0.490385
-0.30932
0.271593
-0.427964
-1.97709
0.934996
0.298256
0.664086
-0.359939
0.897718
-0.392749
-0.438577
-0.365491
-0.370219
-0.466054
0.916895
0.182886
-0.542191
-0.518425
-0.364971
0.689289
-0.281234
0.954517
-1.88608
0.11644
-0.812463
-0.105641
0.131166
0.101044
-0.0182169
-0.390768
-0.295208
0.543896
-0.378008
-2.98467
-0.465282
-0.0371408
0.996266
-0.491205
-0.335024
-0.406496
-0.765479
-0.304503
-7.31171
-0.850468
0.495912
-0.206943
-0.641224
1.05264
-0.367359
-0.317965
0.95865
-0.722866
-0.497765
-0.26312
-1.40847
-0.884378
1.03268
-1.83115
0.887966
-0.939291
-0.273651
0.772665
-0.322502
-0.307298
0.120926
-0.307326
-0.819975
-0.579894
-0.848807
0.450895
-0.423086
-0.797318
-1.29371
-1.4849
-2.94299
0.529285
-1.44911
-0.39624
-0.619163
0.894433
-1.55505
-0.33159
-4.8317
-0.987282
-4.79349
-1.51276
-0.653402
-0.25459
0.899219
-0.423669
-2.308
-0.420853
-0.417355
-1.57015
-3.22094
1.00747
0.894171
-0.0644194
-0.276291
-2.47212
-0.170467
-2.61388
1.02114
-0.40704
0.721701
0.27501
0.941811
-0.623526
-6.48691
-0.277839
-1.08091
-0.368284
-0.943718
-0.872622
-0.903866
0.88107
-0.197782
-0.394472
-0.312764
-1.60622
-0.294779
)
;

boundaryField
{
    frontback
    {
        type            empty;
    }
    Top
    {
        type            zeroGradient;
    }
    outlet
    {
        type            fixedValue;
        value           uniform 0;
    }
    bottom
    {
        type            zeroGradient;
    }
    Inlet
    {
        type            zeroGradient;
    }
    rectangle
    {
        type            zeroGradient;
    }
}


// ************************************************************************* //
