/*--------------------------------*- C++ -*----------------------------------*\
| =========                 |                                                 |
| \\      /  F ield         | OpenFOAM: The Open Source CFD Toolbox           |
|  \\    /   O peration     | Version:  2306                                  |
|   \\  /    A nd           | Website:  www.openfoam.com                      |
|    \\/     M anipulation  |                                                 |
\*---------------------------------------------------------------------------*/
FoamFile
{
    version     2.0;
    format      ascii;
    arch        "LSB;label=32;scalar=64";
    class       surfaceScalarField;
    location    "13.3";
    object      phi;
}
// * * * * * * * * * * * * * * * * * * * * * * * * * * * * * * * * * * * * * //

dimensions      [0 3 -1 0 0 0 0];

oriented        oriented;

internalField   nonuniform List<scalar> 
3181
(
-1.03204
0.399485
0.632551
-0.389345
0.365834
0.0235103
0.521964
-0.358864
-0.1631
0.121194
-0.200533
0.0793388
-0.0905179
0.106311
-0.0157929
0.823897
0.416896
-1.24079
0.14864
-0.142296
-0.00634431
0.0917943
-0.00124415
-0.0905501
0.581206
-0.768054
0.186849
-0.0748398
0.136711
-0.061871
-0.0104737
-0.0509507
0.0614244
0.13109
0.0456411
-0.176731
-0.00159261
-0.0759597
0.0775523
-1.0909
0.149751
0.941148
-0.326212
0.698562
-0.37235
-1.12283
0.641375
0.481453
0.0837472
-0.936122
0.852375
-0.393005
0.351912
0.0410938
-0.593317
-0.53942
-0.00251232
0.0727606
-0.0702483
0.0369408
-0.0857138
0.048773
-0.0795926
0.0673396
0.0122529
1.0583
-1.03364
-0.0246654
0.023259
0.0336285
-0.0568876
-0.956053
0.323788
0.632264
-0.10776
0.228954
0.305527
-0.243472
-0.0620556
0.0297721
0.0623967
-0.0921688
-0.411406
0.339309
0.0720972
-0.0325977
-0.0101129
0.0121778
-0.00206487
-0.0377678
-0.918285
0.126657
-0.0830982
-0.0435592
0.0930642
1.41385
-1.50691
-0.0434872
0.0398735
0.00361369
0.177636
0.277469
-0.455106
1.49103
-1.39796
0.0714549
-0.0345142
1.5915
-0.825156
-0.766342
-0.156752
0.980649
-0.143072
0.141479
-0.0795878
-4.77232e-06
-0.409601
0.0833896
-0.153357
0.0737697
-0.634868
0.12814
0.506728
-0.148109
0.0732688
-0.168513
0.172758
-0.00424522
-0.269867
-0.0767166
0.346583
-0.13504
1.55365
-1.41861
0.105915
0.177694
-0.283609
-0.0126252
-0.0999285
0.105995
-0.00606638
0.512064
0.186498
-0.0958793
0.140951
-0.0450714
0.0805968
0.0460606
-0.170912
0.197286
-0.0263738
0.163144
0.0571173
-0.220261
0.109176
-0.115098
0.00592211
1.30649
0.285006
-0.848966
-0.18307
0.188636
-1.4846
1.29596
0.547152
0.231778
-0.77893
-0.444106
-0.208598
0.652704
-0.804533
0.647781
-0.275226
0.822378
-0.322484
-0.103526
0.42601
-0.207179
-0.204227
-0.189878
0.166191
0.0236867
0.133548
0.282666
-0.416214
-0.186658
0.767864
-0.00868255
0.100477
-1.70079
1.88943
0.185973
0.119554
-0.177952
-0.110288
0.28824
-0.271873
0.357897
-0.0860241
-0.0811598
0.0893484
-0.00818858
-1.83583
-0.916924
0.00849172
0.908432
-0.0472616
0.00377444
-1.06301
0.825812
0.237201
0.584159
-0.347688
-0.23647
-0.892622
0.0880891
1.10577
-0.956017
-0.719332
1.14092
-0.199772
1.068
0.168014
-0.17452
0.00650538
1.24764
-0.830746
0.426842
-0.426842
-0.00865815
-0.000198951
0.0088571
-0.211586
-0.0525508
0.264137
0.160228
-0.10727
-0.052958
-0.457316
0.838264
-0.380949
-0.0205168
-0.233181
0.253697
-1.07378
0.0401403
0.349284
0.0546543
-0.403938
0.132619
-0.847377
1.07915
0.111953
0.083873
-0.195826
-0.0173677
-0.153545
-0.488611
0.234235
0.254376
-0.290741
-0.197871
0.118494
-0.965871
0.318374
-0.775689
0.91678
-0.833033
-0.0303687
0.257314
-0.226946
0.0831521
0.0520021
-0.135154
-1.36144
-0.111277
1.47272
-0.245322
0.408712
-0.16339
-1.11042
0.489814
0.620605
-0.479702
-0.583311
0.187296
-0.0813808
-0.152769
0.147174
0.00559489
-0.0775673
-0.0136267
0.091194
-0.548294
-0.21976
-0.120219
0.0552446
0.0649746
-1.0783
0.0289288
1.04937
1.75848
-0.204822
-0.0123292
0.00367108
0.037036
0.148937
-0.20125
0.378886
0.056885
0.26025
-0.317135
0.138378
0.06836
-0.206738
0.309
0.0987639
-0.407764
-0.595088
-0.52774
-0.949254
-0.129048
-0.0537679
0.165721
-0.105201
0.183127
-0.0779256
-0.0840049
0.0248426
0.123797
-0.0569345
0.0701639
-0.0132294
-0.0953352
-0.0216343
0.116969
0.0746815
-0.0746815
-0.184372
0.209214
0.293418
0.234579
0.104687
0.092599
-1.24823
1.06157
-1.58646
0.10719
1.47927
0.022678
-0.0182729
-0.00440507
-0.0266378
-0.0513157
0.0779535
0.535409
-0.0201147
-0.515294
-0.0410208
0.0430352
-0.00201436
-0.199532
0.01516
0.169916
0.668349
-0.366972
0.536888
-0.14969
-1.21175
-0.131133
0.0406155
0.487433
-0.304842
-0.182592
0.167916
-0.145377
-0.0225386
0.0478146
-0.317681
0.0236988
-0.940623
0.0491492
-0.15435
-0.285712
-0.399201
0.0721351
1.40178
-0.95418
-0.447599
1.10115
0.300626
0.0665007
0.280083
0.0241362
-0.00145821
-0.0531057
0.138455
-0.0853497
-0.251974
-0.589053
0.841027
-0.35561
0.654325
0.761763
-1.30118
0.154349
0.0226604
-0.0550258
0.0323655
-1.31211
0.303343
1.00876
-0.256446
-1.05566
-0.30439
0.653673
-0.912423
-0.0174059
0.00545109
-0.267528
0.262077
1.49882
-1.60923
0.110415
-0.130918
-0.000215414
0.570339
-0.822312
0.297443
-0.522681
0.225238
-0.297103
-0.120422
0.417525
0.177009
-1.00042
-0.0733556
-0.021861
-0.0483872
-0.560539
0.351941
-0.246554
0.0183916
0.228162
-0.0171523
-0.113766
0.0351991
-0.0351991
-0.119415
0.130881
-0.0114661
-0.301924
-1.28454
0.102688
0.0337069
-0.136395
-0.133117
-0.022599
0.155716
-0.22061
0.0307324
1.66884
-0.403667
-1.26517
-0.192176
0.449361
-0.257185
0.00385944
-0.00346573
-0.000393718
-0.700882
-0.409537
-0.185163
-0.00503403
0.190197
-0.174395
0.307944
-0.10147
0.0997638
0.00170663
0.0746898
0.00788528
-0.0825751
-0.13174
0.185991
-0.0542512
-0.407769
0.903772
-0.496003
-0.218788
-0.0507178
0.269506
-0.68949
0.659303
0.0301871
-0.00482223
0.0384508
0.047552
-0.0483428
0.00079081
0.000845699
-0.0577333
0.730945
1.02753
0.172559
-0.886989
0.714429
-0.0729104
2.05816
-1.98525
0.383907
0.13995
0.286892
0.0633834
0.204279
-0.0659012
-0.0712707
-0.0286577
0.23569
0.157503
-0.0743505
0.734342
-0.410554
0.0602009
0.203936
0.0503254
-0.166549
0.116223
-0.767104
-0.146681
0.913786
-0.0478454
0.0478454
-0.113467
-0.264928
0.542398
0.0122767
-0.231065
0.215582
0.136329
0.0544241
-0.108192
0.135733
-0.146206
-0.346362
0.325845
0.0526188
0.0453828
-0.0980016
0.383883
-0.338242
0.545467
-0.128822
-0.416646
-0.205817
0.272317
0.185861
-0.490702
-0.201806
0.601291
0.164888
-0.0336582
0.0336582
-0.254782
0.505491
-0.250709
0.382835
0.0258773
-0.0249668
0.0314524
-0.00648555
-0.199736
-0.0590236
-0.0611955
-0.0494976
0.18523
-0.180515
0.241628
-0.0611129
0.129418
0.0280842
-0.386968
0.143496
0.191233
-0.0618144
-0.0458896
-0.0555807
-0.0902492
0.0718585
0.0183907
0.147388
-0.104502
-0.0428861
-0.0158219
0.395721
-0.379899
-0.147905
0.139223
0.104295
-0.108633
0.00433765
0.0237638
0.603035
-0.0575682
-0.0912909
-0.0189343
0.110225
-0.0947929
-0.015998
0.110791
-0.0913303
0.100786
-0.721663
0.620877
-0.0403838
-1.49508
-0.416344
1.91142
0.681624
0.957985
-1.63961
0.0828021
-0.262482
0.361245
0.281411
0.250683
-0.532094
-0.207886
0.258211
0.145849
-0.882789
0.73694
0.0533054
-0.148098
-0.0283837
0.00652267
-0.986328
0.446976
0.539352
0.95418
-0.835686
-1.67407
1.5628
-1.49882
1.60601
0.0396193
-0.0846908
0.0116373
0.0359147
0.0102276
0.797227
-0.651378
0.121829
-0.0726799
0.405956
0.734964
-0.15521
-1.74123
1.66832
-0.666678
-0.58155
-0.241618
-0.39325
-0.0064261
-0.16518
0.212995
-0.580372
-0.373476
0.181301
0.772408
-0.236999
-0.893466
-0.780605
0.742898
0.200477
-0.147172
0.28597
0.0381436
-0.0381436
0.671059
0.149292
-0.820352
-0.225457
0.896517
0.408256
-1.22834
0.820085
0.258335
-0.0237562
0.00664395
0.00665965
-0.0133036
-1.4846
-1.17891
0.974091
0.966328
0.702514
-0.0345547
-0.133958
-0.243399
0.755463
-0.197827
-0.048727
-0.00303288
-0.078127
-0.0531677
0.10517
0.37922
-0.25108
-0.816368
-0.287695
-0.100674
-0.0875204
0.188194
-0.727139
0.867089
-0.14996
0.134266
0.0156938
0.0218065
0.00232976
-0.128042
0.0586706
0.0693717
0.00982991
0.41618
0.113735
0.0541811
0.0291499
0.0145126
-0.0436624
-0.0156543
-0.169508
-0.727028
0.372169
0.354859
0.456494
-1.40636
0.949862
0.138568
-0.159624
0.021056
0.0052624
0.182033
0.0159808
-0.442823
-0.133079
0.00503694
-0.141934
0.0605528
0.142769
-0.344019
-1.46143
0.692682
0.768751
0.0467614
0.0926902
0.0546981
-0.767104
0.00780674
-0.415576
0.146661
-0.0879906
0.0438015
-0.638831
-0.050659
0.0612154
0.130017
0.20289
0.0415519
-0.457766
0.122371
0.347418
-0.292764
-0.11667
0.0213344
0.220851
0.841862
-1.06271
0.105738
-0.710954
0.605216
-0.94375
0.797069
-0.980905
0.281637
0.699268
-0.0078251
0.00865725
-0.000832156
0.171704
-0.468807
0.205277
-0.11976
-0.0855166
0.0481071
-0.0641051
0.013419
-0.114093
-0.0126463
0.0256657
-0.02482
0.0206191
0.077848
-0.0984671
1.08988
-0.00196304
0.00246593
-0.00050289
0.121895
0.0173275
0.862226
0.0657303
-0.0659457
-0.195155
-0.983758
0.219493
0.0388423
0.00777351
0.0849167
-0.699268
0.442823
0.164588
-0.285946
0.121358
-0.252652
0.0781321
0.119205
-0.1127
-0.00145255
0.090801
-0.042265
-1.2824
-0.179036
-0.042833
0.0634521
0.739126
-0.257673
-0.286723
0.153606
0.348314
0.0166011
-0.0415679
-0.00775595
0.0824374
0.147626
0.210271
0.156526
-0.334046
0.17752
0.112026
0.556323
-0.0394831
-0.108626
0.918038
-0.251159
-0.666878
-0.980905
-0.443356
0.89985
1.49103
-0.150981
0.396122
-0.245141
0.350069
-0.0720861
-0.277982
-0.315029
-0.577593
-0.0725323
0.073343
-0.000810776
-0.0824038
-0.168008
0.250412
0.459981
-0.952895
0.492914
0.0367609
0.662892
-0.699653
-0.0440339
-0.108735
0.00438584
-0.0956767
0.268776
-0.523558
-0.010113
0.00228786
0.183957
0.016094
-0.200051
0.0658135
-0.118919
0.00104668
0.0207598
0.0942222
0.163092
-0.0424893
-0.00585343
0.195314
-0.428495
-0.415979
1.37396
0.0359134
0.0119321
-0.983804
-0.0166167
0.151874
-0.072215
-0.0444546
-0.0317383
0.329181
0.664715
-1.00535
0.340639
0.190757
0.0287359
-0.944726
-0.0112919
-0.00240705
-0.646722
0.747508
-0.0178689
0.182757
0.00554495
-1.23389
0.184522
-0.441982
0.257461
-0.0084168
0.268667
0.000407306
-0.000627643
0.000220338
-0.0201731
-0.111567
-0.0209677
-0.132577
0.751602
-0.645864
-0.143712
0.0884596
-0.084146
0.313709
-0.157183
0.0792378
1.20589
-0.260876
-0.945015
-0.120885
0.139277
-0.50882
-0.218208
-0.564416
0.604647
-0.595421
-0.0092257
-0.0901887
-0.0535237
-1.74123
0.559406
-0.559406
-1.75764
1.75764
0.797227
0.0465021
-0.298528
0.252026
-0.889936
-0.0938687
0.629353
-0.371059
-0.258293
0.161916
-0.239841
-0.0111305
-0.00119869
-0.882147
-0.083724
-0.934677
0.213014
0.0195536
-0.107074
0.698233
-0.104371
-0.593862
1.03419
0.456832
-0.00187943
0.00228673
-0.969391
0.51554
-0.644362
-0.0661738
-0.609658
0.675832
-0.0716699
-0.891453
-0.71778
0.217767
-0.812855
-0.913786
1.36169
-0.447904
-0.139805
0.279753
-0.139948
-0.026366
0.724599
-0.107688
-1.01453
1.01453
-0.877905
0.304823
0.573082
0.00114732
-0.00311036
0.106277
-0.437921
0.833911
-0.00809958
-0.084991
-0.0351107
0.140286
0.00289816
0.000961285
1.47164
-1.19
-0.325386
0.400076
-0.631556
1.01102
-0.379467
-0.0818808
-0.0511984
0.124223
-0.0558629
0.347163
0.00564211
-0.0816018
0.35621
0.0395108
0.0424424
-0.247726
0.205284
0.138759
0.0339994
0.097585
0.181011
1.30626
0.583171
0.0959635
0.797641
-0.893605
-0.999814
1.30316
0.184835
-0.111065
0.0760404
-0.766063
0.690023
0.142466
0.125072
-0.471434
-0.0741242
0.133016
-0.0588918
0.130671
-0.204796
-0.451727
-0.108812
-0.0716802
0.0747584
-0.00307815
-0.00571246
-0.0367769
0.0293604
0.0167002
0.651378
-0.605216
-0.0461615
-0.289913
0.302189
0.878622
0.590767
-0.240698
-0.0405028
0.0742097
-0.318243
-0.204438
0.169716
-0.574072
0.404356
-0.000772713
0.00014507
0.11856
0.0282199
-0.14678
0.00225765
-0.00851156
0.00625391
-0.0222793
0.0141561
0.00812326
-1.18833
0.357587
-0.154414
-1.34066
-0.201044
-0.835686
1.60601
1.5628
-0.191758
-0.172255
0.121538
-0.0632923
0.068953
-0.00566075
-0.179996
1.01053
-0.83053
0.558874
0.0704787
0.00024907
-0.00102178
0.121349
-0.256572
0.0351107
-0.0473831
0.00455004
-0.706714
0.388471
-0.0642227
0.118647
-0.236342
0.620225
1.10115
0.00629427
-0.0613059
0.00137007
0.0599358
1.91206
-0.349261
-0.060819
-0.054279
-0.99313
0.157444
0.398347
-0.221338
-0.472553
-0.130551
0.603104
0.811209
-0.362752
-0.448457
-0.12068
0.785395
-1.66832
0.183719
-0.0176877
-0.0473845
0.0650722
0.406043
1.65211
-0.170872
0.177516
0.0977269
2.2401
-0.634094
-0.677492
0.0532307
0.624261
0.388745
0.023787
-0.345416
0.529009
0.802267
0.37415
0.0760369
-0.0213388
-0.4955
0.208418
0.287083
1.37237
0.100342
-0.0711926
-0.0519966
-0.36039
0.106408
-0.314294
0.871048
0.334843
-0.13889
0.0487008
0.291334
-0.442316
-0.0227726
0.0179503
0.110412
-0.147163
0.0367505
-0.29639
0.31029
-0.0139002
0.489976
-0.750852
-1.12325
0.0231936
1.10006
0.0680026
-0.218751
0.150748
0.274066
0.0396434
-0.259264
0.267071
-0.667531
0.667531
1.29596
1.03419
-0.710954
0.324608
0.47766
-0.595897
0.345188
0.916817
-0.357943
0.00833817
-0.872928
0.864589
0.131107
0.00560406
0.0268442
-0.854945
0.595681
0.133178
-0.167227
-0.121251
0.288477
0.315055
-0.51487
0.347643
-1.12708
-0.287312
-0.659193
-0.0670233
0.00226903
0.000196898
-0.227638
0.137658
0.0505362
0.0340231
-0.146607
0.112584
-0.368611
-0.509294
-0.00570492
0.0681016
-1.14404
0.541395
0.602643
-0.569691
0.387099
-0.112658
0.158041
0.23235
-0.00849664
-0.019887
-1.03672
0.633053
0.0343329
0.069962
-0.152673
0.0685273
0.197515
0.00776179
-0.433723
1.02475
0.498875
-0.0573039
0.866773
-0.790732
0.791225
-0.442911
-0.61618
0.178259
0.153644
-0.788604
0.765731
0.0228732
1.14432
-0.273273
-0.193531
-0.131855
-0.137097
0.0298263
0.955904
-0.843411
-0.112493
-0.183898
0.109548
0.0273765
0.119797
0.882549
0.768317
-0.824679
0.0563624
-0.323964
-0.0495119
-0.506916
-0.637123
0.136832
1.33589
0.938857
0.0953374
0.171602
0.553082
-0.724685
-0.0607073
0.050132
-0.0107308
0.00223417
-0.511944
-0.104236
0.177044
-0.194196
-0.187665
0.138167
-0.533667
0.276482
-0.99152
-0.478524
-0.291287
-0.743302
1.56239
-0.0831162
-0.284999
-0.382117
-0.324597
0.11692
0.300786
0.0554246
1.30435
-0.844367
-0.191107
0.129292
-0.463295
-0.329888
0.793182
-0.0228617
0.00517401
0.048813
-0.0593593
-0.23703
-0.118806
0.695769
-0.42064
-0.275129
0.193238
0.133655
-0.0962346
-0.0374202
0.243305
0.0574804
-0.431311
-1.2083
-0.0962005
0.140002
0.96113
-0.192813
0.00354857
0.107242
-0.0218205
0.0190943
0.00272614
0.0154673
-0.0337403
-0.244418
0.0778695
-0.0848244
-0.557236
0.417431
0.0182779
0.127015
-0.0590125
-0.693424
1.57774
-1.2429
0.0158324
-0.193436
0.177604
-0.141025
-0.534091
0.675116
0.0729387
-0.71177
-1.07389
-0.0493646
-0.0798768
-0.00169912
0.081576
-0.246457
-0.604647
-0.162458
-0.139443
-0.4955
-0.231523
0.165622
-0.359963
-1.17412
-0.585756
0.395254
0.190503
0.261584
0.113641
0.54678
0.178739
-0.725519
0.150819
0.0496584
0.919174
0.0866516
-1.00583
-0.221919
0.25156
1.0516
-0.242036
0.180923
-0.747378
0.998938
0.287255
-0.0530197
-0.0311042
0.0413318
-0.00474648
1.16217
-1.21948
0.724703
0.0865061
-1.20334
-0.0790612
0.229349
0.687468
0.904322
0.0137156
-0.0200217
-0.938857
-0.659193
-0.71487
0.723362
-0.0256582
-0.893466
0.662892
0.610577
-0.93728
0.887429
-0.00452892
-0.784075
-0.31691
0.636141
-0.767838
0.131697
0.0804166
0.0532382
-0.441472
-0.0856995
0.933848
-0.848148
0.00179913
0.0004699
-0.263722
0.214995
0.70908
0.220731
-0.205571
-0.180011
0.675838
-0.646909
0.210796
0.0412296
0.598115
0.618668
-1.21678
-0.718792
0.92721
1.2335
-0.692106
0.087954
0.201383
-0.287083
-0.0129978
0.216481
-0.0498946
0.0631452
0.0887292
0.00271467
-0.0194987
0.016784
-1.02817
-0.0345468
0.313702
-0.810399
-0.362591
1.24749
-0.884903
0.369582
0.64144
-0.0494489
0.0529203
-0.00347142
0.0747555
0.601082
-0.714608
0.677276
0.640622
-1.00321
0.315991
-0.09951
-0.583908
-0.407612
-0.542022
1.14014
-0.0565813
-0.877456
-1.92552
-0.059728
0.201383
0.0500609
-0.860459
0.835811
-0.647792
-0.188019
-0.981657
0.397749
0.00394484
0.113755
-0.000125174
-0.11363
-0.9728
0.565188
-0.21334
0.909986
-0.921278
0.192408
-0.208062
-0.0963526
0.239121
1.22131
0.313792
-0.188103
-1.42372
0.478706
1.24604
-0.87189
-0.5511
-0.518225
1.06932
0.4489
0.0188966
-0.012237
-0.734199
0.699653
0.306506
-0.23175
-0.286892
0.340037
-0.0531454
0.590778
0.656716
0.780144
-0.812742
-0.492171
-0.448452
-0.472682
-0.500119
0.802097
-0.802097
0.684139
-0.684139
-0.734199
-0.428126
0.428126
-0.340037
-0.413896
-0.422932
-0.536663
-0.485229
0.485229
0.306506
-0.23175
0.780144
0.772601
-0.772601
0.812742
0.762374
-0.762374
0.507829
0.527318
0.481775
-0.178723
-0.499881
-0.551548
1.07887
-0.398176
-1.26255
0.72053
0.67574
0.557762
0.0303672
-0.0127312
0.0784615
-0.887037
0.0927863
0.794251
-0.143788
0.137362
-0.999299
0.588745
0.916673
-0.592065
-0.123797
0.00425218
-0.00829839
-0.808008
-0.0789807
-0.539352
-0.00561112
0.0121338
0.498662
-0.158891
0.0709005
0.171338
0.00577667
-0.0106197
0.00484304
-0.817648
0.0700607
0.747588
0.574173
0.647139
-0.52963
0.414447
0.115183
0.91431
-0.744006
-0.170304
0.0782654
0.300621
-0.0138395
-0.0578407
-0.0582818
-0.0142505
0.343378
-1.07052
-0.835305
0.0969501
-0.741957
0.799023
-0.0570659
0.118991
-0.898225
0.779234
-0.802606
0.903836
-0.10123
-0.0647843
0.0802516
0.019564
-0.287092
0.598942
0.541194
-0.0928757
-0.794161
0.915099
-0.091572
-0.823527
0.0510349
-0.132916
1.24991
0.821434
-0.641851
0.455572
-0.385093
0.098721
-0.892882
1.39796
0.35968
-0.788788
0.00471235
1.01579
-0.8968
1.1984
1.22787
-0.799308
-0.42856
-0.882784
-0.116515
-0.413156
0.0332571
-0.529239
0.869878
-0.789218
0.789218
-0.600671
-0.0868424
-0.863514
0.119507
-0.942067
0.875893
0.0769333
-0.196693
-0.057379
0.0588481
0.0113158
0.189417
0.826374
0.816994
0.773375
0.139068
-0.912443
-0.673919
1.23168
-0.784353
-0.106729
0.891083
0.173922
-0.88853
-0.674096
0.884935
-0.786214
-0.104285
0.462091
-0.0202901
-0.4418
0.0255144
1.32312
-1.34863
0.143261
-0.348215
0.204954
-0.888638
-0.830081
0.0881239
0.532276
0.25895
-1.62131
1.18769
-0.585667
0.585667
-0.888004
-0.535717
-0.112788
0.708469
-1.02012
1.04331
0.778206
-0.202225
1.07796
-0.720368
0.9522
-1.24554
0.293343
-0.00762744
-1.39873
0.284979
0.553949
-0.25395
-0.161625
0.241995
0.30126
-0.222995
0.781135
-0.882365
0.7138
0.517881
-0.147509
0.736254
0.588551
-0.588551
-0.0626051
0.0649348
0.110695
-0.0766721
1.26376
0.059361
0.297403
-0.00157488
0.00342625
-0.00185136
-0.673154
0.694608
-0.0214546
0.412665
-1.21197
0.107503
-0.893717
-1.12303
1.42664
-0.30361
0.200803
0.870992
-0.933046
1.34571
-0.754649
0.607651
-0.65831
-0.659538
0.150719
-0.259773
0.0293368
0.0675692
-0.953835
0.694062
0.0028834
-1.12067
0.0670379
0.731985
0.693353
-0.0857022
0.0783027
0.783923
-0.365556
0.93352
-0.567964
-0.845412
0.519121
0.482355
-0.951401
0.729679
0.221722
-0.684525
-0.12833
0.945445
-0.362215
-0.161343
-0.0358301
0.485777
0.514223
-0.770241
-0.112124
-0.566753
-0.419207
-0.547269
-0.411495
0.404594
0.595406
-0.143406
0.160733
-0.861813
-0.0655837
-0.592726
-0.156452
-0.246005
0.402456
-0.0370459
-0.0052191
0.112792
0.0724378
-0.129334
-0.115084
0.754478
-0.640854
0.719157
-0.140613
-0.813222
0.506169
-0.0806297
-0.425539
-0.742906
-0.196332
0.939237
-0.240372
0.228473
-0.0245364
-0.112333
-0.00143225
0.011931
0.721264
-0.135597
0.121696
0.110654
-0.739123
0.0659699
1.0749
-0.426604
-0.0113583
-0.405287
0.454519
-0.285651
1.02061
-0.00486453
0.395909
-0.298182
-0.00492393
-0.0699352
-0.127618
0.0356221
1.03928
0.160307
0.111825
-0.272132
0.842602
-0.0203977
0.00430989
0.0160878
0.128625
-0.00921074
-0.000902214
0.216818
-0.106406
0.223227
-1.24334
0.277089
-0.116782
0.00369848
0.285689
0.031195
-1.02864
1.35069
-0.322051
-0.78235
0.839786
-0.0574362
0.115464
0.141741
0.145514
-0.0709885
1.29938
-0.459942
-0.0696878
0.277708
0.452383
0.189535
-0.641918
0.398887
0.042628
0.65198
-0.570499
0.563147
0.00735235
1.31104
-1.19412
-0.0517307
0.0646811
-0.0129504
0.695093
-0.00900099
-0.0832233
0.0181625
1.31412
0.477629
-0.362165
0.118997
-0.0210544
-0.197696
0.180955
0.0222519
-0.203207
0.00690858
-0.00419391
0.892776
-0.806124
0.201355
0.219472
-0.0256253
-0.0875089
0.225758
0.0982715
0.00656422
0.0789175
0.762131
0.306163
0.402645
-0.708808
0.806424
0.116474
-0.922898
0.643455
0.12106
-0.0813864
0.00213367
0.0792527
-0.692102
-0.106644
-1.1389
-0.00480709
0.747705
0.717313
0.0915651
-0.153683
-0.287789
0.817377
0.102349
-0.0231115
-0.882181
0.192453
-0.276206
-0.165041
-0.173328
0.689611
0.0725204
0.0133723
0.701682
-0.559941
-0.197285
0.161858
0.0257741
-0.111488
0.422603
-0.0576476
-0.0183742
-0.0710832
0.16159
0.326017
0.480407
-0.151744
0.506527
-0.0433192
-0.10917
0.0156963
-0.000912364
-0.0147839
-1.43771
0.243591
-0.00713838
0.928296
-0.2289
-0.61784
0.642144
-0.0243041
0.327488
0.75558
-0.419841
-0.00569809
0.078078
-0.174431
0.627268
0.128312
0.630738
0.23635
-0.271528
0.7271
0.0821044
0.957174
-0.601062
0.353119
0.247943
-0.536623
-0.0713148
0.0412526
0.0642213
-0.0472082
1.22338
0.736166
0.0812113
0.622647
0.218379
-0.873758
-0.0815588
-0.671079
0.675791
-0.024459
-0.584212
0.42776
0.867863
0.669896
0.156901
0.0218337
-0.153934
-0.3175
1.12392
0.453817
-0.155658
0.0451851
0.925564
0.0316096
0.718935
0.330437
-0.078113
0.919866
-0.741268
0.927667
-0.186398
-0.411702
-0.18936
-0.0742692
-0.185031
-0.194737
0.831786
0.0211847
-0.00667214
0.625614
-0.00524847
-0.400039
0.604312
-0.131527
0.233411
0.769593
0.229897
-0.99949
0.277348
-0.92514
0.130931
-1.37383
-0.17605
0.770242
-0.594193
-0.670551
-0.129296
0.0169623
-0.0552688
-0.956881
0.0204568
-0.0422772
0.968842
0.222096
-0.395596
0.1735
-0.0375109
-0.580372
0.0646264
0.331283
-1.35626
0.00264366
0.00313301
-0.517823
-0.0539195
-0.589569
0.0190701
0.566673
0.30119
1.0163
0.895122
-0.245481
-0.389294
0.634775
0.106488
-0.614078
0.614078
-0.254533
-0.917365
1.1719
0.0301965
-0.151082
0.677998
-0.111325
-0.222048
-0.331896
0.170553
0.620378
0.563395
-0.324007
0.177412
-0.105277
-0.547334
0.479788
0.0833583
0.0588477
0.0126072
-1.30339
-0.391884
-0.264817
0.696233
0.303767
-0.391884
0.696233
-0.391012
-0.255804
-0.391012
-0.695867
0.695867
0.304133
-0.014161
0.191079
-0.0764141
0.201535
0.158277
-0.465059
0.640357
-0.0360452
0.657183
-0.501948
-0.155235
-0.0564371
0.0553896
0.00104749
-0.00933904
0.00776416
-0.115178
0.0186579
-0.107856
-0.433447
-0.356497
0.128859
0.048078
0.832263
-0.27918
-0.676865
0.352268
0.00126111
-0.177932
-0.00521539
0.677972
0.0697334
0.0489199
-0.0410463
-0.00261612
0.0236753
0.0849053
0.561143
-0.472707
-0.0884352
1.86766
0.554655
-0.703263
0.901858
0.0112794
-0.0625951
0.106771
0.181058
0.139428
1.13741
-0.367813
0.0173418
-0.0843652
0.633236
-0.868304
0.0219424
-0.0219424
0.0201927
-0.0201927
-0.0230699
0.0230699
0.0359134
0.363996
0.461124
-0.0132409
-0.718365
0.481366
0.187723
0.0290948
-0.0827987
-0.48512
0.784248
0.112872
-0.797397
-1.12807
-0.105817
0.101917
0.0187219
-0.00456582
-0.0262013
0.0262013
0.248531
-0.0245022
0.0245022
0.698044
0.0941886
-0.0295701
-0.0114762
0.00662401
-0.0679299
-0.0225322
0.0225322
-0.0163774
0.0163774
-0.0220475
0.0220475
-0.018112
0.018112
0.117611
-0.299017
-0.0817867
0.22242
-0.0161206
0.0161206
-0.371782
0.506896
-0.135114
0.499311
-0.219558
-0.462653
-0.214212
0.562008
-0.0565738
0.0754884
0.566656
0.563762
-0.00654823
0.00654823
0.194434
0.0245522
-0.0245522
-0.0137817
0.0137817
0.75346
-1.06209
0.0374664
-0.343392
0.371612
0.0025468
-0.0025468
0.0193342
-0.0193342
0.0181817
-0.0181817
0.0232887
-0.0232887
-0.0232323
0.0232323
0.0348655
-0.0348655
0.49232
-0.031554
0.031554
-0.00164459
0.00164459
0.0238424
-0.0238424
-0.0097778
0.0097778
0.00856259
-0.00856259
-0.107044
-0.025363
0.025363
0.100538
0.0060436
-0.0392031
0.0392031
0.008987
-0.008987
0.0234098
-0.0234098
0.0332606
-0.0332606
0.0257331
-0.0257331
0.00345917
-0.00345917
-0.00407976
0.00407976
-0.529544
-0.137462
-0.0148404
0.0148404
-0.00081243
0.00081243
-0.0378944
0.0378944
-0.0279453
0.0279453
0.000548981
-0.000548981
-0.420801
0.650149
0.260906
-0.031828
0.031828
-0.0500437
-0.0204439
0.0204439
-0.000140679
0.000140679
0.037312
-0.037312
-0.169135
0.146023
0.00606748
-0.00606748
-0.0230134
0.0230134
-0.499018
0.0442895
-0.511602
-0.0313899
0.0313899
-0.438933
0.0338375
0.0190829
-0.0130543
-1.19028
-0.0364906
0.0364906
-0.200716
0.143068
-0.040682
0.000253039
-0.000253039
0.00108063
0.0476924
0.267802
-0.331089
-0.277431
0.60852
0.189396
-0.00801612
0.00801612
-0.237106
0.394764
-0.157657
0.766764
-0.393511
-0.373253
-0.464626
-0.660057
-0.109448
0.461716
-0.407226
-0.438186
-0.574828
0.0176465
0.192692
-1.31794
0.0156427
-0.0156427
0.000313538
-0.000313538
0.0306443
-0.0306443
0.0261171
-0.0261171
0.00103314
-0.00103314
0.000168467
-0.000168467
-0.0172325
-0.330456
0.174309
-0.298106
-0.00070259
0.00070259
-0.044775
0.044775
-0.0400535
0.0400535
0.180899
0.0994392
-0.280338
0.00720004
0.31891
-0.54781
9.36613e-05
-9.36612e-05
-0.0195673
0.0195673
-0.0928825
0.106125
-0.215573
-5.18689e-05
5.18689e-05
0.106482
0.012173
0.986628
-0.489184
-0.080697
0.569881
-0.627942
0.132595
-0.661834
-0.0384307
0.0384307
-0.680235
0.276233
0.0490878
-0.0490878
-0.647694
0.389401
0.261567
0.119377
0.00138672
-0.00138672
-0.837844
0.00118982
-0.00118982
0.314737
0.409863
0.0919465
-0.0529664
0.0529664
-0.000487239
0.000487239
-0.0420578
0.0420578
-0.0534933
0.0534933
0.00169271
-0.00169271
-0.0590882
0.0590882
0.00179157
-0.00179157
-0.0453247
0.0453247
-0.00381198
-0.0449272
0.0449272
0.0027148
-0.0027148
0.0477889
-0.0477889
0.0011234
-0.0011234
0.047456
-0.047456
-0.229842
-0.00105051
0.00105051
-0.00342783
0.00342783
-0.0460005
0.0824374
-0.00968174
0.00968174
0.00578967
-0.00578967
-0.0586115
0.0586115
0.2922
-0.017805
0.017805
-0.0568121
0.0568121
-0.00792085
0.00792085
-0.0662514
0.0662514
-0.0134288
0.0134288
-0.0790827
0.0790827
-0.0213333
0.0213333
-0.0935627
0.0935627
-0.684587
0.257278
-0.532177
0.507873
-0.891453
-0.0457712
-0.567663
0.394335
0.0740432
0.119195
0.00419138
-0.00419138
0.363515
-0.7246
0.0431652
-0.030558
-0.920763
1.3776
1.28633
0.253306
-0.062535
-0.0367189
-0.392465
-0.582067
-0.0828186
0.393576
-1.3249
-0.0198605
0.0198605
-0.754215
0.0201418
-0.0201418
-0.00253516
0.00253516
0.306299
-0.354034
-0.00251585
0.00251585
0.0191091
0.0145491
0.597755
0.117533
-0.00502915
-0.00863466
-0.011387
-0.0961608
0.498914
-0.402753
0.258218
0.0267612
0.00523986
1.04708
-0.0324075
0.0534917
-0.411881
0.445138
-0.492578
-0.988563
-0.22319
-0.071097
0.0179293
-0.274244
-0.0739706
0.0671766
-0.00421784
-0.0180996
0.787046
-0.553638
-0.0374937
0.0632678
-0.0359803
0.0162492
0.174829
0.421797
0.237506
-0.166781
0.211234
0.00710668
0.000778597
-1.2647
0.035111
-0.158088
-0.237508
-0.0190608
-1.37598
-0.0714236
0.265696
-0.355667
0.395178
0.277823
-1.02113
0.0461201
0.00607155
-0.138987
-0.344362
0.459546
-0.109003
-0.00339094
0.112394
-0.0269206
0.0269206
0.187694
-0.428393
-0.16106
0.138461
-0.0791813
0.0547223
-0.0644522
-0.00620548
0.0706577
-0.0253678
-0.151611
0.159845
-0.0496014
-0.288253
-0.361772
0.650024
0.0146886
0.0586544
0.151032
-0.0293366
-0.183642
0.0688735
-0.157223
0.310867
-0.0120986
0.0281864
-0.0265194
0.177552
0.00277842
0.259299
0.00154683
-0.00154683
-0.0537485
0.772684
0.089955
-0.171514
-0.0686531
-0.00301681
0.609508
0.736204
0.0038719
-0.039071
-0.533116
0.000938622
0.123827
0.0894717
-0.681601
0.323658
-0.0566742
0.381079
-0.669332
0.221092
0.508587
-0.0879957
0.0879957
-0.000125174
-1.16346
0.60745
0.556007
-0.212243
0.156974
0.0274356
-0.120519
-0.630333
-0.133514
-0.0543353
0.0659726
0.929184
0.267232
-0.110331
-0.0691747
-0.26339
-0.739824
-0.0780302
-0.266108
0.795117
0.583819
-0.264909
-0.270075
0.555764
0.014321
0.381801
-0.271328
0.107879
-0.459916
0.324803
0.122657
-0.122657
0.102931
-0.149971
0.0470393
0.00971204
-0.00336638
0.0190943
-0.344894
-0.347209
0.227619
-0.186402
-0.0412165
0.542515
-1.08559
0.0462438
-1.03
0.694766
-0.119999
-0.178107
-0.0397258
-0.0790797
-0.486988
0.0535417
-0.287026
0.00639023
-0.0190608
0.378193
-0.00517028
0.000339905
0.00199135
0.0108889
-0.0123748
0.0014859
-0.100574
-0.0161267
-0.165888
0.182015
-0.126555
-0.333362
0.0191091
0.351673
0.002626
-0.376693
0.0854064
0.00250477
0.225529
-0.23877
-0.0121995
0.0121995
-0.00107103
0.00295682
-0.00936672
0.00233891
-0.0720441
0.000756563
-0.00118486
0.25427
0.0749113
-0.000825072
0.000825072
0.131554
0.515746
0.00153694
-0.290605
0.438736
1.13518
-0.470917
0.337192
-0.439037
-0.272939
0.11188
0.225604
-0.229169
-0.0156954
0.0156007
-0.00366973
-0.00188119
-0.180564
-0.376165
0.857531
0.51139
-0.528623
0.205427
-0.00160488
0.228892
-0.0280888
0.00110976
0.000580659
0.0150201
0.217991
0.00130878
-0.000275347
0.720323
-0.651449
-0.247834
0.157399
0.946899
0.000671752
0.00198772
-0.040682
-0.00565683
0.818356
-0.429871
0.51323
-0.684024
0.899174
-0.667299
0.581598
-0.187263
0.68961
0.00176168
0.00352828
0.0151936
-0.122093
0.138452
-0.222785
0.00902754
0.00236021
0.0644927
-0.0499708
-0.0145218
0.00194864
0.0420878
0.0395745
-0.0816623
-0.0868661
0.00308841
0.000337834
0.00188972
0.471959
-0.428933
-0.00384258
0.000642642
0.934267
-0.326817
0.385925
-0.00584637
6.04983e-05
0.253863
-0.0525078
-0.0411966
-0.11413
-0.0171344
-0.00356283
0.120481
0.0643115
-0.00180056
0.414817
0.00154459
-0.0028785
0.0028785
0.00753174
-0.0161664
0.000330546
-0.328033
-0.00368826
0.0721072
-0.10623
0.0942168
0.0362425
-0.066141
0.000608929
0.00237732
0.46946
0.000353582
-0.00502255
-0.0692467
-0.00200434
0.000997845
0.0916662
0.205737
-0.712126
0.478356
-0.854521
0.0321543
-0.000435368
-0.704907
0.117276
0.124719
0.591423
-0.0150626
-0.038091
-0.00387855
-0.00129897
-0.551923
-0.00326688
9.8848e-05
-0.052823
0.924703
-0.525816
-0.0024642
-0.000668168
-0.00564512
-0.00217391
0.0656601
-0.0222404
0.0222404
-0.0457486
0.0487054
-0.00213118
-0.00763985
0.0504263
-0.0500864
-0.164959
0.0936443
-0.00550792
-0.0128314
0.0421601
-0.0163747
0.0615289
-0.0435997
-0.626203
0.569137
0.0376763
-0.00159829
0.330091
-0.168502
-0.0703266
-0.686281
-0.0757061
-0.118563
-0.0936926
0.0916883
0.684395
0.000988332
0.0236397
-0.021652
0.349884
0.0579962
-0.143241
0.0852446
-0.0707705
-0.615317
0.858739
-0.533645
0.0193649