/*--------------------------------*- C++ -*----------------------------------*\
| =========                 |                                                 |
| \\      /  F ield         | OpenFOAM: The Open Source CFD Toolbox           |
|  \\    /   O peration     | Version:  2306                                  |
|   \\  /    A nd           | Website:  www.openfoam.com                      |
|    \\/     M anipulation  |                                                 |
\*---------------------------------------------------------------------------*/
FoamFile
{
    version     2.0;
    format      ascii;
    arch        "LSB;label=32;scalar=64";
    class       volVectorField;
    location    "3.8";
    object      U;
}
// * * * * * * * * * * * * * * * * * * * * * * * * * * * * * * * * * * * * * //

dimensions      [0 1 -1 0 0 0 0];

internalField   nonuniform List<vector> 
2186
(
(1.17604 -0.128496 1.93036e-19)
(1.6694 -0.933892 -1.11216e-19)
(1.49174 -0.906171 8.90956e-23)
(0.726844 -0.57844 -1.23671e-19)
(-0.67136 0.310993 -2.23842e-19)
(1.03601 0.0052851 0)
(0.728902 -0.667511 0)
(-0.828437 -0.703982 1.63594e-19)
(2.23316 0.403582 2.77078e-19)
(0.543225 -0.320064 -2.30109e-21)
(0.678194 0.616042 0)
(1.0475 -0.268773 -1.46445e-19)
(-0.768056 -0.522638 -5.77806e-20)
(1.07225 -0.0381737 -3.23268e-19)
(1.8774 -0.641461 -1.11204e-19)
(1.00763 -0.00980209 1.5112e-19)
(1.00356 0.0378964 0)
(-0.326601 -0.358925 0)
(1.02008 -0.000630983 0)
(-0.254856 0.950348 -1.01144e-19)
(0.480041 0.0715542 -1.00108e-19)
(0.201904 0.337581 1.13813e-19)
(1.06213 -0.0139926 2.6461e-19)
(-0.219276 -0.32183 1.95173e-20)
(1.03531 0.0406498 -2.05867e-19)
(0.778496 -0.551578 0)
(0.765676 -0.024551 1.25044e-19)
(0.607431 -0.582131 -1.40851e-19)
(1.20972 0.697807 0)
(0.950239 0.0404566 -2.83952e-19)
(-0.0684008 0.638749 0)
(1.02216 -0.00133272 9.77094e-21)
(0.011665 0.75812 0)
(1.24348 0.0976222 5.87927e-21)
(0.0101426 -0.93344 5.55308e-21)
(1.56167 0.736631 2.66662e-20)
(1.11102 0.00628213 6.92645e-21)
(0.508014 0.118557 -2.97933e-19)
(2.03963 -0.334615 -3.65273e-19)
(1.05792 -0.00358168 -1.93586e-21)
(-0.826188 -0.463831 0)
(0.187712 0.536766 0)
(2.00305 -0.837856 1.08313e-19)
(0.191713 0.573432 0)
(1.06054 0.282475 1.28123e-19)
(0.582728 -0.300862 2.43453e-19)
(0.944881 -0.796552 0)
(1.19507 -0.767781 8.39721e-20)
(1.1389 -0.128925 0)
(-0.655808 0.101567 3.33706e-19)
(-0.120518 0.799617 1.49752e-19)
(0.626012 0.581721 6.48036e-20)
(2.17495 -0.659465 1.2232e-19)
(0.595787 0.254848 -2.38625e-19)
(0.185736 0.751866 6.38353e-20)
(0.755513 -0.637636 0)
(1.78833 -0.978346 2.18184e-20)
(0.573 -0.531357 0)
(2.10663 -0.213383 9.41332e-20)
(1.09439 -0.151823 -3.12458e-19)
(1.02704 -0.0112241 4.46066e-21)
(1.32303 0.256375 -1.40437e-19)
(1.33021 0.523754 0)
(1.02428 0.0253689 2.12093e-21)
(1.32564 0.404375 -8.16404e-20)
(1.25743 -0.71385 -1.1258e-19)
(1.15823 0.646729 4.14585e-20)
(0.680407 0.0773675 -4.81735e-19)
(0.823275 0.051458 0)
(2.12659 0.48637 -5.48538e-20)
(-0.857339 -0.670797 -2.1767e-19)
(1.14037 -0.0614431 -1.56815e-22)
(0.72901 -0.0396141 -2.122e-19)
(0.870775 -0.510433 0)
(0.813918 0.1754 -7.77411e-20)
(0.539575 -0.504985 -2.52152e-19)
(1.1838 -0.101936 0)
(1.01165 0.00891111 3.07858e-19)
(-0.121494 -0.971949 0)
(2.43682 0.120195 0)
(1.24676 -1.14229 5.26468e-20)
(0.994889 -0.0283494 2.00551e-21)
(1.03847 0.0182313 3.44666e-20)
(1.3113 0.350499 2.09932e-20)
(0.948065 0.0229178 3.66228e-19)
(1.04421 -0.000935814 -8.53611e-21)
(0.670588 0.170806 -2.86995e-19)
(1.0197 0.00472155 5.37911e-23)
(0.817378 0.0052328 0)
(0.0322173 0.0350075 1.26501e-19)
(0.856019 -0.6102 -1.36071e-19)
(-0.482688 0.814742 -6.62835e-21)
(1.0429 -0.101914 2.13195e-19)
(0.798937 -0.20229 0)
(0.953521 -0.00164304 3.41923e-20)
(1.37547 0.611367 0)
(1.66674 -0.924971 0)
(1.30948 0.205612 0)
(-0.773482 0.293658 0)
(0.781909 -0.653322 2.43301e-19)
(0.889347 -0.644479 -1.57783e-20)
(0.95437 -0.825362 2.50681e-20)
(1.41034 0.121469 0)
(1.06811 -0.0901043 -1.94923e-19)
(1.03721 0.0172588 1.53163e-19)
(-0.0311259 0.359933 3.53518e-19)
(0.634667 0.488522 0)
(1.86403 0.137507 -5.85263e-20)
(0.98056 -0.47701 6.80208e-20)
(0.874719 0.0426356 -1.53539e-20)
(1.96986 0.371609 1.5586e-19)
(-0.802485 0.194356 -5.26255e-19)
(0.829375 -0.747388 0)
(0.562909 0.32568 1.44904e-19)
(2.26561 0.356256 -8.53049e-19)
(-0.406861 -0.169696 -3.64105e-19)
(1.01514 -0.000638223 -5.07909e-21)
(1.07775 -0.119283 0)
(8.1e-05 -0.0512571 -3.81117e-19)
(0.702496 -0.0805777 6.71568e-20)
(1.59488 0.861 0)
(-0.155339 -0.659261 -4.27186e-19)
(0.875496 0.762182 -2.2095e-19)
(-0.00656368 -0.531615 8.16736e-20)
(1.01496 0.000170744 0)
(1.0372 -0.0329547 6.3992e-21)
(-0.767578 0.35351 0)
(0.684571 -0.496496 -9.03122e-20)
(-0.237274 -0.4118 -6.60735e-20)
(0.797549 -0.719788 0)
(0.435006 -0.295687 3.5546e-19)
(0.536699 -0.463766 2.37146e-19)
(0.429013 -0.386931 0)
(0.990784 -0.773227 -9.83337e-20)
(1.00682 -0.973357 0)
(-0.648658 -0.25001 -2.61075e-19)
(0.804227 -0.68377 1.15331e-19)
(2.06783 0.327073 1.96128e-19)
(1.81351 -0.181592 0)
(-0.670309 -0.950321 0)
(0.676283 0.631113 -2.68508e-19)
(1.83496 -0.538983 2.02103e-20)
(-0.72388 -0.668232 0)
(0.988747 -0.794605 -1.08589e-20)
(1.08221 -0.0567484 0)
(1.0476 -0.113538 3.38058e-19)
(1.93675 0.0810678 -7.87959e-20)
(-0.636663 0.300816 0)
(1.20375 -0.535347 -4.26344e-20)
(0.394839 0.851558 -7.97617e-20)
(-0.882416 0.716274 0)
(1.10223 -0.802711 1.22129e-20)
(1.00719 0.0246215 -5.14065e-19)
(0.639941 -0.484352 -8.90758e-21)
(0.801092 -0.513706 0)
(1.21074 -0.718307 -7.08828e-20)
(0.658563 0.225336 2.23566e-19)
(1.24013 0.154122 0)
(1.53712 0.00135492 -1.44215e-19)
(1.20967 -0.846699 -1.38459e-19)
(-0.673082 -0.942697 -1.79951e-19)
(-0.429209 0.586329 -2.10528e-19)
(1.08477 0.031635 1.91912e-19)
(0.927958 -0.459848 -8.5536e-20)
(1.05181 0.00316673 -4.97995e-23)
(0.977322 -0.0118677 -3.19265e-21)
(0.807703 -0.0871127 1.27799e-19)
(0.387081 -0.406097 -3.01484e-19)
(1.02652 0.0236164 0)
(1.05301 -0.018816 -3.16891e-21)
(1.43878 0.606671 8.84871e-20)
(0.798997 -0.605668 -1.77456e-19)
(1.00248 0.0144235 1.05515e-20)
(0.70849 -0.531244 2.48214e-19)
(1.3091 0.771593 8.55506e-20)
(1.65249 -0.0544591 1.27761e-20)
(-0.5647 0.179485 0)
(1.00754 0.0670751 -1.99357e-19)
(0.055536 0.428342 -3.31659e-20)
(1.03494 0.481785 6.48879e-20)
(0.529879 -0.28902 1.82356e-19)
(1.04041 0.00720222 -3.64434e-20)
(-0.190904 0.931828 -2.84588e-19)
(1.30214 0.547271 -5.47402e-20)
(1.12519 0.868716 0)
(-0.532237 0.0723084 -8.17243e-20)
(-0.138452 -0.0527668 0)
(0.653728 0.557769 -2.3372e-19)
(1.82432 -0.130159 -1.96146e-20)
(-0.655748 -0.348113 1.57625e-19)
(-0.336129 -0.0280813 -3.10003e-19)
(0.727879 0.0837886 2.115e-19)
(1.3136 -0.393411 -3.5141e-21)
(0.985683 -0.344177 -2.53738e-20)
(-0.438025 -0.623143 0)
(0.891194 0.0383661 -2.20917e-20)
(1.34205 0.956125 1.53214e-20)
(0.832178 0.0716898 -1.14992e-19)
(0.558912 0.52603 1.61791e-19)
(0.590436 0.175375 0)
(-0.584528 0.0618027 -4.76155e-19)
(0.930042 2.04622e-05 -1.61509e-20)
(1.33084 -0.960948 1.52463e-22)
(0.966534 -0.0307761 -1.62313e-19)
(-0.292955 -0.17048 -6.57647e-21)
(-0.627212 0.598095 2.23982e-19)
(-0.0491225 -0.509329 -2.18326e-19)
(1.06343 -0.12248 0)
(1.08464 0.0594352 -2.69426e-19)
(1.33723 -0.232332 1.58546e-20)
(1.27365 -0.597414 7.32409e-20)
(1.04125 -0.0230102 -1.59588e-21)
(0.592808 0.307912 0)
(0.927339 0.747703 -1.29344e-20)
(0.67893 0.63012 1.49026e-19)
(0.899674 -0.554662 1.22982e-19)
(0.678955 0.48171 0)
(0.967198 0.0182131 6.95387e-21)
(0.880936 -0.651558 1.75155e-19)
(0.826475 0.403255 -3.83273e-19)
(1.279 -0.116775 0)
(-0.178383 -0.140571 -2.49686e-19)
(-0.00818425 0.663723 -2.40806e-19)
(1.59703 0.683041 0)
(1.3806 -0.928404 -1.30496e-22)
(-0.282816 -0.466532 0)
(-0.721789 0.480866 1.53743e-19)
(0.732529 0.652895 -8.10394e-20)
(0.837622 -0.23929 0)
(0.624772 -0.688598 0)
(1.84 -0.418311 0)
(0.857233 -0.114648 -3.42752e-20)
(1.23317 -0.874376 9.08458e-20)
(1.18552 -0.598681 4.73508e-20)
(1.02056 -0.106219 -1.35235e-19)
(0.875119 -0.677536 -1.37735e-19)
(0.181623 -0.185494 0)
(0.21255 -0.257405 0)
(1.02163 -0.506879 1.41595e-19)
(-0.791019 -0.893355 0)
(-0.812918 0.0514043 0)
(-0.374895 -0.122866 3.11456e-19)
(0.783657 0.669574 7.03138e-20)
(0.995165 0.784596 0)
(0.690962 0.537978 -7.14631e-20)
(0.840025 -0.0341256 -1.90541e-19)
(0.737527 0.547228 -1.9033e-19)
(0.59439 0.554043 -1.39298e-19)
(-0.858388 -0.793768 7.29055e-21)
(0.718884 -0.637356 0)
(0.893137 0.160256 -2.71063e-19)
(-0.971715 -0.61695 1.02338e-19)
(0.604004 0.563511 3.09288e-19)
(0.940398 0.791615 0)
(0.836322 -0.124367 -2.66247e-20)
(-0.149956 -0.923386 7.64662e-19)
(0.444499 -0.488301 -4.60451e-19)
(0.662694 0.561622 -1.24379e-20)
(0.967359 -0.0192023 4.83731e-20)
(-0.763124 -0.269676 0)
(1.49317 0.26866 -6.11169e-20)
(0.968546 -0.0455535 1.15683e-20)
(0.644746 -0.591897 -6.22294e-20)
(0.0562365 -0.634029 1.92075e-21)
(1.186 0.43222 1.41223e-19)
(0.877702 0.391817 0)
(1.09933 -0.148334 1.66475e-19)
(0.262424 -0.300054 -3.59351e-21)
(-0.43159 0.951069 6.61567e-19)
(1.01533 0.00591625 -4.41152e-20)
(1.16882 0.103924 0)
(1.55533 0.120059 -1.13725e-19)
(1.57445 -0.0980524 0)
(0.545294 0.234832 -3.93956e-19)
(-0.698435 0.67137 0)
(-0.913302 -0.784117 4.3063e-19)
(0.839191 0.0717777 0)
(0.612038 -0.51789 -1.5295e-19)
(1.05411 -0.00891229 1.77256e-19)
(-0.746326 0.128679 4.5124e-20)
(1.23731 -0.0550776 -5.48108e-21)
(2.10951 0.199877 -1.45718e-19)
(1.0682 0.220325 -1.81028e-19)
(-0.882094 -0.398625 -1.69526e-19)
(1.08704 -0.843175 0)
(0.814776 0.025963 -1.29518e-19)
(0.939999 -0.384452 -2.43107e-19)
(1.73739 -0.559259 -8.62225e-21)
(1.58628 -0.0220604 1.28375e-19)
(1.04882 0.0190083 3.20894e-19)
(0.236276 0.115626 -4.25152e-19)
(1.02076 -0.43944 -1.03378e-19)
(0.192487 -0.186133 2.16048e-19)
(0.98456 -0.0336785 0)
(1.01958 0.00232284 0)
(1.03042 -0.0441446 -6.01603e-21)
(-0.297286 0.199386 -2.34472e-19)
(0.241147 -0.114009 -1.74879e-19)
(0.869503 -0.0714683 3.83378e-21)
(1.04148 -0.178188 0)
(1.28177 -0.388654 -1.07354e-20)
(0.966144 -0.830963 -5.50166e-20)
(1.86257 -0.56734 -9.23401e-20)
(1.09003 0.818729 0)
(0.464792 -0.450764 0)
(0.603626 0.505949 -1.50062e-19)
(1.05665 0.251486 -3.29345e-19)
(2.03119 0.0843139 3.53122e-22)
(0.839882 0.155487 1.1673e-19)
(0.250873 0.772513 -9.66968e-19)
(1.03905 0.00462409 2.52681e-21)
(-0.580318 0.329766 0)
(-0.576613 -1.02873 0)
(-0.586146 -0.130654 0)
(1.35376 -0.701855 -5.38217e-20)
(-0.847 0.761355 -4.57493e-19)
(-0.699968 0.930254 0)
(1.29647 0.954901 -1.33902e-20)
(1.08533 0.124185 -3.43183e-19)
(1.03887 0.0298994 3.90294e-21)
(1.07451 0.905489 4.9242e-20)
(-0.805276 0.616211 2.88697e-19)
(1.02914 0.00944777 0)
(-0.515165 -0.0869635 -2.73712e-19)
(-0.757888 0.50301 4.69949e-19)
(0.774591 0.0417751 1.56103e-19)
(1.55704 0.907143 4.45438e-20)
(1.03005 -0.000903575 4.28333e-21)
(-0.51983 0.883582 9.98317e-21)
(0.745455 -0.672816 -2.97155e-20)
(1.30438 -0.0775235 0)
(1.57729 0.0312714 0)
(1.14723 0.00879335 0)
(0.969916 0.0238683 1.63298e-20)
(-0.707735 -0.0236978 1.11137e-19)
(1.0289 0.831622 0)
(0.956666 0.0230701 4.3379e-19)
(0.758409 0.592195 -1.90086e-19)
(0.927036 0.0102419 1.17151e-20)
(0.848959 -0.00286452 -3.48451e-20)
(0.710403 -0.64057 -1.78472e-19)
(1.39786 0.67443 -1.76096e-20)
(0.557417 -0.459803 -2.47199e-19)
(1.03906 -0.000173266 -3.88145e-19)
(1.01453 0.0585379 3.87071e-20)
(1.52603 -0.149416 4.3513e-20)
(1.00001 0.00303557 1.2911e-21)
(-0.578387 -0.686388 1.8996e-21)
(1.05284 0.474311 -2.16199e-19)
(1.46066 0.627195 1.06966e-19)
(0.58978 -0.7681 0)
(-0.35882 0.578367 3.39695e-19)
(-0.22976 -0.149744 1.04358e-19)
(-0.142945 -0.406654 -1.71557e-19)
(0.469684 0.290369 0)
(0.99347 -0.031277 0)
(-0.0894279 0.161036 -2.0853e-19)
(-0.891415 -0.534315 -1.00223e-19)
(1.03616 0.00447238 1.5392e-19)
(-0.507841 0.269379 -4.43348e-20)
(1.03214 -0.214028 1.21925e-20)
(0.135701 -0.13476 0)
(0.836314 -0.731226 -2.39713e-19)
(1.0074 0.00209899 -1.49996e-21)
(-0.203806 0.627267 5.02156e-20)
(0.71872 0.159269 2.79444e-19)
(0.623979 0.128742 9.10811e-20)
(0.492307 -0.468184 1.69295e-19)
(-0.760863 -0.695328 -1.97189e-19)
(1.03993 -0.00784884 0)
(0.384111 0.320931 -1.67565e-19)
(1.01569 0.0123114 -2.46499e-19)
(-0.331174 -0.0265231 1.2793e-19)
(1.41125 0.419131 -7.57011e-20)
(-0.820495 -0.909283 -9.02039e-20)
(0.719091 -0.650938 -1.86798e-20)
(0.802011 0.1808 -1.73672e-19)
(0.968142 0.418544 1.86841e-20)
(1.10084 -0.094405 2.96411e-20)
(0.592581 -0.242303 -2.55434e-19)
(2.07123 -0.134029 -1.82163e-19)
(0.818157 -0.0177973 0)
(0.986713 0.00309529 2.57074e-21)
(0.875897 0.0276439 -3.45257e-21)
(1.52869 1.04711 9.37358e-20)
(1.30597 0.265955 -2.07758e-19)
(1.03079 0.00687237 -3.0487e-21)
(0.414331 0.374731 -2.16131e-19)
(-0.124265 -0.695312 2.09816e-19)
(1.83839 0.72882 0)
(1.01223 0.011432 0)
(0.885238 -0.774082 4.46886e-20)
(-0.360128 -0.774513 -8.3544e-19)
(0.332347 -0.382087 -8.28168e-21)
(-0.665397 -0.803643 -3.8874e-19)
(-0.538575 -0.301567 -1.59668e-19)
(-0.341571 0.641537 0)
(-0.553221 -0.943745 6.7966e-20)
(0.733772 0.289829 -2.69306e-19)
(-0.644089 0.558684 -5.01396e-19)
(0.7926 -0.129705 0)
(1.05032 -0.0337953 -5.05445e-21)
(-0.267232 -0.225878 0)
(0.969454 -0.00303134 3.12025e-19)
(-0.0808379 0.868909 2.36495e-21)
(0.533894 -0.432438 3.31284e-19)
(0.0201487 0.349113 5.49937e-20)
(0.777401 -0.00603315 0)
(0.251226 -0.296226 3.03641e-19)
(1.02375 -0.0137438 -9.31078e-21)
(0.542468 -0.716525 0)
(1.02623 0.00177701 -4.79642e-20)
(0.858209 -0.712561 -2.31966e-19)
(0.99617 -0.0436175 0)
(0.918944 -0.288385 1.73289e-19)
(-0.0602634 -0.506216 3.55476e-19)
(-0.167695 -0.25549 0)
(-0.845313 0.196394 -1.18146e-20)
(0.715235 -0.623644 -3.51332e-19)
(1.00973 -0.0595219 -2.26595e-19)
(-0.200641 -0.610118 1.16203e-18)
(-0.878646 -0.902092 2.94497e-19)
(-0.672374 0.467394 0)
(0.946204 0.464459 0)
(-0.0428597 0.92329 1.13381e-19)
(1.26066 0.371601 -1.99739e-20)
(1.06446 0.87739 1.2931e-20)
(1.03169 0.19649 -1.02872e-19)
(1.07458 -0.0296926 -1.91103e-19)
(1.2093 0.0518793 -6.46725e-20)
(-0.516146 -0.4782 -1.01543e-18)
(1.1258 -0.0963396 7.6529e-20)
(0.887688 0.0406952 1.69655e-19)
(1.15542 0.10558 2.32028e-20)
(1.16311 -0.237058 0)
(0.916342 0.137213 -2.54878e-20)
(1.01705 0.0362097 -4.23445e-19)
(1.73251 0.543165 -2.06421e-20)
(0.722635 -0.456017 -1.35218e-19)
(-0.0153601 -0.098353 2.84002e-19)
(0.79471 -0.687367 3.06112e-19)
(1.20968 0.189897 5.87027e-20)
(0.995558 0.00642227 2.13474e-19)
(-0.0597632 0.444873 -4.40752e-19)
(1.01004 0.0295211 0)
(1.04458 0.046596 -6.08738e-21)
(-0.150204 -0.321998 0)
(1.05498 0.0148692 -1.25572e-19)
(0.865578 -0.0444467 3.99352e-20)
(1.65315 0.169732 1.34895e-20)
(-0.310044 -0.118245 1.2735e-19)
(1.57001 0.0342942 -1.41562e-20)
(1.0537 -0.00975434 4.39411e-20)
(1.32546 -0.118753 0)
(1.46146 -0.574456 -8.9892e-20)
(1.0016 0.0491574 -1.31074e-19)
(1.45821 0.764292 -1.22786e-20)
(1.32724 -0.0375736 0)
(1.01292 -0.00965115 1.79592e-21)
(-0.0850855 0.194267 0)
(1.45655 0.0714773 0)
(-0.793241 -0.225389 0)
(1.21821 0.454809 0)
(2.14232 0.0985068 6.94714e-20)
(0.736227 0.612041 3.3286e-19)
(0.284717 -0.286318 -2.00426e-19)
(-0.962423 -0.726404 -7.12645e-19)
(-0.449175 -0.652177 0)
(1.07709 0.00369132 -2.58404e-21)
(1.56656 0.472703 0)
(1.45794 0.256233 0)
(-0.489494 0.00332379 1.18738e-19)
(0.797966 0.711359 1.00803e-19)
(1.67848 0.027231 0)
(-0.698284 -0.531403 1.09804e-19)
(0.89672 0.215202 1.58994e-19)
(1.03008 -0.0407208 2.78933e-21)
(1.23784 0.903648 2.85401e-20)
(0.946509 -0.845069 -2.05688e-20)
(0.831818 0.000131977 2.91169e-22)
(0.783911 0.713256 1.02131e-19)
(1.17707 0.904455 0)
(1.12435 -0.0721658 1.7409e-22)
(0.97781 0.10141 0)
(1.01919 -0.017493 -4.62664e-21)
(1.06318 0.421187 2.49513e-19)
(0.998582 -0.0227643 0)
(0.933654 0.110228 -2.41718e-20)
(0.86696 -0.195838 4.03416e-20)
(0.616622 -0.411604 0)
(0.652399 -0.384609 1.79165e-19)
(1.22722 0.534577 -2.56923e-20)
(0.479634 0.450357 2.3435e-19)
(-0.652537 0.569977 5.52701e-20)
(0.923274 0.598905 2.26231e-19)
(0.989887 0.00524229 0)
(1.34385 -0.888979 -3.26008e-20)
(1.04492 -0.0131552 3.42608e-19)
(1.57411 0.313741 1.64373e-19)
(-0.64187 -0.383699 9.12124e-20)
(0.24232 0.377614 0)
(1.16742 -0.253424 -8.98208e-20)
(-0.217982 -0.342031 -2.86344e-19)
(0.882724 0.323884 3.0333e-21)
(-0.118177 -0.0262099 1.35405e-21)
(-0.23918 0.0587057 4.00623e-19)
(1.05037 0.00317073 -3.50421e-22)
(1.60962 0.252265 8.19338e-20)
(1.17683 0.428062 -2.27739e-19)
(1.13379 -0.0656173 0)
(1.43068 0.0263028 7.86115e-20)
(1.4263 0.0173437 4.08285e-20)
(0.912728 -0.753233 1.12169e-19)
(1.19659 -0.992446 -1.20085e-20)
(0.484531 0.449868 1.56014e-19)
(1.00783 0.158136 0)
(1.77928 0.538426 5.44234e-20)
(-0.287676 -0.499769 -5.90193e-19)
(0.872214 0.764439 0)
(1.04529 0.000314807 0)
(0.286184 -0.286766 -3.63815e-21)
(0.314114 0.28204 0)
(0.304717 0.19918 2.7609e-21)
(-0.719763 0.552844 -1.82783e-19)
(1.83124 -0.439594 0)
(1.25461 0.0856104 1.06149e-19)
(0.290808 -0.581857 8.31977e-21)
(0.52349 -0.495627 -3.84081e-19)
(1.36615 0.134923 -1.17812e-20)
(0.601423 -0.542985 0)
(1.10113 0.117485 0)
(1.3893 -0.442488 0)
(1.08651 0.235973 -1.91235e-19)
(1.21478 0.0686088 2.69069e-19)
(0.719577 -0.0485886 0)
(1.02126 0.0483958 0)
(1.1257 -0.0390299 4.04853e-21)
(-0.570953 0.890972 2.00645e-19)
(1.27712 -0.185231 -1.9581e-20)
(1.20154 -0.544986 2.4058e-19)
(0.986499 -0.0583662 -2.94557e-20)
(0.0245196 -0.353515 -3.03288e-20)
(1.38113 -0.150054 -6.20053e-20)
(0.998835 -0.0281116 3.52905e-19)
(1.52744 0.560321 0)
(-0.874065 0.480478 5.05228e-20)
(1.01134 -0.821371 1.32835e-19)
(0.85936 -0.00130611 4.07298e-20)
(0.622224 -0.435388 0)
(1.96364 -0.377806 9.20772e-21)
(1.22047 -0.197252 1.15103e-19)
(1.01891 0.00982098 0)
(0.608369 -0.560036 3.54437e-19)
(1.0006 0.0081096 3.41088e-21)
(1.24886 -0.261597 2.41682e-20)
(-0.728101 0.874651 -4.38916e-19)
(1.32941 0.582057 1.05028e-19)
(1.12986 0.40941 2.93476e-21)
(0.893394 0.355781 1.87887e-19)
(1.17518 0.324719 -2.81248e-21)
(-0.467633 -0.410135 -9.06215e-21)
(1.58721 0.993856 0)
(-0.161663 -0.0168106 4.37578e-19)
(1.14124 -0.980342 0)
(1.07119 -0.639074 1.71474e-20)
(1.1215 0.52676 -1.80316e-20)
(1.01819 0.0416278 -3.12643e-21)
(-0.445349 0.294004 -2.02317e-19)
(0.971751 0.477979 1.43244e-19)
(0.953989 0.0512826 -1.80327e-20)
(0.866665 -0.00743514 0)
(0.841963 -0.00868368 0)
(0.806747 0.00370967 1.90925e-21)
(0.802019 -0.0390264 0)
(1.33136 -0.214448 -1.18447e-19)
(0.22619 -0.155251 2.12947e-21)
(1.9039 0.386541 6.21953e-20)
(1.06151 0.016595 0)
(0.543324 -0.35714 8.79072e-20)
(1.01038 0.0307298 1.68134e-19)
(0.983615 0.0539424 1.37633e-20)
(-0.146473 -0.828654 0)
(1.11232 -0.472881 3.87219e-19)
(1.00981 -0.00519662 -7.46017e-26)
(1.09263 -0.492978 -1.6874e-19)
(2.03085 -0.0628946 1.86411e-19)
(1.30112 0.771436 0)
(0.978236 0.00625308 0)
(-0.601061 -0.22564 -1.94524e-19)
(-0.110846 0.221701 2.34989e-19)
(0.953233 0.349585 -1.71781e-19)
(0.595837 0.659791 -3.46941e-19)
(0.644379 0.389889 2.0657e-19)
(1.00145 0.00999261 0)
(0.533428 -0.492627 0)
(1.03188 -0.00984535 4.35147e-22)
(1.19496 -0.489749 -7.64134e-20)
(1.13604 -0.529083 3.02281e-20)
(0.719057 -0.167681 1.00714e-19)
(-0.444696 0.884471 -4.85759e-19)
(1.16953 -0.610212 2.09507e-20)
(0.660861 0.621342 0)
(1.27318 0.670744 0)
(1.50109 0.186826 0)
(-0.650287 0.328326 -1.75639e-19)
(1.38292 0.578062 2.81911e-19)
(1.36086 0.134037 1.15071e-20)
(1.07702 -0.00126839 0)
(1.02741 -0.00860604 0)
(1.40118 -0.0714695 -6.38839e-20)
(0.973506 0.0909935 -1.61679e-20)
(0.992428 0.0207846 -1.66784e-19)
(1.45929 0.487666 0)
(-0.59436 -0.3308 0)
(1.21652 0.269727 2.31798e-19)
(0.999336 0.526606 -1.05186e-19)
(1.02305 0.0245582 0)
(1.10387 0.273271 0)
(2.09304 0.591149 -3.91973e-19)
(-0.534321 0.778001 -2.4046e-20)
(1.03899 0.0247082 0)
(0.701961 0.453163 -2.81154e-20)
(0.95132 -0.828508 0)
(1.05504 -0.00292309 3.85331e-20)
(1.03768 0.00231495 1.20322e-20)
(0.891972 -0.334338 2.55675e-19)
(1.00785 -0.0142825 -7.24794e-21)
(1.79296 0.20903 1.93963e-19)
(1.03367 -0.0108587 7.23995e-22)
(0.824874 -0.0541928 0)
(0.96433 -0.0359917 0)
(0.00479875 0.638389 0)
(0.660373 0.636398 -1.50534e-19)
(-0.460333 0.819263 3.27407e-19)
(1.13212 0.343467 -3.72671e-19)
(-0.569854 0.0396918 0)
(0.816907 0.636006 1.38755e-19)
(1.01669 -0.314932 0)
(0.9946 0.0246237 9.73816e-20)
(0.947879 0.221998 -2.73829e-21)
(1.01193 0.401117 2.07884e-19)
(1.31139 -0.681763 0)
(1.76646 -0.200627 -3.81184e-20)
(0.81858 -0.112117 -3.08431e-19)
(0.442444 0.176515 3.0311e-20)
(0.987032 0.135821 0)
(0.868642 0.236651 1.4739e-19)
(1.77574 0.493356 0)
(0.765837 0.503285 3.03458e-19)
(0.409716 -0.0668986 -1.29782e-20)
(-0.591588 0.911078 0)
(0.595192 0.56861 -5.85487e-20)
(1.03479 -0.629971 -1.20285e-19)
(0.473499 -0.260716 -1.04411e-19)
(1.00121 -0.0475752 0)
(0.0653579 -0.831237 -7.73012e-20)
(0.626525 -0.561285 6.77224e-20)
(0.892829 0.286305 0)
(1.06369 -0.0332044 -5.98793e-21)
(0.970732 0.824292 1.84734e-20)
(1.0045 0.0128727 -1.14555e-20)
(1.15939 -0.292192 -6.66394e-19)
(0.235731 -0.0751025 -4.7625e-19)
(-0.746615 -1.01467 1.76571e-20)
(0.806332 0.340385 2.06867e-19)
(-0.877137 0.629416 -9.7947e-21)
(1.42141 -0.609111 3.75051e-21)
(1.03659 -0.00795106 -2.91003e-19)
(-0.437996 0.491359 0)
(0.981244 0.0356365 -3.39263e-19)
(1.21588 0.186575 2.33889e-21)
(0.870845 0.686708 2.28567e-19)
(1.02224 -0.0882602 1.3553e-19)
(0.98903 -0.0223458 1.35083e-19)
(1.02357 0.00925797 2.86047e-21)
(-0.498901 -0.365436 -5.36614e-22)
(1.81619 -0.857314 1.74491e-20)
(1.15925 -0.114903 -6.07203e-20)
(1.04975 0.0592061 6.97284e-20)
(0.907945 -0.309231 7.52758e-20)
(0.782932 -0.0285288 0)
(0.941439 0.731302 0)
(0.950343 0.265672 3.2632e-21)
(1.85322 0.07911 -1.94204e-20)
(0.0983351 0.0909997 1.17995e-20)
(1.04343 -0.533573 -4.14296e-19)
(0.605865 -0.53218 3.26569e-19)
(1.96707 -0.549606 -1.14674e-19)
(1.07714 0.211788 4.49559e-20)
(1.02587 -0.00660693 0)
(0.747105 0.119056 -5.74101e-21)
(1.00817 -0.0203068 1.02867e-20)
(1.01813 0.754235 0)
(1.03032 -0.018748 0)
(0.827686 -0.484267 0)
(-0.819 -0.812298 -1.08995e-19)
(0.241038 0.165088 0)
(1.0316 0.0708472 -1.47725e-20)
(1.16893 0.183701 5.18731e-21)
(0.825623 -0.0184262 -1.61357e-20)
(1.03164 0.00708493 -1.97468e-21)
(1.87982 0.426569 -1.00655e-19)
(2.0135 -0.155383 -2.84128e-20)
(-0.22032 -0.063453 -2.82061e-19)
(-0.328857 0.669692 8.84663e-21)
(1.02884 0.0279319 0)
(0.804357 -0.0124904 0)
(0.991889 -0.00127304 1.11637e-21)
(-0.635565 0.309923 0)
(1.31177 0.0624823 -6.23761e-20)
(0.762326 -0.00433325 0)
(1.08243 0.0358979 1.08143e-19)
(1.02845 0.0359448 -3.8094e-20)
(1.10058 -0.480586 -3.09848e-21)
(1.02376 0.0306972 -7.83958e-22)
(0.900498 -0.192205 -4.55765e-20)
(1.0256 -0.0410597 3.1204e-19)
(0.65948 -0.60001 1.52374e-19)
(0.911779 -0.0385135 1.67816e-20)
(1.00411 0.0107855 -2.85552e-21)
(-0.155139 0.369599 0)
(1.10871 0.781023 0)
(1.03138 -0.00874141 0)
(1.00621 -0.758102 -8.19378e-20)
(1.07033 -0.905282 1.29301e-20)
(1.03572 -0.0386408 2.53153e-21)
(0.870294 0.145024 4.98808e-20)
(1.02276 -0.00663356 2.56191e-21)
(0.574634 -0.389503 -5.34578e-19)
(0.988377 0.0133894 4.23095e-21)
(1.02142 -0.0109503 -8.07546e-21)
(2.12048 0.0312382 1.16171e-19)
(1.00614 -0.00539341 3.35639e-21)
(-0.822905 -0.558953 -1.91188e-19)
(1.08815 0.55101 1.56149e-19)
(0.521158 -0.698384 0)
(0.354157 0.916866 5.09746e-19)
(-0.38357 -0.912352 9.84858e-21)
(1.02315 -0.00802709 2.79705e-19)
(1.02416 0.00819841 -7.25483e-21)
(1.02996 -0.0122502 -7.68895e-20)
(1.02631 -0.00419611 5.12562e-21)
(1.55435 0.263105 3.69486e-20)
(0.39423 -0.372699 -2.64146e-19)
(1.02946 -0.0172808 -3.64559e-21)
(1.01822 -0.0245001 -2.0576e-19)
(1.02574 0.0155459 2.93884e-21)
(1.03467 -0.00606262 0)
(1.08515 0.582309 -2.9138e-19)
(1.02822 0.0116442 7.82684e-20)
(0.677344 0.604438 2.17089e-19)
(1.02068 0.00119446 -2.32727e-22)
(1.03033 -0.0162534 -2.54893e-20)
(1.01307 0.00731482 7.24162e-22)
(1.43378 -0.280462 2.01571e-21)
(0.769733 0.0211168 0)
(1.01612 -0.00413297 0)
(1.05868 -0.0381182 4.89334e-19)
(1.00021 -0.00909115 0)
(-0.461379 -0.832558 0)
(1.05582 -0.631594 0)
(1.00716 -0.0207366 -4.59865e-19)
(1.16327 -0.666339 6.26249e-20)
(1.00797 0.0156097 9.67583e-21)
(1.35172 0.927447 -8.7101e-21)
(1.54393 0.980285 -1.18071e-19)
(1.01354 -0.00745527 -4.22909e-21)
(1.04389 0.218882 -4.93648e-21)
(0.813058 0.00474565 0)
(-0.320002 0.462014 0)
(1.32116 0.463905 3.03023e-20)
(1.01709 -0.0317302 0)
(1.00022 0.00497683 -1.43141e-19)
(1.01593 -0.0135486 2.77792e-19)
(1.30396 0.111823 -5.50472e-20)
(0.0234381 -0.0765878 3.399e-19)
(1.02077 -0.0192059 1.52311e-19)
(0.991681 -0.017643 -4.05024e-21)
(1.02197 0.00854027 8.43342e-22)
(1.01309 0.0124715 5.02107e-23)
(0.95003 -0.0208447 -1.52134e-19)
(1.003 0.000682611 1.79158e-19)
(0.999137 0.00887599 1.05627e-20)
(0.846168 -0.04153 0)
(0.788659 0.0239885 0)
(0.798152 -0.00225266 2.2638e-22)
(0.775017 -0.00785171 0)
(0.822221 -0.0120258 0)
(0.757768 0.0472605 0)
(0.809925 -0.0189819 -4.60736e-21)
(0.978272 0.033329 2.15313e-21)
(1.03131 -0.00871931 0)
(1.01093 -0.00864557 1.65677e-21)
(1.02455 0.00321829 0)
(0.835187 0.0187594 0)
(0.790565 0.00998316 0)
(0.764734 0.00609103 8.66254e-22)
(0.779024 0.00323831 -6.58259e-21)
(0.90156 0.0199024 0)
(0.815687 0.00332693 0)
(1.01915 -0.0045855 -1.87072e-19)
(0.857261 0.00986196 3.51054e-19)
(1.00346 0.000675478 0)
(1.01015 0.00111407 3.3109e-19)
(1.01267 0.000291182 -2.65018e-22)
(0.872029 0.0562295 2.97354e-19)
(1.01724 0.00902945 -1.74436e-19)
(0.987187 -0.0125671 0)
(0.785181 -0.0251384 -8.44055e-22)
(0.978393 -0.00160068 -1.67383e-19)
(1.00013 0.015606 -2.8718e-19)
(1.01951 0.00185637 0)
(0.996944 -0.00292048 0)
(1.0213 -0.00121657 0)
(0.999672 -0.00850417 -2.73737e-21)
(1.01425 0.00332841 2.819e-21)
(1.02726 0.0121933 0)
(-0.535061 0.311018 2.1511e-19)
(0.937524 0.0653339 2.36914e-20)
(1.02246 -0.00154941 -2.23161e-19)
(-0.954953 -0.301299 -1.5335e-19)
(0.989335 0.0142716 -1.81348e-19)
(1.2649 -0.194004 -7.7034e-20)
(0.780673 -0.469536 2.52818e-19)
(-0.609215 -0.781827 -1.56948e-19)
(1.03673 -0.0282394 0)
(1.02009 0.00570607 -4.91247e-20)
(0.989808 0.012752 0)
(-0.242415 0.736128 4.21715e-19)
(1.00018 -0.0256696 0)
(-0.695798 0.0209232 -2.71232e-19)
(0.989256 0.00725431 2.86301e-21)
(1.6787 0.638858 7.07534e-20)
(-0.0879729 0.166639 0)
(1.06077 -0.00693806 1.52619e-19)
(1.01247 0.0182673 5.43089e-22)
(0.918584 -0.015196 2.38267e-19)
(1.02955 -0.0148283 -1.50092e-19)
(1.71046 0.81393 8.1253e-20)
(0.526847 0.491169 0)
(0.441772 0.383965 1.74892e-19)
(0.996941 0.0371832 4.70528e-22)
(1.11248 0.108215 1.58861e-19)
(1.09297 -0.699335 0)
(1.00574 0.00917324 0)
(0.997716 0.0133476 -3.52164e-19)
(1.04207 0.0318549 -3.40745e-19)
(-0.79962 -0.980009 0)
(1.21769 0.800746 -8.73283e-20)
(1.04641 -0.0190808 2.47774e-22)
(1.02668 -0.0134504 1.31315e-19)
(1.04297 -0.00935377 -1.64886e-19)
(-0.493608 0.0256186 -2.33218e-20)
(1.0311 0.00432399 -6.1063e-21)
(1.03266 -0.00430992 5.59112e-19)
(1.02967 -9.79004e-05 0)
(1.92056 0.627288 -8.63162e-20)
(1.00719 -0.0118953 -1.75504e-19)
(1.20127 0.0775824 -2.24533e-20)
(1.04115 -0.008065 -4.05291e-22)
(1.00019 -0.0521751 3.50958e-20)
(1.87378 0.340572 -1.74919e-19)
(1.0286 -0.0125361 1.69473e-19)
(1.01631 -0.0140785 -1.94455e-22)
(0.978414 -0.0149783 0)
(0.915905 0.144515 4.166e-20)
(0.738625 0.0944282 -4.14724e-22)
(1.03836 0.0240003 1.69281e-19)
(1.04338 0.0223554 1.99746e-22)
(1.00326 0.00383059 -9.11323e-22)
(1.21803 0.293337 3.20823e-19)
(1.03156 0.0015414 1.15264e-19)
(1.03059 -0.00421697 1.3494e-21)
(1.67671 0.189359 -8.92128e-21)
(1.88948 0.943189 -1.38923e-19)
(0.777402 -0.689651 4.62214e-20)
(0.448001 -0.337204 -2.59926e-19)
(0.998897 -0.00382069 0)
(1.01335 0.00365163 4.14298e-20)
(1.00381 0.00626839 9.02762e-20)
(1.01481 -0.0117393 6.03869e-23)
(0.977192 0.0182857 -1.75582e-19)
(1.01661 -0.0337324 2.03737e-19)
(1.05956 -0.00795369 -1.67269e-19)
(1.0008 0.0203544 1.11726e-22)
(0.985766 -0.0103946 -1.09118e-21)
(1.0405 0.0260906 1.68692e-19)
(0.883952 0.0864632 4.30769e-19)
(1.02885 0.034275 0)
(0.935924 0.501439 -1.19119e-20)
(1.04832 -0.00376041 0)
(1.00929 -0.0202375 -4.91987e-20)
(1.51461 0.375047 -4.87257e-20)
(0.91864 0.0712441 0)
(1.08023 -0.0266499 2.69922e-21)
(1.03482 0.0556021 2.82041e-21)
(0.934557 0.0104054 0)
(1.45718 0.497241 0)
(0.983219 0.0470237 1.36403e-20)
(1.01365 -0.0349185 -1.68851e-21)
(1.00926 0.00221513 -1.7878e-19)
(1.11734 -0.556109 -4.75149e-20)
(1.00779 0.0127273 -3.34516e-21)
(1.01443 0.000206902 0)
(1.01251 -0.00219332 0)
(1.04237 0.0397053 0)
(0.778287 -0.204725 2.64318e-19)
(1.03841 0.0156033 5.96373e-21)
(0.980548 0.025644 0)
(0.264061 -1.01628 -2.45184e-19)
(1.72512 0.944215 -1.19375e-19)
(0.99893 -0.00670438 -3.46718e-19)
(1.02217 0.00174117 1.31509e-21)
(1.03321 0.00475479 2.32058e-19)
(0.891709 -0.0213874 0)
(-0.657675 -0.983973 -5.64506e-20)
(0.612032 0.414737 -2.90596e-19)
(1.06757 0.0339467 -7.89218e-21)
(0.416153 -0.896361 0)
(1.0091 0.0292842 6.34595e-20)
(0.52564 0.501772 4.36006e-20)
(1.1808 0.862103 -2.22387e-20)
(-0.0348483 -0.167688 1.93131e-19)
(1.01015 0.033277 0)
(1.02714 0.0154847 4.42543e-21)
(1.02001 -0.0383166 1.30927e-19)
(1.6994 -0.321345 0)
(0.975577 0.00133499 2.18356e-19)
(0.568835 1.04209 -2.58435e-19)
(1.01155 -0.00632228 -1.36808e-19)
(1.02642 0.00191713 0)
(1.09025 -0.03832 8.06985e-26)
(1.01811 -0.0047868 -8.95689e-20)
(0.972481 -0.0449338 2.4112e-19)
(1.07794 0.103798 -3.12449e-21)
(1.01654 -0.0122947 -4.35989e-21)
(-0.0473783 -0.147011 4.61318e-19)
(2.28354 -0.21247 2.04656e-19)
(1.02896 0.00657442 4.84897e-21)
(0.81988 -0.0224276 -3.30629e-19)
(0.946923 0.0179856 0)
(1.01739 0.00551461 4.27271e-21)
(1.02258 -0.0275178 -2.64527e-20)
(0.96186 0.0311225 0)
(1.03189 -0.00136408 -1.67795e-19)
(1.003 -0.0166325 -5.72422e-21)
(0.495666 0.0540195 -1.39388e-20)
(2.25087 -0.410434 0)
(0.754009 -0.127797 4.68646e-20)
(1.49249 -0.270339 0)
(0.97834 -0.0346207 4.90792e-20)
(1.03168 -0.0173077 -1.59462e-22)
(1.04229 -0.0113481 1.40418e-19)
(0.460614 -0.302714 -2.00317e-20)
(1.00243 0.0138692 0)
(1.01364 -0.00876315 -3.38298e-19)
(0.966919 0.0238585 1.79011e-19)
(1.03109 0.00164066 0)
(1.03489 0.000853074 5.16403e-23)
(1.00137 0.00269836 -1.54359e-19)
(-0.963266 -0.395948 7.34871e-19)