/*--------------------------------*- C++ -*----------------------------------*\
| =========                 |                                                 |
| \\      /  F ield         | OpenFOAM: The Open Source CFD Toolbox           |
|  \\    /   O peration     | Version:  2306                                  |
|   \\  /    A nd           | Website:  www.openfoam.com                      |
|    \\/     M anipulation  |                                                 |
\*---------------------------------------------------------------------------*/
FoamFile
{
    version     2.0;
    format      ascii;
    arch        "LSB;label=32;scalar=64";
    class       surfaceScalarField;
    location    "38.9";
    object      phi;
}
// * * * * * * * * * * * * * * * * * * * * * * * * * * * * * * * * * * * * * //

dimensions      [0 3 -1 0 0 0 0];

oriented        oriented;

internalField   nonuniform List<scalar> 
3181
(
-0.992985
0.380879
0.612106
-0.366185
0.343838
0.0223472
0.490478
-0.337723
-0.152756
0.106876
-0.180256
0.0733799
-0.0643032
0.0878183
-0.0235151
0.76217
1.00849
-1.77066
0.1365
-0.130743
-0.0057568
-0.011641
-0.000677581
0.0123186
0.501475
-0.696491
0.195015
-0.07706
0.121771
-0.0447114
-0.0109409
-0.0567129
0.0676539
0.115004
0.0450947
-0.160098
-0.00302518
0.0131777
-0.0101525
-1.09604
0.156027
0.940017
-0.305632
0.655991
-0.350358
-1.12594
0.645468
0.480475
0.0830899
-0.929021
0.845931
-0.137674
0.167135
-0.0294605
-1.4763
0.117628
-0.000982558
0.0708345
-0.0698519
0.0633456
-0.102137
0.0387912
-0.0530954
0.0523593
0.000736143
1.06033
-1.03973
-0.0205954
0.0283153
0.0277027
-0.056018
-0.956506
0.333733
0.622773
-0.103229
0.210105
0.297716
-0.264467
-0.0332487
0.0268193
0.0565542
-0.0833735
-0.440391
0.363372
0.0770189
-0.0357166
-0.0228008
0.0260673
-0.00326655
-0.0449598
-0.911546
0.070616
-0.0578596
-0.0127563
0.325163
1.32869
-1.65385
-0.0576559
0.0404005
0.0172554
0.194311
0.293119
-0.487429
1.82998
-1.50482
0.0810306
-0.017685
1.66451
-0.927053
-0.73746
-1.03218
1.79435
0.0035276
-0.00655278
-0.0408586
-0.0122369
-0.38318
0.077548
-0.152098
0.111239
-0.662291
0.125169
0.537122
-0.131307
0.0542472
-0.155871
0.159562
-0.00369152
-0.251904
-0.0734291
0.325333
-0.1941
1.19614
-1.00204
0.0495692
0.134305
-0.183874
-0.0237833
-0.109977
0.116776
-0.00679892
0.481787
0.174204
-0.0932367
0.161729
-0.0684922
0.0812631
-0.0106471
-0.156794
0.180321
-0.0235267
0.151611
0.053454
-0.205065
0.0985697
-0.104017
0.00544759
1.24745
0.417067
-0.822754
-0.170231
0.0653908
-0.971331
0.90594
0.58191
0.247172
-0.829082
-0.47187
-0.221868
0.693737
-2.11903
1.08685
-0.290013
0.871923
-0.300636
-0.099904
0.40054
-0.220154
-0.220236
-0.176601
0.175371
0.0012292
0.167888
0.270485
-0.438373
-0.183247
0.684722
-0.00498618
-0.00665484
-1.52327
1.58866
0.160055
0.137661
-0.158629
-0.109197
0.267826
-0.265432
0.375726
-0.110294
-0.0711214
0.0795974
-0.00847595
-1.71737
-0.920726
0.0122934
0.908432
-0.0157873
-0.0418686
-1.18622
0.840603
0.345614
0.462141
-0.369492
-0.0926496
-1.95069
-0.168343
1.0991
-0.94307
-0.761883
1.14158
-0.201565
1.05414
0.188389
-0.167784
-0.0206048
1.61927
-0.610787
2.19085
-2.19085
-0.00726961
-0.00156855
0.00883816
-0.192076
-0.052468
0.244544
0.0913471
-0.0686113
-0.0227357
-0.455674
0.808687
-0.353014
-0.0436823
-0.204169
0.247851
-1.08098
0.0412489
0.369631
0.0604837
-0.430115
0.124293
-0.9002
1.14737
0.0693437
0.0780432
-0.147387
-0.0180293
-0.138765
-0.411657
0.350668
0.060989
-0.369509
-0.0421482
0.124323
-1.02452
0.308269
-0.763943
0.924401
-0.841311
0.00519754
0.101847
-0.107045
0.0972336
0.056575
-0.153809
-1.28749
-0.0901601
1.37765
-0.220757
0.382998
-0.162241
-0.442971
-0.378618
0.821589
-0.506801
-0.679417
0.120468
-0.0708987
-0.141057
0.135862
0.00519429
-0.0808815
-0.0231374
0.104019
-0.516437
-0.180054
0.0419823
-0.0107944
-0.0311879
-0.999871
-0.107231
1.1071
1.22991
-0.0337745
-0.0167219
0.00945229
0.00974567
0.150309
-0.214188
0.408498
-0.016751
0.166134
-0.149383
0.151022
0.0743155
-0.225337
0.0613494
0.0882002
-0.14955
-0.593133
-0.53281
-1.16787
0.168
-0.0534472
0.122791
-0.089839
0.167025
-0.0771857
-0.0763251
0.0226334
0.113866
-0.0549584
0.0578251
-0.00286662
-0.0845462
-0.0171903
0.101737
0.0682901
-0.0682901
-0.171667
0.1943
0.0926321
0.117554
0.0950856
0.0852351
-1.15962
0.976374
-1.50466
0.0267625
1.47789
0.000124124
-0.00289098
0.00276686
-0.0291389
-0.0566975
0.0858364
0.502806
-0.0185965
-0.48421
0.0122038
-0.0125416
0.000337801
-0.184565
0.0128981
0.169731
0.638957
-0.345147
0.514877
-0.142362
-1.14513
-0.120969
0.0566657
0.455828
-0.280628
-0.1752
0.113382
-0.100476
-0.0129064
0.0456028
-0.297507
0.0220837
-0.94281
0.0466882
-0.136527
-0.261858
-0.374065
0.0951519
1.44831
-0.982733
-0.465581
1.11416
0.334149
0.0629526
0.262381
-0.00295481
0.00307894
-0.0410514
0.110362
-0.0693104
-0.244845
-0.606226
0.85107
-0.329954
0.14297
0.766108
-0.64848
0.143319
0.0321765
-0.0372121
0.00503561
-1.00253
-0.546476
1.54901
0.37469
-1.37722
-0.326971
0.696602
-0.906938
-0.0132315
0.00529485
-0.287291
0.281997
1.47675
-1.62365
0.146893
-0.0887287
-0.0322403
0.588769
-0.833614
0.107167
-0.345132
0.237965
-0.31015
-0.132997
0.443146
0.175495
-1.00923
-0.0717549
-0.0177967
-0.0520552
-0.596708
0.374841
-0.266261
0.0201049
0.246157
0.0370129
-0.125742
-0.0494576
0.0494576
-0.13232
0.145764
-0.0134436
-0.199961
-1.3047
-0.0148276
-0.00135066
0.0161783
-0.000521903
-0.0708702
0.0713921
-0.237237
0.0606362
1.5991
-0.201709
-1.39739
-0.166353
0.419067
-0.252714
-1.61949e-05
-0.000772656
0.00078885
-0.8345
0.39153
-0.201815
-0.00486304
0.206678
-0.154151
0.322038
-0.112749
0.110921
0.00182837
0.0823765
0.0216997
-0.104076
-0.0555541
0.0391375
0.0164166
0.470879
0.238276
-0.709154
-0.204944
-0.047183
0.252127
-0.674324
0.662231
0.0120928
-0.0060804
0.0337831
0.0367688
-0.0380131
0.00124432
-0.0150175
-0.0410005
0.50664
0.723272
0.16793
-0.901972
0.734041
-0.185312
1.87413
-1.68882
0.355924
0.222826
1.96802
0.0808474
0.221451
-0.0704289
-0.0787615
-0.0312153
0.215358
0.174694
-0.0774607
0.732438
-0.398705
0.0571963
0.187347
0.0637107
-0.183899
0.120189
-0.724949
-0.12858
0.853529
0.0307473
-0.0307473
-0.0526621
-0.288971
0.58209
0.0111924
-0.216136
0.125007
0.0421281
0.0404895
-0.0939367
0.149932
-0.160873
-0.347125
0.303443
0.0349745
0.0200014
-0.0549759
0.359835
-0.314741
0.199936
0.703339
-0.903275
-0.191832
0.254785
0.176829
-0.457457
-0.197871
0.57875
0.152282
-0.0296983
0.0296983
-0.192136
0.190558
0.00157812
0.353838
0.0291598
0.00276548
-0.00504791
0.00228243
-0.105831
0.0607956
-0.0188132
-0.0525697
0.202501
-0.195936
0.261279
-0.065343
0.145893
0.0288011
-0.375098
0.110631
0.210247
-0.0643535
-0.0504234
-0.062326
0.00627411
0.0028736
-0.00914771
0.13514
-0.096261
-0.0388791
-0.042427
0.424234
-0.381807
-0.00479698
-0.000189193
0.115374
-0.120142
0.0047684
0.0255153
0.804777
-0.604841
-0.0467709
0.0286842
0.0180867
-0.0392816
0.0787577
-0.0394761
-0.103519
0.0955527
-0.719904
0.624351
-0.0113
-1.32783
-0.442428
1.77026
-0.00878835
0.733402
-0.724614
0.075043
-0.0328216
0.121022
0.301207
0.264501
-0.565707
-0.214769
0.27848
0.126419
-0.850535
0.724117
-0.0520834
0.0128018
-0.0361366
0.0183399
-0.975375
0.439844
0.535531
0.982733
-0.85841
-1.56022
1.47006
-1.47675
1.50352
0.0346802
-0.103172
0.00752395
0.0292449
-0.000380732
0.754099
-0.627681
0.108694
-0.0620058
0.40846
0.733123
-0.0907211
-1.42969
1.24438
-0.627527
-0.532093
-0.24496
-0.417331
-0.0113498
-0.153284
0.198886
-0.566916
-0.343791
0.177438
0.726115
-0.223309
-0.822529
-0.737694
0.756699
-0.00167292
-0.0504105
0.256826
0.0331677
-0.0331677
0.668015
0.151906
-0.819921
-0.228136
0.896151
-0.0417134
-0.162022
0.203736
0.149405
-0.0318517
0.00544998
0.00728611
-0.0127361
-0.971331
-1.07238
1.03861
0.715605
0.88349
-0.0322498
-0.123621
-0.226791
0.708577
-0.213864
-0.0523974
-0.00242103
-0.0687004
-0.0617189
0.118294
0.394613
-0.269444
-0.76989
-0.307859
-0.0683666
0.0408297
0.0275369
-1.61497
1.8378
-0.0828105
0.0588059
0.0240046
0.0129577
-0.0159125
0.0147936
-0.0194521
0.00465854
0.00999102
0.390549
0.0732719
0.0401104
0.0142728
0.0214639
-0.0357367
-0.0183259
-0.183489
-0.75603
0.394343
0.361687
0.92248
-2.12479
1.20231
0.149856
-0.173141
0.0232849
0.000350061
0.120118
-0.62624
-1.56461
-0.00669534
0.0214889
-0.109669
0.0387704
0.156947
-0.371134
-1.8186
0.479937
1.33866
0.0386849
0.0850232
0.0501169
-0.724949
0.29558
0.175299
0.011498
-0.0309501
0.0474145
-0.64223
-0.032094
0.0655325
0.144714
-0.596225
0.0105435
-0.448917
0.112054
0.373876
-0.313392
-0.0999315
0.0153853
0.218344
0.846313
-1.06466
0.107436
-0.695615
0.588179
-0.890243
0.761663
-0.924962
-0.264959
1.18992
0.00361652
-0.00428423
0.000667702
0.188091
-0.498241
0.236264
-0.138416
-0.0978485
0.0549843
0.0237734
-0.0434799
-0.0248867
-0.0187103
0.0163055
-0.0313229
0.0192135
0.0980744
-0.117288
-0.0505017
0.00913589
-0.00918023
4.43458e-05
0.0140337
-0.0142229
0.863812
0.0567279
-0.0889682
0.0522488
-1.12463
0.142523
0.00688219
0.00664972
0.0783735
-1.18992
1.56461
0.146095
-0.204055
0.0579602
-0.272381
0.104597
0.120857
-0.141462
-0.00104837
0.0806457
0.0115262
-1.98919
0.170592
-0.0581637
0.0773772
0.743151
-0.262676
-0.118512
0.11799
0.366766
-0.00480448
0.00756996
-0.00716665
0.0754567
0.138524
0.237202
0.159087
-0.35587
0.196783
0.0986373
0.54032
-0.0209712
-0.110336
0.868714
-0.233584
-0.63513
-0.924962
-0.591333
1.51381
1.82998
-0.043582
0.127517
-0.0839347
0.417788
-0.0771674
-0.340621
-0.366144
-1.58455
-0.085184
0.0868263
-0.00164228
-0.092882
-0.0162386
0.109121
0.416565
-0.827774
0.411209
0.0380018
0.66945
-0.707452
-0.0410167
-0.10004
-0.0417543
-0.00501662
0.0684053
-0.260541
0.0049723
-0.00135578
0.117258
-0.0143919
-0.102866
0.0497638
-0.0908152
0.00773171
0.00522598
0.0199061
0.0819411
-0.033895
-0.00411815
0.209314
-0.413483
0.299055
0.434348
-0.0156197
-0.0151276
-0.989577
-0.0196497
0.0668819
-0.0645277
-0.0354038
-0.105292
0.212458
0.0756147
-0.766195
0.69058
0.0928661
0.0496571
-0.935781
-0.0072889
-0.00223761
-0.650229
0.745782
-0.0157934
0.168075
0.49985
-0.661872
0.1903
-0.418432
0.228132
0.0502293
0.115905
0.0029685
-0.00366551
0.000697015
-0.0339192
-0.0216349
-0.0183335
-0.120431
0.730394
-0.622958
-0.0289526
-0.00193088
-0.0330467
0.333569
-0.174482
0.0767843
0.957807
-0.343619
-0.614188
-0.131062
0.151167
-0.515765
-0.240265
-0.542266
0.569148
-0.556228
-0.0129202
-0.0454049
0.0164524
-1.42969
0.574537
-0.574537
-1.75785
1.75785
0.754099
0.303657
0.232698
-0.536355
-0.899662
-0.0899144
0.675822
-0.3897
-0.286122
0.140785
-0.21797
-0.0122583
-0.00446358
-0.93271
-0.091813
-0.933459
0.213555
0.0426746
-0.00184485
0.696672
-0.0936365
-0.603035
1.53783
0.292155
-0.00419472
0.00716322
-0.956376
1.14481
-0.441474
-0.104718
-0.635003
0.739721
0.0420852
-0.899218
-0.724429
0.223663
-0.816796
-0.853529
1.2704
-0.416871
-0.132023
0.262723
-0.1307
-0.0416522
0.738324
-0.113553
-0.937731
0.937731
-1.12291
0.101152
1.02176
0.00267678
0.00645911
0.000197968
-0.460676
0.934478
-0.0938746
-0.0953402
-0.0307467
0.00488599
-0.00177962
0.00176342
1.07817
-1.34313
-0.375448
0.457825
-0.681791
1.08087
-0.399083
-0.0403858
0.0336905
0.135688
-0.0613721
0.332669
-0.0012499
0.0144276
0.362665
0.061569
0.046566
-0.267583
0.221017
0.128359
0.0312035
0.106549
0.196422
1.26924
0.319416
-0.555946
0.847152
-0.291206
-0.894675
0.3482
0.315038
-0.203798
0.0718826
-0.7647
0.692817
-0.25229
0.102504
-0.44963
-0.074354
0.121142
-0.0467879
0.110071
-0.184425
-0.47918
-0.117528
-0.0807091
0.0843237
-0.00361465
-0.00498643
-0.0289086
0.0476114
-0.0582586
0.627681
-0.588179
-0.0395016
-0.272372
0.283564
0.884315
0.710599
-0.292811
0.0109787
-0.0123294
-0.361745
0.0166131
0.153394
-0.545646
0.392252
-0.0041313
0.00046579
0.536162
-0.371462
-0.1647
0.0100953
-0.0169117
0.00681632
-0.0302738
0.0220674
0.00820648
-0.736159
0.125372
-0.0764185
-1.25141
-0.214679
-0.85841
1.50352
1.47006
-0.177915
-0.159841
0.112658
-0.0708801
0.0773994
-0.00651926
-0.682323
0.942266
-0.259943
0.581829
0.0939924
-0.00309235
-0.00103895
0.132064
-0.687934
0.0307467
-0.062501
0.00433727
-0.440994
0.079249
-0.0526432
0.0931327
-0.218846
0.578681
1.11416
0.0355837
-0.0546167
0.000747788
0.0538689
1.83427
-0.36421
-0.0553006
-0.0487167
-1.02458
0.166167
0.376342
-0.200847
-0.493421
-0.149383
0.642805
0.853174
-0.386024
-0.467151
-0.561608
0.637222
-1.24438
0.273051
-0.00969745
-0.0454267
0.0551242
0.429814
1.44432
-0.157913
0.163363
0.0410083
1.99559
-0.492072
-0.666617
0.0378359
0.628781
0.407631
0.0131218
-0.364555
0.499324
0.7655
-0.460327
0.0693096
-0.0191927
-1.10264
0.368736
0.733907
1.14542
0.0681625
-0.0538897
-0.0552741
-0.377616
0.12392
-0.338689
0.379326
0.578481
-0.0158482
-0.0295568
0.177168
-0.22075
-0.0220591
0.0159788
0.10243
-0.136199
0.0337689
-0.278608
0.289608
-0.0109999
0.11992
-0.463539
0.451144
-0.336161
-0.114983
0.0352603
-0.122956
0.0876958
0.294695
0.0388733
0.43482
-0.13924
-0.677549
0.677549
0.90594
1.53783
-0.695615
0.304615
0.460885
-0.213643
0.215221
0.983726
-0.401897
0.012193
-0.88948
0.877287
0.111316
0.0104557
0.0247381
-0.342365
0.777185
0.0321248
-0.163439
-0.107887
0.271326
-0.0190217
-0.47955
0.316111
-1.12701
-0.308097
-0.665356
0.0208368
-0.00827473
-0.0009055
-0.23195
-0.015713
0.0432499
0.0307968
-0.163165
0.132369
-0.354774
-0.768133
-0.00505377
0.061608
0.101712
-0.650996
0.549284
-0.530724
0.355524
-0.113563
0.133564
0.21906
-0.00713908
-0.0289975
-1.10523
0.903523
0.0381218
0.0772521
-0.0689856
0.0359388
0.22674
0.00952387
-0.45004
0.92277
0.565893
0.504787
0.864414
-0.792532
0.839606
-0.47284
-0.651824
0.191147
0.161699
-0.800062
0.782799
0.0172628
0.960315
-0.580989
-0.228779
-0.146669
-0.0805078
0.0118964
0.947722
-0.838297
-0.109424
-0.203388
0.125928
0.0251956
0.110667
0.875967
0.355589
0.436004
-0.791592
-0.309041
-0.0347497
-1.09971
1.20143
0.118203
1.25944
1.69398
-0.156146
0.160084
0.54761
-0.707694
0.0339101
0.0554036
-0.0197019
0.0125628
-0.53681
-0.115014
0.134736
-0.0977233
-0.20489
0.15232
-0.499879
0.247165
-0.992835
-0.449625
-0.301458
-1.0126
1.46946
0.00843369
-0.302852
-0.494275
0.0532807
0.65106
0.32457
0.0380955
1.15496
-0.738398
-0.209448
0.145094
-0.068611
-0.400209
0.46882
-0.0251182
0.0154207
0.0542081
-0.0598203
-0.218788
-0.0996698
0.697753
-0.430425
-0.267329
0.104783
0.119938
-0.0869866
-0.032951
0.249128
0.0754417
0.0929087
-0.817523
-0.104608
0.152022
-0.47911
0.834699
-0.0128652
-0.0266109
-0.0301193
0.00769618
0.0224231
-0.00929467
0.00640369
-0.261129
0.07723
-0.0617055
-0.520709
0.388686
0.0311364
0.069162
-0.0339017
-0.699862
1.52939
-0.950904
0.0159295
-0.21006
0.19413
-0.148627
-0.521234
0.669861
0.0578753
-0.700106
-0.059225
0.510369
0.0202017
0.00112238
-0.0213241
-0.231569
-0.569148
-0.155801
-0.118741
-1.10264
-0.250684
0.180255
0.0865365
-1.1578
-0.334426
0.306878
0.0275486
0.245951
0.100218
0.490365
0.366511
-0.856877
-0.0472105
0.0455376
1.1567
-0.797907
-0.358793
-0.211745
-0.686941
1.03514
-0.261242
0.195899
-0.356463
-0.330477
0.361168
-0.0104994
0.00744978
-0.00783051
-0.0248081
1.37996
-0.875169
0.766543
0.0866311
-1.65688
-0.332307
0.279005
0.704721
0.858267
0.0104467
-0.0201785
-1.69398
-0.665356
-0.711402
0.723696
0.000176436
-0.822529
0.66945
0.581768
-0.928212
0.964512
0.00164195
-0.801704
-0.315927
0.639271
-0.757663
0.118392
0.0728863
0.0470513
-1.0377
-0.421983
1.70338
-1.2814
-0.00123841
-0.00703633
-0.284097
0.231699
0.697146
0.205135
-0.192237
-0.167007
0.934441
-1.04167
0.00824634
-0.544601
0.813277
-0.384648
-0.42863
-1.24497
1.61371
0.248188
-0.899184
0.0883777
0.311924
-0.733907
0.00216609
0.228467
8.45833e-06
0.0698996
-0.00301771
0.0114847
-0.0254104
0.0139256
-1.03118
-0.0334727
0.302014
-0.807521
0.213066
0.306417
-0.519484
0.396648
0.684225
-0.0428596
0.0456275
-0.00276789
0.209084
0.725357
-0.719827
1.01545
0.870255
-0.657189
0.337683
-0.109215
-0.582857
-0.409978
-0.00557323
0.818851
-0.0508148
-0.887838
-1.79438
0.105559
0.311924
0.0519245
-0.859445
0.831416
-0.647226
-0.18419
-0.981968
0.399111
0.00595209
0.104459
0.000308356
-0.104767
-0.971426
0.561448
-0.197236
0.913032
-0.920321
0.206334
-0.22466
-0.102765
0.259712
0.164636
0.700372
-0.100163
-1.19565
0.581463
-0.377542
-0.0827859
-0.552255
-0.518784
1.07104
0.447745
0.017902
-0.0106159
-0.740924
0.707452
0.494782
-0.285699
-1.96802
1.85603
0.111993
-0.203315
0.509732
0.768481
-0.804198
-0.493891
-0.448918
-0.472178
-0.499248
0.804513
-0.804513
0.689
-0.689
-0.740924
-1.68769
1.68769
-1.85603
-1.40469
0.146588
0.0219263
-0.868206
0.868206
0.494782
-0.285699
0.768481
0.762949
-0.762949
0.804198
0.75786
-0.75786
0.506109
0.527822
0.481216
-0.373424
-0.500752
-0.551082
1.0789
-0.014853
-1.14085
1.13527
0.727684
-0.479496
-0.0262255
-0.0198102
0.0765381
-0.883927
0.0858767
0.79805
-0.0216436
0.0102939
-0.992123
0.593417
0.870445
-0.56583
-0.121073
-0.00151737
0.0014855
-0.826472
-0.0754993
-0.535531
-0.0148209
0.0331608
-0.734005
-0.0355516
0.00460146
0.192389
-0.00522841
-0.00822796
0.0134564
-0.813882
0.0686769
0.745205
-0.388957
0.553593
-0.522803
0.43228
0.0905229
0.915516
-0.747564
-0.167953
0.089366
0.319132
-0.014775
-0.065934
-0.0721399
-0.0130441
-0.015854
-1.59912
-0.879445
0.0923722
-0.749582
0.794512
-0.0449296
0.118863
-0.900454
0.78159
-0.804605
0.90072
-0.0961148
-0.0110948
0.00180016
0.0214268
-0.308718
0.636285
0.182566
-0.0880785
-0.795848
0.914029
-0.0878772
-0.826152
-0.0182043
-0.0221816
0.338727
0.827438
-1.13437
0.502661
-0.408669
0.0955789
-0.891427
1.50482
0.253032
-0.796599
-0.0051046
1.01655
-0.897687
1.09458
0.535942
-1.116
0.580062
-0.885229
-0.106894
-0.436905
0.0550971
0.127321
0.56326
-0.782599
0.782599
-0.637935
-0.0804094
-0.863361
0.115797
-1.01837
0.913656
0.0797102
-0.218126
-0.0523693
0.0455293
0.0122957
0.183876
0.832675
0.820311
0.77563
0.133853
-0.909483
-0.688076
0.208579
-0.785176
-0.0985678
0.883743
0.158501
-0.878327
-0.679485
0.884781
-0.789202
-0.10001
0.46201
0.00193475
-0.463944
-0.356283
1.70184
-1.34555
0.374533
-0.275975
-0.0985578
-0.885186
-0.828352
0.0787697
0.556305
0.283302
-1.25022
1.02367
-0.603609
0.603609
-0.712535
-0.483116
0.287347
0.489839
-0.446713
0.110551
0.786214
-0.186131
0.668998
-0.543625
1.31806
-1.07038
-0.247678
-0.381884
-1.74291
0.112772
-0.152133
0.162358
0.0129408
0.15935
0.328784
-0.239418
0.783019
-0.879134
0.631093
-0.422514
-0.139869
0.733286
0.60205
-0.60205
-0.0232
0.00728747
0.122869
-0.0920721
1.45351
0.248326
0.165562
5.24724e-05
0.00647176
-0.00652423
-0.680059
0.691547
-0.0114878
-0.294936
-0.821068
0.102167
-0.891369
-1.07242
1.22848
-0.15606
0.0541866
0.87209
-1.25898
0.964047
-0.757516
0.616041
-0.648135
-0.686626
0.17086
0.496987
0.0257577
0.197018
-0.627904
1.12489
-0.00155927
-0.319122
0.058368
0.736144
0.685026
-0.068985
0.0677838
0.796028
-1.0918
0.293944
0.79786
-0.562886
0.489731
0.243169
-0.897437
0.686609
0.210828
-0.684884
-0.131913
0.971407
-0.0426331
-0.217908
-0.0303021
0.485714
0.514286
-0.772236
-0.106898
-0.389667
-1.30897
-0.956554
-0.408292
0.400829
0.599171
-0.0317582
0.0175353
-0.860113
-0.049384
-0.598751
-0.148189
-0.230125
0.378314
0.0101021
0.00142403
0.12369
0.0788118
-0.128457
-0.132673
0.765196
-0.652742
0.720526
0.768383
-1.39629
0.32342
0.530614
-0.854034
-0.743136
-0.180991
0.924128
-0.224082
0.213076
-0.0257292
-0.0809817
-0.0447598
-0.00509178
0.744213
-0.140604
0.10252
0.11654
-0.734382
0.0543229
1.31102
0.80577
-0.13301
-0.770265
0.652197
-0.277863
1.01099
-0.000570791
0.148224
-0.107216
0.00230628
-0.0576296
-0.00773588
0.149015
1.162
-0.383427
-0.0802174
0.463644
0.843966
-0.031181
0.00529333
0.0258877
0.139619
0.00459715
0.000375142
0.201801
-0.099371
-0.0205176
-0.426195
-0.0542081
-0.329218
0.00409397
0.26278
0.450397
-1.16085
1.34849
-0.187648
-0.776274
0.822734
-0.0464594
-0.0412672
-0.089812
0.45098
-0.089561
1.60252
-0.472444
-0.050359
0.26785
0.431017
0.175599
-0.606616
0.377835
0.0240491
0.667498
-0.571554
0.581868
-0.0103138
1.41274
-0.761682
-0.0409893
0.0489138
-0.0079245
0.704097
-0.00983976
-0.0823179
0.0175339
0.826056
0.336454
-0.377721
0.0736219
0.00217929
-0.125135
0.139663
-0.0554677
-0.0841954
0.0143445
-0.00285974
-0.293685
-0.504221
-0.00396063
0.203237
-0.0235411
-0.0713246
0.243121
0.0904085
0.00369859
0.0372926
0.762465
0.763927
-0.315034
-0.448893
-0.158663
-0.244397
0.40306
0.641742
0.115203
-0.0472491
-0.0409045
0.0881536
-0.442842
0.514761
-1.58514
-0.0164395
0.773139
0.732482
0.537573
-0.646472
-0.391226
0.800243
0.109749
-0.0329645
-0.91719
0.129553
-0.271747
-0.779482
-0.164785
0.701499
0.0609661
0.0150734
0.77694
-0.866752
-0.255177
0.169676
0.00528761
-0.107424
0.42081
-0.0601757
-0.372701
-0.0600499
0.120699
0.298001
-0.456664
-0.140537
0.829189
-0.0166361
-0.107899
-0.00687959
0.000241762
0.00663783
-1.42764
0.665963
0.00176228
0.97739
-0.222724
-0.627156
0.665697
-0.0385403
0.0977594
0.755822
-0.388926
-0.465108
0.0861819
-0.188947
0.643807
0.112015
1.47255
0.365244
-0.282568
0.785229
0.0659475
1.09606
-0.577893
0.352608
0.225285
-0.718144
-0.0710199
0.0386486
0.074937
-0.0524884
1.25588
0.733903
0.0663396
0.643596
0.207475
-0.883744
-0.0835199
-0.685883
0.680778
-0.0309397
-0.547085
0.398896
0.852295
0.667856
0.0189267
0.0440151
-0.125298
-0.324331
0.727272
0.802113
0.219247
0.0261266
1.34663
-0.250578
0.768083
0.339019
-0.0857183
0.881526
-0.721664
0.915119
-0.193455
-0.414563
-0.16333
-0.0538957
-0.143052
-0.0950344
0.907432
0.0266526
-0.0051886
0.625845
-0.380017
-0.390249
0.618472
-0.130178
0.212582
0.780879
0.279706
-1.06059
0.276103
-0.923328
0.324567
-1.27547
-0.159005
0.743724
-0.58472
-0.682599
-0.0418937
-0.039088
-0.0577394
-1.50052
-0.000277142
-0.0298422
0.658592
0.137284
-0.184451
0.0471663
-0.0214456
-0.566916
-0.0187722
0.166997
-1.72744
-0.00969382
0.00446541
-0.158474
-0.0565543
-0.609423
0.0378689
0.567378
0.284918
1.07625
0.694009
-0.221732
-0.390711
0.612442
0.43894
-0.620323
0.620323
-0.20921
-0.984428
1.19364
0.033024
-0.164086
0.664441
-0.0970632
-0.214612
-0.108257
-0.109652
0.257139
-0.0930568
-0.722315
0.195746
-0.100594
-0.728198
0.482092
0.0997761
0.0826077
-0.00157712
-1.89906
-1.24679
-0.218779
0.692866
0.307134
-1.24679
0.692866
-0.854958
-0.626711
-0.854958
-0.696517
0.696517
0.303483
-0.0129539
0.106731
-0.0809865
0.256779
0.0882662
-0.511348
0.634894
-0.0164225
0.636295
-0.505436
-0.130858
-0.0416212
0.0358395
0.00578167
-0.0154431
0.0154956
-0.473508
0.0169403
-0.0537558
-0.43497
-0.379514
0.147564
0.0346435
0.816413
-0.268803
-0.335256
0.388537
-0.0201844
-0.124717
0.000312069
0.69684
0.076299
-0.165901
-0.0360841
0.000347349
-0.0130257
0.0822801
0.543948
-0.481317
-0.0626309
2.1308
0.565909
0.0509573
0.952953
0.0126275
-0.069325
0.116934
0.268844
0.0405403
1.18505
-0.404174
3.40909e-05
0.0208027
0.494453
-0.728525
0.0168097
-0.0168097
0.0249251
-0.0249251
-0.016482
0.016482
-0.0156197
0.367502
0.465958
0.0419397
-0.673754
0.450445
0.174771
0.0270298
-0.0881977
-0.48058
0.588377
0.11424
-0.799124
-0.653339
-0.00853321
0.0190947
0.0232425
-0.00117517
0.0102022
-0.0102022
0.105261
0.00907979
-0.00907979
0.700763
0.113428
-0.0282487
-0.00783534
0.00587359
-0.0604903
-0.0192778
0.0192778
-0.0125864
0.0125864
-0.0253118
0.0253118
0.00701576
-0.00701576
0.0430993
-0.304072
-0.0736341
0.216666
0.00660651
-0.00660651
-0.380619
0.490618
-0.11
0.468414
-0.205691
-0.614745
0.279489
0.555596
-0.0667567
0.0910821
0.574615
0.564761
0.0045468
-0.0045468
0.285079
0.0285202
-0.0285202
0.00630863
-0.00630863
0.787922
-1.09098
0.0381628
-0.412555
0.0410935
-0.00301953
0.00301953
0.0143344
-0.0143344
0.0204596
-0.0204596
0.0195198
-0.0195198
-0.0265101
0.0265101
0.039081
-0.039081
0.505236
-0.035533
0.035533
0.00264438
-0.00264438
0.0269788
-0.0269788
-0.0089824
0.0089824
-0.0048846
0.0048846
-0.0973614
-0.0301624
0.0301624
-0.0699327
0.0214644
-0.0438494
0.0438494
0.00773808
-0.00773808
0.0193244
-0.0193244
0.0373613
-0.0373613
0.0227764
-0.0227764
-0.00326129
0.00326129
-0.00620783
0.00620783
0.204898
0.176822
-0.0118562
0.0118562
0.00197668
-0.00197668
-0.04234
0.04234
-0.0250457
0.0250457
0.00419911
-0.00419911
-0.433369
0.712374
0.240911
-0.0355411
0.0355411
0.0122682
-0.0146216
0.0146216
0.00118778
-0.00118778
0.0333762
-0.0333762
-0.165737
0.132773
0.00729845
-0.00729845
-0.0187339
0.0187339
-0.466419
0.0397307
0.00626735
-0.0279286
0.0279286
-0.428151
0.0289697
0.0166578
0.0625998
-1.71948
-0.0407714
0.0407714
-0.218525
0.15835
-0.0370865
0.000398928
-0.000398928
-0.0234516
0.0622428
0.267296
-0.320269
-0.252675
0.572943
0.166287
-0.00820838
0.00820838
-0.0659857
0.230528
-0.164542
0.735823
-0.365734
-0.370088
-0.49263
-0.655325
0.152006
0.236531
0.0514858
-0.614371
-0.576314
-0.0213998
0.190177
-1.41455
0.0205878
-0.0205878
-0.000325545
0.000325545
0.0342471
-0.0342471
0.023528
-0.023528
-0.00286863
0.00286863
-0.000791334
0.000791334
-0.18555
-0.183941
0.152516
-0.273589
0.00341616
-0.00341616
-0.0404684
0.0404684
-0.0447126
0.0447126
0.100058
0.0731967
-0.173255
0.024656
0.288028
-0.510752
-0.00385204
0.00385204
-0.027108
0.027108
-0.112011
0.209331
-0.057325
-0.00148835
0.00148835
0.0339519
0.0138305
0.895235
-0.491461
-0.100389
0.59185
-0.612175
0.404309
-0.276988
-0.0347116
0.0347116
-0.670076
0.259849
0.0549654
-0.0549654
-0.690933
0.404812
0.244517
0.112269
-0.00252379
0.00252379
-0.888627
-0.00161829
0.00161829
0.330601
0.407723
0.0648116
-0.0594499
0.0594499
-0.00212734
0.00212734
-0.0469614
0.0469614
-0.0485377
0.0485377
-0.00166264
0.00166264
-0.053732
0.053732
-0.00186183
0.00186183
-0.0506104
0.0506104
-0.0160593
-0.0407781
0.0407781
0.00413551
-0.00413551
0.0534206
-0.0534206
-0.00248276
0.00248276
0.0427208
-0.0427208
-0.131827
-0.00425471
0.00425471
-0.0059296
0.0059296
-0.0359717
0.0754567
-0.0127459
0.0127459
0.00477636
-0.00477636
-0.0659829
0.0659829
0.31795
-0.0209524
0.0209524
-0.0519156
0.0519156
-0.00709522
0.00709522
-0.0747263
0.0747263
-0.0124277
0.0124277
-0.0894341
0.0894341
-0.0243314
0.0243314
-0.0856844
0.0856844
-0.708584
0.253144
-0.550922
0.512381
-0.899218
-0.676347
-0.529327
0.364542
0.126715
-0.0219322
0.00358966
-0.00358966
0.201586
-0.686003
0.0529991
-0.0545762
-1.35193
1.64408
1.66512
0.238289
0.0202358
0.0272506
-0.368955
-0.603472
-0.0920089
0.393885
-1.29183
-0.0300897
0.0300897
-0.714644
0.0134779
-0.0134779
-0.00534816
0.00534816
0.35186
-0.356179
-0.00256696
0.00256696
0.0169028
0.0127955
0.600083
-0.120151
-0.0101498
-0.0133789
-0.00679962
-0.114716
0.521355
-0.406638
0.184859
-0.0720865
-0.00182096
1.19243
0.0181038
0.0339092
-0.41282
0.467917
-0.513209
-0.936132
-0.208994
-0.0815583
0.0198393
-0.0638823
-0.212093
-0.025922
-0.00950186
-0.00688582
0.808781
-0.524422
-0.0513175
0.0566052
-0.0418983
0.0634159
0.0433152
0.409665
0.252566
-0.158399
0.197118
0.0295522
-0.00785257
-1.18986
0.0206651
-0.0488973
-0.135553
-0.01651
-1.32928
-0.0734313
0.275297
-0.357219
0.418788
0.0993934
-1.11199
0.0418601
0.0480747
-0.0702563
-0.361157
0.45168
-0.0436457
0.058523
-0.0148773
-0.0305935
0.0305935
0.176253
-0.469063
-0.116461
0.0455904
-0.0927542
0.0618145
-0.0559851
-0.00298548
0.0589706
-0.0359649
-0.1648
0.102238
0.033795
-0.279359
-0.330743
0.610102
0.0189145
0.0679118
0.147382
-0.0448616
-0.120223
0.0793372
-0.171064
0.332763
-0.00219795
0.0280856
-0.0113424
0.158724
0.00364301
0.278354
0.00483835
-0.00483835
0.00284041
0.765243
0.103252
-0.186772
-0.0251387
0.0672239
0.584408
0.379639
0.0696072
-0.0201496
-0.538076
-0.012846
-0.0845672
0.110698
-0.722761
0.320865
-0.0541584
0.3551
-0.634458
0.202864
0.483745
-0.100151
0.100151
0.000308356
-0.432275
-0.0494642
0.481739
-0.229892
0.172153
0.121317
-0.166646
-0.296893
-0.0535794
-0.0420163
0.0495402
0.928949
0.13908
-0.120153
-0.0715423
0.00289025
-0.660079
-0.0264164
-0.252811
0.752135
0.545355
-0.257327
-0.265573
0.528352
-0.0641151
0.191632
-0.263587
0.0229898
-0.451025
0.341026
0.112714
-0.112714
-0.00442903
-0.0700001
0.0744292
-0.00541753
0.00323726
0.00769618
-0.419992
-0.0228508
0.20744
-0.184702
-0.0227379
0.518895
-1.1286
-0.143383
-0.981249
0.678802
-0.100899
-0.17269
-0.0193499
-0.0803199
-0.506748
0.0717779
-0.308434
-0.00206403
-0.01651
0.408494
-0.00523732
0.00284236
-0.000409249
0.0185866
-0.0111603
-0.0074263
-0.0940826
-0.0202933
-0.181643
0.201936
-0.103991
-0.347034
0.0169028
0.351585
0.00186045
-0.399475
0.0980167
0.00320838
0.136946
-0.095006
-0.0138869
0.0138869
-0.00192421
0.00174803
-0.00833052
-0.000297886
0.0333843
0.000241905
-0.00119833
0.191892
0.0205661
-0.00210704
0.00210704
0.00996406
0.49258
0.000730185
-0.274858
0.602393
1.22089
-0.465148
0.309356
-0.441432
-0.120363
0.0039024
0.202968
-0.208798
0.0424992
-0.00704702
0.00195525
-0.0061184
-0.173803
-0.35845
0.808895
0.392208
-0.577759
0.152689
-0.00171963
0.0205187
0.0336679
0.000287153
-0.000669742
-0.00637728
-0.133288
0.00150939
-0.000785819
0.747514
-0.668177
-0.251911
0.320583
0.778873
-0.000788909
0.00109062
-0.0370865
-0.00515222
0.817769
-0.432746
0.532522
-1.52775
0.906305
-1.035
0.543789
-0.179248
0.729436
0.000774021
0.00337899
0.0198635
-0.117204
0.136418
-0.130101
0.00794683
0.00474411
0.0738397
-0.061893
-0.0119467
0.000909933
-0.0470743
0.0895766
-0.0425023
-0.102853
0.00649206
-2.02975e-05
0.00202847
0.511522
-0.445592
0.00778363
0.000347077
0.00911448
-0.0585787
0.362582
-0.00652423
-0.000724473
0.0251895
-0.0291501
-0.0532937
-0.0871251
-0.0076666
-0.00394129
0.142527
0.0511164
-0.00333187
0.38539
0.000859665
0.00259155
-0.00259155
-0.00229611
-0.0110828
0.000547528
-0.321454
-0.00408335
0.0793122
-0.107996
0.0132483
0.440902
-0.0649946
0.000435873
0.0016749
0.436299
0.000344842
-0.00182281
-0.0520729
-0.00224876
0.00063924
0.0263889
0.139173
-0.709773
0.446655
-0.805105
-0.00276172
-0.000638984
0.269772
0.114582
0.0447681
0.556084
-0.0138261
-0.0660977
-0.00448452
-0.00154478
-0.55806
-0.003649
-0.000199191
0.0148183
0.876881
-0.499047
-0.00281018
-0.000620929
-0.00653299
-0.00177195
0.0800715
-0.0199919
0.0199919
-0.0378583
0.0396063
-0.00231887
-0.00874342
0.0548179
-0.0519755
-0.180562
0.109542
-0.0053325
-0.0147078
0.0329729
-0.0197438
0.0700174
-0.0501781
-0.624868
0.579938
0.0300189
-0.0011867
0.300207
-0.179508
-0.059808
-0.645667