/*--------------------------------*- C++ -*----------------------------------*\
| =========                 |                                                 |
| \\      /  F ield         | OpenFOAM: The Open Source CFD Toolbox           |
|  \\    /   O peration     | Version:  2306                                  |
|   \\  /    A nd           | Website:  www.openfoam.com                      |
|    \\/     M anipulation  |                                                 |
\*---------------------------------------------------------------------------*/
FoamFile
{
    version     2.0;
    format      ascii;
    arch        "LSB;label=32;scalar=64";
    class       surfaceScalarField;
    location    "20.3";
    object      phi;
}
// * * * * * * * * * * * * * * * * * * * * * * * * * * * * * * * * * * * * * //

dimensions      [0 3 -1 0 0 0 0];

oriented        oriented;

internalField   nonuniform List<scalar> 
3181
(
-1.04859
0.41149
0.637101
-0.386621
0.365011
0.0216108
0.52186
-0.357825
-0.164035
0.121737
-0.201208
0.0794708
-0.0534116
0.0716173
-0.0182057
0.607066
0.982102
-1.58917
0.148143
-0.141821
-0.00632212
0.0680271
0.00177124
-0.0697984
0.588121
-0.745363
0.157243
-0.0749899
0.136766
-0.0617763
-0.0104258
-0.0511938
0.0616196
0.111486
0.0529309
-0.164417
-0.00936539
-0.0533457
0.0627111
-1.09786
0.151533
0.946332
-0.328484
0.694488
-0.366004
-1.12193
0.638621
0.483306
0.0842094
-0.931695
0.847486
-0.182539
0.114656
0.0678828
-1.08533
-0.3624
0.00410751
0.0452315
-0.049339
0.037618
-0.086342
0.0487241
-0.057605
0.0507737
0.00683135
1.06476
-1.03936
-0.0254049
0.0176367
0.0361833
-0.05382
-0.95574
0.326371
0.629368
-0.108243
0.22998
0.307143
-0.245082
-0.0620604
0.0295785
0.0619849
-0.0915634
-0.411476
0.338294
0.0731828
-0.033103
-0.0154227
0.0152163
0.0002064
-0.0374359
-0.918304
0.0424372
-0.0409736
-0.00146355
0.180853
1.52762
-1.70847
-0.0502641
0.0494962
0.00076791
0.181176
0.274628
-0.455805
1.74285
-1.562
0.0718921
-0.0342742
1.52325
-0.807872
-0.715381
-0.530778
1.13784
-0.111557
0.102192
-0.0558216
-0.00178342
-0.405834
0.0773498
-0.131909
0.0760878
-0.634375
0.128542
0.505834
-0.148318
0.073328
-0.167677
0.171897
-0.00421998
-0.27135
-0.0761162
0.347466
0.269402
1.19131
-1.46071
0.047093
0.129358
-0.176451
-0.0113152
-0.10034
0.106461
-0.00612043
0.51858
0.175908
-0.0954428
0.140988
-0.0455449
0.0866779
-0.0442407
-0.171121
0.19739
-0.0262689
0.163291
0.054548
-0.217839
0.108584
-0.114481
0.00589728
1.21087
0.31238
-0.859649
-0.188942
-0.00596346
-1.73658
1.74255
0.552539
0.230154
-0.782693
-0.446526
-0.20394
0.650467
-0.956857
0.426079
-0.270264
0.822804
-0.323904
-0.101559
0.425463
-0.208136
-0.203341
-0.190121
0.16671
0.0234112
0.133994
0.283972
-0.417965
-0.145759
0.73388
-0.0173811
0.0854082
-2.1112
2.10524
0.186793
0.120349
-0.178701
-0.111141
0.289842
-0.268097
0.354903
-0.0868068
-0.0807145
0.0888403
-0.00812579
-1.8418
-0.919049
0.00963713
0.909412
-0.0524423
0.00217817
-1.07595
0.784568
0.291379
0.370308
-0.256182
-0.114126
-0.802469
-0.154387
1.10432
-0.952791
-0.716791
1.14666
-0.200328
1.06689
0.167795
-0.173627
0.00583225
1.60153
-0.61943
1.013
-1.013
-0.0075501
-0.000240881
0.00779098
-0.212514
-0.0528636
0.265378
0.0784327
-0.0565385
-0.0218942
-0.452283
0.834862
-0.382579
-0.0184823
-0.236237
0.25472
-1.08297
0.0436097
0.345971
0.0575293
-0.403501
0.135238
-0.859833
1.08999
0.0584056
0.0724477
-0.130853
-0.0174656
-0.153655
-0.171581
-0.0805762
0.252157
-0.166672
-0.00490921
0.119786
-0.979619
0.328357
-0.780641
0.923294
-0.839084
-0.00873811
0.131786
-0.123048
0.0831399
0.0519673
-0.135107
-1.40702
-0.0862861
1.49331
-0.245363
0.409494
-0.164131
-1.02086
0.650697
0.370166
-0.467901
-0.608045
0.119208
-0.0721145
-0.152275
0.146738
0.00553786
-0.077476
-0.0137668
0.0912428
-0.518496
-0.226867
-0.090306
0.0403541
0.0499519
-1.14778
-0.248077
1.39586
1.65638
-0.465066
-0.011917
0.00436686
0.0373274
0.149466
-0.200046
0.381223
0.0006631
0.145115
-0.145778
0.138183
0.0684251
-0.206608
0.23891
-0.162495
-0.0764149
-0.594933
-0.526994
-1.21507
0.0672865
-0.0502808
0.108686
-0.105608
0.183684
-0.0780765
0.0563711
0.0248513
0.123291
-0.0568805
0.0700381
-0.0131575
-0.0952528
-0.0215815
0.116834
0.0738415
-0.0738415
-0.184575
0.209426
0.203636
0.130021
0.104847
0.0925422
-1.26367
1.11791
-1.54037
0.104584
1.43579
0.026369
-0.0220045
-0.00436445
-0.0267301
-0.0516368
0.0783669
0.5411
-0.0266187
-0.514481
-0.0355679
0.0368282
-0.00126035
-0.199856
0.0152812
0.161477
0.673386
-0.36713
0.528606
-0.18185
-1.22517
-0.0916595
0.038248
0.485465
-0.30496
-0.180505
0.097603
-0.0831189
-0.0144841
0.0476129
-0.318963
0.0230687
-0.942117
0.0491137
-0.154722
-0.286944
-0.40002
0.0723517
1.38441
-0.931949
-0.452464
1.0795
0.304911
0.0659145
0.281552
0.0271745
-0.000805551
-0.0952011
0.171051
-0.07585
-0.253834
-0.586727
0.84056
-0.356504
0.516203
0.974531
-1.33693
0.129123
0.0398058
-0.0584373
0.0186315
-1.87733
0.376848
1.50049
-0.247791
-1.62954
-0.308526
0.654497
-0.908626
-0.0175234
0.00401423
-0.267207
0.263192
1.43475
-1.55698
0.122224
-0.0862465
-0.00541306
0.572343
-0.826177
0.00619349
-0.337178
0.330985
-0.296462
-0.118286
0.414748
0.168929
-1.00838
-0.0745891
-0.00625211
-0.0430869
-0.557534
0.353594
-0.246842
0.0188492
0.227992
-0.0153081
-0.0709383
0.0195272
-0.0195272
-0.119505
0.131095
-0.0115899
-0.276687
-1.26369
0.0739489
0.0286503
-0.102599
-0.145398
0.0400776
0.10532
-0.221911
0.0317901
1.41734
-0.398371
-1.01897
-0.19193
0.448229
-0.256299
0.00613797
-0.00570075
-0.000437227
-0.445
-0.575864
-0.186933
-0.00458118
0.191515
-0.173577
0.307571
-0.102004
0.100308
0.00169638
0.0753346
0.0163534
-0.091688
-0.134354
0.156564
-0.0222099
-0.941979
1.11887
-0.17689
-0.218086
-0.0509873
0.269073
-0.693002
0.661349
0.0316536
-0.00211542
0.0382987
0.0259765
-0.026025
4.84963e-05
-0.00305712
-0.0507629
1.03806
0.618322
0.173983
-0.887916
0.713933
0.0207056
1.9762
-1.99691
0.383905
0.534964
0.478032
0.0635117
0.204132
-0.0659493
-0.0716339
-0.0287064
0.236978
0.157097
-0.0739575
0.735035
-0.408664
0.0604621
0.204916
0.0496857
-0.165071
0.115385
-0.779479
-0.141497
0.920976
-0.0287355
0.0287355
-0.0497117
-0.270443
0.545071
0.0133119
-0.231398
0.0366985
0.0779576
0.0288033
-0.0790841
0.135709
-0.146135
-0.345778
0.327295
0.0451451
0.0552405
-0.100386
0.379784
-0.326853
0.964137
-0.658588
-0.305549
-0.206244
0.272158
0.185185
-0.490145
-0.200999
0.612489
0.16531
-0.0331126
0.0331126
-0.41425
0.307703
0.106546
0.383501
0.025993
-0.0267472
0.0321617
-0.00541455
-0.104003
-0.044522
-0.045784
-0.0493168
0.185026
-0.180253
0.241608
-0.0613551
0.129173
0.0279244
-0.390987
0.145905
0.190644
-0.0614711
-0.0459698
-0.0560347
-0.0723451
0.0669408
0.00540431
0.146929
-0.104323
-0.0426059
-0.0176137
0.396162
-0.378548
-0.120103
0.102722
0.104768
-0.10913
0.00436104
0.0238793
0.553507
0.41063
-0.0947629
-0.0132471
0.10801
-0.0960089
-0.00980255
0.105811
-0.0915805
0.0980002
-0.720392
0.622392
-0.037608
-1.51935
-0.487782
2.00713
0.431753
1.25463
-1.68639
0.0823151
-0.2538
0.0913053
0.276389
0.252808
-0.529197
-0.20711
0.256795
0.13758
-0.885409
0.747829
0.0247183
-0.120727
-0.0169812
0.0107291
-0.990376
0.444208
0.546168
0.931949
-0.812163
-1.72169
1.63541
-1.43475
1.53934
0.0395834
-0.0851283
0.00826625
0.0177103
0.0130631
0.795064
-0.657484
0.121838
-0.0727248
0.413094
0.733566
-0.0926053
-1.73508
1.75578
-0.6581
-0.60557
-0.240721
-0.393654
-0.0179112
-0.165482
0.213095
-0.577283
-0.373853
0.181923
0.770442
-0.229342
-0.910207
-0.811485
0.746326
0.167748
-0.143029
0.284098
0.037558
-0.037558
0.67084
0.14887
-0.81971
-0.225179
0.896019
0.46276
-0.998383
0.535624
0.16478
-0.0347587
0.00791674
0.00451606
-0.0124328
-1.73658
-0.974495
0.509429
1.0401
0.377249
-0.0343085
-0.133368
-0.232126
0.750706
-0.197544
-0.0492977
-0.00302215
-0.0776923
-0.0534377
0.105405
0.377442
-0.2489
-0.83995
-0.28571
-0.121045
-0.0324929
0.153538
-0.718209
1.25317
-0.156192
0.13066
0.0255319
0.0280577
-0.000883128
-0.105855
0.0514081
0.0544471
0.00819238
0.417271
0.0704106
0.0271924
0.0121807
0.00719892
-0.0193796
-0.0169003
-0.170033
-0.726027
0.3729
0.353127
0.708337
-1.78922
1.08089
0.138636
-0.160035
0.0213996
-0.00747363
0.126681
0.141718
-1.15471
-0.107847
0.00199185
-0.102023
0.0299088
0.145639
-0.345685
-1.70315
0.678594
1.02455
0.0287209
0.0924517
0.0544769
-0.779479
-0.166365
-0.775614
0.120512
-0.0691039
0.0440639
-0.638322
-0.0546798
0.0610097
0.129634
0.67387
0.0424336
-0.460399
0.122121
0.34993
-0.292401
-0.116673
0.0214207
0.223085
0.839049
-1.06213
0.105206
-0.714564
0.609357
-0.947557
0.80606
-1.56712
0.164614
1.4025
-0.00935362
0.0101819
-0.000828261
0.16855
-0.465012
0.214673
-0.126244
-0.0884284
0.0483249
-0.0581274
-0.0333017
-0.0877436
-0.00920826
0.0224398
-0.0254969
0.0207205
0.078264
-0.0989845
0.894513
0.00150719
-0.00142849
-7.8703e-05
0.10595
-0.00322844
0.861705
0.044916
-0.0503291
-0.435052
-0.539442
0.150788
0.013992
0.00772658
0.0847251
-1.4025
1.15471
0.217288
-0.191939
-0.0253487
-0.252555
0.0789278
0.119402
-0.11357
-0.00142329
0.0902636
-0.0337966
-1.64763
-0.0555198
-0.0433944
0.0641149
0.739475
-0.256168
-0.190721
0.0453234
0.341941
0.0109238
-0.037671
-0.0075648
0.0814063
0.145296
0.209608
0.156494
-0.331808
0.175314
0.11182
0.561566
-0.0393316
-0.108986
0.937204
-0.267303
-0.6699
-1.56712
-0.500319
1.20866
1.74285
-0.0668937
0.317867
-0.250974
0.372856
-0.0701424
-0.302714
0.0635556
-0.866025
-0.0731495
0.0740025
-0.000852998
0.0269424
-0.107992
0.08105
0.510528
-0.935024
0.424496
0.0401446
0.658828
-0.698973
-0.0439436
-0.108332
-0.00833247
-0.0864304
0.0466864
-0.460936
-0.0108024
0.00144882
0.0821375
0.00529321
-0.0874307
0.0552471
-0.150448
0.00235013
0.0257075
0.0350809
0.0967049
-0.0226108
-0.00341427
0.196397
-0.432634
-0.324748
1.57938
0.0219393
0.00679623
-0.990584
-0.0177929
0.137749
-0.072191
-0.0444824
-0.195951
0.202144
0.720238
-0.88822
0.167982
0.100585
0.0502026
-0.938628
-0.0141629
-0.0132922
-0.648711
0.746711
-0.017798
0.183108
-0.139346
-0.859037
0.183292
-0.442521
0.259229
0.0137191
0.131396
0.0016057
-0.00179325
0.000187553
-0.0429168
-0.0914374
-0.0209307
-0.132725
0.745443
-0.640237
-0.12906
0.0778646
-0.100945
0.312379
-0.155884
0.141438
1.24015
-0.389989
-0.850157
-0.12093
0.139779
-0.505406
-0.220621
-0.557052
0.611685
-0.594065
-0.01762
-0.0930247
-0.036035
-1.73508
0.544727
-0.544727
-1.91034
1.91034
0.795064
0.0682719
-0.246166
0.177894
-0.897818
-0.0927662
0.633939
-0.367225
-0.266714
0.162527
-0.240603
-0.0102029
-0.00171405
-0.89719
-0.0824289
-0.93335
0.212958
0.0421016
-0.0745946
0.69824
-0.108779
-0.589461
1.29531
0.447546
-0.00168938
0.00329508
-0.964033
0.237523
-0.896111
-0.0827523
-0.599082
0.681834
-0.0537302
-0.863899
-0.693077
0.21838
-0.813313
-0.920976
1.37355
-0.452572
-0.136279
0.277832
-0.141554
-0.0259182
0.724159
-0.105875
-1.02663
1.02663
-0.916461
0.520455
0.396006
0.00044327
0.00106392
0.082904
-0.440401
0.831699
-0.0471311
-0.085125
-0.0345359
0.111354
0.00400058
0.0021374
1.95429
-1.78968
-0.340534
0.415869
-0.637523
1.01324
-0.375719
-0.0548391
-0.0530079
0.124459
-0.0560343
0.346922
0.00607876
-0.0594245
0.353963
0.042199
0.0432215
-0.24849
0.205268
0.138232
0.0336645
0.0977293
0.181857
1.8027
0.302545
0.196723
0.567084
-0.763806
-1.20491
1.58176
0.242754
-0.166666
0.0759029
-0.76701
0.691107
0.264995
0.129368
-0.475146
-0.0742611
0.133301
-0.0590397
0.131082
-0.205343
-0.45076
-0.106774
-0.0722118
0.0753594
-0.00314762
-0.000381219
-0.0222295
-0.00721278
-0.0370279
0.657484
-0.609357
-0.0481265
-0.289744
0.303056
0.879193
0.634567
-0.261711
-0.0270738
0.0557241
-0.440471
0.103293
0.173153
-0.579673
0.40652
-0.00185968
6.64264e-05
0.242587
0.0223354
-0.264923
0.00645
-0.0126081
0.00615807
-0.0250933
0.0173238
0.00776952
-1.40032
0.780886
-0.119538
-1.39981
-0.197952
-0.812163
1.53934
1.63541
-0.192129
-0.171428
0.120441
-0.0637695
0.0695601
-0.00579063
-0.263723
0.988954
-0.725231
0.551471
0.0824675
0.000489226
-0.0023489
0.121609
-0.536474
0.0345359
-0.0480428
0.0046484
-0.460325
0.0198534
-0.0449752
0.0737785
-0.21988
0.599664
1.0795
-0.207114
-0.0607726
0.00131589
0.0594567
2.02987
-0.394468
-0.0606178
-0.0538634
-0.973584
0.161421
0.361344
-0.192415
-0.478856
-0.132179
0.611035
0.823899
-0.368674
-0.455225
0.042254
0.677984
-1.75578
0.0192015
-0.00609372
-0.0247009
0.0307946
0.153604
1.8226
-0.165917
0.173834
0.231289
2.1776
-0.638263
-0.677408
0.0529469
0.624461
0.384054
0.00666301
-0.348553
0.538315
0.810254
0.374466
0.0756093
-0.0211323
-0.793554
0.219579
0.573974
1.1937
0.0465951
-0.0344144
-0.0499071
-0.360647
0.106028
-0.313138
0.760591
0.479556
-0.111983
0.0189583
0.310407
-0.377301
-0.0208301
0.0187146
0.10986
-0.145932
0.0360727
-0.297921
0.312068
-0.014147
0.388612
-0.778602
-1.29776
0.0437971
1.25397
0.109658
-0.203409
0.0937517
0.272274
0.0401048
-0.477234
0.310869
-0.658133
0.658133
1.74255
1.29531
-0.714564
0.329809
0.480445
-0.267417
0.373963
0.922872
-0.371401
0.00742288
-0.875426
0.868003
0.131231
0.00553536
0.0254755
-0.586199
0.108965
0.063641
-0.166296
-0.120926
0.287222
0.175428
-0.510908
0.344612
-1.08456
-0.288386
-0.65071
-0.0481521
-0.00143812
9.63481e-06
-0.22578
0.0773551
0.0761832
0.0337724
-0.146069
0.112297
-0.512161
-0.4043
-0.00560763
0.0675926
-0.705669
0.512772
0.192896
-0.564474
0.383969
-0.0782181
0.133459
0.233725
-0.00201611
-0.0149651
-0.760632
0.362261
0.0344596
0.0703089
-0.154308
0.0533622
0.205385
0.00928801
-0.428857
1.6422
0.442519
-0.0191159
0.866582
-0.790679
0.789025
-0.447084
-0.614644
0.174243
0.153987
-0.794382
0.768067
0.0263147
1.17356
-0.412966
-0.207319
-0.133215
-0.0736717
0.0171332
0.952747
-0.840083
-0.112664
-0.182974
0.109016
0.0274569
0.119281
0.878158
0.343825
-0.491191
0.147366
-0.324198
-0.0496547
-0.0186995
-0.686969
0.104883
1.38843
1.29387
0.00143498
0.168395
0.551854
-0.720249
0.139046
0.0504264
-0.00584064
0.00382453
-0.51412
-0.100524
0.103961
-0.119269
-0.187032
0.137715
-0.531331
0.275031
-0.992189
-0.509889
-0.289699
-0.556996
1.50176
-0.0659694
-0.28673
-0.453755
-0.00656918
0.225148
0.300622
0.0533406
1.32747
-0.816942
-0.189959
0.128487
-0.141666
-0.46402
0.605686
-0.0103542
0.00426045
0.0491143
-0.0596524
-0.238269
-0.118657
0.696918
-0.41902
-0.277898
-0.0166871
0.133486
-0.0961893
-0.0372971
0.242075
0.0585475
-0.188446
-1.49794
-0.0962575
0.140321
0.745487
-0.401663
0.0271514
0.0786601
-0.0220628
0.0186408
0.003422
0.011606
-0.0336106
-0.242182
0.0771119
-0.0532101
-0.553877
0.417598
0.0195104
0.0986168
0.0110409
-0.695506
1.70866
-1.2291
0.0158288
-0.192898
0.177069
-0.140264
-0.536062
0.676327
0.0756905
-0.714013
-1.06636
-0.231401
-0.0564131
-6.14191e-05
0.0564745
-0.242543
-0.611685
-0.167793
-0.140906
-0.793554
-0.231072
0.165123
-0.267302
-1.14146
-0.358122
0.403679
-0.045557
0.262575
0.113713
0.457701
0.218444
-0.676145
0.101813
0.0659352
0.845506
0.422833
-1.26834
-0.220764
0.431878
1.14988
-0.241784
0.180429
-0.651109
1.08299
-0.201611
0.121035
-0.0257145
0.0387776
-0.0193687
1.19437
-1.21349
0.735769
0.08813
-1.47639
-0.171237
0.247896
0.674976
0.907287
0.0299165
-0.0186433
-1.29387
-0.65071
-0.713206
0.722843
-0.0556907
-0.910207
0.658828
0.605179
-0.932849
0.614418
-0.00531034
-0.789072
-0.313152
0.635974
-0.77094
0.134966
0.0802326
0.0532538
-0.222242
-0.230231
1.26768
-1.03745
-0.000525751
-0.000912369
-0.263819
0.214521
0.711665
0.221731
-0.206449
-0.178993
0.670033
-0.91811
0.0607894
0.117104
0.255243
0.907432
-1.16267
-0.989109
1.20869
0.68774
-0.174968
0.0673373
0.343744
-0.573974
-0.00708725
0.216796
-0.0520608
0.108742
0.0290073
0.00338973
-0.0262624
0.0228726
-1.02584
-0.0362897
0.316015
-0.807464
-0.754786
1.69821
-0.943421
0.374338
0.638904
-0.0490375
0.0524283
-0.00339077
-0.110721
0.780754
-0.717993
0.731209
0.573189
-1.32797
0.31491
-0.0981135
-0.58435
-0.407839
-1.13417
1.38941
-0.0581099
-0.880736
-1.82138
-0.175529
0.343744
0.050009
-0.857473
0.831974
-0.646527
-0.185448
-0.981819
0.397469
0.00635071
0.111369
-0.000712062
-0.110657
-0.971344
0.563505
-0.214836
0.910811
-0.924974
0.192116
-0.209016
-0.0956421
0.241281
1.10033
0.448326
-0.109056
-1.43227
0.58211
1.11952
-0.745056
-0.552553
-0.5184
1.07095
0.447447
0.0164649
-0.0119488
-0.735263
0.698973
0.0461214
-0.156843
-0.478032
0.177569
0.300463
1.06173
0.636479
0.77761
-0.810713
-0.492868
-0.449249
-0.471563
-0.499781
0.803529
-0.803529
0.685253
-0.685253
-0.735263
-0.0231813
0.0231813
-0.177569
-0.745489
-0.365583
-0.518066
0.00528257
-0.00528257
0.0461214
-0.156843
0.77761
0.767104
-0.767104
0.810713
0.759421
-0.759421
0.507132
0.528437
0.4816
0.0514039
-0.500219
-0.550751
1.07919
-0.681614
-1.65105
0.516874
0.282936
0.404804
-0.186901
-0.0125693
0.0574853
-0.886189
0.0951828
0.791006
-0.121271
0.10336
-0.995685
0.587022
0.924677
-0.594869
-0.124417
0.00581743
-0.00749274
-0.809893
-0.0780232
-0.546168
-0.0039071
0.0146362
0.468413
-0.142843
0.0737395
0.177847
0.00102569
-0.0101399
0.00911419
-0.812397
0.0671718
0.745225
0.768301
0.332028
-0.532004
0.414052
0.117952
0.917559
-0.743171
-0.174388
0.0825555
0.298667
-0.0138245
-0.0583873
-0.0588775
-0.014272
0.80554
-1.52375
-0.847531
0.0972325
-0.741959
0.795088
-0.053129
0.121564
-0.899391
0.777827
-0.802441
0.903876
-0.101436
-0.0651099
0.0767159
0.0204973
-0.287704
0.321127
1.06829
-0.0946654
-0.791524
0.915104
-0.0910563
-0.824048
0.0702774
-0.125117
1.05124
0.822894
-1.26804
0.46532
-0.382853
0.101058
-0.892581
1.562
0.348335
-0.792458
0.0033866
1.01715
-0.895581
1.22279
0.880631
-0.71919
-0.161441
-0.879795
-0.11589
-0.413597
0.0350489
-0.441426
0.609408
-0.784897
0.784897
-0.60845
-0.0858752
-0.863882
0.120711
-0.943815
0.861063
0.0739723
-0.200217
-0.0570956
0.0587987
0.0112394
0.187606
0.829539
0.818001
0.771871
0.13898
-0.910851
-0.4919
0.896704
-0.781827
-0.105461
0.887288
0.170281
-0.888275
-0.676276
0.886979
-0.785922
-0.106973
0.459288
-0.0216606
-0.437627
-0.025781
1.3818
-1.35602
0.291655
-0.459978
0.168323
-0.8888
-0.830082
0.0881224
0.523948
0.265077
-1.97812
1.16859
-0.575657
0.575657
-0.839688
-0.592579
-0.104211
0.213176
-0.994094
1.03789
0.781518
-0.202923
1.26061
-0.479724
0.942552
-1.06921
0.126658
-0.128931
-1.66029
0.135666
0.388731
-0.476321
-0.299293
0.0947691
0.305603
-0.223047
0.781001
-0.882436
0.498902
0.397803
-0.150125
0.737147
0.58011
-0.58011
-0.0671274
0.0662442
0.11054
-0.0767681
1.22373
0.15807
0.181599
-0.000553693
0.00348096
-0.00292727
-0.668656
0.693855
-0.0251991
0.252575
-0.971766
0.107799
-0.893721
-1.05169
1.37886
-0.327175
0.186097
0.876701
-1.2185
1.47107
-0.754741
0.603301
-0.657981
-0.660483
0.155077
-0.0292132
0.0268066
0.116318
-0.311704
0.282491
0.00445215
-0.336409
0.0687396
0.726349
0.69343
-0.090129
0.0758231
0.785882
-0.0599055
0.0726174
-0.0127119
-0.595421
0.530826
0.595761
-0.953962
0.734654
0.219309
-0.685156
-0.128157
1.09364
-0.164304
-0.296632
-0.0390754
0.485903
0.514097
-0.770595
-0.111841
-0.392354
-0.352182
-0.41203
-0.305465
0.401494
0.598506
-0.126189
0.122961
-0.861652
-0.0674493
-0.590532
-0.150617
-0.248292
0.398908
-0.0301678
-0.00362881
0.112635
0.0723906
-0.127791
-0.114391
0.760811
-0.642937
0.71876
0.294249
-0.605953
-0.234343
0.0806119
0.153732
-0.745301
-0.190714
0.936014
-0.240552
0.229618
-0.0247022
-0.0725052
0.00156685
0.0111137
0.707434
-0.131776
0.122545
0.11118
-0.735703
0.0670476
1.06438
-0.053918
-0.751787
0.446238
-0.263145
-0.287775
1.02134
-0.00657588
0.247526
-0.0162378
-0.0065063
-0.0453565
-0.100928
0.012576
1.0518
0.38851
-0.480432
0.0919221
0.848933
-0.0236405
0.00174186
0.0218987
0.128464
-0.0100752
-0.00072724
0.214898
-0.105038
0.0763209
-1.07041
0.81864
-0.43013
0.00811833
0.283126
-0.39982
-0.956712
1.24803
-0.29132
-0.779112
0.836221
-0.057109
0.519347
0.137659
-0.33927
-0.0710634
1.23631
-0.457725
-0.0742789
0.276041
0.453936
0.190673
-0.644609
0.407249
0.0401761
0.653679
-0.573797
0.564103
0.0096936
1.39286
-1.16771
-0.0245034
0.0310134
-0.00650996
0.698807
-0.00902168
-0.0825575
0.0195779
1.3406
0.774439
-0.255092
0.062937
-0.110655
-0.0927549
0.0869045
0.0460144
-0.132919
0.0102297
-0.00683994
1.10416
-0.681324
0.177996
0.220596
-0.0254915
-0.089552
0.224223
0.0965382
0.00597655
0.0819695
0.767547
0.256508
-0.233966
-0.0225411
0.287944
0.323186
-0.611129
0.645508
0.116419
-0.0573322
-0.000803225
0.0581354
-0.628324
0.053419
-1.12263
-0.00413398
0.75046
0.718386
0.179375
0.631815
-0.854056
0.815789
0.159629
-0.0181907
-0.884082
0.0894921
-0.272102
-0.119972
-0.169971
0.693559
0.0739883
0.0135254
0.32287
-0.185211
-0.338269
0.162707
0.0253928
-0.111735
0.422242
-0.0573978
0.597549
-0.070619
0.16061
0.0227777
0.265166
-0.150945
-0.112183
-0.0463474
-0.109522
0.0154897
-0.000676688
-0.0148131
-1.54689
0.379172
-0.0093546
0.863495
-0.226809
-0.61741
0.641389
-0.0239799
0.429207
0.760606
0.478277
-0.324545
0.0795902
-0.175232
0.63327
0.127336
0.565562
0.687612
-0.265916
0.731237
0.214998
0.836805
-0.599514
0.349312
0.250202
0.0481468
-0.0706769
0.0407608
0.0644972
-0.0475099
1.1449
0.737128
0.0786615
0.621544
0.219017
-0.872618
-0.0809423
-0.675145
0.678532
-0.0245667
-0.580253
0.429636
0.872093
0.673446
0.144595
0.0113559
-0.158764
-0.316382
1.09856
0.610099
0.415108
0.0158295
0.877079
-0.040274
0.700618
0.69524
-0.0781438
0.552534
-0.738053
0.926293
-0.18824
-0.412509
-0.187005
-0.0389875
-0.201144
-0.188191
0.770081
0.00999167
-0.00279275
0.627761
0.170485
0.275753
0.605997
-0.132015
0.235705
0.745022
0.247032
-0.992054
0.276999
-0.923526
0.226192
-1.4553
-0.177814
0.767905
-0.590091
-0.669191
-0.0949835
0.0224783
-0.0551831
-1.20449
0.0200356
-0.0420984
0.679914
0.0357281
-0.280273
0.244545
-0.0383675
-0.577283
0.154993
0.0925334
-1.48495
-0.00302854
0.00405423
0.160015
-0.0540024
-0.592596
0.0187985
0.567918
0.304175
1.13394
0.873185
-0.244848
-0.385327
0.630175
0.16357
-0.618082
0.618082
-0.222532
-0.922008
1.14454
0.030418
-0.151348
0.683334
-0.115416
-0.219862
-0.469249
0.172617
0.672308
0.735901
-0.0585182
0.176407
-0.104056
-0.460757
0.484082
0.0800219
0.059401
0.0124911
-1.65886
0.0407223
-0.1378
0.693979
0.306021
0.0407223
0.693979
0.0520877
-0.137346
0.0520877
-0.696197
0.696197
0.303803
-0.0140874
0.188636
-0.0766617
0.205726
0.0919225
-0.473236
0.641162
-0.035165
0.657357
-0.50552
-0.151837
-0.0561481
0.0550413
0.00110675
-0.0102821
0.00972845
-0.0739511
0.0185137
-0.072566
-0.435258
-0.353967
0.128187
0.0436145
0.828476
-0.276623
-0.442069
0.4355
-0.000554843
-0.139407
-0.00828687
0.683134
0.0673258
0.5742
-0.0182356
-0.00114402
0.0127547
0.0853637
0.560841
-0.476065
-0.0847757
2.13772
0.551033
-0.161887
0.898285
0.0113881
-0.0630249
0.10685
0.219547
0.127102
1.12861
-0.383589
0.0135379
-0.0616901
0.680268
-0.28186
0.0215409
-0.0215409
0.0207254
-0.0207254
-0.0168705
0.0168705
0.0219393
0.365982
0.459249
-0.0323647
-0.715442
0.4861
0.186742
0.0281559
-0.0833895
-0.483974
0.734903
0.112249
-0.797405
-1.01638
0.157338
0.0887343
0.019292
-0.00196824
-0.0164681
0.0164681
0.142324
-0.0164067
0.0164067
0.701382
0.0938498
-0.0130567
-0.00517889
0.00654482
-0.0673174
-0.0221034
0.0221034
-0.00979759
0.00979759
-0.0225354
0.0225354
-0.0127596
0.0127596
0.114266
-0.29542
-0.0815485
0.219743
-0.0120157
0.0120157
-0.373836
0.510019
-0.136183
0.498781
-0.220949
-0.42509
-0.0169791
0.560727
-0.164756
0.0767594
0.56463
0.566726
-0.00604155
0.00604155
0.23493
0.0251099
-0.0251099
-0.0109307
0.0109307
0.759893
-1.15121
0.036204
-0.106634
0.12897
0.0027721
-0.0027721
0.0123934
-0.0123934
0.0184823
-0.0184823
0.0228452
-0.0228452
-0.0237074
0.0237074
0.0353085
-0.0353085
0.486448
-0.0320077
0.0320077
-0.00204486
0.00204486
0.024273
-0.024273
-0.00491305
0.00491305
0.0073019
-0.0073019
-0.0489691
-0.0259629
0.0259629
0.398054
0.0228288
-0.0396696
0.0396696
0.00486455
-0.00486455
0.0185905
-0.0185905
0.0337041
-0.0337041
0.0253065
-0.0253065
0.00344879
-0.00344879
-0.00196274
0.00196274
-0.571513
-0.234319
-0.00827883
0.00827883
-0.0012166
0.0012166
-0.0383445
0.0383445
-0.0275487
0.0275487
0.000438216
-0.000438216
-0.411137
0.659034
0.251184
-0.0322241
0.0322241
-0.0372551
-0.0139937
0.0139937
-0.000527737
0.000527737
0.036797
-0.036797
-0.241229
0.223038
0.0028778
-0.0028778
-0.0225804
0.0225804
-0.500026
0.0441094
0.134654
-0.0308997
0.0308997
-0.445494
0.0335829
0.0188454
-0.0178853
-1.4585
-0.0369253
0.0369253
-0.199567
0.14217
-0.040177
-9.05119e-05
9.05119e-05
0.000517291
0.0482068
0.263045
-0.323456
-0.279194
0.60265
0.193637
-0.00386686
0.00386686
-0.159909
0.440484
-0.280575
0.769522
-0.396898
-0.372624
-0.461171
-0.659392
0.178027
0.257472
-0.184318
-0.411103
-0.572259
0.00958851
0.189849
-1.17815
0.016077
-0.016077
0.000120989
-0.000120989
0.0310137
-0.0310137
0.0257954
-0.0257954
-3.83486e-05
3.83486e-05
5.45623e-05
-5.45623e-05
-0.058949
-0.197233
0.174581
-0.298998
0.000101963
-0.000101963
-0.0443091
0.0443091
-0.0405408
0.0405408
0.206553
-0.0222958
-0.184257
0.00247341
0.315199
-0.542008
-0.000236091
0.000236091
-0.0175881
0.0175881
-0.0958524
0.193418
-0.0153908
-0.000132989
0.000132989
0.100751
0.0134329
0.993958
-0.484384
-0.0821771
0.566562
-0.627903
0.0458447
-0.487271
-0.037987
0.037987
-0.680084
0.275717
0.0498588
-0.0498588
-0.649131
0.382417
0.262971
0.122468
-4.45267e-05
4.45267e-05
-0.830577
-5.41628e-05
5.41628e-05
0.313926
0.410232
0.0445504
-0.0538898
0.0538898
-0.000500799
0.000500799
-0.0425913
0.0425913
-0.0529466
0.0529466
2.45375e-05
-2.45375e-05
-0.0584845
0.0584845
-0.000199716
0.000199716
-0.0459266
0.0459266
-0.00443285
-0.044397
0.044397
0.00226771
-0.00226771
0.048469
-0.048469
-0.000970835
0.000970835
0.0469277
-0.0469277
-0.102183
-0.002876
0.002876
-0.00470339
0.00470339
-0.0529971
0.0814063
-0.0108615
0.0108615
0.00511421
-0.00511421
-0.059761
0.059761
0.299204
-0.018631
0.018631
-0.0559148
0.0559148
-0.00749295
0.00749295
-0.0677084
0.0677084
-0.0131449
0.0131449
-0.0810728
0.0810728
-0.0218647
0.0218647
-0.0919875
0.0919875
-0.692454
0.360765
-0.530665
0.506686
-0.863899
0.118454
-0.562387
0.392416
-0.0816283
0.0649412
0.00348667
-0.00348667
0.207729
-0.720354
0.0436808
-0.0311897
-1.19391
1.64146
1.21842
0.25049
-0.0428751
-0.0128499
-0.392623
-0.580237
-0.0557654
0.39023
-1.1945
-0.020439
0.020439
-0.756884
0.0197475
-0.0197475
-0.00127314
0.00127314
0.320099
-0.405852
-0.00202683
0.00202683
0.0187616
0.0143509
0.596249
0.293652
-0.00854028
-0.0103925
-0.00825081
-0.0969713
0.49414
-0.397169
0.162435
-0.0267695
0.00934072
0.920857
-0.0112323
0.0531397
-0.406899
0.441948
-0.489076
-1.017
-0.208174
-0.071455
0.0180174
-0.202659
-0.25732
0.0471503
-0.00436198
-0.0107347
0.785711
-0.551296
-0.0378821
0.0632749
-0.0361124
0.0852851
0.103351
0.423654
0.237695
-0.162656
0.208353
0.0217984
-0.00544499
-1.30558
0.0179567
0.0318951
-0.312168
-0.0187126
-1.48228
-0.0710798
0.262948
-0.350192
0.392391
0.273645
-0.830641
0.0498826
-0.0285326
-0.096584
-0.346888
0.46484
-0.0823521
-0.0164398
0.0987919
-0.0274206
0.0274206
0.171544
-0.433255
-0.0721492
0.112227
-0.0794932
0.0549265
-0.064334
-0.00622065
0.0705547
-0.0321314
-0.15357
0.0958985
-0.0875955
-0.288271
-0.35768
0.645952
0.0147933
0.0592092
0.151683
-0.0291381
-0.0987099
0.0674398
-0.156207
0.310194
-0.00407266
0.0259713
-0.0265356
0.178218
0.00374817
0.259444
0.000835948
-0.000835948
-0.319997
1.02061
0.0892129
-0.170155
-0.0502561
-0.00347408
0.824606
0.646466
0.00947845
-0.0290057
-0.532943
0.00227756
0.0865375
0.0917559
-0.681621
0.31022
-0.0547687
0.381427
-0.669699
0.224143
0.510511
-0.0907803
0.0907803
-0.000712061
-1.21334
0.544776
0.668561
-0.211277
0.156094
0.258582
-0.237825
-0.540777
-0.128257
-0.0290339
0.0373002
0.929487
0.222798
-0.0782024
-0.0691077
-0.616315
-0.71166
-0.0768419
-0.258224
0.796539
0.577543
-0.262344
-0.248046
0.531172
-0.0805859
0.398453
-0.266977
0.100122
-0.46539
0.329207
0.120143
-0.120143
0.110885
-0.11491
0.00402482
0.00547114
-0.000474464
0.0186408
-0.361443
-0.266881
0.22824
-0.186389
-0.0418509
0.542949
-1.07667
0.267014
-0.806457
0.694405
-0.120413
-0.178585
-0.0394106
-0.0792462
-0.486555
0.0512972
-0.28673
0.00364708
-0.0187126
0.379575
-0.00523743
0.00171998
0.000743918
0.0144355
-0.0112757
-0.0031598
-0.104314
-0.0182338
-0.167602
0.185836
-0.126512
-0.338878
0.0187616
0.34594
0.00287681
-0.373428
0.0837291
0.00257443
0.0968272
-0.129192
-0.0120291
0.0120291
-0.00103948
0.00259583
-0.00924833
0.00108497
-0.0666959
0.000741742
-0.00117196
0.257511
-0.0553667
-0.000723162
0.000723162
0.112877
0.513247
0.00151876
-0.285806
0.497105
1.13169
-0.4734
0.335674
-0.437779
-0.222249
0.1501
0.229797
-0.229934
-0.00810963
0.0143702
-0.00325653
-0.00746682
-0.178418
-0.373669
0.85977
0.35188
-0.410829
0.239624
-0.00160438
0.165688
0.0204087
0.00160028
0.000663764
0.0137064
0.149457
0.00132507
-0.000264764
0.721375
-0.653935
-0.24524
0.11199
0.943804
0.000688862
0.000915053
-0.040177
-0.00559324
0.8179
-0.431308
0.51133
-0.489983
0.904526
-0.442811
0.577187
-0.184771
0.699165
0.00104619
0.00323368
0.0160584
-0.113155
0.138809
-0.240495
0.0094863
0.00242964
0.0646999
-0.0502252
-0.0144747
0.000989056
0.0324798
0.0269829
-0.0594626
-0.0936607
0.0032586
0.000222364
0.00154455
0.476514
-0.429031
-0.00100241
0.000202128
1.17482
-0.630046
0.385728
-0.00591153
0.000211502
0.194781
-0.0167854
-0.0415811
-0.116287
-0.017017
-0.00361558
0.120168
0.0447446
-0.00179337
0.414531
0.000689597
-0.00278502
0.00278502
0.00216147
-0.012554
6.36154e-05
-0.321499
-0.00371318
0.0724554
-0.107332
0.0468051
0.0639035
-0.0654418
0.000134128
0.00182739
0.467534
-6.17666e-06
-0.0034898
-0.0354977
-0.00205044
0.00039773
0.0299497
0.151649
-0.710568
0.484876
-0.858545
-0.0639015
-0.000367811
-0.461672
0.0491848
0.0455843
0.601546
-0.0149596
0.0351904
-0.00403102
-0.00138984
-0.552748
-0.00333537
-0.000224253
-0.037404
0.918063
-0.510813
-0.00254231
-0.000771118
-0.00587114
-0.00190517
0.0721701
-0.021941
0.021941
-0.0290891
0.0316849
-0.00237875
-0.00794743
0.0397508
-0.0380309
-0.16372
0.0930433
-0.0056519
-0.0133644
0.0418838
-0.0165285
0.0621004
-0.0440831
-0.624189
0.57106
0.0187565
-0.00162754
0.30507
-0.14446
-0.0698772
-0.684797
-0.0755231
-0.118578
-0.0941909
0.0921405
0.690879
0.000437197
0.0106608
-0.00974578
0.192385