/*--------------------------------*- C++ -*----------------------------------*\
| =========                 |                                                 |
| \\      /  F ield         | OpenFOAM: The Open Source CFD Toolbox           |
|  \\    /   O peration     | Version:  2306                                  |
|   \\  /    A nd           | Website:  www.openfoam.com                      |
|    \\/     M anipulation  |                                                 |
\*---------------------------------------------------------------------------*/
FoamFile
{
    version     2.0;
    format      ascii;
    arch        "LSB;label=32;scalar=64";
    class       volVectorField;
    location    "20.3";
    object      U;
}
// * * * * * * * * * * * * * * * * * * * * * * * * * * * * * * * * * * * * * //

dimensions      [0 1 -1 0 0 0 0];

internalField   nonuniform List<vector> 
2186
(
(1.33309 -0.0778974 2.37546e-19)
(1.61134 -0.951827 -3.11762e-20)
(1.46162 -0.927627 6.2241e-21)
(0.751606 -0.594276 -1.53938e-19)
(-0.306057 0.418454 -1.70219e-19)
(1.47291 -0.382793 0)
(0.728975 -0.673967 0)
(-0.274162 -0.416654 8.82169e-20)
(1.3969 -0.310032 1.41189e-19)
(0.561365 -0.325427 -2.21155e-21)
(0.670889 0.604062 0)
(0.748498 -0.277436 -9.53089e-20)
(-0.331578 -0.476492 -3.59627e-20)
(1.2018 0.0239575 -3.85663e-19)
(1.79538 -0.706624 -4.13346e-20)
(1.01288 -0.00459657 1.80689e-19)
(0.982511 0.0129131 0)
(-0.452537 0.0747969 0)
(1.43775 -0.134631 0)
(-0.0775512 0.214037 -6.36909e-20)
(0.483505 0.0765948 -1.16673e-19)
(-0.168793 0.156396 8.7125e-20)
(1.18894 0.0269002 3.1793e-19)
(-0.203918 0.00272541 5.92342e-21)
(1.03149 0.00517425 -2.50319e-19)
(0.802739 -0.570637 0)
(0.762989 -0.0406734 1.49317e-19)
(0.618012 -0.597624 -1.80839e-19)
(1.20647 0.705562 0)
(0.964931 0.0231358 -3.41406e-19)
(-0.0376041 0.0571742 0)
(1.02453 -0.0122203 1.18274e-20)
(-0.0825614 0.148563 0)
(2.71465 0.124108 2.52378e-19)
(-0.124079 -0.179844 3.49128e-21)
(1.53454 0.767496 7.82765e-20)
(1.97685 0.130859 1.51638e-19)
(0.508379 0.125085 -3.47624e-19)
(1.87883 0.240308 -2.65697e-19)
(1.12107 -0.204702 8.91726e-21)
(-0.380627 -0.509618 0)
(-0.115574 0.120964 0)
(1.86513 -0.899359 6.41998e-20)
(-0.384093 0.139463 0)
(1.10796 0.274827 1.56775e-19)
(0.60487 -0.306829 2.90064e-19)
(0.925655 -0.790975 0)
(1.1979 -0.802412 1.2509e-19)
(2.29867 -0.0252409 0)
(-0.207508 0.44239 1.70313e-19)
(-0.0258163 0.105962 9.41245e-20)
(0.625814 0.576842 8.18894e-20)
(2.06401 -0.795389 6.48953e-20)
(0.588883 0.259813 -2.7962e-19)
(-0.256368 -0.0417278 3.33922e-20)
(0.77441 -0.661443 0)
(1.6472 -0.975423 1.74944e-20)
(0.588179 -0.54853 0)
(2.23846 0.234299 7.97858e-20)
(1.14916 -0.175305 -3.84275e-19)
(2.04017 -0.118414 1.64124e-19)
(1.34746 0.299704 -1.82518e-19)
(1.33546 0.525987 0)
(0.836065 -0.195448 -9.76672e-21)
(1.35304 0.383204 -1.11235e-19)
(1.26053 -0.745199 -1.78291e-19)
(1.16496 0.65508 5.39491e-20)
(0.676725 0.0596146 -5.68142e-19)
(0.81888 0.0452424 0)
(2.05408 -0.292337 -5.20806e-20)
(-0.27677 -0.474722 -1.02185e-19)
(2.20889 -0.0436517 -1.70178e-19)
(0.727049 -0.0508792 -2.50741e-19)
(0.886706 -0.529845 0)
(0.820434 0.170409 -9.24485e-20)
(0.556816 -0.518628 -3.09038e-19)
(2.55571 -0.0732978 0)
(1.00661 0.00903745 3.73e-19)
(-0.116026 -0.252971 0)
(1.99155 0.354689 0)
(0.656693 0.186528 8.6014e-20)
(0.955002 -0.266175 -1.2623e-20)
(1.02589 0.00546373 4.1576e-20)
(1.31486 0.411272 2.80459e-20)
(0.969621 0.021589 4.36316e-19)
(1.042 0.027501 -1.03329e-20)
(0.663798 0.163623 -3.38194e-19)
(1.3806 -0.234501 1.10812e-21)
(1.08614 -0.231221 0)
(-0.0638167 -0.0367946 6.97983e-20)
(0.873695 -0.635428 -1.74286e-19)
(-0.0768134 0.285606 -9.69871e-22)
(1.11857 -0.0796485 2.5934e-19)
(0.825051 -0.194351 0)
(0.973859 0.0228221 4.15856e-20)
(1.36203 0.639483 0)
(1.62791 -0.969107 0)
(1.29811 0.219659 0)
(-0.293547 0.47227 0)
(0.804228 -0.678387 3.06657e-19)
(-0.0544822 0.250877 -2.24416e-19)
(0.511329 0.0305153 1.48705e-19)
(1.55615 0.194432 0)
(1.15136 -0.104872 -2.3708e-19)
(1.11897 0.0235553 1.84627e-19)
(-0.0227503 0.344926 1.13352e-19)
(0.627686 0.493741 0)
(2.2297 -0.217845 -1.07817e-19)
(0.97562 -0.489233 8.60888e-20)
(-1.19236 0.538186 2.72477e-19)
(1.73601 0.284773 1.11978e-19)
(-0.162473 0.478958 -2.52603e-19)
(0.822569 -0.748512 0)
(0.557141 0.334098 1.69167e-19)
(1.61731 -0.300996 -4.00758e-19)
(-0.407308 -0.295405 -3.54799e-19)
(1.29799 0.309026 1.01308e-20)
(1.79801 -0.058041 0)
(-0.0852022 -0.0430438 -2.09208e-19)
(0.711343 -0.0846562 7.94381e-20)
(1.55565 0.873771 0)
(-0.132503 0.402811 -2.44796e-19)
(0.87755 0.752771 -2.75828e-19)
(-0.578125 -0.136307 3.3741e-19)
(1.02971 -0.0248842 0)
(1.56935 0.381205 -1.27661e-20)
(-0.246125 0.467866 0)
(0.709878 -0.5087 -1.1108e-19)
(-0.537086 -0.033319 -1.85704e-19)
(0.796488 -0.727237 0)
(0.444903 -0.29485 4.20706e-19)
(0.552123 -0.469516 2.87448e-19)
(0.412672 -0.373733 0)
(0.994177 -0.793304 -1.41116e-19)
(0.430882 0.182124 0)
(-0.06443 0.484099 -1.33517e-19)
(0.822718 -0.709181 1.48211e-19)
(2.45682 -0.311988 2.38643e-19)
(2.24375 0.170562 0)
(-0.0816302 -0.158928 0)
(0.680408 0.631966 -3.4371e-19)
(1.78716 -0.650048 -1.14025e-20)
(-0.166195 -0.222116 0)
(0.99633 -0.818944 -1.51369e-20)
(1.15747 -0.101839 0)
(1.0913 -0.130059 4.11335e-19)
(2.16322 -0.224131 -9.0675e-20)
(-0.331144 0.416552 0)
(1.23473 -0.566034 -6.05963e-20)
(-0.254637 0.262611 -4.1669e-20)
(-0.163729 0.369804 0)
(1.10538 -0.826442 1.18936e-20)
(1.0054 0.00578411 -6.23068e-19)
(0.66248 -0.493557 -1.08717e-20)
(0.829185 -0.528616 0)
(1.21173 -0.743195 -1.04751e-19)
(0.651148 0.224966 2.62083e-19)
(1.21769 0.119054 0)
(1.48341 0.0832142 -2.52646e-19)
(1.20789 -0.868284 -2.38234e-19)
(-0.0723676 -0.140348 -7.94216e-20)
(-0.188995 -0.439855 -1.53411e-19)
(1.06787 0.00546648 2.32619e-19)
(0.92987 -0.47605 -1.08258e-19)
(1.48327 -0.24247 -1.02589e-21)
(1.34683 -0.182822 -2.18524e-20)
(0.660128 -0.0967214 8.37709e-20)
(-0.199265 -0.0692949 -1.84451e-19)
(1.79123 -0.425723 0)
(1.98922 -0.453436 7.29651e-20)
(1.4413 0.644808 1.39054e-19)
(0.821897 -0.627535 -2.23688e-19)
(0.994556 0.00805603 1.27677e-20)
(0.733211 -0.54492 3.05388e-19)
(1.29618 0.791949 1.27139e-19)
(1.8107 0.0934052 1.4424e-20)
(-0.366577 0.342565 0)
(1.08203 0.0511031 -2.40692e-19)
(-0.596418 -0.527096 -2.37367e-19)
(1.06542 0.482268 8.02158e-20)
(0.0065729 -0.103812 1.11498e-19)
(1.15763 0.02755 -4.42879e-20)
(-0.159114 0.137333 -1.53844e-19)
(1.29102 0.577367 -7.77846e-20)
(1.12835 0.87736 0)
(-0.405113 0.321112 -8.90027e-20)
(-0.144574 -0.0698652 0)
(0.644821 0.552009 -2.78271e-19)
(2.00116 0.190458 -1.85556e-20)
(-0.405007 -0.463085 1.22424e-19)
(-0.660788 -0.0284146 -5.56792e-19)
(0.723973 0.0624243 2.49577e-19)
(1.96814 0.15103 -3.99316e-20)
(0.991927 -0.357673 -3.15404e-20)
(-0.0226711 -0.0373985 0)
(-0.839093 0.447229 4.22112e-19)
(1.3226 0.964497 -1.98298e-20)
(0.837725 0.0637299 -1.36851e-19)
(0.550217 0.515663 1.93682e-19)
(0.475553 0.191444 0)
(-0.156313 -0.491203 -1.74868e-19)
(-0.752965 0.653844 2.84696e-19)
(1.30232 -0.967027 5.96549e-22)
(0.989417 -0.0383742 -1.94284e-19)
(-0.188504 -0.132618 7.25166e-21)
(-0.123962 0.161757 1.41973e-19)
(-0.283885 -0.141246 -1.35518e-19)
(1.87761 -0.178275 0)
(1.13293 0.04309 -3.23064e-19)
(2.21187 0.147345 2.04734e-19)
(1.28647 -0.633831 1.14237e-19)
(0.59316 -0.0979334 -1.95877e-21)
(0.5859 0.31484 0)
(0.933207 0.739775 -1.63239e-20)
(0.677985 0.622819 1.84459e-19)
(0.910145 -0.576422 1.57342e-19)
(0.674501 0.488761 0)
(1.02133 3.8592e-05 8.33379e-21)
(0.895372 -0.676854 2.24362e-19)
(0.827926 0.412635 -4.5781e-19)
(1.24303 -0.114156 0)
(-0.150221 -0.143055 -2.40686e-19)
(0.0054947 0.233935 -9.36259e-20)
(1.58333 0.715067 0)
(1.35803 -0.951551 -5.10553e-22)
(-0.405057 0.129367 0)
(-0.28164 0.444756 1.0744e-19)
(0.726123 0.642305 -9.80548e-20)
(0.858434 -0.230583 0)
(-0.204986 -0.17004 0)
(1.54782 -0.480051 0)
(-1.14397 0.13647 4.96014e-19)
(1.22262 -0.896406 1.55769e-19)
(1.18827 -0.617044 6.72904e-20)
(1.06334 -0.180839 -1.76811e-19)
(0.892213 -0.707001 -1.77731e-19)
(0.18743 -0.191698 0)
(-0.815745 -0.358683 0)
(1.01452 -0.524082 1.87483e-19)
(-0.128974 -0.229744 0)
(-0.203177 0.453039 0)
(-0.40501 -0.267847 3.0361e-19)
(0.781484 0.659457 8.5071e-20)
(1.00229 0.783776 0)
(0.685524 0.541 -8.493e-20)
(0.832955 -0.0545329 -2.26753e-19)
(0.734657 0.550291 -2.27234e-19)
(0.584645 0.543022 -1.6679e-19)
(-0.240734 -0.487462 2.04235e-21)
(0.727446 -0.653469 0)
(0.895076 0.166556 -3.24547e-19)
(-0.332829 -0.536161 4.68703e-20)
(0.598068 0.553871 3.75841e-19)
(0.946369 0.786969 0)
(-1.2136 0.247931 3.57504e-19)
(-0.0965358 -0.418316 2.3782e-19)
(-0.00796751 -0.337779 -1.22153e-19)
(0.653779 0.558227 -1.47531e-20)
(0.969112 -0.00832268 6.02878e-20)
(-0.394585 -0.490726 0)
(2.44967 -0.0988249 -2.89678e-19)
(1.88462 -0.425083 -2.98078e-19)
(0.660009 -0.611625 -7.93898e-20)
(-0.489909 -0.0854138 1.04948e-20)
(1.18565 0.453397 1.80817e-19)
(0.877499 0.402837 0)
(1.0554 -0.175053 2.01903e-19)
(0.07793 -0.480418 -7.37999e-21)
(-0.079379 0.0910145 3.56809e-19)
(0.924971 0.0191137 -5.41095e-20)
(1.11657 0.143042 0)
(2.01465 -0.0758989 -2.29754e-19)
(1.86104 0.106013 0)
(0.539532 0.240408 -4.5937e-19)
(-0.133238 0.190571 0)
(-0.254129 -0.433674 2.00192e-19)
(0.694406 0.10981 0)
(0.632471 -0.527708 -1.87181e-19)
(1.13672 0.0161502 2.145e-19)
(-0.326042 0.416412 3.93126e-20)
(2.13422 -0.0725405 4.69758e-21)
(2.10626 -0.316839 -9.90638e-20)
(1.1103 0.225745 -2.19527e-19)
(-0.348895 -0.537858 -9.27688e-20)
(1.08622 -0.862952 0)
(0.811978 0.0177118 -1.56043e-19)
(0.938254 -0.388336 -2.99481e-19)
(1.73867 -0.598412 -7.32831e-22)
(1.78241 0.0222733 1.79246e-19)
(1.08183 -0.00625342 3.87114e-19)
(0.0592438 -0.450019 -1.2402e-19)
(1.00741 -0.449955 -1.32864e-19)
(0.197706 -0.190359 2.63527e-19)
(1.00822 -0.00825637 0)
(1.00511 -0.00607124 0)
(0.871282 -0.254383 1.49796e-19)
(-0.0089011 0.462684 -9.08883e-20)
(0.16167 -0.12196 -1.04047e-19)
(2.06417 0.00484441 -1.31019e-21)
(1.06773 0.0196864 0)
(1.76751 0.152928 -1.24885e-19)
(0.948645 -0.82755 -9.45e-20)
(1.79185 -0.58758 -4.90189e-20)
(1.09478 0.826467 0)
(0.478985 -0.461475 0)
(0.595313 0.506532 -1.76758e-19)
(1.09009 0.275102 -4.03389e-19)
(2.30735 -0.30782 2.99495e-22)
(0.855006 0.150307 1.39497e-19)
(-0.0375311 -0.446769 -3.72695e-19)
(1.21575 -0.484996 3.75153e-21)
(-0.274467 -0.39924 0)
(-0.0932232 -0.172244 0)
(-0.461415 -0.409357 0)
(1.35026 -0.738469 -1.06213e-19)
(-0.16303 0.373595 -2.05126e-19)
(-0.0628767 0.131212 0)
(1.28172 0.966332 -3.37135e-20)
(1.1098 0.147489 -4.22002e-19)
(2.16547 0.554485 -5.04549e-20)
(1.07192 0.914348 8.29658e-20)
(-0.140345 0.465536 1.29461e-19)
(0.862819 -0.178709 0)
(-0.464334 -0.355489 -2.59633e-19)
(-0.207629 0.474887 2.45192e-19)
(0.774851 0.0204266 1.85157e-19)
(1.52708 0.93574 -3.15922e-21)
(1.85079 0.608806 7.95327e-21)
(-0.0988364 0.263656 -1.82138e-21)
(0.752694 -0.687716 -3.96378e-20)
(1.1114 -0.0185407 0)
(1.68597 -0.0782626 0)
(1.04292 0.0567457 0)
(-1.31208 0.500483 -2.61095e-19)
(-0.431399 -0.420289 9.34392e-20)
(1.03564 0.833108 0)
(0.999315 -0.00628012 5.21706e-19)
(0.756402 0.592183 -2.27571e-19)
(-1.55035 0.559448 -2.50809e-19)
(0.859992 0.00784653 -4.16625e-20)
(0.723578 -0.660579 -2.30742e-19)
(1.37906 0.699367 -3.18478e-20)
(0.573856 -0.465084 -2.97622e-19)
(1.13236 -0.00116696 -4.6726e-19)
(0.811857 0.045284 4.639e-20)
(1.55471 -0.187328 8.12591e-20)
(1.56969 -0.154118 -6.59676e-20)
(-0.0447486 -0.0660329 4.14766e-23)
(1.07291 0.45914 -2.67312e-19)
(1.34045 0.61037 7.38319e-20)
(-0.075844 -0.373679 0)
(-0.0734335 -0.39953 1.38337e-19)
(-0.217043 -0.188845 1.01504e-19)
(-0.188088 -0.0772175 -9.67646e-20)
(0.4683 0.299832 0)
(1.26185 -0.468301 0)
(-0.00674931 0.00852659 -1.30227e-19)
(-0.288466 -0.568138 -5.28693e-20)
(1.04811 -0.0293237 1.85189e-19)
(-0.33997 0.355138 -4.14676e-20)
(1.23624 0.293092 -4.11912e-19)
(-0.019501 0.46291 0)
(0.842233 -0.747623 -3.22364e-19)
(1.23072 -0.166649 8.00636e-20)
(-0.35336 -0.484785 1.40491e-19)
(0.715322 0.148757 3.2951e-19)
(0.620142 0.124169 1.06525e-19)
(0.508086 -0.481761 2.0828e-19)
(-0.187305 -0.278011 -1.07061e-19)
(1.47322 0.553697 0)
(0.385086 0.331644 -1.94363e-19)
(1.02717 -0.0150183 -2.94896e-19)
(-0.70227 -0.0792768 2.18125e-19)
(1.41208 0.474378 -1.18969e-19)
(-0.152978 -0.293365 -3.98926e-20)
(0.686794 -0.628008 -7.20081e-20)
(0.808493 0.175743 -2.0679e-19)
(0.969695 0.41586 2.28369e-20)
(1.15859 -0.144923 3.6268e-20)
(0.613574 -0.244047 -3.0444e-19)
(2.02411 -0.403122 -9.76666e-20)
(1.85731 -0.0843867 0)
(1.66974 0.438055 -3.24486e-20)
(2.04318 0.0622441 -1.49505e-20)
(0.790046 -0.317675 1.09336e-19)
(0.996476 0.340171 -1.7828e-19)
(1.02838 -0.314994 1.65857e-20)
(0.412209 0.379266 -2.51837e-19)
(-0.169217 0.0636294 2.05346e-19)
(1.88339 -0.27554 0)
(0.931964 0.003926 0)
(0.880035 -0.779557 6.42862e-20)
(-0.0956978 -0.487266 -2.60117e-19)
(-0.826465 -0.255236 -2.01172e-19)
(-0.0652536 -0.104726 -1.70338e-19)
(-0.254172 0.362087 -1.51317e-19)
(-0.318473 -0.404657 0)
(-0.0753358 -0.128168 2.9759e-20)
(0.133741 0.357778 -8.68697e-20)
(-0.140524 0.182077 -3.23987e-19)
(0.807923 -0.12313 0)
(1.6813 -0.521296 1.25605e-19)
(-0.208374 -0.221006 0)
(0.995816 0.0232765 3.75589e-19)
(-0.155205 -0.455399 1.75676e-20)
(0.549423 -0.436756 3.98953e-19)
(-0.732064 -0.53332 3.92821e-19)
(-1.35402 0.188746 0)
(0.200523 0.400791 9.78659e-20)
(1.00693 0.0228093 -1.13138e-20)
(-0.170625 -0.139824 0)
(1.00491 -0.00980669 -5.83069e-20)
(0.8721 -0.73728 -3.04189e-19)
(1.34124 -0.251398 0)
(0.942626 -0.281037 2.1417e-19)
(0.0891837 0.367508 2.0427e-19)
(-0.013905 -0.00966558 0)
(-0.205166 -0.44059 -5.0655e-21)
(0.736808 -0.644129 -4.39557e-19)
(0.959247 -0.0287409 -2.75156e-19)
(-0.0998351 -0.523926 3.2833e-19)
(-0.203999 -0.411533 1.22007e-19)
(-0.305814 -0.409564 0)
(0.951013 0.465534 0)
(-0.347943 -0.55496 1.75299e-19)
(1.85334 -0.0969645 -2.3778e-19)
(1.0655 0.887185 1.85761e-20)
(1.06571 0.210395 -1.24285e-19)
(1.14985 0.00772801 -2.31757e-19)
(1.06376 -0.0731281 -8.4373e-20)
(-0.0939786 -0.540757 -3.04819e-19)
(1.95134 0.113879 4.02971e-19)
(0.670802 0.0308976 2.08436e-19)
(2.1276 -0.117687 1.52037e-19)
(1.06155 -0.157715 0)
(-0.00781125 0.490875 5.5847e-19)
(1.13853 0.0256171 -5.08919e-19)
(1.74151 0.611348 9.33178e-21)
(0.751494 -0.467166 -1.64972e-19)
(-0.0701606 -0.0377533 1.56419e-19)
(0.806626 -0.7088 3.98206e-19)
(1.23654 0.194488 7.41952e-20)
(1.00717 -0.00796499 2.58171e-19)
(0.0262413 -0.470716 -1.37528e-19)
(1.023 0.0146866 0)
(1.7639 0.14912 -2.39362e-19)
(-0.0286917 -0.0179141 0)
(1.01561 0.0119056 -1.52914e-19)
(-1.39776 0.35151 -5.78804e-19)
(1.66978 0.294731 3.49019e-20)
(-0.347515 -0.207409 1.33419e-19)
(1.5953 -0.00415837 -4.2402e-21)
(1.01254 -0.0188346 5.34379e-20)
(1.34711 -0.0932189 0)
(1.45642 -0.625094 -1.65951e-19)
(1.02141 0.0305148 -1.57572e-19)
(1.43563 0.78103 -5.6439e-20)
(1.41112 -0.060244 0)
(0.783003 0.0773479 -1.55541e-20)
(-0.0104187 0.00971 0)
(1.36758 0.0460347 0)
(-0.416635 -0.462943 0)
(1.2336 0.434889 0)
(1.84954 0.263117 4.43794e-20)
(0.73054 0.60469 3.98892e-19)
(0.293661 -0.295293 -2.46544e-19)
(-0.262584 -0.546581 -2.94848e-19)
(-0.0257372 -0.039262 0)
(2.09272 -0.328582 1.22765e-19)
(1.36909 0.510624 0)
(1.4455 0.293123 0)
(-0.497254 -0.334164 1.14825e-19)
(0.800527 0.705953 1.28201e-19)
(1.7112 -0.0378485 0)
(-0.328192 -0.421539 6.88136e-20)
(0.904392 0.213483 1.90438e-19)
(2.11622 -0.33741 -6.08434e-20)
(1.2326 0.917974 4.50579e-20)
(0.924654 -0.833184 -4.26115e-20)
(1.6242 -0.136907 -1.83845e-20)
(0.787566 0.710792 1.31641e-19)
(1.17092 0.917813 0)
(2.50047 -0.155841 1.88942e-19)
(0.947915 0.599396 0)
(1.52948 -0.580103 4.5876e-20)
(1.03971 0.0923202 1.88553e-19)
(1.00626 -0.00557971 0)
(0.216509 0.527824 5.04635e-19)
(0.894374 -0.181766 4.9082e-20)
(0.640078 -0.421567 0)
(0.678146 -0.393761 2.15845e-19)
(1.23352 0.550294 -3.34906e-20)
(0.4703 0.443034 2.76587e-19)
(-0.16675 0.243644 3.83795e-20)
(0.0941136 -0.0845565 9.26857e-20)
(0.755885 0.0663318 0)
(1.33103 -0.912153 -1.0071e-19)
(1.03095 -0.0423381 4.10884e-19)
(1.51871 0.325403 1.41221e-19)
(-0.356832 -0.440108 5.95064e-20)
(-0.796078 -0.601129 0)
(1.23596 -0.248266 -1.2e-19)
(-0.0115326 -0.0107804 -1.36561e-19)
(0.201035 -0.154362 -6.42538e-20)
(-0.136411 0.0543202 -8.71099e-22)
(-0.206041 0.101062 2.96024e-19)
(1.44384 -0.363118 -1.17651e-20)
(2.46527 -0.111295 3.87839e-19)
(1.18767 0.453549 -2.91583e-19)
(0.853089 -0.0528725 0)
(1.85829 -0.127349 2.0695e-19)
(1.92202 0.0977271 1.01145e-19)
(0.921768 -0.775464 1.50543e-19)
(1.15784 -0.979328 -5.45183e-20)
(0.47485 0.440302 1.85521e-19)
(1.38337 0.350444 0)
(1.75539 0.562642 2.84095e-20)
(-0.0181998 -0.0234015 -2.78726e-19)
(0.876637 0.76363 0)
(1.36828 0.455991 0)
(0.294814 -0.294767 -3.62848e-21)
(0.318942 0.293184 0)
(-0.84039 -0.499553 -3.80035e-19)
(-0.226144 0.371353 -1.12612e-19)
(1.71651 -0.449055 0)
(1.23532 0.105095 1.82856e-19)
(-0.539373 -0.212522 1.67132e-19)
(0.539691 -0.512483 -4.79834e-19)
(2.0779 -0.100017 -4.91216e-20)
(0.617889 -0.561512 0)
(1.02908 0.124196 0)
(1.32119 -0.262042 0)
(1.11522 0.224422 -2.34678e-19)
(1.34405 0.1069 3.32926e-19)
(-1.09985 0.00376162 0)
(0.894402 -0.0631784 0)
(2.11178 -0.11568 -7.7184e-21)
(-0.0720205 0.13425 9.84882e-20)
(2.50413 0.0437391 -2.67026e-19)
(1.04149 -0.512215 1.38165e-19)
(1.99835 0.0558473 -2.9529e-19)
(-0.75735 -0.246636 -1.4165e-19)
(1.92319 0.108157 -1.76169e-19)
(1.01703 -0.024362 4.24311e-19)
(1.51507 0.594422 0)
(-0.233595 0.451826 3.03431e-20)
(1.01296 -0.838482 1.89846e-19)
(0.859166 -0.0259352 4.86983e-20)
(0.64418 -0.444474 0)
(1.90678 -0.566281 7.82761e-22)
(1.21749 -0.195122 1.58841e-19)
(1.79441 -0.500643 0)
(0.61268 -0.569089 4.72817e-19)
(0.730317 0.109227 -2.04082e-20)
(2.32755 0.0545969 4.17818e-19)
(-0.0918598 0.208014 -2.02919e-19)
(1.32952 0.612854 1.49235e-19)
(1.1431 0.398099 3.67382e-21)
(0.89995 0.365558 2.25136e-19)
(1.97428 -0.0456845 -2.74291e-19)
(-0.11681 -0.544057 -4.89516e-21)
(0.728445 -0.266628 0)
(-0.156638 -0.095151 2.57631e-19)
(1.08925 -0.950377 0)
(1.07397 -0.664214 2.31029e-20)
(1.21737 -0.246846 -7.00058e-19)
(1.37133 0.0411192 -2.79004e-20)
(-0.558999 -0.342137 -3.27818e-19)
(0.983081 0.475606 1.75077e-19)
(-0.225839 0.755125 2.88707e-19)
(0.691398 -0.0382693 0)
(2.02156 -0.0347193 0)
(1.69663 0.159983 2.43274e-20)
(0.782891 -0.0135663 0)
(1.37822 -0.213899 -1.63445e-19)
(-1.03254 -0.42258 4.60138e-19)
(1.91806 0.489164 1.02749e-20)
(1.04118 -0.0336588 0)
(0.560412 -0.362671 1.06992e-19)
(1.00961 0.0270983 2.0148e-19)
(0.217101 0.530425 -2.53028e-19)
(-0.258335 0.202004 0)
(1.12144 -0.489625 5.16854e-19)
(1.85371 -0.135857 -5.29548e-22)
(1.10989 -0.507022 -2.24851e-19)
(2.28594 0.243128 1.48878e-19)
(1.28286 0.784229 0)
(0.863819 0.0179828 0)
(-0.412015 -0.429398 -1.51166e-19)
(-0.00801488 0.00756606 1.46524e-19)
(0.943411 0.359981 -2.08036e-19)
(0.189703 -0.397557 -1.22099e-19)
(0.639297 0.398048 2.42239e-19)
(0.990576 0.0928845 0)
(0.542261 -0.504323 0)
(0.642565 -0.285966 5.49809e-21)
(1.24079 -0.519003 -1.06497e-19)
(0.584838 -0.0357785 9.29796e-21)
(0.737173 -0.164956 1.20001e-19)
(-0.0605748 0.0793302 -2.61283e-19)
(1.02084 0.0657045 1.91498e-19)
(0.656018 0.611088 0)
(1.26683 0.688925 0)
(1.60663 0.259491 0)
(-0.402922 -0.379518 -1.38763e-19)
(1.27655 0.558174 2.0232e-19)
(2.10223 0.0474764 4.79025e-20)
(0.925474 -0.0096192 0)
(1.96622 -0.505649 0)
(2.12957 -0.0755437 -3.06085e-19)
(0.557245 0.555492 2.93179e-19)
(1.00558 0.004798 -2.01288e-19)
(1.48043 0.464758 0)
(-0.196028 0.316977 0)
(1.24134 0.313411 2.88557e-19)
(1.01897 0.520778 -1.30028e-19)
(1.07005 0.0227967 0)
(1.72935 0.118614 0)
(1.99801 0.656281 -2.93274e-19)
(-0.0813092 0.351738 -9.08309e-22)
(0.997355 0.0132042 0)
(0.699515 0.462844 -3.33329e-20)
(0.940575 -0.830482 0)
(1.00278 0.0168906 4.68286e-20)
(0.499123 -0.452045 -3.37031e-21)
(0.911335 -0.331728 3.15975e-19)
(0.739222 -0.499582 -6.18122e-20)
(2.24718 -0.177367 2.90115e-19)
(1.42723 0.137809 1.0144e-19)
(0.793222 -0.0281429 0)
(1.01691 0.0091494 0)
(-0.584747 -0.578968 0)
(0.661639 0.633106 -1.88546e-19)
(-0.0371713 0.0468429 1.76219e-19)
(1.16402 0.341198 -4.62766e-19)
(-0.424567 0.282233 0)
(0.818785 0.632011 1.67769e-19)
(1.01572 -0.342458 0)
(1.00493 -0.00210812 1.17744e-19)
(0.571006 0.00462832 7.86768e-20)
(1.02822 0.397681 2.57178e-19)
(1.22529 0.155961 0)
(2.10439 0.153483 -7.06058e-20)
(0.830235 -0.120404 -3.69664e-19)
(-0.985039 -0.528773 -5.55986e-19)
(1.19544 0.289633 0)
(0.872765 0.233574 1.75807e-19)
(2.02653 -0.246329 0)
(0.766487 0.511363 3.62092e-19)
(-1.1039 -0.456065 2.12122e-19)
(-0.0435551 0.0796648 0)
(0.586174 0.557174 -7.05775e-20)
(1.03706 -0.651726 -1.61656e-19)
(0.485494 -0.261069 -1.23087e-19)
(1.01967 -0.0178198 0)
(-0.280819 -0.0157515 -1.71382e-19)
(0.646323 -0.577233 8.36434e-20)
(0.902124 0.281722 0)
(1.69686 -0.423925 1.56279e-19)
(0.975324 0.829474 2.42934e-20)
(0.920655 -0.544063 -1.08531e-21)
(0.196246 -0.252301 -1.84864e-19)
(0.234887 -0.056456 -5.54183e-19)
(-0.111056 -0.224568 7.36704e-21)
(0.809191 0.34873 2.4688e-19)
(-0.178586 0.404044 -5.07195e-21)
(1.42203 -0.662643 3.44308e-21)
(1.02316 0.00758442 -3.50537e-19)
(-0.465288 -0.387038 0)
(1.03219 0.031506 -4.10774e-19)
(2.26842 0.1474 2.2805e-19)
(0.876916 0.679013 2.81472e-19)
(1.13506 -0.0728568 1.64766e-19)
(1.00453 -0.0323501 1.62209e-19)
(1.38511 0.0559691 2.5188e-20)
(-0.301542 -0.337048 -4.55352e-23)
(1.72173 -0.885282 1.46269e-20)
(1.15356 -0.131529 -8.28062e-20)
(0.805118 0.0544894 9.52919e-20)
(0.917128 -0.302492 9.19862e-20)
(1.07121 0.239207 0)
(0.951645 0.723685 0)
(0.786766 0.115609 -9.37739e-20)
(2.06618 0.175769 -2.19222e-20)
(-0.880012 -0.503848 1.73169e-19)
(1.03872 -0.548393 -5.40926e-19)
(0.625448 -0.543461 3.99179e-19)
(1.20399 0.171652 -1.13113e-19)
(0.264324 -0.438413 1.39749e-20)
(1.49872 -0.58197 0)
(0.750338 0.104976 -6.78539e-21)
(1.59269 -0.548618 -7.97476e-20)
(1.03001 0.750974 0)
(1.25177 -0.617788 0)
(0.093396 0.0982135 0)
(-0.18824 -0.31597 -4.84323e-20)
(-0.0711284 0.150934 0)
(1.79549 0.595571 3.72019e-19)
(1.22214 0.180818 6.41742e-21)
(-1.02674 0.258005 2.38357e-19)
(1.96775 0.675956 1.3489e-20)
(1.82157 0.442813 -6.39818e-20)
(2.16734 -0.365125 -2.95051e-20)
(-0.177388 0.0205938 -2.07886e-19)
(-0.212082 -0.431901 3.77627e-21)
(1.09414 0.119067 0)
(0.676269 -0.0344158 0)
(1.00195 -0.000570646 1.69509e-22)
(-0.427707 -0.379494 0)
(1.58171 -0.00183031 -7.33137e-20)
(0.678773 -0.0302307 0)
(1.06403 0.00809193 1.32042e-19)
(0.991533 0.0145557 -4.58107e-20)
(0.938855 0.270598 1.12355e-19)
(1.06445 -0.0171751 -9.39309e-22)
(0.954085 -0.198036 -5.545e-20)
(1.02385 -0.0335764 3.77384e-19)
(0.679965 -0.61846 1.89743e-19)
(-0.951615 0.42402 -2.74909e-19)
(1.15281 0.419416 1.45903e-20)
(-0.0101321 0.0137748 0)
(1.11732 0.785099 0)
(1.02908 -0.00892201 0)
(1.01298 -0.785012 -1.13409e-19)
(1.04056 -0.894087 5.87096e-20)
(0.983586 0.247843 -1.78617e-20)
(0.185127 0.246681 -1.0954e-18)
(1.20692 -0.534508 1.9599e-20)
(0.593092 -0.394764 -6.41215e-19)
(1.35298 0.42556 -3.98066e-20)
(0.732042 -0.255319 -1.14567e-19)
(2.07961 -0.371588 7.5948e-20)
(0.469771 0.0749866 -1.59211e-20)
(-0.30561 -0.434913 -1.0252e-19)
(1.10932 0.545099 1.97367e-19)
(-0.0844664 -0.338585 0)
(0.0911914 -0.439327 3.11727e-19)
(-0.0876006 -0.115017 1.53999e-22)
(1.02606 -0.0438136 3.36923e-19)
(1.02316 -0.00064608 -8.69436e-21)
(1.11128 -0.0120887 -9.31781e-20)
(1.47896 0.087711 2.0401e-20)
(1.61572 0.314898 5.88161e-20)
(0.403871 -0.379301 -3.19949e-19)
(0.787226 0.19308 3.15066e-20)
(1.03564 0.00097136 -2.48786e-19)
(1.17278 0.312559 -1.50203e-20)
(1.47764 0.169137 0)
(1.10449 0.584167 -3.70033e-19)
(1.00302 -0.00448575 9.60753e-20)
(0.667306 0.5954 2.58424e-19)
(1.3567 -0.511193 -1.38537e-21)
(1.06941 -0.00972863 -3.05473e-20)
(1.13005 0.0115576 8.67667e-22)
(2.40338 0.098374 1.56089e-20)
(0.453845 0.130365 0)
(1.04475 -0.0390271 0)
(1.051 -0.0346038 5.9049e-19)
(1.00246 -0.00187225 0)
(-0.0493713 -0.0731264 0)
(0.933908 -0.574259 0)
(1.00073 0.000556169 -5.58836e-19)
(1.16575 -0.693365 9.25441e-20)
(1.02282 -0.005052 1.17573e-20)
(1.33638 0.946846 -2.67154e-20)
(1.5219 0.995893 4.72922e-22)
(1.10934 -0.383381 -3.09949e-20)
(1.6131 0.136449 2.60001e-19)
(1.51923 0.266199 0)
(0.0233929 0.395317 0)
(2.18154 -0.156743 5.14569e-19)
(1.17348 -0.641135 0)
(1.00032 -0.00404753 -1.72886e-19)
(1.01041 -0.000626806 3.36005e-19)
(1.44386 0.142611 -6.95762e-20)
(-0.00738984 -0.123367 2.01095e-19)
(0.971141 -0.00195743 1.82607e-19)
(0.123158 0.0237182 1.79974e-20)
(0.301728 -0.102984 5.04993e-21)
(1.59076 0.130137 9.85563e-23)
(0.926541 0.0167425 -1.84611e-19)
(1.00281 0.00388455 2.17327e-19)
(1.00002 7.36286e-05 1.28257e-20)
(0.790848 -0.0125416 0)
(0.729214 -0.0261771 0)
(0.724987 -0.0263151 7.72719e-22)
(0.700178 -0.0284482 0)
(1.31548 -0.165794 0)
(0.616638 -0.15367 0)
(-0.0159337 -0.0992815 2.75161e-20)
(0.153711 -0.0487312 -1.18626e-20)
(1.26062 -0.0796552 0)
(1.33612 -0.0953384 1.24594e-20)
(1.57685 0.0885331 0)
(-0.00458999 0.0932446 0)
(-0.00734838 -0.00364243 0)
(0.196738 0.0516446 -2.73457e-21)
(0.762707 0.148362 3.54914e-20)
(0.784888 0.0230376 0)
(0.791696 0.0200833 0)
(0.964293 0.019878 -2.27434e-19)
(0.817152 0.00862128 4.23869e-19)
(1.00719 -0.00123561 0)
(1 -0.00081012 4.01333e-19)
(0.999988 -0.00105164 -3.14844e-22)
(0.791842 0.02297 3.61154e-19)
(0.991771 -0.00766771 -2.09689e-19)
(0.0663765 0.078108 0)
(0.197103 -0.0436322 -5.05321e-21)
(1.00068 -0.000562105 -2.02761e-19)
(1.00073 0.001919 -3.48109e-19)
(1.31916 0.0728876 0)
(0.998902 0.00187483 0)
(0.999638 -4.84894e-05 0)
(1.61872 -0.605433 -2.16312e-21)
(0.632929 -0.18496 3.53396e-20)
(0.911203 0.30212 0)
(-0.31265 0.355778 1.93953e-19)
(-0.520778 0.508678 -4.92247e-19)
(1.02017 -0.0181959 -2.70331e-19)
(-0.356503 -0.508116 -9.5908e-20)
(1.01959 0.00269554 -2.17825e-19)
(1.1785 -0.219902 -1.11727e-19)
(0.80779 -0.482431 3.11884e-19)
(-0.0494343 -0.0767994 -6.85891e-20)
(1.02889 0.0132755 0)
(1.05362 -0.0109516 -5.87084e-20)
(0.856605 0.0236431 0)
(-0.0550202 0.0548394 2.58507e-19)
(1.00907 -0.495158 0)
(-0.460724 -0.385734 -2.45108e-19)
(0.23331 0.0750753 -1.37064e-20)
(1.65405 0.673344 -6.39635e-21)
(-0.0636327 -0.0149453 0)
(1.05447 -0.0375839 1.82571e-19)
(1.11215 -0.379688 4.25826e-21)
(0.927497 -0.0151071 2.8607e-19)
(1.01279 -0.00795128 -1.84045e-19)
(1.67226 0.851025 3.70268e-20)
(0.51704 0.484588 0)
(0.439314 0.391223 2.03144e-19)
(1.86047 -0.5316 -9.26571e-22)
(1.15287 0.126889 1.94963e-19)
(1.09651 -0.722335 0)
(1.02092 0.00447584 0)
(0.998845 -0.018227 -4.23875e-19)
(1.01817 0.0159821 -4.13767e-19)
(-0.158415 -0.353443 0)
(1.21472 0.812734 -1.29788e-19)
(1.51654 -0.51739 1.47513e-21)
(1.0159 0.00477829 1.59145e-19)
(1.01128 0.0141731 -1.99707e-19)
(-0.534716 -0.334551 -2.43874e-20)
(1.1255 -0.239962 -1.08249e-19)
(1.01912 -0.015766 6.78522e-19)
(1.28996 -0.383851 0)
(1.85708 0.636173 -4.50593e-20)
(1.01567 -0.0120062 -2.11458e-19)
(2.09358 0.0851084 -1.38232e-19)
(1.0618 0.0061104 -4.8673e-22)
(1.00921 -0.00904788 4.2274e-20)
(2.10161 -0.309299 -2.51454e-19)
(1.01468 0.00761795 2.05313e-19)
(0.923369 0.278983 9.1948e-22)
(1.01802 0.00353225 0)
(0.932433 0.146446 4.99158e-20)
(-1.02948 -0.0397662 6.62244e-21)
(0.996866 0.0215325 2.04013e-19)
(1.03913 0.0206454 -5.87676e-22)
(1.30902 -0.408178 -1.05676e-20)
(1.25141 0.31193 4.12948e-19)
(0.998613 0.0153977 1.40359e-19)
(1.01737 -0.0138915 4.53986e-22)
(1.71844 0.249747 -2.30884e-20)
(1.78646 0.936933 -1.04119e-19)
(0.779992 -0.700779 6.24217e-20)
(0.456749 -0.33641 -3.09183e-19)
(1.00806 -0.0107598 0)
(1.02021 0.00238585 5.09973e-20)
(1.01038 -0.00876117 1.07441e-19)
(0.921295 0.00871428 6.74918e-21)
(1.0126 0.0061232 -2.13775e-19)
(1.02754 -0.0233745 2.45216e-19)
(1.00876 -0.00603353 -2.00817e-19)
(1.01363 0.00733186 -4.95531e-22)
(1.01216 0.00373732 -3.83831e-22)
(1.02445 0.0130909 2.04715e-19)
(0.899441 0.0818593 5.14529e-19)
(1.75216 0.681789 0)
(0.684966 -0.379771 3.09662e-19)
(1.0108 -0.0029995 0)
(1.02136 -0.0192481 -5.92713e-20)
(1.53237 0.439809 -8.15198e-20)
(2.01995 -0.0478187 0)
(2.3417 -0.242058 -1.28233e-19)
(1.23044 0.486597 -6.07986e-20)
(0.751718 -0.0147891 0)
(1.91852 -0.208231 0)
(0.115727 0.362033 -2.25985e-19)
(1.28029 -0.073282 -2.70096e-20)
(1.01764 -0.00376547 -2.15298e-19)
(1.12674 -0.57395 -6.40195e-20)
(1.2791 -0.269883 -3.54669e-20)
(1.2932 0.476892 0)
(1.47106 -0.569845 0)
(1.93188 0.489071 0)
(0.0928548 0.30238 8.12646e-20)
(0.969408 0.147482 1.15714e-19)
(-0.471599 0.257403 0)
(-0.0133995 0.24342 -2.40543e-19)
(1.69683 0.958988 -5.44021e-20)
(1.00896 -0.00379265 -4.2086e-19)
(0.9663 -0.0240468 3.08915e-20)
(1.02223 0.00695487 2.78723e-19)
(0.68498 -0.0398024 0)
(-0.138518 -0.314541 -2.07615e-20)
(0.60594 0.422934 -3.41488e-19)
(1.79928 0.582801 1.08576e-19)
(0.119579 0.363117 0)
(0.791766 0.066698 8.27243e-20)
(0.51564 0.492444 5.16831e-20)
(1.17881 0.876597 -3.51097e-20)
(-0.036291 -0.0224246 9.99654e-20)
(1.01908 0.0114786 0)
(1.13366 0.296649 5.949e-20)
(1.01146 -0.00137263 1.57944e-19)
(2.31702 0.156511 0)
(1.01177 0.0077904 2.64975e-19)
(0.175335 -0.471661 -1.47684e-19)
(1.02017 0.00948871 -1.63991e-19)
(1.28199 0.286053 0)
(2.19684 -0.215371 5.72732e-22)
(1.00904 0.0034022 -1.10037e-19)
(0.994561 -0.0317386 2.90352e-19)
(1.09318 0.0972961 -3.03529e-21)
(1.05418 0.467382 -3.81999e-20)
(-0.146045 -0.0690813 2.603e-19)
(1.98022 0.254901 1.57488e-19)
(0.409842 0.16076 4.30235e-20)
(0.803165 0.015207 -3.97641e-19)
(0.802558 0.0252271 0)
(0.399609 -0.0160735 6.01902e-20)
(1.02135 -0.0159494 -3.18485e-20)
(0.973997 0.0230093 0)
(1.05133 -0.00133901 -2.01883e-19)
(-0.0947967 -0.328132 -2.18073e-20)
(-1.11698 -0.302459 2.62366e-19)
(2.15083 -0.622292 0)
(-1.19151 0.0761308 -6.43697e-19)
(1.52566 -0.354476 0)
(1.04029 -0.0176892 5.92707e-20)
(1.14538 0.0733 9.31401e-22)
(1.01298 -0.00193024 1.70964e-19)
(-0.890278 -0.302296 3.6501e-19)
(1.01813 0.00194512 0)
(0.993089 0.00383117 -4.10538e-19)
(1.00774 0.00815219 2.17297e-19)
(0.762098 0.00102733 0)
(0.731082 -0.00546622 -7.04088e-21)
(0.957263 -0.00115171 -1.8582e-19)
(-0.282442 -0.532415 3.24248e-19)
(1.00424 -0.0007054 -2.11944e-19)