/*--------------------------------*- C++ -*----------------------------------*\
| =========                 |                                                 |
| \\      /  F ield         | OpenFOAM: The Open Source CFD Toolbox           |
|  \\    /   O peration     | Version:  2306                                  |
|   \\  /    A nd           | Website:  www.openfoam.com                      |
|    \\/     M anipulation  |                                                 |
\*---------------------------------------------------------------------------*/
FoamFile
{
    version     2.0;
    format      ascii;
    arch        "LSB;label=32;scalar=64";
    class       volScalarField;
    location    "38";
    object      p;
}
// * * * * * * * * * * * * * * * * * * * * * * * * * * * * * * * * * * * * * //

dimensions      [0 2 -2 0 0 0 0];

internalField   nonuniform List<scalar> 
2186
(
1.20705
0.262424
0.531588
1.50664
-0.919548
-0.201184
1.16541
-0.346983
-0.148979
1.70726
1.22579
-0.25641
-0.359496
1.34828
0.0623942
1.32753
1.36745
-1.05278
-0.127199
-1.06243
1.71168
-1.02085
1.35356
-0.321271
1.34505
1.48448
1.56446
1.36226
0.689359
1.34724
-1.0292
1.34522
-1.01207
-0.515696
-0.268198
0.122155
-0.533391
1.68794
-0.848922
-0.112456
-0.361287
-0.985075
-0.0358634
-1.16646
1.09353
1.68773
0.878929
1.02557
-0.0978127
-1.05261
-1.04227
1.0431
-0.0320918
1.59311
-1.06716
1.40429
-0.0819269
1.42874
-0.918162
1.23245
-0.00689967
0.762175
0.649997
-0.0536734
0.68445
0.972992
0.780151
1.60918
1.50301
-0.136259
-0.334987
0.0616916
1.60455
1.441
1.45762
1.58311
-0.176906
1.36032
-0.272154
-0.893428
-1.35234
-0.0868529
1.34172
0.738989
1.34054
1.34372
1.58591
-0.215392
-0.0411445
-0.27631
1.40314
-1.03255
1.31514
1.54571
1.35324
0.487785
0.422221
0.708085
-0.988568
1.43957
-1.44091
-1.38373
0.779555
1.33096
1.36993
-1.04385
1.43697
0.0150513
1.37926
-1.32683
-0.869359
-1.02828
1.04895
1.57196
-0.161887
-0.458835
0.405074
0.0361906
-0.277063
1.61692
-0.0377759
-1.14428
0.997071
-1.12689
1.334
0.313744
-0.981581
1.57067
-1.0481
1.14949
1.7738
1.65542
0.780956
1.14232
-1.33036
-1.08539
1.37939
-0.143552
-0.5137
-0.290117
0.929934
0.385965
-0.336053
1.18729
1.31558
1.34847
0.0494246
-0.916326
1.103
-1.1323
-1.00897
1.08047
1.36363
1.60502
1.48192
1.03383
1.56649
0.538434
0.421248
0.942353
-0.287864
-0.304793
1.27671
1.42787
-0.179718
0.0269053
-0.191255
-0.273667
0.219403
0.393374
0.419251
1.44265
1.36765
1.54313
0.492865
-0.278917
-0.865827
1.27591
-0.521691
1.0206
-0.273189
1.35705
-1.05116
0.638947
0.611692
-0.850081
-0.528041
1.33886
-0.500624
-0.391008
-0.707704
1.57307
-0.918784
1.40904
-0.283293
-1.58717
0.083382
1.48401
1.26081
-1.03412
-0.285879
-1.47298
0.639619
1.38368
-0.267533
-0.975055
-0.277749
0.206128
1.22817
-0.493351
1.02613
-0.15661
1.56347
0.964573
1.07806
1.40152
1.40507
1.34599
1.35937
1.32197
0.901983
-0.478529
-1.03886
0.108388
0.735536
-1.09226
-0.965872
1.22419
1.52314
-0.316192
-0.215565
-0.922448
0.897362
1.14222
1.21719
1.36188
1.55653
-1.085
1.34236
-0.304214
-1.03126
-0.476329
1.17763
0.848644
1.36529
1.52775
1.31797
1.28711
-0.316228
1.29885
1.38813
-0.335602
1.16012
0.904337
-0.974075
-0.263992
-0.239026
1.36492
1.35607
-0.375368
-0.248096
0.769045
1.41267
-1.20073
0.893085
1.28609
1.27364
-0.237993
-1.03626
1.33957
0.772338
0.036734
-0.459283
1.62568
-0.982298
-0.324328
1.25541
1.61069
1.34425
-0.950855
-0.450242
-0.0873628
1.12667
-0.348519
1.05304
1.33216
1.44902
0.395869
0.153048
1.25077
-0.239314
1.37311
1.62154
1.35348
1.35115
0.601154
-1.0833
-0.332422
-0.136243
-0.0491185
-0.77386
0.905709
0.0719591
0.705522
1.59988
1.43082
1.1205
0.00435586
1.43158
-0.247116
-0.38646
-0.315461
-0.283008
-0.410696
0.880533
-1.01563
-1.02348
0.182396
1.15537
-0.472893
0.439116
-1.03905
-0.0543058
-0.425687
-1.01272
1.54656
-0.0299864
0.235242
-1.03327
1.26864
0.684389
-0.381547
1.02556
-1.64721
-0.393632
0.767721
1.37431
1.27217
-1.33069
1.48058
1.35556
0.436719
1.66275
1.31919
1.3177
0.890993
0.345973
-0.294662
1.04092
-1.13999
-0.269678
-0.275327
-0.506598
-0.281817
1.62957
0.622279
-1.03952
-0.324191
1.31976
-0.843929
-0.504277
-1.09765
1.24359
0.236035
-0.385704
1.54933
1.6178
1.5634
-0.33974
-0.0613981
1.64181
1.32847
-0.756789
0.529994
-0.308922
0.723299
1.45508
1.18726
1.29058
1.68936
0.131656
0.333509
-0.206152
-0.461345
-0.189843
-1.00223
-0.245484
1.55505
-1.21809
-0.198847
1.30576
1.08792
-0.268622
-1.20106
-0.297997
-1.08168
-0.331461
-0.279693
-1.0504
-0.959933
1.56363
0.536101
-0.463618
1.35816
-0.269255
1.67753
-0.55925
-1.09054
-1.11496
1.34317
-0.264601
1.35501
1.31958
0.454952
1.45267
-1.19084
-0.2768
-0.296607
1.46315
1.32084
-0.26195
-0.30843
-0.330211
1.18094
-0.334335
-0.490405
0.590804
1.1892
1.28418
1.16212
-0.27291
-0.495653
1.04626
-0.293847
1.23704
-1.52196
1.36301
-0.0569385
1.55973
-0.276447
1.32444
0.863593
1.36145
-0.257034
1.30739
-0.50403
-0.274076
1.34603
-1.16729
0.176071
-0.501076
-0.126254
1.33135
0.670612
0.829833
1.31476
0.276369
0.473167
0.198943
-1.03977
0.790758
-0.374545
0.848268
-0.818495
1.26857
1.57157
-0.313426
-0.28177
0.454068
-1.02108
0.507697
-0.442624
0.979677
0.546903
-0.374882
1.36193
0.448024
0.429365
0.834965
0.335808
0.935114
0.396987
0.282561
-1.61135
-0.00984114
-1.03821
1.35071
-1.7647
1.49737
1.64517
1.6295
0.772219
1.38364
-0.954236
-0.959199
1.29134
0.76391
1.30752
-1.00528
-0.386221
-0.600744
1.24148
-0.275202
-1.00005
-1.06086
-1.10607
-0.424103
-0.168618
0.878725
0.882708
-0.505825
-0.103863
1.23524
0.63648
1.34605
-1.27827
-0.222741
-0.275909
0.891371
0.224851
1.60468
1.65959
-0.727147
-0.966828
-0.197587
0.348953
-1.34157
1.48758
-0.146246
1.44939
0.950328
-0.329527
1.08431
1.04632
-1.07712
1.28134
-0.25888
-1.03209
-0.436792
-0.244649
-0.362083
-1.05091
-0.545065
1.34886
0.247407
-0.995605
1.09491
1.4917
1.63553
0.262424
1.20738
0.412708
1.25985
-0.011103
-0.538564
-1.02407
0.58387
0.980591
1.28725
-0.639437
-0.278149
-0.181197
-0.278835
0.467149
1.21662
-0.45892
-0.149632
-0.429707
1.12912
-1.78426
1.24538
0.134121
-0.407113
1.32305
1.13283
-1.00329
-0.214952
1.26412
1.70083
1.36462
-1.71013
-1.15198
1.27049
0.220506
1.25599
-0.657936
0.520443
1.25985
-0.403075
-1.03679
1.23949
-0.218414
1.48838
0.268385
1.34832
-0.309553
1.11621
-0.1965
1.60551
-1.03684
-1.17905
1.13644
0.612723
0.600244
-0.359289
-1.04666
-0.223929
0.983911
0.0210274
-0.533849
-1.61955
1.35251
0.469049
-1.12703
0.90957
1.07034
1.28953
-0.815724
-0.918367
-1.03395
1.35604
1.40495
1.00784
1.35337
-0.34059
1.47667
-0.327112
-0.0439094
-0.269347
1.31148
1.33697
-0.435645
1.00314
-1.03707
0.988221
-0.888912
1.18814
1.38496
1.35136
-1.21452
1.11799
-1.34031
-0.648301
1.53186
-0.803052
-1.42381
1.37576
-0.184405
1.32069
-1.0281
-1.03172
1.23792
1.2598
1.75341
1.34295
-1.27585
1.52757
1.33174
0.780868
0.746803
-0.331658
-0.19911
1.83468
-0.294013
1.37225
-1.0039
0.84092
1.34411
-0.397729
1.29711
-0.708453
1.09636
1.33298
1.36448
-0.222993
-0.407382
0.027038
1.06925
1.13117
1.4794
0.0168541
0.980547
-1.05954
-0.359626
-0.754729
1.30109
1.5818
-1.13274
-0.209259
-0.555165
1.54424
-0.14883
0.86861
-0.322955
-1.4764
-0.321363
-1.03414
-1.56982
1.00594
-1.37467
-0.0987699
-0.373464
0.117185
-1.08114
-0.295416
-0.0836606
1.27363
1.35774
-0.380166
0.239552
1.29607
1.32076
1.36111
-1.30559
1.29013
1.45616
1.35378
1.50736
-1.00305
-0.193747
-1.03729
0.730355
1.35853
1.19861
0.709083
0.318279
-1.54019
-0.653435
1.67506
-0.261329
-0.0590567
0.0224136
-0.136556
-0.346581
0.943833
-0.28085
-0.245702
-0.275548
1.32299
1.3472
1.33557
0.0468861
0.406214
1.66255
0.299636
1.35001
0.0478829
0.232631
0.910008
1.3536
1.29776
-0.722642
1.2772
1.28183
-0.618549
-0.149721
1.33701
1.35291
1.35445
-0.277443
-0.323225
1.35636
1.11162
1.34572
0.244792
-0.153433
-0.398362
-1.01855
-0.334289
-1.05003
-0.437643
0.229305
1.35865
1.36257
0.943441
-0.28688
1.32219
0.191387
-0.122773
-0.0951533
1.34907
1.36414
1.35709
1.36355
1.33748
1.32789
1.31414
0.137935
-0.12712
0.0234758
-0.017398
-0.114673
-0.0705895
-0.0928601
0.337092
0.345866
0.196252
-0.0256895
1.34589
1.35942
1.35525
1.37365
1.36919
1.35801
1.35782
1.35181
1.33394
0.303687
-0.118092
1.35595
1.3584
-0.0575144
1.36144
1.35657
-0.629348
-0.181277
0.0465927
-0.857009
-1.79351
1.33671
-0.343907
1.34195
1.10707
1.51467
-0.291223
1.34458
1.23202
1.31829
-1.03907
-0.0537155
-0.390732
-0.0320976
-0.0519196
-1.03346
1.345
-0.335577
1.42747
1.33786
-0.207164
1.40383
1.58227
-0.432018
1.10781
1.16175
1.3289
1.34821
1.35143
-0.293626
0.573573
-0.60412
1.33871
1.35608
-0.437146
-0.39726
1.33837
-0.49467
-0.401312
1.3413
-0.380729
1.30138
1.3507
-0.106502
1.35409
0.293537
1.34293
1.3642
-1.1915
1.36301
1.36908
-0.624388
0.849612
1.3487
1.34176
0.175421
-0.904953
1.20969
1.75435
1.3469
1.34908
1.34608
-0.028414
1.34612
1.34701
1.3446
1.34301
1.34279
1.34784
1.41587
-1.1271
-0.63311
1.34843
1.3338
0.359978
-0.410676
0.515862
-1.40273
1.13302
-0.321784
-1.79778
-0.105805
1.34077
1.21314
-0.383058
0.139541
-0.622268
-0.674166
-1.11157
0.235054
-1.7484
-1.28823
-0.398851
1.35112
-0.226303
1.33768
1.20181
-0.281759
1.49883
-0.827892
-1.18698
1.20026
1.35592
0.542076
-0.274812
1.32499
0.454296
1.34695
-0.758341
1.34892
-0.218026
1.33673
0.500308
0.354171
1.34862
1.36738
1.20792
0.185405
-0.276679
-0.903399
0.0853249
1.36771
1.17817
0.110683
1.33133
1.38001
1.31578
-0.24652
-0.912758
-0.0187907
-1.20015
0.865631
1.33689
0.119929
1.34654
-1.26412
1.3343
1.37313
1.35216
0.0144201
0.0241382
1.38074
-0.317342
1.35468
1.3563
0.588381
-0.348207
1.13175
1.39496
1.33532
1.31846
-0.0929918
-0.532489
1.33553
0.942092
1.35141
1.32083
-0.805536
-0.329825
1.10172
1.6283
1.33029
0.881357
-1.59667
0.0527518
-0.545147
-1.69146
1.34578
-0.310441
1.30548
-0.926658
-0.284224
-0.956287
0.572133
-0.246826
-1.22807
-0.651091
1.33458
-0.275445
1.09835
-0.301501
0.418744
-0.500166
-0.355427
-1.22101
1.28532
-0.191118
-0.204209
-0.483706
-1.0305
1.34595
-1.26341
-0.287276
-1.50935
1.33585
-0.879221
-0.301909
1.40388
1.34367
1.34185
0.99577
-0.258204
1.33153
1.34761
-1.30355
-1.00591
1.33524
1.27966
1.51917
1.34983
0.365901
-1.10256
-1.02683
-0.462084
-0.821002
-0.275102
-0.641584
-0.204663
1.28287
0.555471
1.3572
1.50115
1.32417
-0.277577
-0.273531
1.33486
-0.0891774
-0.227929
1.33977
0.357568
-0.765868
-1.12907
-0.0170484
1.23639
1.20144
-1.33913
1.26222
0.831396
-0.654742
1.34581
-0.316867
1.04679
-1.03737
1.40911
-0.473316
0.950331
1.33736
1.31552
-1.23265
-0.794505
1.07634
1.70523
1.35605
1.23151
-1.02416
1.67118
-0.210264
-0.212243
-0.156171
0.994614
-0.878813
1.44145
1.58459
-0.310381
-1.08356
1.32535
-0.651499
1.31316
1.36434
1.25351
-1.07512
1.33492
-0.0884294
1.37153
-0.0159915
-0.695625
-0.14973
1.33972
-0.436689
-0.55755
-1.21421
1.39523
-1.13967
1.44313
0.809344
1.5943
1.1917
-0.867465
1.34741
-1.02909
1.27395
1.28858
-0.122363
-1.35978
1.3647
1.30924
1.47483
1.25787
0.65476
1.25007
1.3549
1.10238
1.33946
-0.227588
-0.950886
-0.555348
1.48261
-0.859045
-0.686075
-1.03626
-1.00023
-0.80703
0.464614
1.05423
-0.63851
1.33197
1.39498
-1.00296
-0.181176
-0.758989
-0.238257
-1.0814
-1.02374
1.32594
-0.651582
1.35095
1.6454
1.39851
-0.200241
1.35713
1.22747
-0.557216
1.34631
1.29828
-0.764452
1.30153
1.14524
-0.483698
-0.650997
1.81543
-0.10869
-0.70443
-0.358074
0.787225
1.33846
-0.878124
-1.00565
-1.03194
1.44669
-0.533054
1.04273
1.33104
1.35697
-0.343499
1.36279
-0.926321
1.34445
1.36074
-0.455613
1.35335
0.626904
1.36134
1.19394
-1.39801
0.109178
-0.0130133
-0.635955
1.52076
0.347785
1.34017
1.69316
-0.646015
0.0556784
1.41103
0.100884
1.40825
0.0784735
0.190891
1.39682
1.4017
0.954599
-0.255365
0.937438
-0.995515
-1.05314
-0.804975
1.35255
1.37533
1.81374
-0.275284
-0.190411
1.23478
-0.41222
1.37797
1.23273
1.37613
1.31628
1.32987
-0.752154
-0.276958
-0.370354
1.02997
1.20284
-1.1824
-1.01705
-0.300187
1.35947
1.40363
-0.812858
-0.961075
1.36856
0.0548264
0.32307
0.948933
1.12301
-0.257613
-0.370554
-0.213982
-0.420749
-1.00205
-0.604562
-0.170042
1.78248
1.63297
-0.839697
-0.444656
1.35709
1.33579
-0.884716
0.530337
0.253873
0.811764
1.41756
-0.215243
1.33997
0.696446
-0.354022
-0.934855
-0.778591
-1.14893
1.36172
-0.422078
-0.259585
1.65113
-0.401115
1.34224
1.50108
-1.01244
1.50035
1.68012
-0.931442
1.49569
-0.384734
-0.335809
1.27573
-0.165209
1.47428
1.34757
-0.369542
1.43591
0.710395
-0.971018
1.36908
1.48997
-0.228355
-0.416838
1.22827
1.33384
-0.332123
-1.26989
1.54108
-0.356253
1.18635
0.56145
1.33765
-0.270102
-1.16779
-0.303443
-0.905524
1.32286
1.41132
1.71242
1.4545
1.19036
1.38942
1.29054
-0.296261
1.37037
1.5869
-0.98431
-0.344057
-0.775006
1.58779
0.326684
-0.320401
-0.556867
1.14357
-0.971518
-0.796851
1.24034
1.48078
-0.311832
-1.01235
-0.327606
-0.460265
-1.36657
-0.951867
-0.28977
1.0894
1.37148
-1.02899
-0.514605
-0.196633
1.03228
-0.353201
-0.876192
-0.284378
1.41658
-0.351659
-1.00481
1.74668
1.29723
0.92845
1.63102
-0.551429
1.44686
1.33707
1.49541
1.64374
-0.341957
0.84906
1.233
0.817932
-0.279997
1.75321
1.36493
1.34453
1.44854
-0.996013
-0.358166
1.29316
1.01552
1.33709
-0.647486
-1.09072
1.34263
-0.286968
1.27442
-0.102782
1.69265
-0.276668
0.912416
1.23649
-1.03746
-0.274386
-1.35643
1.50043
-1.03556
-0.274355
1.20327
0.776001
-0.553948
1.38923
1.29953
-1.03242
-0.758657
1.23476
-0.611191
-0.274255
-0.303099
-1.03158
-0.0966329
1.26161
1.38322
-1.30513
1.13186
1.35249
1.65209
0.828336
0.396675
0.0847921
1.35684
0.176128
-1.03861
0.134955
-0.652527
-1.03922
1.30684
-1.04043
0.268702
-0.273723
0.697097
1.08959
-1.03829
1.14632
-0.770489
1.02551
-1.03765
0.610341
-1.03985
0.930729
-0.275843
0.512905
-1.03779
1.30782
-0.441339
-1.04196
-1.05379
-0.277151
1.3548
0.662533
-1.08686
-0.282454
0.113148
0.225103
-1.04628
-0.277814
-1.13282
0.474561
-0.29529
-0.0781345
-0.325275
-0.321444
-1.21744
0.321963
1.15075
-0.286943
-0.599523
1.27874
0.000687588
-0.261472
0.978032
1.34081
-1.3227
-1.11549
-0.278732
-0.645339
1.32344
1.71625
-0.724037
-0.493027
0.603347
-0.413957
-0.340209
0.256035
1.25761
-0.760904
1.3366
-0.856559
1.7719
0.974558
1.82067
-1.01894
1.6277
-0.615266
1.45804
-0.118305
-0.276742
1.52911
1.36241
-1.44454
-0.274467
-1.0443
1.22718
-1.08895
1.30825
-0.934779
-0.29459
-0.306589
1.63056
1.32432
1.55901
1.3047
1.36287
-0.446807
0.131142
1.45559
-0.545746
-0.4499
1.69912
-1.02771
1.19193
1.38039
1.71982
1.80468
-1.04331
-0.237749
1.39566
0.784449
0.168827
-1.00046
-1.18221
-1.16875
-1.01162
1.05163
-0.732514
1.63814
-0.476426
1.27708
1.41315
1.31024
-1.23686
-0.257797
-0.466671
1.4399
-0.498563
1.41739
-0.828987
-0.647758
1.49451
1.72328
-0.282281
0.164384
1.32553
-0.501567
-0.831926
1.15301
1.53305
1.61679
-1.03874
1.14599
1.04653
-0.277016
1.63395
0.39272
-1.02408
0.674622
0.348042
-0.543273
1.36443
-0.538943
0.364388
0.553258
-0.493306
-0.610059
-0.269965
1.29606
-1.36842
1.29876
-0.061399
0.65697
1.17357
0.813771
-0.276351
-0.694461
-0.47693
-0.226443
0.259934
-1.00236
1.1454
-0.482893
-0.348818
1.2723
-0.409923
-0.982464
1.35633
-0.147275
1.18905
0.349378
-0.280742
0.290376
1.25773
-0.154448
-0.249918
1.33679
-0.302401
1.44329
0.0608106
-0.541302
-0.433831
-0.276201
1.86911
-1.16696
1.53929
0.339453
1.3346
1.50004
1.20318
1.42129
1.40188
-0.0994899
-0.569661
1.35057
1.52488
1.74945
-0.410903
1.35396
0.840211
-0.392569
1.27151
1.64433
-0.653758
1.61006
0.223898
-0.819249
1.31406
-0.376938
-1.0447
1.33485
-0.518381
1.42128
1.51147
1.2321
-0.85947
1.1349
1.51778
-0.950608
-0.332108
-1.21061
-1.41277
-0.501044
-0.274902
1.76619
1.24224
-0.920133
1.38465
-0.362325
-0.534293
1.69752
1.47595
-1.4029
-0.503381
-0.274814
-0.29486
1.3786
-0.943134
0.652062
-0.98695
-0.456266
1.42088
-0.337472
1.6632
1.36114
1.32271
1.32155
1.56382
-0.604158
-0.35007
1.42151
1.56842
-0.679432
1.37397
-1.14812
-0.29998
-0.324223
1.31193
1.34646
-0.307779
-0.940353
1.05943
0.52306
-1.28699
1.29027
1.16936
-0.650953
1.21626
1.26613
-0.194874
-0.977905
-0.891709
-0.292794
-0.319343
1.72488
0.255235
1.11548
-0.963935
1.72964
1.14417
1.05863
1.18453
-1.04472
-0.891525
-0.286316
0.666521
-1.0095
1.39209
0.841541
-0.645018
1.08995
1.46614
1.37607
1.31543
0.0262026
1.38703
0.0889895
0.944636
1.02602
-0.657417
-0.991446
-1.14953
-0.820448
1.35479
1.43466
1.35553
-0.273194
-0.146678
-0.280996
-0.968566
1.34228
1.55216
1.35706
-1.00124
-0.622929
-0.627558
-0.622806
-0.274057
-0.276388
-0.210908
1.30452
-0.773368
-1.03107
0.397057
0.49288
0.885734
-1.49258
-0.2777
-0.148375
1.18128
1.77541
-0.0886207
1.46786
1.80109
0.814261
1.49005
-0.975157
0.381563
1.80237
-0.27512
0.854666
-1.01648
-0.321482
-1.03893
-1.037
1.39291
1.22863
1.43606
1.39208
-0.0131059
1.26815
0.0902989
0.185346
-0.273671
1.46693
0.88811
1.35396
1.37011
0.265348
0.0323994
1.37888
-0.361804
-0.279126
-1.03449
-1.05347
1.09091
-1.0385
1.33151
1.17158
-0.277096
1.66268
-0.99404
-0.363197
1.34234
-0.57899
-0.469591
-0.388518
0.739032
-1.02728
-1.21876
1.11097
1.3621
-0.421543
0.625222
-0.551955
-0.273276
0.0798008
-1.34537
0.413842
1.11365
-0.548595
-1.03954
1.52179
0.338772
0.458402
-1.03898
-0.326106
1.34552
1.50079
0.655908
1.05614
-1.03777
-0.427915
-0.108322
0.565567
0.974165
-1.03756
1.0933
0.200162
-1.03784
1.72756
-1.04462
-0.297278
-0.316888
-0.970295
1.32477
-1.06529
-0.919261
-0.286049
0.582491
-1.10665
0.0289325
-0.820979
0.348618
1.43604
-1.16726
0.418809
-0.310236
-0.183961
1.60858
1.79156
1.48069
1.34777
1.45277
-0.888036
1.32604
-0.98818
1.49664
-0.279791
-0.241605
1.6878
-0.130358
0.997114
-1.41818
1.77506
-0.0215984
1.72053
0.737264
0.980844
-1.022
-1.00652
-0.277102
-1.20231
1.65756
1.4611
1.31623
1.1182
1.34238
1.34605
0.988483
-1.02822
-0.286698
0.320049
-0.34827
0.957997
1.34513
0.547287
-1.02144
-1.03218
-0.204623
-0.277337
-0.358592
1.75544
1.36504
1.34047
0.248449
-0.0481676
1.37491
-1.0442
-0.274822
-0.788089
-0.400561
0.944689
-1.02908
-1.03736
0.294851
1.30245
-0.335515
-0.315285
1.33918
1.12019
1.17605
1.32716
-0.274291
1.05429
1.58348
1.32149
-0.274446
1.3463
0.895503
0.565405
-0.580239
-1.03573
1.7555
0.798809
-1.09079
0.61505
1.1023
1.22303
-0.436563
-0.446663
0.424382
-1.10088
-0.215551
-0.913197
0.52971
1.31882
-0.991669
1.28011
1.66665
1.53974
1.25533
1.32226
1.39621
1.33367
-0.564895
-0.019371
-0.476597
-0.350206
-0.147145
-1.03683
1.41842
1.27711
-0.361858
1.37296
-0.696029
-0.332051
-1.0408
-0.632156
1.04427
-0.191739
1.31135
1.09108
-1.3278
0.214876
1.6694
-0.272842
0.217371
-0.165437
-0.903776
-1.01243
1.4065
0.940327
1.51646
-0.440534
-0.807367
-0.250457
-0.409761
-0.368931
-0.46344
-0.925347
-0.471051
1.10323
-0.0869622
1.84182
-1.31771
0.0636309
-0.305073
-1.03552
1.3463
-0.318429
-0.471497
-0.169607
0.295154
1.43225
1.62669
-0.711459
-1.02285
0.999096
-0.293796
-0.18965
1.51302
-1.2189
-0.859634
-1.25318
0.911532
0.193612
-0.376511
1.31898
0.057559
-1.10549
1.31628
-0.675099
-0.848531
-0.998958
-1.13658
0.523018
-0.377966
1.57917
-0.27875
0.7231
-0.280003
0.958895
-0.998283
-0.57287
0.785084
1.22476
1.40621
1.3453
1.4497
-1.06021
1.27734
1.05329
-0.888462
1.18068
-0.429569
-1.08366
-0.378158
1.59045
1.5722
-1.00221
-0.615357
-0.507924
1.21759
-0.713997
0.14805
-0.149859
-1.04115
1.54224
1.23125
-1.01483
-0.860125
-1.01668
-1.02602
1.16995
-0.98725
1.18815
0.297077
0.854955
1.01089
-1.01508
-0.660468
1.14261
-1.03884
0.457723
1.62152
-0.288042
-1.02708
0.985364
-0.953248
-0.891271
0.414289
-0.443148
1.70907
0.0165742
0.704916
-1.0115
1.7225
-0.998011
-0.842447
0.779337
-0.163458
-0.279569
1.71012
0.81445
1.46637
-0.908121
1.4745
-0.45058
-0.097551
-0.932093
-0.929088
-0.993458
1.51225
0.699748
-0.317448
-1.0037
-0.391116
1.38586
-0.775247
1.70163
-0.278999
0.903574
-1.03341
0.460675
0.656544
0.616479
0.52156
0.73873
-0.798321
1.23085
-0.941912
-0.810476
-0.178716
0.820899
1.73559
0.310996
-0.882005
-0.993831
-1.032
0.335891
-1.29653
-1.03438
1.32524
0.744105
-1.01973
1.78946
-0.382857
-0.878255
1.7238
-1.02736
0.201298
-0.739979
-1.03834
-1.03742
1.76778
-1.03748
1.65766
-1.03779
-0.712582
1.43688
0.397796
-0.804677
0.688052
-0.428698
0.0438818
0.209847
-1.03444
1.26305
-0.269041
-1.03182
-1.03798
-1.03998
-0.284145
1.29004
-0.159675
0.185042
-1.01743
1.67692
-0.192547
-0.877121
-0.979578
0.421481
-1.18823
-1.02145
-1.0238
0.510593
1.49214
-0.989396
-0.273854
-1.05388
-0.0471356
-0.252747
-0.288732
1.75622
1.67807
0.511664
-0.664794
-0.281494
0.412068
-0.279513
1.7542
0.270205
1.52349
0.844925
1.70424
0.131092
-1.19276
-0.621112
-0.0482069
-0.937117
-0.048472
0.471485
-1.03776
1.66243
0.342877
0.284477
0.228151
-0.263827
-0.715926
)
;

boundaryField
{
    frontback
    {
        type            empty;
    }
    Top
    {
        type            zeroGradient;
    }
    outlet
    {
        type            fixedValue;
        value           uniform 0;
    }
    bottom
    {
        type            zeroGradient;
    }
    Inlet
    {
        type            zeroGradient;
    }
    rectangle
    {
        type            zeroGradient;
    }
}


// ************************************************************************* //
