/*--------------------------------*- C++ -*----------------------------------*\
| =========                 |                                                 |
| \\      /  F ield         | OpenFOAM: The Open Source CFD Toolbox           |
|  \\    /   O peration     | Version:  2306                                  |
|   \\  /    A nd           | Website:  www.openfoam.com                      |
|    \\/     M anipulation  |                                                 |
\*---------------------------------------------------------------------------*/
FoamFile
{
    version     2.0;
    format      ascii;
    arch        "LSB;label=32;scalar=64";
    class       surfaceScalarField;
    location    "38";
    object      phi;
}
// * * * * * * * * * * * * * * * * * * * * * * * * * * * * * * * * * * * * * //

dimensions      [0 3 -1 0 0 0 0];

oriented        oriented;

internalField   nonuniform List<scalar> 
3181
(
-1.00989
0.390093
0.619795
-0.371678
0.349891
0.0217874
0.499505
-0.343387
-0.156118
0.111335
-0.186462
0.0751275
-0.0505658
0.0647601
-0.0141943
0.605274
1.36179
-1.96707
0.139607
-0.133702
-0.00590515
0.00093774
-0.00093619
-1.55e-06
0.525479
-0.708847
0.183368
-0.0763964
0.126082
-0.0496856
-0.0108331
-0.0553277
0.0661608
0.109963
0.0498691
-0.159832
-1.09185e-05
-0.000309435
0.000320354
-1.09735
0.15421
0.943144
-0.313111
0.667445
-0.354335
-1.12513
0.643224
0.481902
0.0833505
-0.929172
0.845821
-0.143294
0.0943617
0.0489318
-1.79685
0.227348
0.00311083
0.0622787
-0.0653896
0.0557315
-0.0975538
0.0418224
-0.0460527
0.0475741
-0.0015214
1.06243
-1.04022
-0.0222098
0.0274771
0.0311067
-0.0585838
-0.956493
0.331176
0.625317
-0.104648
0.215982
0.300568
-0.258769
-0.0417985
0.0275546
0.0579436
-0.0854982
-0.432153
0.356006
0.0761476
-0.0349262
-0.0253711
0.0277677
-0.00239658
-0.0423726
-0.91412
0.0617181
-0.0575795
-0.00413854
0.286955
1.41264
-1.6996
-0.0583401
0.0440643
0.0142758
0.191593
0.286948
-0.478542
1.82685
-1.53989
0.0784803
-0.0227488
1.6292
-0.910624
-0.718575
-1.13762
1.74289
-0.0187627
0.0187518
-0.0331074
-0.0129453
-0.389283
0.0761725
-0.141814
0.108706
-0.654291
0.126671
0.52762
-0.13629
0.0598935
-0.159004
0.162819
-0.00381499
-0.25759
-0.0741696
0.33176
-0.0676779
1.0761
-1.00842
0.0425057
0.0961385
-0.138644
-0.0222603
-0.107657
0.114308
-0.00665022
0.494431
0.173015
-0.0941662
0.155804
-0.0616374
0.0795351
-0.0178171
-0.160936
0.185243
-0.0243073
0.155171
0.0531553
-0.208326
0.101255
-0.106815
0.00556019
1.20723
0.421973
-0.834306
-0.175582
-0.0204013
-1.08255
1.10296
0.573565
0.241827
-0.815392
-0.465128
-0.216383
0.681511
-1.98381
0.84619
-0.283515
0.85708
-0.307569
-0.100238
0.407807
-0.21682
-0.215334
-0.1808
0.172895
0.00790477
0.157816
0.274658
-0.432474
-0.173932
0.699411
-0.00565067
0.00658841
-1.55156
1.53116
0.168059
0.132509
-0.164603
-0.109748
0.274351
-0.266674
0.370117
-0.103443
-0.0737915
0.0821178
-0.00832629
-1.61924
-0.920649
0.0118796
0.908769
-0.0221109
-0.0362292
-1.16401
0.822496
0.341515
0.321725
-0.338437
0.0167114
-1.69929
-0.284518
1.09944
-0.945225
-0.748643
1.14447
-0.201323
1.05706
0.182508
-0.169846
-0.0126623
1.82308
-0.461289
2.34655
-2.34655
-0.00735006
-0.00151661
0.00886667
-0.198155
-0.0525125
0.250668
0.0757983
-0.0588226
-0.0169757
-0.454039
0.815579
-0.36154
-0.0361505
-0.213627
0.249778
-1.08215
0.041927
0.362029
0.0602716
-0.422301
0.127827
-0.88725
1.12908
0.0525416
0.0530412
-0.105583
-0.0178268
-0.143109
-0.269365
0.24547
0.0238951
-0.286957
0.0175924
0.121755
-1.009
0.315206
-0.769246
0.924475
-0.841124
0.0179866
0.0828
-0.100787
0.0931123
0.0553552
-0.148468
-1.32611
-0.0864637
1.41257
-0.2281
0.390872
-0.162772
-0.24033
-0.257941
0.498271
-0.495176
-0.668835
0.0937096
-0.0512038
-0.144069
0.138786
0.00528226
-0.0800764
-0.02028
0.100356
-0.518371
-0.190476
-0.00341014
0.00139288
0.00201726
-1.03623
0.0787399
0.957486
1.23765
-0.161557
-0.0168539
0.00950383
0.0180011
0.150057
-0.210004
0.401597
0.00713043
0.0995745
-0.106705
0.147542
0.0727983
-0.22034
0.147516
-0.0407781
-0.106738
-0.593964
-0.531162
-1.03267
-0.00355593
-0.0386091
0.0911507
-0.0945311
0.171911
-0.0773798
0.00422221
0.0232503
0.116357
-0.0555372
0.0613599
-0.00582273
-0.0876225
-0.0184846
0.106107
0.0696204
-0.0696204
-0.175366
0.198617
0.034768
0.103269
0.0979563
0.0872871
-1.19144
1.0175
-1.47286
0.0205667
1.45229
0.00509383
-0.00698404
0.00189021
-0.0285383
-0.0555357
0.084074
0.515182
-0.0217006
-0.493481
0.00566928
-0.00566754
-1.73889e-06
-0.188966
0.0135997
0.166823
0.648756
-0.351835
0.518658
-0.154312
-1.17179
-0.0787825
0.0282167
0.464636
-0.288045
-0.176591
0.0855992
-0.0763246
-0.00927452
0.0461535
-0.303744
0.0222856
-0.942935
0.0473402
-0.141871
-0.26925
-0.381739
0.0883421
1.4211
-0.962645
-0.458454
1.09272
0.32838
0.0637374
0.268023
0.0021501
0.00294373
-0.119877
0.131371
-0.0114941
-0.24812
-0.600388
0.848507
-0.337848
0.0262259
0.892236
-0.664888
0.13744
0.0391626
-0.0449233
0.00576074
-1.26905
-0.547279
1.81633
0.348687
-1.61774
-0.322691
0.68472
-0.906886
-0.0145513
0.00463117
-0.281655
0.277024
1.44133
-1.58679
0.145462
-0.0718852
-0.00689733
0.583372
-0.831492
-0.013676
-0.267527
0.281203
-0.306142
-0.128529
0.43467
0.176603
-1.00932
-0.0728265
-0.0125702
-0.0528194
-0.585393
0.369011
-0.261119
0.0198499
0.241269
-0.0117718
-0.0601134
-0.0163391
0.0163391
-0.12888
0.141829
-0.0129486
-0.194977
-1.27788
0.0118813
-0.000109515
-0.0117718
-0.0842133
0.0215889
0.0626245
-0.232859
0.0520597
1.4934
-0.19522
-1.29818
-0.1741
0.427839
-0.253739
0.0020443
-0.00267574
0.00063144
-0.476933
0.236602
-0.198341
-0.00468713
0.203028
-0.160487
0.318303
-0.110122
0.108326
0.00179612
0.0806236
0.0229279
-0.103552
-0.0767628
0.0713101
0.00545266
0.0854003
0.396037
-0.481437
-0.208593
-0.048279
0.256872
-0.680329
0.661921
0.0184077
-0.00600965
0.0371163
0.0322445
-0.0334881
0.00124359
-0.0150676
-0.0435162
0.63016
0.607493
0.170123
-0.896874
0.726751
-0.124217
1.79735
-1.67314
0.364398
0.439992
1.90656
0.0757272
0.216805
-0.0692632
-0.0770674
-0.0305901
0.221838
0.16976
-0.0766475
0.733298
-0.402123
0.0581232
0.192545
0.0594491
-0.178464
0.119014
-0.74349
-0.132941
0.876431
0.00881078
-0.00881078
-0.0395929
-0.285086
0.572034
0.011914
-0.220507
0.0262613
0.0681004
0.0300031
-0.0686122
0.146062
-0.156895
-0.346717
0.310567
0.0398912
0.0249685
-0.0648596
0.367094
-0.317225
0.568902
0.345947
-0.914849
-0.195962
0.2597
0.179244
-0.467289
-0.200382
0.590475
0.15608
-0.0304737
0.0304737
-0.333795
0.229561
0.104234
0.362757
0.0281151
-0.0021267
0.000667693
0.001459
-0.0856031
0.00943485
-0.012845
-0.0517252
0.197787
-0.191703
0.256019
-0.0643166
0.141125
0.0286345
-0.379968
0.121199
0.2048
-0.0636746
-0.0492956
-0.0608266
-0.00471989
0.012177
-0.00745715
0.138319
-0.0984795
-0.0398394
-0.0346936
0.416056
-0.381363
-0.0251627
0.019512
0.11279
-0.117466
0.00467625
0.0251023
0.953726
-0.384824
-0.0541555
0.0246035
0.0295519
-0.0479163
0.0715369
-0.0236206
-0.100245
0.0960221
-0.72003
0.624008
-0.0068814
-1.38275
-0.465336
1.84809
-0.279659
0.968604
-0.688944
0.0769473
-0.110463
0.069685
0.293912
0.261666
-0.555578
-0.212785
0.272234
0.131047
-0.862975
0.731928
-0.0405135
-0.00740283
-0.0318223
0.0192522
-0.980313
0.441019
0.539294
0.962645
-0.84089
-1.60968
1.52321
-1.44133
1.46189
0.0362774
-0.0979149
0.00635859
0.0258859
0.00186852
0.76891
-0.637863
0.112506
-0.0651662
0.410768
0.733698
-0.0773661
-1.38966
1.26544
-0.638245
-0.553191
-0.243871
-0.41042
-0.00641086
-0.156786
0.20294
-0.569545
-0.352855
0.178755
0.739599
-0.224417
-0.847748
-0.761927
0.753496
0.0317831
-0.0722966
0.265067
0.0342343
-0.0342343
0.668553
0.151314
-0.819867
-0.227619
0.896172
0.16155
0.0156118
-0.177162
0.118596
-0.0153266
0.00661141
0.00570501
-0.0123164
-1.08255
-0.872282
0.710725
0.71686
0.776541
-0.0328029
-0.126201
-0.227137
0.721568
-0.209448
-0.0516707
-0.00260382
-0.0711877
-0.0594368
0.114792
0.389646
-0.262975
-0.792557
-0.301368
-0.0860243
0.0220315
0.0639928
-1.5622
2.0022
-0.0996238
0.0911143
0.00850947
0.0172189
-0.0150687
-0.0274209
0.0191547
0.00826622
0.00929642
0.398511
0.0537461
0.031853
0.011613
0.0188726
-0.0304857
-0.0182405
-0.1801
-0.747246
0.387583
0.359663
0.785493
-2.0447
1.2592
0.146965
-0.169836
0.0228708
0.00482139
0.0888882
-0.513991
-1.83256
-0.0288118
0.00139091
-0.0809819
0.0297781
0.154649
-0.364653
-1.63773
0.663386
0.974341
0.0362054
0.0870512
0.0512677
-0.74349
-0.0979988
0.183399
0.040031
-0.0208763
0.0465707
-0.641262
-0.0390667
0.0643623
0.140438
-0.0808955
0.0200891
-0.452563
0.114842
0.367619
-0.307347
-0.104814
0.0171912
0.220171
0.843605
-1.06378
0.106457
-0.702073
0.595616
-0.908975
0.776034
-1.17221
-0.311657
1.48387
0.00109427
-0.00156712
0.000472847
0.182541
-0.488683
0.233216
-0.13704
-0.0961759
0.0568284
0.0147085
-0.0245003
-0.061524
-0.00752829
0.0169718
-0.0320393
0.0197486
0.0922416
-0.11199
-0.118109
0.00971075
-0.00987218
0.000161431
0.0292304
-0.00971836
0.863396
0.0432996
-0.050197
0.0895838
-0.961866
0.0954548
0.0231407
0.0069498
0.0801014
-1.48387
1.83256
0.183978
-0.0991259
-0.0848523
-0.26692
0.0970736
0.120664
-0.133326
-0.00115674
0.0832745
0.00473309
-1.78292
0.145191
-0.0540207
0.0737693
0.742443
-0.260541
-0.122438
0.038225
0.358819
-0.0034237
0.001297
-0.00725735
0.0768777
0.140881
0.229236
0.15841
-0.348921
0.190511
0.102377
0.546378
-0.0263871
-0.109903
0.891658
-0.244303
-0.647355
-1.17221
-0.586642
1.37213
1.82685
-0.0319646
0.15639
-0.124425
0.413552
-0.0765928
-0.336959
-0.0967787
-1.60251
-0.0819673
0.0834002
-0.00143297
0.0239366
-0.101081
0.077144
0.448126
-0.857574
0.409447
0.0389672
0.666093
-0.70506
-0.0418305
-0.102238
-0.0384092
-0.0157463
0.0155306
-0.349325
0.00226089
-0.00116661
0.056507
0.00998619
-0.0664932
0.0169925
-0.136869
0.00762645
0.0095924
-0.0036612
0.0864612
-0.0295014
-0.00398672
0.205418
-0.419046
0.431412
0.537192
-0.00466157
-0.0041492
-0.990107
-0.0192121
0.106871
-0.0667252
-0.0380885
-0.181098
0.167422
0.126313
-0.725519
0.599205
0.0889557
0.00649917
-0.935543
-0.00968222
-0.00503217
-0.65002
0.746042
-0.0163622
0.172442
0.479566
-0.463954
0.188235
-0.425688
0.237453
-0.0136539
0.113228
0.00360602
-0.0042453
0.000639285
-0.0295903
-0.0471724
-0.0191022
-0.124007
0.735828
-0.629372
-0.045812
0.00875334
-0.0826313
0.327394
-0.168984
0.172484
1.03656
-0.381599
-0.654961
-0.128461
0.148311
-0.513591
-0.233655
-0.547769
0.58337
-0.568528
-0.0148424
-0.0555009
0.00968884
-1.38966
0.563935
-0.563935
-1.81667
1.81667
0.76891
0.554493
-0.00247255
-0.55202
-0.899476
-0.0906303
0.664746
-0.381945
-0.282801
0.14725
-0.22463
-0.0123629
-0.00449099
-0.92035
-0.0886544
-0.933477
0.213447
0.0445635
-0.022532
0.697078
-0.098667
-0.598411
1.46193
0.364912
-0.00378661
0.00739263
-0.957753
0.983459
-0.637512
-0.106162
-0.621755
0.727917
0.00190656
-0.878693
-0.708096
0.221962
-0.815926
-0.876431
1.3044
-0.427971
-0.132967
0.267038
-0.13407
-0.0368797
0.733958
-0.110923
-0.966116
0.966116
-1.29193
0.218354
1.07357
0.00224147
0.00746928
0.0331496
-0.454731
0.91865
-0.0961534
-0.092533
-0.0316304
0.0217732
-0.000483493
0.0025278
1.18633
-1.49798
-0.370393
0.451017
-0.670624
1.06177
-0.39115
-0.0156977
-0.0131142
0.132865
-0.0600668
0.338286
-0.0012393
0.000929863
0.360489
0.0555675
0.045845
-0.262638
0.216793
0.131
0.031819
0.104327
0.19281
1.34822
0.182942
-0.452483
0.963315
-0.510832
-1.23893
0.691653
0.317508
-0.208802
0.0728106
-0.765074
0.692264
0.10201
0.110497
-0.457214
-0.0742732
0.12468
-0.0504069
0.116314
-0.190587
-0.471154
-0.114239
-0.0786175
0.0821296
-0.00351214
-0.00414744
-0.0253539
0.0429053
-0.0607224
0.637863
-0.595616
-0.042247
-0.277319
0.289233
0.882572
0.703978
-0.290426
0.00077765
-0.000887163
-0.42088
0.153353
0.159522
-0.555828
0.396306
-0.00458887
0.000343565
0.668278
-0.327195
-0.341083
0.0106562
-0.0171697
0.00651349
-0.0297044
0.0217279
0.00797647
-1.12659
0.665298
-0.0850521
-1.2977
-0.209488
-0.84089
1.46189
1.52321
-0.182016
-0.162935
0.114656
-0.069181
0.0755616
-0.00638055
-0.679733
1.07702
-0.397291
0.570681
0.0940657
-0.00257649
-0.00201238
0.129429
-0.369284
0.0316304
-0.0584893
0.00446855
-0.364076
-0.056804
-0.0412775
0.0712806
-0.217535
0.584629
1.09272
-0.0949325
-0.0562159
0.0009071
0.0553088
1.90172
-0.378508
-0.0567551
-0.0500598
-1.00646
0.165566
0.372814
-0.196211
-0.489681
-0.143712
0.633393
0.842156
-0.378842
-0.463314
-0.526043
0.652356
-1.26544
0.182885
-0.00839301
-0.0381905
0.0465835
0.360998
1.43636
-0.159159
0.16577
0.122823
1.94335
-0.481454
-0.670427
0.0429913
0.627436
0.399635
0.0101688
-0.359879
0.512463
0.779317
-0.70174
0.0709278
-0.0196601
-0.948512
0.399018
0.549495
1.07786
0.0551662
-0.0435532
-0.0532899
-0.373038
0.118583
-0.331368
0.453275
0.583284
-0.0344558
-0.021045
0.211951
-0.243916
-0.0226559
0.0166462
0.104415
-0.138703
0.0342877
-0.284273
0.29625
-0.0119774
0.178333
-0.559932
0.732214
-0.637903
-0.0943113
0.0998984
-0.13841
0.0385121
0.288057
0.0393375
0.240613
-0.338612
-0.671259
0.671259
1.10296
1.46193
-0.702073
0.312429
0.466888
-0.162398
0.266632
0.967721
-0.397041
0.0106094
-0.88439
0.873781
0.117132
0.00894988
0.0249984
-0.593412
0.834026
0.0501979
-0.164248
-0.111909
0.276157
-0.0692575
-0.488889
0.324641
-1.1056
-0.302716
-0.66065
-0.00350559
-0.00895678
-0.000915404
-0.230339
0.00523007
0.0587627
0.0318479
-0.158367
0.126519
-0.448975
-0.842951
-0.00517195
0.0631156
0.00126491
-0.251456
0.250191
-0.540698
0.364106
-0.103549
0.128518
0.223419
-0.00599132
-0.025831
-1.02733
0.832112
0.0371907
0.0755994
-0.100606
0.0179747
0.22323
0.00998551
-0.442521
1.30234
0.553691
0.369903
0.864958
-0.792148
0.82475
-0.46593
-0.640524
0.185794
0.159528
-0.798607
0.778045
0.020562
1.06569
-0.612415
-0.227052
-0.143341
-0.0629069
0.00408425
0.948615
-0.838136
-0.110479
-0.197654
0.121007
0.0258255
0.112961
0.875788
0.439482
0.51435
-0.953832
-0.313663
-0.0391923
-0.722072
0.723337
0.111478
1.30109
1.53515
-0.0732209
0.162779
0.549032
-0.711811
0.182077
0.0542409
-0.0179992
0.0120078
-0.530131
-0.110393
0.0803726
-0.0921444
-0.199945
0.14822
-0.509317
0.255578
-0.992693
-0.682205
-0.298171
-0.992564
1.43054
0.0217457
-0.297846
-0.540774
0.176698
0.566191
0.317669
0.0428199
1.20199
-0.753865
-0.203979
0.140304
0.0748899
-0.60919
0.534301
-0.0223394
0.0139464
0.0529984
-0.0597151
-0.224557
-0.105223
0.697539
-0.426809
-0.27073
-0.0313956
0.12383
-0.0896288
-0.0342009
0.247368
0.0703011
0.219022
-0.907966
-0.102482
0.149053
-0.247014
0.686496
-0.00234877
-0.0212719
-0.0277549
0.010763
0.0169919
-0.00748296
0.000498916
-0.255876
0.0774126
-0.0465465
-0.530409
0.397442
0.027112
0.0478324
0.052066
-0.699055
1.61517
-1.03189
0.0159519
-0.205334
0.189382
-0.145813
-0.52604
0.671853
0.0634373
-0.704699
0.0554183
0.676796
0.00400678
-7.20727e-05
-0.00393471
-0.234112
-0.58337
-0.160119
-0.125428
-0.948512
-0.2453
0.176037
-0.0139273
-1.13242
-0.315098
0.353796
-0.0386972
0.250848
0.10418
0.458039
0.383644
-0.841684
-0.0257082
0.0574913
1.25619
-0.488036
-0.76815
-0.21486
-0.65349
1.34514
-0.255892
0.191576
-0.64735
-0.00613978
0.126032
0.119438
0.00295075
-0.00108223
-0.0290187
1.40696
-1.03705
0.754784
0.0873716
-1.49661
-0.286308
0.276427
0.691294
0.875807
0.0158512
-0.0190481
-1.53515
-0.66065
-0.71158
0.72346
-0.0527736
-0.847748
0.666093
0.590016
-0.928766
0.856007
-0.000957881
-0.797649
-0.315191
0.638444
-0.76194
0.123496
0.0749502
0.0488796
-0.718408
-0.244512
1.42763
-1.18312
-0.0018524
-0.00710438
-0.278547
0.226876
0.701881
0.209988
-0.196388
-0.170192
0.970913
-0.892173
-0.205187
-0.346833
0.617872
0.0507716
-0.668644
-1.07041
1.46943
0.250926
-0.502381
0.0832492
0.304983
-0.549495
0.000318805
0.225182
-0.0080312
0.0838176
0.0230531
0.0106465
-0.0276731
0.0170266
-1.02942
-0.0343515
0.306489
-0.807463
0.177641
0.368802
-0.546443
0.390637
0.671136
-0.0445311
0.0474569
-0.00292584
0.228267
0.742645
-0.718948
1.05835
0.866323
-0.688681
0.331059
-0.105876
-0.583154
-0.409539
-0.562304
1.18018
-0.0534466
-0.885348
-1.75714
0.0840053
0.304983
0.0512486
-0.858711
0.831428
-0.646971
-0.184457
-0.981988
0.398834
0.00714296
0.106003
-0.000253423
-0.10575
-0.971412
0.561873
-0.202494
0.912218
-0.9219
0.20244
-0.220681
-0.100698
0.255347
0.300962
0.668399
-0.0776458
-1.26158
0.606624
-0.257114
-0.444626
-0.552317
-0.518736
1.07105
0.447683
0.0165717
-0.0108667
-0.739411
0.70506
0.699428
-0.471161
-1.90656
1.66696
0.239597
-0.120498
0.489301
0.770868
-0.805794
-0.493909
-0.449026
-0.472135
-0.499276
0.804365
-0.804365
0.688163
-0.688163
-0.739411
-1.38244
1.38244
-1.66696
-1.49749
0.154347
-0.0180834
-1.09778
1.09778
0.699428
-0.471161
0.770868
0.763867
-0.763867
0.805794
0.758081
-0.758081
0.506091
0.527865
0.481264
-0.398353
-0.500724
-0.550974
1.07884
-0.202241
-1.57331
1.01101
0.527222
-0.276296
0.166178
-0.0118031
0.0551027
-0.884714
0.0886637
0.79605
-0.044958
0.0385471
-0.99314
0.591017
0.888061
-0.575632
-0.122
0.000323091
-0.00190263
-0.820334
-0.0765404
-0.539294
-0.0134352
0.0326874
-0.904465
-0.0672181
0.0463418
0.190089
-0.00692742
-0.00758525
0.0145127
-0.813374
0.0682544
0.74512
-0.0589985
0.359961
-0.525752
0.426832
0.0989206
0.916154
-0.746218
-0.169937
0.0886954
0.312902
-0.0145466
-0.0640709
-0.0685033
-0.013464
0.317129
-1.87933
-0.868522
0.0937556
-0.747051
0.795115
-0.0480645
0.119649
-0.900324
0.780675
-0.804149
0.901687
-0.0975384
-0.0195077
0.0120247
0.0213685
-0.303024
0.413551
0.766626
-0.0901104
-0.794603
0.914628
-0.0888031
-0.825825
0.0412086
-0.0569063
0.468224
0.826044
-1.55352
0.494781
-0.400715
0.0974742
-0.892078
1.53989
0.276778
-0.795496
-0.0021533
1.01701
-0.897356
1.12898
0.2317
-0.651164
0.419465
-0.883168
-0.109972
-0.429752
0.0483896
0.224601
0.374604
-0.783079
0.783079
-0.629599
-0.081965
-0.863662
0.117444
-0.999516
0.893354
0.0773059
-0.214346
-0.0536008
0.049416
0.0119439
0.185118
0.831887
0.819722
0.774634
0.135258
-0.909892
-0.266478
-0.00981877
-0.784107
-0.100964
0.885071
0.162806
-0.881754
-0.678544
0.885508
-0.788034
-0.102178
0.461855
-0.00564069
-0.456214
-0.166758
1.63911
-1.47235
0.448009
-0.422885
-0.0251234
-0.886284
-0.829184
0.0821334
0.544909
0.27984
-1.27896
1.2402
-0.594191
0.594191
-0.736656
-0.524929
0.0431755
0.79085
-0.647893
0.00999052
0.784544
-0.191133
1.00257
-0.337275
1.1345
-0.929564
-0.204934
-0.26344
-1.78126
0.0852945
-0.0347782
-0.167763
0.351162
0.0634901
0.323716
-0.235021
0.782303
-0.879842
0.179259
-0.189078
-0.143446
0.734464
0.594719
-0.594719
-0.0306569
0.0155881
0.119419
-0.0875708
1.5323
0.106808
0.119728
0.000396792
0.00642796
-0.00682475
-0.676445
0.692631
-0.0161864
-0.0489354
-0.602229
0.103981
-0.892015
-1.04103
1.20345
-0.162419
0.0890477
0.873208
-0.76585
0.716915
-0.756756
0.612168
-0.651235
-0.678585
0.164994
0.53227
0.0264756
0.200075
-0.378771
0.911041
0.000527538
-0.0829169
0.0620439
0.733071
0.687788
-0.0756203
0.0705661
0.792829
-0.959581
-0.106052
1.06563
-0.465884
0.504032
0.427683
-0.914302
0.70115
0.213152
-0.685137
-0.130788
1.08468
0.093755
-0.44308
-0.033134
0.485794
0.514206
-0.77164
-0.108202
-0.245404
-1.19981
-0.882435
-0.629081
0.400795
0.599205
-0.0523922
0.0426738
-0.860443
-0.0550869
-0.596148
-0.148588
-0.235798
0.384386
0.00418075
0.000552332
0.120663
0.0771249
-0.128543
-0.127333
0.763236
-0.649753
0.720319
0.788895
-1.16767
0.170686
0.715238
-0.885924
-0.74386
-0.184881
0.928741
-0.228765
0.21794
-0.0253957
-0.0524977
-0.00761569
-0.00271679
0.731718
-0.137527
0.108518
0.114901
-0.735141
0.0586963
1.28337
0.828124
-0.36347
-0.55138
0.623088
-0.280953
1.01465
-0.00266662
0.174496
-0.0516729
0.000267985
-0.0454249
-0.0277331
-0.0795075
1.36288
-0.707206
-0.109908
0.817113
0.845369
-0.0313024
0.00407247
0.02723
0.136614
0.00198397
0.000276918
0.20517
-0.100755
-0.337686
-0.310208
0.0647175
-0.771923
0.00544267
0.269265
0.60533
-1.13703
1.30242
-0.165396
-0.776111
0.826163
-0.0500528
0.415879
-0.177153
0.303185
-0.084
1.45279
-0.467825
-0.0579272
0.270791
0.43777
0.181033
-0.618803
0.388418
0.029289
0.663342
-0.572237
0.576088
-0.00385057
1.47154
-0.905344
-0.0333496
0.0399507
-0.00660116
0.701923
-0.00957455
-0.0826394
0.0180538
0.813102
0.404935
0.0109439
0.0585675
-0.0936821
-0.0447283
0.0612381
0.023984
-0.0852221
0.015213
-0.00456647
0.19232
-0.680356
0.0330545
0.208366
-0.0240465
-0.0772639
0.237954
0.0926903
0.00381972
0.0487781
0.763967
0.388684
-0.415177
0.0264924
-0.327016
-0.460013
0.78703
0.641283
0.118367
-0.0421856
-0.0128097
0.0549953
-0.515435
0.445166
-1.37473
-0.0121915
0.765687
0.727279
0.434482
-0.406225
-0.312182
0.804088
0.126989
0.0454954
-0.905835
0.129366
-0.271864
-0.769695
-0.166011
0.698504
0.0654632
0.014735
0.562968
-0.740121
-0.371902
0.167783
0.0111997
-0.108754
0.421033
-0.0595074
-0.0765022
-0.0630156
0.126169
0.390114
-0.717131
-0.14421
0.652552
-0.0257311
-0.108316
-0.00344297
0.00019946
0.00324351
-1.50965
0.604301
-0.00206994
0.949089
-0.223821
-0.62506
0.658507
-0.0334474
0.115885
0.7572
-0.223002
-0.662922
0.0848497
-0.185548
0.640097
0.117103
1.36291
0.639284
-0.276246
0.771027
0.371838
0.991043
-0.584889
0.351754
0.233135
-0.994925
-0.0711356
0.0391923
0.0719616
-0.0513055
1.22897
0.733933
0.070155
0.637251
0.211256
-0.879905
-0.0829722
-0.682754
0.680601
-0.0290488
-0.556789
0.408201
0.857429
0.669386
0.0362195
0.00300648
-0.135254
-0.32196
0.841246
0.773928
0.3571
0.0207525
1.38542
-0.394379
0.894101
0.0633843
-0.0837254
0.7225
-0.726577
0.918556
-0.191979
-0.4139
-0.170989
-0.0426241
-0.158163
-0.0919436
0.880013
0.0236968
-0.00482412
0.626463
-0.495763
-0.0556162
0.614299
-0.130694
0.219963
0.764115
0.277227
-1.04134
0.276316
-0.923287
0.318966
-1.35086
-0.164686
0.750278
-0.585592
-0.678493
-0.0587272
0.00622951
-0.0571142
-1.65029
0.00568125
-0.0334361
0.214961
0.043695
-0.170883
0.127188
-0.0118084
-0.569545
0.0787434
0.0957525
-1.73579
-0.0113452
0.00441779
0.368044
-0.0559178
-0.60419
0.0319525
0.56696
0.290469
1.10386
0.744232
-0.228805
-0.388738
0.617543
0.596936
-0.619908
0.619908
-0.202251
-0.968521
1.17077
0.0323928
-0.160854
0.669699
-0.102739
-0.216057
-0.368006
-0.0750745
0.164337
-0.112395
-0.476324
0.190317
-0.101975
-0.847328
0.482923
0.0931647
0.0757127
0.00276753
-1.85448
-0.933299
-0.0955228
0.692976
0.307024
-0.933299
0.692976
-0.984904
-0.557368
-0.984904
-0.696502
0.696502
0.303498
-0.0132403
0.150042
-0.0798557
0.256786
0.0735616
-0.503298
0.636573
-0.0222732
0.642706
-0.505013
-0.137692
-0.0458041
0.0413605
0.00444356
-0.0154989
0.0158957
-0.0471327
0.017327
-0.0260094
-0.435393
-0.372198
0.141859
0.0375648
0.821351
-0.272319
-0.19424
0.370938
-0.0180807
-0.0848034
-0.00251132
0.692611
0.0730759
0.212112
-0.0308409
0.000355243
-0.0107543
0.0829447
0.549621
-0.479858
-0.069763
2.18657
0.560952
0.506059
0.935546
0.0123489
-0.0678846
0.114316
0.301722
0.0643165
1.1634
-0.399283
-0.000737313
-0.00276828
0.626342
-0.263636
0.0180941
-0.0180941
0.0240174
-0.0240174
-0.0176058
0.0176058
-0.00466157
0.367258
0.463734
-0.0309062
-0.685995
0.461578
0.17802
0.0271493
-0.0869712
-0.481945
0.621398
0.113592
-0.798729
-0.558818
0.0948635
0.0525081
0.022379
-0.000651095
0.00350854
-0.00350854
0.0964694
0.00358062
-0.00358062
0.701099
0.107678
-0.0239112
-0.0069297
0.00603305
-0.0622489
-0.01995
0.01995
-0.0130312
0.0130312
-0.0247914
0.0247914
0.0031632
-0.0031632
0.0610175
-0.301896
-0.0758573
0.217628
0.00331349
-0.00331349
-0.378632
0.496694
-0.118062
0.477324
-0.210286
-0.620615
0.426375
0.557102
-0.169656
0.0861419
0.572365
0.565503
0.00288412
-0.00288412
0.515297
0.0278505
-0.0278505
0.00343471
-0.00343471
0.778753
-0.769406
0.0390321
-0.170852
-0.156343
-0.00194318
0.00194318
0.015038
-0.015038
0.0200848
-0.0200848
0.0203494
-0.0203494
-0.0259796
0.0259796
0.0383087
-0.0383087
0.499175
-0.0348198
0.0348198
0.00166626
-0.00166626
0.0264654
-0.0264654
-0.00934784
0.00934784
-0.00288238
0.00288238
-0.0347433
-0.0292835
0.0292835
-0.0486752
0.0138451
-0.042985
0.042985
0.00810426
-0.00810426
0.0191382
-0.0191382
0.0366159
-0.0366159
0.0233314
-0.0233314
-0.00214263
0.00214263
-0.0067317
0.0067317
-0.130948
0.147291
-0.012091
0.012091
0.00119341
-0.00119341
-0.041517
0.041517
-0.0255897
0.0255897
0.00459276
-0.00459276
-0.423873
0.7003
0.241942
-0.0348668
0.0348668
0.00449956
-0.0156812
0.0156812
0.00060233
-0.00060233
0.0341406
-0.0341406
-0.180856
0.226352
0.00778925
-0.00778925
-0.0197344
0.0197344
-0.476532
0.0409409
0.111801
-0.0285804
0.0285804
-0.4331
0.0302468
0.0172101
0.171123
-1.66773
-0.0399554
0.0399554
-0.213242
0.153735
-0.0378014
-2.9113e-05
2.9113e-05
-0.0164564
0.0582788
0.265708
-0.321054
-0.260881
0.581935
0.174733
-0.00864605
0.00864605
-0.0892538
0.332771
-0.243517
0.745795
-0.374999
-0.370797
-0.483431
-0.656422
0.255139
0.1158
0.246011
-0.711895
-0.575265
-0.0186322
0.189967
-1.22954
0.0195489
-0.0195489
-0.00054453
0.00054453
0.033572
-0.033572
0.0240338
-0.0240338
-0.00310607
0.00310607
-0.000888096
0.000888096
-0.215544
-0.122892
0.159093
-0.281093
0.00369103
-0.00369103
-0.0413608
0.0413608
-0.0438218
0.0438218
0.141242
-0.0101271
-0.131115
0.0172294
0.296319
-0.520141
-0.00417503
0.00417503
-0.0208968
0.0208968
-0.10622
0.158964
0.096175
-0.00152738
0.00152738
0.0481265
0.0148224
0.922583
-0.489927
-0.0940341
0.583961
-0.61755
0.376039
-0.151438
-0.0354557
0.0354557
-0.673412
0.26444
0.0538759
-0.0538759
-0.679475
0.396674
0.249953
0.115779
-0.00279186
0.00279186
-0.871086
-0.00187646
0.00187646
0.325356
0.408602
0.0569579
-0.0582761
0.0582761
-0.00209526
0.00209526
-0.0460244
0.0460244
-0.0495745
0.0495745
-0.00203789
0.00203789
-0.0548567
0.0548567
-0.00228363
0.00228363
-0.0496029
0.0496029
-0.0152876
-0.0416164
0.0416164
0.00403222
-0.00403222
0.0523559
-0.0523559
-0.00284415
0.00284415
0.0436939
-0.0436939
0.00122078
-0.00441621
0.00441621
-0.00587086
0.00587086
-0.0401916
0.0768777
-0.0123844
0.0123844
0.00473372
-0.00473372
-0.0646898
0.0646898
0.313791
-0.0203608
0.0203608
-0.0528313
0.0528313
-0.00705995
0.00705995
-0.0733005
0.0733005
-0.0125698
0.0125698
-0.0877987
0.0877987
-0.0237509
0.0237509
-0.087119
0.087119
-0.703529
0.269153
-0.54455
0.511103
-0.878693
-0.576993
-0.539017
0.373006
0.0329762
-0.0643719
0.00355045
-0.00355045
0.172698
-0.696053
0.0504482
-0.0476807
-1.31279
1.6777
1.62392
0.241525
0.00326947
0.0309824
-0.376035
-0.596146
-0.0498013
0.392516
-1.21418
-0.0275899
0.0275899
-0.727942
0.0152066
-0.0152066
-0.00585441
0.00585441
0.347154
-0.375118
-0.00251561
0.00251561
0.0172984
0.0131753
0.599142
0.0443639
-0.0114264
-0.0135324
-0.00551573
-0.109129
0.513072
-0.403944
0.171353
-0.0860583
0.00210828
1.14001
0.0136707
0.039569
-0.411462
0.459852
-0.505496
-0.962752
-0.209041
-0.0788243
0.0193875
-0.114093
-0.308792
-0.00275632
-0.00804105
-0.0043394
0.800355
-0.532745
-0.0473608
0.0585605
-0.0401228
0.0757724
0.0742694
0.414065
0.247856
-0.159347
0.199808
0.0325115
-0.00958358
-1.30131
0.0160395
0.00537945
-0.176262
-0.0170241
-1.38063
-0.072938
0.272056
-0.355458
0.411025
0.0741699
-1.06673
0.0442604
-0.0182918
-0.0386146
-0.356852
0.455772
-0.0305401
0.00458094
0.0259591
-0.0299775
0.0299775
0.170786
-0.461212
-0.0354498
0.0570386
-0.0890056
0.0599568
-0.0583659
-0.00396089
0.0623268
-0.0377555
-0.162213
0.04756
-0.0469971
-0.281633
-0.338951
0.620583
0.0177223
0.0656779
0.148641
-0.0401227
-0.0756169
0.0752242
-0.16677
0.326298
-0.00127663
0.0285066
-0.0158593
0.1645
0.00388819
0.273136
0.00529729
-0.00529729
0.104683
0.789418
0.099142
-0.182114
-0.0209183
0.0228249
0.198588
0.518327
0.0338793
-0.0175402
-0.536612
-0.00793817
-0.0505686
0.104394
-0.710465
0.313425
-0.0541544
0.363325
-0.644958
0.209307
0.491843
-0.0984788
0.0984788
-0.000253423
-0.16381
0.0301501
0.13366
-0.224707
0.167592
0.270374
-0.218678
-0.341254
-0.078783
-0.0326588
0.0390174
0.929131
0.145261
-0.109041
-0.0709717
0.0535325
-0.742214
-0.0343784
-0.254227
0.76669
0.555007
-0.258688
-0.262686
0.531951
-0.0883952
0.244785
-0.264563
0.0354439
-0.455269
0.337207
0.114268
-0.114268
0.0488318
-0.0502852
0.00145338
-0.00115303
0.00353276
0.010763
-0.574974
0.0595384
0.213565
-0.185139
-0.0284266
0.526488
-1.10738
-0.0694399
-0.892426
0.682985
-0.10672
-0.174373
-0.0252487
-0.079974
-0.500152
0.0647592
-0.302305
-0.000417419
-0.0170241
0.401022
-0.00526604
0.00153236
0.000150293
0.0186244
-0.0101888
-0.00843554
-0.0973932
-0.0203264
-0.178404
0.198731
-0.110967
-0.344302
0.0172984
0.350306
0.00192458
-0.391956
0.0937845
0.00305911
0.0710032
-0.101909
-0.0133123
0.0133123
-0.00164026
0.0020068
-0.00855091
0.000121219
-0.0163374
0.000399391
-0.00118825
0.214384
-0.0469622
-0.0020382
0.0020382
0.0246896
0.498843
0.000940227
-0.277794
0.598301
1.20175
-0.467819
0.317372
-0.440737
-0.11706
0.0816107
0.211297
-0.215035
0.0129825
-0.00388918
0.0011724
-0.00385216
-0.174911
-0.363136
0.824714
0.352118
-0.567662
0.178077
-0.00169284
0.0486526
0.0403951
0.000643236
-0.000430907
-0.00345828
-0.562735
0.00146797
-0.000615018
0.738052
-0.662828
-0.250097
0.270032
0.873787
-0.000591076
0.00105755
-0.0378014
-0.005249
0.817705
-0.432616
0.525781
-1.29533
0.906229
-1.18645
0.553556
-0.18055
0.720764
0.000701797
0.00339007
0.0189889
-0.114058
0.136983
-0.177649
0.00851848
0.00349281
0.0712833
-0.0584976
-0.0127857
0.000856799
-0.00528465
0.0388153
-0.0335307
-0.102275
0.00648501
-5.70543e-05
0.00199402
0.502991
-0.440554
0.00175866
0.000417736
-0.130352
0.160502
0.369352
-0.00638345
-0.000515415
0.0511843
-0.0181298
-0.0498925
-0.0958933
-0.0105981
-0.00386634
0.135979
0.0386218
-0.00288754
0.39421
0.000877286
0.00171173
-0.00171173
-0.00432384
-0.00920858
0.000584955
-0.321448
-0.00399786
0.0776906
-0.107864
0.112877
0.449141
-0.0651052
0.000484
0.00145466
0.445673
0.000314208
-0.00136263
-0.0412615
-0.00220267
0.000704522
0.0126647
0.107063
-0.709841
0.458274
-0.821411
-0.149829
-0.000567874
0.224295
0.0476604
0.0158297
0.570487
-0.0141188
0.0313255
-0.00440013
-0.00152002
-0.556309
-0.00357849
-0.000245738
0.00211644
0.892397
-0.503979
-0.00275299
-0.000560519
-0.00641369
-0.00157205
0.0798889
-0.0204178
0.0204178
-0.0319795
0.0339863
-0.00232622
-0.00861071
0.0400108
-0.0384785
-0.175837
0.104702
-0.00550989
-0.0144982
0.0355378
-0.0188675
0.0680688
-0.0486812
-0.625059
0.576994