/*--------------------------------*- C++ -*----------------------------------*\
| =========                 |                                                 |
| \\      /  F ield         | OpenFOAM: The Open Source CFD Toolbox           |
|  \\    /   O peration     | Version:  2306                                  |
|   \\  /    A nd           | Website:  www.openfoam.com                      |
|    \\/     M anipulation  |                                                 |
\*---------------------------------------------------------------------------*/
FoamFile
{
    version     2.0;
    format      ascii;
    arch        "LSB;label=32;scalar=64";
    class       volVectorField;
    location    "38";
    object      U;
}
// * * * * * * * * * * * * * * * * * * * * * * * * * * * * * * * * * * * * * //

dimensions      [0 1 -1 0 0 0 0];

internalField   nonuniform List<vector> 
2186
(
(1.28914 -0.0681993 2.86619e-19)
(1.54757 -0.906589 5.22543e-20)
(1.40208 -0.883479 1.30235e-20)
(0.707009 -0.5458 -1.79918e-19)
(-0.289635 0.344817 -1.92496e-19)
(1.66261 -0.585349 0)
(0.687306 -0.634227 0)
(-0.0056073 -0.00169167 4.19132e-20)
(1.33403 -0.20802 3.04226e-20)
(0.523955 -0.262154 -1.8073e-21)
(0.720639 0.651313 0)
(0.741657 -0.270794 -3.83445e-20)
(-0.0105217 -0.0190389 -1.78536e-20)
(1.20528 0.0261363 -4.29616e-19)
(1.72602 -0.673216 3.95727e-20)
(1.01866 -0.00080005 1.98427e-19)
(0.977019 0.0137847 0)
(-0.373349 0.0719863 0)
(1.597 -0.734482 0)
(-0.0902916 0.298039 -8.49727e-20)
(0.494605 0.162411 -1.24225e-19)
(-0.106123 0.214391 1.15512e-19)
(1.19382 0.0295656 3.53248e-19)
(-0.185457 -0.0517695 5.66604e-21)
(1.02809 0.0118518 -2.78279e-19)
(0.758091 -0.524275 0)
(0.759529 0.00877674 1.64667e-19)
(0.579212 -0.558496 -2.17797e-19)
(1.26663 0.747943 0)
(0.958314 0.0249762 -3.793e-19)
(-0.0487423 0.121868 0)
(1.0231 -0.0062492 1.31492e-20)
(-0.144393 0.209092 0)
(2.64857 -0.0210788 1.35599e-19)
(-0.194471 -0.10811 5.28045e-22)
(1.6139 0.802411 5.59147e-20)
(2.06799 0.11556 7.50228e-20)
(0.52588 0.209465 -3.68651e-19)
(2.0557 0.0865724 -3.73395e-19)
(1.63183 -0.515956 1.09036e-20)
(-0.0492064 -0.0771305 0)
(-0.0343976 0.198412 0)
(1.79386 -0.852696 2.56255e-20)
(-0.405898 0.244376 0)
(1.14764 0.302312 1.62765e-19)
(0.57274 -0.245148 3.23206e-19)
(0.87721 -0.748223 0)
(1.14416 -0.759866 1.67523e-19)
(1.55455 -0.382652 0)
(-0.182203 0.3637 2.04295e-19)
(-0.0364452 0.180458 1.25589e-19)
(0.672222 0.619845 8.15582e-20)
(1.99133 -0.747123 -2.26878e-21)
(0.619048 0.328393 -2.94427e-19)
(-0.294847 -0.0348569 4.5785e-20)
(0.728975 -0.617982 0)
(1.5805 -0.925808 1.62124e-20)
(0.549444 -0.510528 0)
(2.34901 0.0936415 1.10507e-19)
(1.11456 -0.156386 -4.62999e-19)
(1.49867 0.0850647 1.19728e-20)
(1.39543 0.315778 -1.83268e-19)
(1.39964 0.565869 0)
(1.89178 -0.542144 -1.1945e-20)
(1.41892 0.407108 -1.08276e-19)
(1.20827 -0.703355 -2.46992e-19)
(1.22217 0.693383 5.29479e-20)
(0.682223 0.114937 -6.1216e-19)
(0.825343 0.0908927 0)
(1.97801 -0.210769 -8.48735e-21)
(-0.0375731 -0.0259885 -4.61187e-20)
(2.10439 -0.198966 2.91291e-20)
(0.721749 0.00453469 -2.72695e-19)
(0.844588 -0.486668 0)
(0.841914 0.216081 -9.88926e-20)
(0.515665 -0.474653 -3.55765e-19)
(1.56803 -0.139402 0)
(1.00691 0.011002 4.11932e-19)
(-0.199179 -0.108136 0)
(2.15051 0.307847 0)
(0.700867 -0.120122 1.11854e-19)
(1.77803 -0.399959 -2.55972e-20)
(1.01981 0.00857597 4.62425e-20)
(1.36958 0.426673 2.76274e-20)
(0.964156 0.0255603 4.86135e-19)
(1.03519 0.0316489 -1.14876e-20)
(0.683162 0.224658 -3.59789e-19)
(1.62968 -0.606567 -6.32697e-21)
(2.04076 0.209702 0)
(-0.067872 -0.0577925 2.92094e-20)
(0.828288 -0.59096 -2.0914e-19)
(-0.120909 0.256345 -6.41123e-23)
(1.09357 -0.0640473 2.98213e-19)
(0.801727 -0.148686 0)
(0.968388 0.0239862 4.61421e-20)
(1.42512 0.66837 0)
(1.56194 -0.920653 0)
(1.3472 0.235514 0)
(-0.240675 0.377778 0)
(0.756957 -0.630993 3.63064e-19)
(0.41165 -0.32065 -2.92572e-19)
(0.510297 -0.130454 1.91422e-19)
(1.59961 0.186729 0)
(1.13439 -0.0930311 -2.72622e-19)
(1.12497 0.0243412 2.03982e-19)
(-0.103729 0.267813 1.56934e-19)
(0.678635 0.551527 0)
(2.12967 -0.187294 -1.02162e-20)
(0.934828 -0.448095 1.01773e-19)
(-0.302893 -0.872575 1.9661e-19)
(1.89604 0.238023 1.52938e-19)
(-0.149836 0.35478 -3.08969e-19)
(0.778375 -0.706852 0)
(0.601757 0.401241 1.76094e-19)
(1.57243 -0.206145 -9.12463e-20)
(-0.0223235 0.0145018 -2.32651e-19)
(1.0254 -0.025669 -1.15544e-19)
(1.55018 -0.216605 0)
(-0.0904263 -0.0768688 -8.73874e-20)
(0.700334 -0.0285367 8.70674e-20)
(1.64202 0.917158 0)
(-0.112738 0.297697 -2.93344e-19)
(0.934491 0.804456 -2.76594e-19)
(-0.415238 0.0443427 3.20173e-19)
(1.03134 -0.0213257 0)
(1.2226 0.0604483 1.45594e-19)
(-0.225966 0.364595 0)
(0.667564 -0.45905 -1.28274e-19)
(-0.338758 0.094484 -1.79593e-19)
(0.752854 -0.685323 0)
(0.403488 -0.216111 4.66933e-19)
(0.506533 -0.416013 3.27507e-19)
(0.389228 -0.351846 0)
(0.943842 -0.750162 -1.84624e-19)
(0.52466 -0.239894 0)
(-0.0645305 0.338092 -1.6011e-19)
(0.775429 -0.663354 1.78594e-19)
(2.28879 -0.251527 3.87251e-20)
(2.03889 0.0567913 0)
(-0.0398236 -0.00513742 0)
(0.728842 0.677465 -3.40618e-19)
(1.71991 -0.610804 -4.75811e-20)
(0.031883 0.0329151 0)
(0.94653 -0.773611 -1.94243e-20)
(1.12794 -0.0927833 0)
(1.06939 -0.111713 4.72916e-19)
(2.02665 -0.184049 6.09001e-21)
(-0.295593 0.350119 0)
(1.18387 -0.532492 -7.83609e-20)
(-0.195041 0.28218 -5.71341e-20)
(-0.187886 0.321232 0)
(1.05507 -0.781885 1.07006e-20)
(1.00693 0.00606789 -6.88046e-19)
(0.618513 -0.44095 -1.24675e-20)
(0.785966 -0.481579 0)
(1.15977 -0.702184 -1.3908e-19)
(0.681896 0.284811 2.76078e-19)
(1.23132 0.134596 0)
(1.55188 0.0518741 -2.2146e-19)
(1.15543 -0.823482 -3.44616e-19)
(-0.0525809 -0.0124494 -3.30605e-20)
(-0.0636386 -0.418905 -4.56025e-20)
(1.0811 0.014997 2.53169e-19)
(0.888872 -0.43441 -1.27993e-19)
(1.50375 -0.752508 5.85669e-21)
(0.569564 -0.467147 2.81036e-20)
(0.663107 -0.118578 3.45388e-20)
(-0.150977 -0.0878595 -8.18035e-20)
(1.44051 0.383337 0)
(2.09837 0.373263 -6.71522e-20)
(1.50441 0.67458 1.2596e-19)
(0.7767 -0.581756 -2.6478e-19)
(0.995487 0.00960401 1.41001e-20)
(0.687535 -0.497088 3.52756e-19)
(1.36551 0.832902 1.1684e-19)
(1.80887 -0.021769 1.71579e-20)
(-0.316199 0.295254 0)
(1.09402 0.0602089 -2.60892e-19)
(-0.457269 -0.550276 -1.04162e-19)
(1.11263 0.515487 8.14765e-20)
(0.061546 -0.137389 4.94533e-20)
(1.1628 0.0296578 -4.90728e-20)
(-0.197942 0.182786 -2.05228e-19)
(1.35157 0.60607 -7.33627e-20)
(1.19421 0.928754 0)
(-0.308405 0.263139 -8.81275e-20)
(0.0552844 0.132807 0)
(0.69584 0.601517 -2.85142e-19)
(2.11893 0.0794951 -2.2751e-20)
(-0.0302981 -0.0518236 6.49534e-20)
(-0.379393 -0.0153163 -4.34227e-19)
(0.731373 0.12064 2.68885e-19)
(1.98069 -0.298869 -3.16989e-20)
(0.954676 -0.322206 -3.67877e-20)
(-0.0183479 -0.00277415 0)
(-0.502517 -0.372335 3.56005e-19)
(1.40414 1.01943 -1.09935e-21)
(0.850197 0.110607 -1.47083e-19)
(0.593928 0.557746 1.98056e-19)
(0.55108 0.204172 0)
(-0.13847 -0.219151 -6.27713e-20)
(-0.5119 -0.536562 2.62816e-19)
(1.24508 -0.921082 1.07484e-21)
(0.983133 -0.0159698 -2.15974e-19)
(-0.161547 -0.149155 5.45183e-21)
(-0.176655 0.208557 1.69472e-19)
(-0.227737 -0.186005 -5.94344e-20)
(1.17919 -0.347737 0)
(1.14344 0.048121 -3.48644e-19)
(2.24888 -0.216637 9.15886e-20)
(1.23416 -0.596336 1.56939e-19)
(2.18829 -0.113573 1.76932e-20)
(0.624973 0.382918 0)
(0.990362 0.788761 -1.62822e-20)
(0.726477 0.669027 1.85576e-19)
(0.865845 -0.532924 1.88172e-19)
(0.724716 0.543324 0)
(1.01943 0.00660262 9.24415e-21)
(0.848502 -0.632214 2.69165e-19)
(0.871302 0.459194 -4.74672e-19)
(1.17979 -0.105187 0)
(0.0363219 0.0633636 -1.7592e-19)
(-0.0589003 0.198241 -1.27057e-19)
(1.66162 0.744188 0)
(1.29828 -0.905243 -9.19699e-22)
(-0.356713 0.106907 0)
(-0.260938 0.378349 1.24113e-19)
(0.778112 0.692526 -9.97699e-20)
(0.837652 -0.188265 0)
(-0.206192 -0.0162238 0)
(1.50835 -0.457134 0)
(-1.05536 -1.11212 3.46087e-19)
(1.16634 -0.851363 2.24965e-19)
(1.13917 -0.578351 8.70411e-20)
(1.03453 -0.161325 -2.15567e-19)
(0.843259 -0.662293 -2.14883e-19)
(0.172098 -0.175421 0)
(-0.566265 -0.229411 0)
(0.970515 -0.486587 2.28634e-19)
(-0.0105469 0.00824273 0)
(-0.198943 0.33925 0)
(-0.0571113 0.0278081 2.01776e-19)
(0.83425 0.709246 8.65888e-20)
(1.06093 0.832827 0)
(0.736371 0.594574 -8.73275e-20)
(0.827466 -0.00896911 -2.48403e-19)
(0.78529 0.601734 -2.33632e-19)
(0.630512 0.588168 -1.70412e-19)
(-0.0683707 -0.0500676 4.5235e-22)
(0.685791 -0.614624 0)
(0.916566 0.204091 -3.45112e-19)
(-0.075104 -0.0895369 2.04891e-20)
(0.643604 0.597013 3.81326e-19)
(1.00476 0.83787 0)
(-0.782682 -0.846717 2.76695e-19)
(-0.18383 -0.0845707 9.46136e-20)
(-0.180434 0.0195009 -4.40315e-20)
(0.705097 0.611449 -1.51463e-20)
(0.970001 -0.0064467 6.62387e-20)
(-0.0707393 -0.103449 0)
(2.24155 -0.175874 -5.73651e-20)
(0.540994 0.192902 2.47172e-19)
(0.617888 -0.57032 -9.51013e-20)
(-0.191466 0.069485 1.18738e-20)
(1.23844 0.4811 1.80994e-19)
(0.918935 0.446895 0)
(1.0319 -0.157609 2.35537e-19)
(-0.138714 -0.141377 -2.84427e-21)
(-0.1254 0.169265 4.75207e-19)
(0.912666 0.0201976 -6.06646e-20)
(1.13893 0.1613 0)
(1.85094 -0.0800898 1.67477e-20)
(1.81492 -0.0212523 0)
(0.568178 0.312462 -4.84237e-19)
(-0.186316 0.234454 0)
(-0.0273551 -0.0144937 8.97987e-20)
(0.6866 0.0994346 0)
(0.586946 -0.475783 -2.15147e-19)
(1.13641 0.0201119 2.3981e-19)
(-0.287861 0.327833 4.21793e-20)
(1.71287 -0.0696047 -1.18821e-20)
(1.99228 -0.248636 -1.51626e-20)
(1.14444 0.246698 -2.30269e-19)
(-0.0865747 -0.113613 -4.11147e-20)
(1.03472 -0.817874 0)
(0.806495 0.0169347 -1.74293e-19)
(0.903047 -0.34774 -3.45861e-19)
(1.66699 -0.56689 9.35525e-21)
(1.69253 0.0294607 -7.43055e-20)
(1.0924 -0.00058027 4.19294e-19)
(-0.107685 -0.152955 -3.95704e-20)
(0.968807 -0.411669 -1.58631e-19)
(0.180678 -0.173339 3.01927e-19)
(1.00838 -0.00529721 0)
(1.00485 -0.00346438 0)
(-0.38266 0.249588 -4.68132e-20)
(-0.0710588 0.339826 -1.14979e-19)
(0.167328 -0.115133 -4.87475e-20)
(1.0591 -0.0886018 2.09635e-20)
(0.865232 -0.530952 0)
(1.91709 -0.36664 -4.96546e-20)
(0.900176 -0.782813 -1.36296e-19)
(1.71815 -0.559385 1.71337e-21)
(1.15708 0.875466 0)
(0.441053 -0.420835 0)
(0.646112 0.561343 -1.82042e-19)
(1.12937 0.296587 -4.18508e-19)
(2.19868 -0.267772 -1.27736e-23)
(0.875533 0.187697 1.48914e-19)
(-0.105324 -0.226462 -1.07199e-19)
(1.96054 0.0870275 -5.15028e-20)
(-0.138334 -0.311062 0)
(-0.0910832 -0.0303005 0)
(-0.102481 -0.109912 0)
(1.29423 -0.699725 -1.64156e-19)
(-0.177208 0.321754 -2.59753e-19)
(-0.135353 0.199261 0)
(1.35831 1.02131 -2.54155e-20)
(1.14389 0.162539 -4.43922e-19)
(2.25544 0.443369 -6.40727e-20)
(1.13854 0.970652 7.22688e-20)
(-0.143911 0.350388 1.59487e-19)
(2.13768 -0.00156005 0)
(-0.110347 -0.0929615 -1.50433e-19)
(-0.18672 0.372129 2.97686e-19)
(0.78011 0.0679246 2.01497e-19)
(1.61473 0.981253 2.47555e-20)
(1.50568 0.512575 5.54105e-20)
(-0.137329 0.244729 4.74825e-22)
(0.708676 -0.646397 -4.92916e-20)
(1.17378 -0.0479129 0)
(1.71671 0.0377792 0)
(1.00518 0.0486549 0)
(0.108552 0.107779 -3.6032e-19)
(-0.138824 -0.172543 4.5321e-20)
(1.09746 0.884445 0)
(0.994536 0.0114803 5.79539e-19)
(0.808701 0.644335 -2.32762e-19)
(-0.552568 -0.239944 -2.26646e-19)
(0.865238 0.0465644 -4.55658e-20)
(0.681729 -0.619319 -2.79515e-19)
(1.44624 0.73326 -2.6941e-20)
(0.528062 -0.406249 -3.37059e-19)
(1.13436 0.0019935 -5.12028e-19)
(0.802135 0.0488089 5.27907e-20)
(1.49469 -0.178034 1.25958e-19)
(1.66706 0.164045 5.35078e-20)
(0.00425606 0.0153773 4.98402e-22)
(1.11917 0.499397 -2.73404e-19)
(1.45388 0.657338 1.01219e-19)
(-0.239863 -0.00390854 0)
(-0.0938494 -0.292195 4.1231e-20)
(0.0337363 0.11174 7.56949e-20)
(-0.165357 -0.128474 -4.07851e-20)
(0.517521 0.378885 0)
(0.279239 0.374912 0)
(-0.0500341 0.0568925 -1.7276e-19)
(-0.112098 -0.123927 -2.11389e-20)
(1.04996 -0.0270543 2.03002e-19)
(-0.304486 0.335826 -4.46638e-20)
(1.44555 -0.654056 -1.88329e-19)
(-0.0554719 0.324533 0)
(0.796442 -0.704875 -4.03574e-19)
(1.90347 0.123813 -8.47088e-20)
(-0.162396 -0.545001 6.01796e-20)
(0.737436 0.204056 3.50511e-19)
(0.637065 0.195642 1.1317e-19)
(0.469794 -0.442423 2.4054e-19)
(0.0321692 0.0250303 -5.07198e-20)
(1.71543 0.715183 0)
(0.433875 0.406125 -2.01812e-19)
(1.03004 -0.0115975 -3.23843e-19)
(-0.437698 -0.00675673 1.72214e-19)
(1.4783 0.487001 -1.07784e-19)
(-0.0194316 0.000764724 -1.76715e-20)
(0.649242 -0.592626 -1.28419e-19)
(0.839015 0.219329 -2.18696e-19)
(1.01101 0.455511 2.35159e-20)
(1.127 -0.122048 4.27099e-20)
(0.586958 -0.181958 -3.39375e-19)
(1.94368 -0.346619 3.75154e-20)
(1.11267 0.0364845 0)
(1.94161 0.569716 -2.45589e-20)
(2.07301 -0.0947147 -2.12365e-21)
(0.403735 -0.135029 1.96171e-20)
(1.14417 0.372741 -2.36179e-19)
(2.1219 -0.42775 6.10256e-20)
(0.458136 0.434218 -2.60767e-19)
(-0.204398 0.0288325 2.4357e-19)
(1.7407 -0.205256 0)
(0.942299 0.00626097 0)
(0.833142 -0.735979 8.43558e-20)
(-0.172186 -0.0994788 -1.03687e-19)
(-0.659628 -0.3744 -2.20113e-19)
(0.00469342 0.0158431 -7.2484e-20)
(-0.202378 0.268573 -1.59944e-19)
(-0.170971 -0.415212 0)
(-0.0870954 -0.0366576 1.22497e-20)
(0.060533 0.2108 -1.1956e-19)
(-0.193573 0.219486 -3.84891e-19)
(0.788212 -0.0765331 0)
(1.40482 0.378206 -1.03793e-19)
(0.0286952 0.0644081 0)
(0.991139 0.0248643 4.15819e-19)
(-0.0634568 -0.36404 9.96944e-21)
(0.504323 -0.377266 4.51965e-19)
(-0.655851 -0.477179 1.72366e-19)
(-0.818771 -0.658079 0)
(0.0685212 0.316272 1.37233e-19)
(0.999765 0.0266038 -1.2549e-20)
(-0.115785 -0.0797167 0)
(1.00494 -0.00757109 -6.4113e-20)
(0.825033 -0.69301 -3.72945e-19)
(0.379082 -0.725372 0)
(0.914666 -0.242368 2.46814e-19)
(-0.00496794 0.275153 2.44681e-19)
(-0.0359788 -0.0248593 0)
(-0.132828 -0.24292 -1.75023e-21)
(0.691941 -0.5989 -5.17022e-19)
(0.948136 -0.0269133 -3.13379e-19)
(-0.178981 -0.116982 1.20426e-19)
(-0.0557865 -0.0310046 5.32303e-20)
(-0.150128 -0.331802 0)
(0.993152 0.505649 0)
(-0.0808003 -0.543845 5.76003e-20)
(1.5543 -0.284281 -7.47203e-20)
(1.12913 0.941457 1.73784e-20)
(1.09233 0.229763 -1.32474e-19)
(1.12466 0.0103025 -2.70374e-19)
(1.01261 -0.0642885 -1.03195e-19)
(-0.160313 -0.148326 -1.14508e-19)
(1.4701 -0.0656579 2.44387e-19)
(0.690102 0.0381847 2.20197e-19)
(1.96202 -0.157477 5.22552e-20)
(1.0165 -0.136395 0)
(0.554834 -0.571789 3.84393e-19)
(1.1443 0.0271259 -5.63301e-19)
(1.82043 0.629776 -9.13235e-21)
(0.709409 -0.417754 -1.88811e-19)
(-0.0871458 -0.0722725 6.53571e-20)
(0.761261 -0.665932 4.85019e-19)
(1.27586 0.211574 7.63763e-20)
(1.00709 -0.00732223 2.83804e-19)
(-0.119905 -0.219085 -4.60013e-20)
(1.03105 0.0259626 0)
(1.97462 0.188067 -1.26639e-19)
(-0.05808 -0.0355561 0)
(1.01112 0.0156158 -1.6954e-19)
(-0.912324 -0.853429 -4.27626e-19)
(1.81187 0.295815 2.39873e-20)
(-0.0338687 0.0930204 1.03531e-19)
(1.64096 0.0510531 -1.41916e-20)
(1.01653 -0.0163402 5.8613e-20)
(1.27013 -0.0878739 0)
(1.39737 -0.593026 -2.50667e-19)
(1.02805 0.0458644 -1.71515e-19)
(1.50911 0.820219 -3.60059e-20)
(1.30191 -0.0656694 0)
(1.45268 -0.484337 3.82846e-20)
(-0.0584814 0.0652728 0)
(1.30784 0.0441967 0)
(-0.11608 -0.161172 0)
(1.28584 0.474093 0)
(2.02601 0.183421 6.24503e-20)
(0.783067 0.654941 4.07877e-19)
(0.270504 -0.271126 -2.84835e-19)
(-0.104537 -0.0981641 -1.2644e-19)
(-0.0318948 -0.0058544 0)
(2.02612 0.297575 -8.0262e-20)
(1.50007 0.539831 0)
(1.5255 0.295309 0)
(-0.147506 -0.111202 6.51722e-20)
(0.853965 0.75408 1.27436e-19)
(1.62995 -0.030364 0)
(0.00824832 0.00548276 3.44783e-20)
(0.932245 0.252051 2.02355e-19)
(1.26204 0.349652 5.83061e-20)
(1.30321 0.969123 4.03932e-20)
(0.875987 -0.788038 -6.60371e-20)
(1.47463 0.146441 3.5196e-20)
(0.841195 0.759629 1.30082e-19)
(1.24033 0.970309 0)
(1.34232 -0.0138778 -3.23383e-20)
(1.18307 -0.120727 0)
(1.47457 0.610077 1.39343e-20)
(1.24928 0.0988817 2.64751e-19)
(1.0055 -0.00225304 0)
(0.753601 -0.197009 4.68735e-19)
(0.872361 -0.140212 5.55645e-20)
(0.598799 -0.366353 0)
(0.639656 -0.338135 2.43739e-19)
(1.29026 0.583485 -3.29592e-20)
(0.512184 0.484767 2.84214e-19)
(-0.214854 0.263445 4.48258e-20)
(0.40827 -0.0989412 1.31042e-19)
(0.746881 0.0667084 0)
(1.27511 -0.867301 -1.75638e-19)
(1.03702 -0.0419212 4.4973e-19)
(1.66011 0.337958 1.86866e-19)
(0.000823124 -0.00919672 2.93566e-20)
(-0.639999 -0.601097 0)
(1.19539 -0.226722 -1.46322e-19)
(-0.0311901 -0.0192701 -5.56433e-20)
(0.539114 -0.605335 -3.15363e-20)
(-0.161097 0.0833666 -1.15905e-21)
(-0.232705 0.130538 3.88399e-19)
(1.11151 -0.25562 1.87655e-20)
(2.28015 -0.150803 7.68228e-20)
(1.23848 0.476587 -2.91894e-19)
(0.907319 -0.0690977 0)
(1.76088 -0.00259508 1.77811e-19)
(1.81802 0.0831174 3.89394e-21)
(0.873512 -0.731394 1.88182e-19)
(1.1036 -0.930032 -9.96213e-20)
(0.516037 0.480153 1.90112e-19)
(1.3847 -0.324359 0)
(1.84731 0.572801 4.9183e-20)
(-0.0384442 -0.0198179 -1.14001e-19)
(0.9319 0.813327 0)
(1.3756 0.298265 0)
(0.270156 -0.269384 -3.18804e-21)
(0.366556 0.365084 0)
(-0.704768 -0.632841 -2.08196e-19)
(-0.239002 0.339716 -1.34191e-19)
(1.66026 -0.431793 0)
(1.2461 0.0782363 1.61853e-19)
(-0.289944 -0.0440994 1.86022e-19)
(0.502158 -0.474663 -5.62898e-19)
(1.90598 -0.087079 -1.09245e-20)
(0.57748 -0.522144 0)
(1.05567 0.139228 0)
(1.29747 -0.246492 0)
(1.15228 0.248884 -2.46394e-19)
(1.37324 0.105417 3.4962e-19)
(-1.09243 -0.937107 0)
(0.85822 -0.0583279 0)
(1.59839 -0.0110377 1.86402e-20)
(-0.128688 0.197333 1.30128e-19)
(1.81325 -0.190877 -1.19974e-19)
(1.00122 -0.481161 5.13817e-20)
(1.31298 -0.101106 -1.17573e-19)
(-0.581598 -0.070868 -1.4561e-19)
(1.7689 -0.0262336 -1.48176e-19)
(1.01428 -0.0137503 4.70808e-19)
(1.58923 0.614869 0)
(-0.224204 0.366584 3.63653e-20)
(0.961842 -0.793789 2.47921e-19)
(0.855065 0.0155573 5.32592e-20)
(0.600701 -0.390266 0)
(1.83521 -0.521406 -9.99004e-21)
(1.17981 -0.180878 1.97495e-19)
(0.709685 0.605492 0)
(0.575274 -0.53274 5.88081e-19)
(0.957384 0.16195 -1.69059e-21)
(1.85573 -0.274447 2.44206e-19)
(-0.143759 0.235223 -2.63639e-19)
(1.39042 0.644733 1.40795e-19)
(1.19224 0.431059 3.73605e-21)
(0.938509 0.408223 2.34649e-19)
(1.58869 -0.211398 -1.0897e-19)
(-0.160387 -0.163684 3.851e-22)
(0.332054 -0.1561 0)
(-0.138348 -0.104296 1.06598e-19)
(1.0368 -0.902026 0)
(1.02377 -0.623851 2.88212e-20)
(0.755632 -0.242604 -1.97668e-19)
(-0.30143 -0.949264 3.99394e-20)
(-0.301713 -0.375948 -1.51916e-19)
(1.02988 0.515352 1.78706e-19)
(0.329535 -0.0698086 3.9792e-19)
(0.702847 -0.0401738 0)
(1.0144 -0.0454063 0)
(1.88413 0.106845 1.94096e-20)
(0.764709 -0.0167608 0)
(1.3294 -0.198795 -2.0322e-19)
(-0.766992 -0.401779 3.46474e-19)
(1.99324 0.490925 4.03036e-20)
(1.05296 -0.0321455 0)
(0.518564 -0.300196 1.22232e-19)
(1.00713 0.0271755 2.22874e-19)
(0.903414 0.0222429 -3.23972e-19)
(-0.146142 0.136853 0)
(1.07762 -0.457859 6.34961e-19)
(1.52184 0.145887 1.82659e-22)
(1.06561 -0.469098 -2.75855e-19)
(2.3295 0.117013 1.98886e-19)
(1.34657 0.828557 0)
(0.881589 0.0227717 0)
(-0.0465853 -0.0569383 -8.04343e-20)
(-0.053077 0.0594093 1.9446e-19)
(0.983447 0.396836 -2.16185e-19)
(-0.0267307 -0.206668 -2.81121e-20)
(0.683 0.456771 2.5164e-19)
(1.0934 -0.461538 0)
(0.506191 -0.470116 0)
(-0.00412714 0.267484 -6.84276e-21)
(1.1905 -0.483511 -1.35473e-19)
(0.649431 0.00798927 3.3977e-21)
(0.724791 -0.108682 1.32886e-19)
(-0.11001 0.158538 -3.46266e-19)
(1.50776 -0.301086 2.26536e-19)
(0.705092 0.65804 0)
(1.32839 0.725881 0)
(1.66038 0.257685 0)
(-0.191198 -0.308677 -5.861e-20)
(1.38843 0.608243 2.68131e-19)
(2.01062 0.00609389 1.06556e-20)
(0.962952 -0.0165913 0)
(2.2821 0.223391 0)
(1.8449 -0.08155 -1.96046e-19)
(1.21434 0.286887 3.87511e-19)
(1.00507 0.00752495 -2.22062e-19)
(1.5569 0.504306 0)
(-0.186836 0.221489 0)
(1.2863 0.332356 2.95108e-19)
(1.06569 0.55962 -1.3203e-19)
(1.08 0.0297098 0)
(1.4812 -0.363671 0)
(2.1516 0.67474 -3.8921e-19)
(-0.117991 0.292993 -9.41541e-22)
(0.994328 0.0157945 0)
(0.747109 0.518535 -3.44538e-20)
(0.891166 -0.784877 0)
(0.998634 0.0184114 5.1888e-20)
(-0.146253 1.2325 -1.31052e-19)
(0.878363 -0.2927 3.66351e-19)
(0.0676869 0.872245 8.7506e-20)
(2.0794 -0.155027 1.3391e-20)
(1.69006 0.227211 5.22523e-20)
(0.768436 -0.0302165 0)
(1.00377 0.0125624 0)
(-0.3178 -0.552603 0)
(0.709765 0.679963 -1.88672e-19)
(-0.0968657 0.133671 2.32969e-19)
(1.208 0.372538 -4.74439e-19)
(-0.344409 0.203494 0)
(0.872018 0.682757 1.71027e-19)
(0.980175 -0.30545 0)
(1.00574 0.00115459 1.29756e-19)
(0.965759 -0.297539 4.09386e-20)
(1.07276 0.43176 2.62905e-19)
(1.7317 -0.146992 0)
(2.1656 0.024309 -7.04908e-20)
(0.819761 -0.075008 -4.10044e-19)
(-0.806455 -0.720447 -2.86475e-19)
(1.40634 -0.0609532 0)
(0.903129 0.273653 1.85408e-19)
(1.84153 -0.232058 0)
(0.815609 0.562875 3.72335e-19)
(-0.940344 -0.665188 1.32904e-19)
(-0.112416 0.16524 0)
(0.632126 0.60234 -7.19545e-20)
(0.98982 -0.610512 -2.00697e-19)
(0.445057 -0.184298 -1.36287e-19)
(1.0195 -0.00748889 0)
(-0.220047 -0.0493939 -2.02736e-19)
(0.603017 -0.532461 9.69948e-20)
(0.935227 0.321117 0)
(1.29246 0.0694399 -1.31277e-19)
(1.03513 0.881489 2.37602e-20)
(-0.135588 0.918405 1.25886e-19)
(-0.0180112 0.0376895 -6.27717e-20)
(0.199853 0.0782908 -5.99254e-19)
(-0.0508022 -0.00765351 3.15285e-21)
(0.852954 0.395468 2.56471e-19)
(-0.192337 0.340656 -6.22927e-21)
(1.36338 -0.623744 3.10761e-21)
(1.02029 0.0184058 -3.88923e-19)
(-0.257037 -0.387868 0)
(1.04127 0.0441187 -4.47407e-19)
(2.09113 -0.139305 9.0603e-20)
(0.931261 0.728871 2.8435e-19)
(1.12241 -0.0621855 1.87586e-19)
(1.00026 -0.0168609 1.80012e-19)
(-0.210444 -0.944502 -3.72241e-20)
(0.0267303 0.0247252 2.6376e-22)
(1.65556 -0.841258 1.35444e-20)
(1.09406 -0.121967 -1.04868e-19)
(0.775707 0.0490813 1.21634e-19)
(0.889613 -0.265265 1.04793e-19)
(1.17123 0.209363 0)
(1.00824 0.773584 0)
(0.877723 -0.560158 -4.87648e-20)
(1.95072 0.17196 -2.60789e-20)
(-0.790604 -0.491366 1.13684e-19)
(0.994632 -0.508327 -6.54485e-19)
(0.581586 -0.495514 4.58242e-19)
(1.67588 -0.00261874 -1.59782e-19)
(-0.0951386 -0.18853 3.68012e-21)
(1.21838 0.257631 0)
(0.763369 0.159246 -7.29231e-21)
(1.07535 0.512319 -7.07365e-20)
(1.08838 0.799388 0)
(0.381144 0.881286 0)
(0.116769 -0.325739 0)
(-0.00247986 0.0153094 -2.13391e-20)
(-0.0212301 0.159489 0)
(1.85552 0.189332 4.21466e-19)
(1.2528 0.195564 6.71339e-21)
(-1.1614 -0.955082 1.88497e-19)
(1.82629 0.729866 1.43222e-20)
(1.92051 0.435792 -1.0035e-19)
(2.07236 -0.324385 -3.76023e-21)
(-0.20257 0.046535 -2.74905e-19)
(-0.139332 -0.28597 1.30394e-21)
(1.36598 0.131961 0)
(0.68456 -0.0343362 0)
(1.00053 0.00203972 1.64638e-22)
(-0.200326 -0.336691 0)
(1.44232 -0.0195655 5.01209e-20)
(0.684961 -0.0307383 0)
(1.04474 0.0159584 1.505e-19)
(0.986466 0.0173121 -5.06748e-20)
(1.4718 -0.325952 1.38155e-19)
(1.07149 -0.0133884 -1.0245e-21)
(0.930783 -0.166045 -6.2775e-20)
(1.01955 -0.0199791 4.21156e-19)
(0.635843 -0.571771 2.21796e-19)
(-0.90027 -0.628551 -2.09362e-19)
(1.72109 0.478362 1.02406e-20)
(-0.0615704 0.0774579 0)
(1.17862 0.832803 0)
(1.02108 0.00640425 0)
(0.9649 -0.740782 -1.44698e-19)
(0.989144 -0.849075 1.07243e-19)
(0.740764 -0.14424 5.52149e-20)
(0.134961 -0.746898 -7.57909e-19)
(0.290242 0.141151 -5.52369e-20)
(0.548967 -0.332563 -7.21977e-19)
(1.79429 0.735085 -5.23324e-20)
(0.322934 0.455904 -8.98392e-21)
(1.98601 -0.303769 -1.34279e-20)
(0.639638 0.0558895 -1.32221e-20)
(0.00486873 0.00226028 -4.83158e-20)
(1.15779 0.584838 1.97598e-19)
(-0.267253 -0.126484 0)
(0.0124466 -0.32416 7.87004e-20)
(-0.124206 -0.0645217 1.47276e-22)
(1.03011 -0.0422771 3.69321e-19)
(1.01984 0.0101931 -9.64421e-21)
(1.11281 -0.00886289 -1.02287e-19)
(0.436037 -0.598134 4.09401e-20)
(1.68522 0.320542 5.16236e-20)
(0.366058 -0.340104 -3.64051e-19)
(1.23274 -0.271862 -1.07189e-19)
(1.02765 0.011359 -2.77505e-19)
(0.999536 0.181973 -1.05432e-20)
(0.806713 -0.591447 0)
(1.15735 0.622719 -3.69356e-19)
(1.00261 -0.00184269 1.05954e-19)
(0.718597 0.646212 2.64755e-19)
(1.34109 0.172398 1.25739e-20)
(1.07814 -0.00386124 -3.31909e-20)
(1.1364 0.0172006 9.46358e-22)
(1.97098 -0.226844 1.20183e-20)
(0.109159 0.0398904 0)
(1.04569 -0.0387081 0)
(1.04936 -0.033651 6.48599e-19)
(1.00269 -0.00115648 0)
(-0.0637727 -0.0232775 0)
(0.896869 -0.540966 0)
(1.00102 0.00127306 -6.16299e-19)
(1.11488 -0.652424 1.22868e-19)
(1.02185 -0.0001261 1.30409e-20)
(1.41295 0.996802 -1.90322e-20)
(1.60915 1.04655 -6.97357e-20)
(0.415924 0.103616 9.66447e-20)
(1.41443 -0.163956 1.47354e-19)
(1.78034 0.292897 0)
(-0.0447 0.274685 0)
(1.90127 -0.185853 1.50427e-19)
(0.232651 0.856081 0)
(0.999738 -0.00390621 -1.89988e-19)
(1.01049 -0.000616533 3.69486e-19)
(1.47624 0.137219 -7.16232e-20)
(0.00127594 -0.113242 8.67131e-20)
(0.979169 0.000330392 2.00201e-19)
(0.918607 -0.228453 -3.47914e-20)
(2.05658 -0.147794 -1.92994e-20)
(0.243807 -0.425483 -8.98626e-23)
(0.924672 0.0187952 -2.05235e-19)
(1.00368 0.00495926 2.39953e-19)
(0.999958 0.000633844 1.41423e-20)
(0.790551 -0.0126993 0)
(0.731188 -0.0261867 0)
(0.727904 -0.0265636 9.55635e-22)
(0.705134 -0.0285894 0)
(1.83159 0.247547 0)
(2.07329 -0.031872 0)
(1.59024 -0.170898 -5.09219e-21)
(1.79671 -0.16157 4.53436e-22)
(1.5471 -0.691654 0)
(0.766744 -0.559486 -9.93515e-21)
(-0.0940389 0.0256386 0)
(1.00292 -0.176496 0)
(0.597696 -0.0858279 0)
(0.223234 0.0218782 1.80994e-20)
(0.498194 0.187317 1.61625e-20)
(0.773656 0.0231644 0)
(0.783549 0.0196702 0)
(0.964362 0.0216721 -2.52512e-19)
(0.813221 0.0081709 4.68396e-19)
(1.00873 -0.00125103 0)
(1.00034 -0.000298688 4.42798e-19)
(1.00022 -0.000412691 -2.13806e-22)
(0.78192 0.0218089 4.01269e-19)
(0.997765 -0.00599232 -2.30007e-19)
(1.1772 -0.162056 0)
(1.92839 -0.166318 1.93119e-20)
(1.00077 -0.000205864 -2.23248e-19)
(0.999702 0.0024687 -3.84075e-19)
(0.70598 -0.156604 0)
(0.998844 0.00215235 0)
(0.999754 0.000668084 0)
(1.65073 -0.111863 8.7871e-20)
(0.217339 0.37192 -8.64753e-20)
(1.48494 -0.0128584 0)
(-0.308402 0.328023 2.11444e-19)
(0.524981 -0.311582 -4.62901e-19)
(1.0216 -0.0108894 -2.97916e-19)
(-0.1242 -0.180061 -4.16033e-20)
(1.01681 0.00921335 -2.40964e-19)
(1.13282 -0.204863 -1.51046e-19)
(0.767146 -0.435371 3.61068e-19)
(-0.00962483 0.0111703 -2.86759e-20)
(1.02696 0.0169517 0)
(1.06935 -0.0095978 -6.35474e-20)
(0.846629 0.0286584 0)
(-0.112344 0.132902 3.43789e-19)
(0.132123 0.920303 0)
(-0.173975 -0.219571 -1.18548e-19)
(0.728806 -0.309546 1.32377e-20)
(1.73925 0.696906 4.14568e-20)
(-0.0880327 0.0329228 0)
(1.0538 -0.0368276 2.00543e-19)
(0.23528 0.0459636 -8.03006e-21)
(0.92928 0.0145514 3.13502e-19)
(1.0141 -0.00381781 -2.02469e-19)
(1.76462 0.887544 6.65512e-20)
(0.562656 0.531308 0)
(0.488721 0.456445 2.10721e-19)
(2.26089 0.0494946 -8.10925e-21)
(1.1805 0.137206 2.04708e-19)
(1.04685 -0.680342 0)
(1.02357 0.00924452 0)
(1.00085 -0.0162006 -4.65748e-19)
(1.01733 0.0194338 -4.57778e-19)
(-0.0859945 -0.041268 0)
(1.2796 0.859427 -1.19256e-19)
(1.16874 -0.328682 -1.33879e-20)
(1.01651 0.0098617 1.75397e-19)
(1.01123 0.0164555 -2.20688e-19)
(-0.200423 -0.172242 -1.26122e-20)
(0.483454 0.500392 1.20127e-19)
(1.02029 -0.0112655 7.46597e-19)
(1.78051 -0.435416 0)
(1.96959 0.649261 -7.80116e-20)
(1.01679 -0.00726212 -2.33064e-19)
(2.05573 0.0227438 -4.7634e-20)
(1.07015 0.0122955 -5.32295e-22)
(1.01013 -0.00733801 4.64692e-20)
(1.94804 -0.240295 -3.52633e-20)
(1.0156 0.00937127 2.27096e-19)
(0.373579 0.52953 -3.12749e-20)
(1.01814 0.00874708 0)
(0.953243 0.175625 5.32559e-20)
(-0.682071 -0.926977 3.84768e-21)
(0.998067 0.0228853 2.25826e-19)
(1.0402 0.0214533 -4.98458e-22)
(1.18924 -0.124967 4.41248e-20)
(1.30556 0.334381 4.1702e-19)
(0.993653 0.0191694 1.55689e-19)
(1.01839 -0.010224 5.74326e-22)
(1.80647 0.223823 -1.58667e-20)
(1.92219 1.00055 -1.34159e-19)
(0.736271 -0.659869 7.84466e-20)
(0.411762 -0.263343 -3.45544e-19)
(1.00945 -0.00772932 0)
(1.01948 0.0060742 5.63826e-20)
(1.01145 -0.00526913 1.18336e-19)
(-0.0991506 0.355959 -4.21609e-20)
(1.01329 0.0107147 -2.36369e-19)
(1.02423 -0.0150599 2.73173e-19)
(1.00955 -0.00385974 -2.21092e-19)
(1.01402 0.0102021 -5.40084e-22)
(1.01338 0.00728766 -4.26396e-22)
(1.02287 0.018574 2.26656e-19)
(0.913541 0.118414 5.55484e-19)
(2.28181 0.761638 0)
(0.651874 -0.528273 1.0546e-19)
(1.00981 0.00102884 0)
(1.02412 -0.0125052 -6.53379e-20)
(1.59509 0.444918 -7.18178e-20)
(1.93047 -0.141252 0)
(1.22495 0.205362 8.38438e-20)
(1.6486 0.453901 -8.02197e-20)
(0.781233 -0.0202532 0)
(1.69019 -0.246757 0)
(1.0662 0.672321 -4.19055e-19)
(0.0792254 -0.652357 4.44869e-20)
(1.01748 0.00119382 -2.3764e-19)
(1.07977 -0.537156 -7.93401e-20)
(0.880308 -0.363168 5.23784e-20)
(0.83575 0.725147 0)
(1.53167 0.232941 0)
(2.33363 0.643561 0)
(-0.0675612 0.162638 1.2948e-19)
(0.188966 0.284437 7.31356e-20)
(0.356926 0.66342 0)
(-0.0587049 0.219713 -2.85313e-19)
(1.79256 1.00391 -9.77468e-20)
(1.0069 0.000709174 -4.65024e-19)
(0.11846 0.128561 -5.58252e-20)
(1.02086 0.015554 3.08332e-19)
(0.701893 -0.0448621 0)
(-0.127775 -0.0581228 -8.58529e-21)
(0.652268 0.483017 -3.54713e-19)
(1.92722 0.57002 1.81114e-19)
(0.0209386 0.268977 0)
(0.763674 0.0678802 1.01158e-19)
(0.558935 0.53645 5.29959e-20)
(1.24464 0.926254 -3.14665e-20)
(-0.0651732 -0.0512805 4.11796e-20)
(1.0236 0.0212985 0)
(0.430173 0.60087 7.07186e-20)
(1.01135 0.0024076 1.74291e-19)
(2.15475 -0.175938 0)
(1.01061 0.0121078 2.92781e-19)
(0.0178824 -0.257445 -3.54689e-20)
(1.01935 0.016291 -1.8108e-19)
(0.887275 0.145904 0)
(2.0316 -0.000115143 -1.97572e-22)
(1.00875 0.00785012 -1.21474e-19)
(0.994977 -0.0110817 3.20212e-19)
(1.12057 0.107938 -4.34036e-21)
(1.06729 1.01231 -2.58689e-20)
(-0.12544 -0.107092 1.0938e-19)
(2.16601 0.181466 2.25232e-19)
(0.252551 0.943329 2.53328e-20)
(0.797474 0.0146874 -4.4001e-19)
(0.82257 0.0295718 0)
(-0.0418096 0.621736 -2.63821e-20)
(1.02552 -0.00763032 -3.50694e-20)
(0.973597 0.0445613 0)
(1.05708 0.00431879 -2.21302e-19)
(-0.0889757 1.1025 7.70438e-20)
(-0.784994 -0.787453 1.11389e-19)
(2.07888 -0.571686 0)
(-1.06114 -0.936973 -4.784e-19)
(1.46356 -0.333063 0)
(1.04196 -0.0153721 6.51196e-20)
(1.09286 -0.440709 -1.28893e-21)
(1.0118 0.00394664 1.89032e-19)
(-0.684086 -0.550441 3.3708e-19)
(1.01972 0.00825128 0)
(0.993763 0.0038873 -4.50755e-19)
(1.00747 0.0115309 2.40074e-19)
(1.43152 -0.542079 0)
(1.50639 -0.197499 1.03746e-20)
(0.956528 -0.000887456 -2.05174e-19)
(-0.139196 -0.183091 1.33238e-19)