/*--------------------------------*- C++ -*----------------------------------*\
| =========                 |                                                 |
| \\      /  F ield         | OpenFOAM: The Open Source CFD Toolbox           |
|  \\    /   O peration     | Version:  2306                                  |
|   \\  /    A nd           | Website:  www.openfoam.com                      |
|    \\/     M anipulation  |                                                 |
\*---------------------------------------------------------------------------*/
FoamFile
{
    version     2.0;
    format      ascii;
    arch        "LSB;label=32;scalar=64";
    class       volScalarField;
    location    "49.1";
    object      p;
}
// * * * * * * * * * * * * * * * * * * * * * * * * * * * * * * * * * * * * * //

dimensions      [0 2 -2 0 0 0 0];

internalField   nonuniform List<scalar> 
2186
(
1.03511
0.178246
0.433976
1.31869
-1.86375
-0.119641
1.01917
-0.578963
0.179783
1.48123
0.856126
-0.372155
-0.599905
1.09447
-0.0133507
1.05263
1.10569
-2.14852
-0.00136757
-1.93514
1.43078
-1.85076
1.0967
-0.421313
1.08821
1.2995
1.3021
1.19478
0.254135
1.09249
-1.9003
1.08814
-1.97843
-0.0949453
-0.376365
-0.400457
0.209649
1.39911
-1.04553
-0.112911
-0.595079
-1.80347
-0.106475
-1.99655
0.734449
1.46157
0.758164
0.895419
0.401151
-2.10782
-1.92385
0.647399
-0.110393
1.2858
-1.99242
1.23122
-0.151417
1.25294
-0.982468
1.05159
0.400008
0.363211
0.225811
0.060838
0.27738
0.846992
0.356895
1.33281
1.22478
0.132738
-0.587904
0.428849
1.3455
1.25925
1.15527
1.38506
0.290945
1.09724
-0.380189
-1.43901
-1.47085
-0.083388
1.08575
0.335306
1.08985
1.08833
1.28988
0.201701
0.373129
-0.33599
1.22941
-1.93245
1.09949
1.31606
1.09531
0.0289943
0.331141
0.307542
-1.995
1.2617
-0.78852
-1.03391
0.389966
1.11825
1.10878
-1.93202
1.09805
0.205997
1.20329
-2.01242
-1.4229
-2.00936
0.914593
1.25355
0.103235
-0.776476
-0.218188
0.387562
-0.338162
1.36491
-0.598062
-2.26958
0.596138
-1.98114
1.06036
-0.225122
-1.96514
1.3718
-2.07461
1.00542
1.54041
1.44585
0.667417
0.998955
-1.13225
-2.15976
1.20988
0.0530282
-0.517697
-0.379601
0.518654
0.308868
-0.559652
1.03948
1.11058
1.1407
0.191979
-1.86255
0.964125
-1.94371
-1.94095
0.944713
1.10069
1.40153
1.29513
0.902061
1.26038
0.158482
0.041984
0.818823
-0.343159
-0.430022
0.983555
1.24519
0.168835
-0.109565
-0.342781
-0.477121
0.349553
0.577408
-0.0368743
1.26378
1.10542
1.34968
0.0260856
-0.47898
-1.77416
0.980721
-0.920401
0.63575
-0.456493
1.09807
-1.92751
0.202816
0.152745
-1.75871
-1.02955
0.985116
-0.588797
-0.621212
-1.30676
1.29309
-0.264315
1.222
-0.303821
-1.83744
-0.475849
1.19715
0.895799
-1.96422
-0.593337
-1.46356
0.534041
1.13221
-0.341095
-1.90367
-0.400399
0.551729
0.924661
-0.0391774
0.896978
0.515464
1.2471
0.559455
0.688101
1.22659
1.06219
1.08684
1.19192
0.976428
0.803242
-0.850681
-1.94072
-0.406661
0.624893
-2.20901
-1.93062
0.854821
1.29913
-0.520014
-0.327406
-0.946077
0.775737
0.999091
1.04276
1.19482
1.36328
-1.67811
1.1737
-0.478217
-2.09502
-0.820058
0.802372
0.427144
1.01649
1.27165
0.963207
0.926281
-0.581429
1.13878
1.07865
-0.613042
0.781162
0.490328
-1.09088
-0.380692
-0.332434
1.01528
1.08638
-0.589075
-0.0827075
0.411078
1.2389
-2.00093
0.493646
0.936561
1.07927
-0.377798
-1.92857
1.09539
0.398073
0.211647
-0.501211
1.3238
-1.91363
-0.572291
1.05903
1.40799
1.09458
-1.94463
-0.0622324
0.0440539
0.77702
-0.604592
0.918575
1.08555
1.25692
0.327869
0.291863
0.949317
-0.379075
1.19525
1.41832
1.08507
1.08311
0.149299
-2.07278
-0.390994
0.302334
0.379294
-0.0222907
0.782015
0.00507763
0.262406
1.39886
1.09035
0.763471
0.0999219
1.1307
-0.363425
0.217714
-0.523704
-0.334471
-0.626483
0.763019
-1.94649
-1.92852
-0.352618
0.815869
-0.101167
-0.0474624
-2.002
0.511338
-0.660913
-1.98258
1.27403
-0.597995
-0.186564
-1.92711
1.11254
0.309278
-0.508664
0.903485
-1.33137
-0.58134
0.333387
1.11846
0.910335
-1.5984
1.20943
1.18856
-0.0337357
1.45088
1.04158
1.08964
0.799247
0.659745
-0.374114
0.660592
-2.06053
-0.409318
-0.416997
-0.940689
-0.370184
1.31785
0.220665
-1.92568
-0.641555
1.04274
-1.72545
0.216392
-2.05607
1.09041
0.588548
-0.569155
1.25283
1.32745
1.36867
-0.569248
-0.1415
1.32967
1.05458
-1.44292
0.0948434
-0.502424
0.613326
1.14557
0.827327
1.09402
1.45615
0.130505
0.662275
-0.145023
0.115977
0.0555636
-1.83768
0.117526
1.23093
-2.3465
0.112951
1.02481
0.950062
-0.433498
-1.62245
-0.402215
-2.20274
-0.498785
-0.310398
-1.85924
-1.88744
1.32398
0.490712
-0.802717
1.09844
-0.346588
1.46249
-0.954746
-1.86974
-2.05923
1.08527
-0.480767
1.0857
1.15703
0.245151
1.24609
-2.28997
-0.279829
-0.605898
1.28153
1.09242
-0.475879
-0.537411
-0.508258
0.81706
-0.445928
-0.556577
0.127575
0.857182
1.07579
1.00145
-0.551001
-0.154432
0.702535
0.158567
1.05142
-1.96547
1.10271
-0.581013
1.36011
-0.328946
1.16132
0.485526
1.09163
-0.442383
1.02281
0.247085
-0.275365
1.08802
-1.44809
-0.221259
-0.893127
-0.400587
1.05829
0.630336
0.721835
1.02981
-0.224446
0.485686
0.246948
-1.92705
0.719397
-0.57161
0.457216
-1.26089
0.905297
1.3761
-0.622389
-0.290768
0.746764
-1.9158
0.0966972
-0.685805
0.575676
0.542721
-0.608442
1.04206
0.656643
-0.0602058
0.717436
0.651085
0.524664
-0.0964405
0.50159
-1.46118
0.126392
-1.84904
1.08418
-1.84811
1.27266
1.43349
1.41726
0.35541
1.036
-1.8832
-1.87022
1.07613
0.653164
1.02698
-1.65258
-0.627531
-0.958566
1.071
-0.272103
-1.59133
-2.01298
-2.08259
-0.500238
0.0373959
0.478785
0.518573
-0.40693
0.123348
1.08243
0.530828
0.992121
-1.43265
-0.765945
-0.269546
0.474519
-0.165818
1.40374
1.35018
-1.13843
-1.91083
-0.30526
-0.0226069
-1.77397
1.30313
0.122082
1.27052
0.594497
-0.483598
0.73588
0.700307
-1.66612
1.07411
0.147541
-1.92738
0.0656255
-0.305079
0.0558119
-1.77749
-0.372808
1.09203
-0.23349
-1.96433
0.956284
1.2299
1.42677
0.205179
1.0427
0.18842
1.10477
-0.0360472
0.0775593
-1.92837
0.135471
0.594604
0.9414
-0.696504
-0.600379
0.0956349
-0.348752
0.370499
1.06564
-0.611089
-0.114952
-0.653663
0.756142
-1.47446
0.946068
0.502121
0.307991
1.09043
0.983825
-1.48835
-0.719843
0.971567
1.47915
1.1038
-1.06791
-2.33674
1.11182
0.569189
1.09684
-0.925201
0.0602804
0.966198
-0.635978
-1.92548
0.888704
-0.159458
1.16033
0.178257
1.18329
-1.15186
0.975009
-0.329344
1.36123
-1.92612
-0.450953
0.754373
0.167743
0.190462
-0.529397
-1.99786
0.128886
0.634355
0.206103
-0.251897
-1.01825
1.0868
0.0387524
-2.3067
0.530426
0.689718
1.00062
-1.03197
-1.74392
-1.93609
1.09522
1.06378
0.876722
1.09365
-0.76719
1.27631
-1.0559
0.177741
0.209076
1.09049
1.09983
-0.645696
0.601891
-1.9288
0.617271
-1.85036
0.814944
1.19582
1.08435
-1.66503
0.749869
-0.811835
-0.571342
1.28583
-1.31851
-1.27703
1.0529
0.0671604
0.967898
-1.40143
-1.92883
0.869949
1.10338
1.51979
1.0827
-2.15904
1.33728
0.998817
0.564098
0.30798
-0.852982
-0.246077
1.56702
-0.414741
1.03414
-1.94281
0.731675
1.08397
-0.594163
1.00945
-0.494487
0.710515
1.10908
1.10953
-0.345541
-0.674403
-0.0462023
0.93242
0.977777
1.27247
-0.0860419
0.578706
-1.50007
-0.53953
-1.20523
1.13817
1.38354
-1.41019
-0.185188
-0.473963
1.25525
-0.0897085
0.451364
-0.242411
-0.75773
-0.544722
-1.89602
-0.595543
0.653926
-1.85348
0.00276041
-0.883507
0.143356
-2.04435
-0.506507
-0.0157542
0.983246
1.09392
-0.548184
0.327725
1.01235
1.09738
1.1
-0.423438
1.00329
1.23978
1.10524
1.32011
-1.31754
0.079785
-1.9267
0.293678
1.10874
1.05048
0.599214
-0.0134217
-2.04272
-0.97073
1.45856
-0.0677982
-1.2157
0.0607193
0.0199608
-0.587468
0.549483
-0.41944
-0.223091
-0.299247
1.04655
1.08879
1.0608
-0.0845231
-0.0123471
1.45329
0.0503624
1.09803
-0.0360976
0.0174341
0.505546
1.08678
0.93836
-0.728817
0.983977
0.993569
-0.180368
0.0480372
1.063
1.08171
1.08705
-0.281631
-0.385509
1.09036
0.972159
1.0859
-0.276406
-0.754395
-1.07246
-1.07129
0.185361
-1.94013
-0.332771
-0.00722863
1.09002
1.09351
0.583443
-0.345521
1.04531
0.132427
0.649704
-0.0500069
1.09423
1.10089
1.0911
1.09275
1.06422
1.05231
1.03512
0.562794
0.693491
0.0579569
0.111411
-0.0766136
-0.0376286
-0.0213459
0.328458
0.212623
0.0909602
0.0186343
1.09295
1.1011
1.09776
1.11274
1.10654
1.09285
1.08978
1.09568
1.05964
0.282475
0.41286
1.08859
1.09382
-0.00209076
1.09737
1.08991
-0.46317
-0.990965
0.0183385
-1.74662
-1.81443
1.06796
-0.605223
1.07974
0.968216
1.32127
-0.357216
1.08452
0.930827
1.07908
-1.92141
-0.252826
-0.563569
0.0237144
-0.592927
-1.94256
1.07278
-0.958749
1.15945
1.06724
-0.797744
1.05909
1.26201
0.0356763
0.769691
1.01707
1.05709
1.07771
1.08931
-0.456474
0.115406
-0.564392
1.06956
1.09353
-0.65724
-0.840269
1.06771
-0.23957
-1.00345
1.07339
0.115333
1.01801
1.08065
0.0954436
1.0923
-0.998282
1.07956
1.05635
-1.95138
1.10368
1.10852
-0.76556
0.460833
1.08921
1.07235
-0.25437
-1.72232
1.05932
1.5255
1.07683
1.08805
1.07899
-0.89461
1.0828
1.09593
1.07522
1.07707
1.07452
1.08652
1.12428
-0.104151
-1.02161
1.08565
1.06399
-0.0699057
0.0969123
0.651151
-0.347868
0.810509
-0.176616
-0.739606
-0.120552
1.07545
1.06171
-0.352918
-0.581123
-0.433837
-0.0723242
-1.99499
-0.874701
-0.93182
-2.36899
-1.05149
1.08781
-0.636871
1.07372
0.892396
-0.386429
1.1703
0.0656792
-2.1984
1.02711
1.00409
0.0726412
-0.301009
1.0477
-0.855501
1.08205
-0.476473
1.08528
-0.111326
1.07008
-0.646207
0.613561
1.08317
1.10469
0.881068
-0.896558
-0.348108
-1.27633
-0.978718
1.10782
0.863904
-1.10683
1.0598
1.11246
1.0375
-0.806109
-1.40897
-0.0871785
-1.29745
0.772821
1.06498
0.139157
1.08458
-1.40949
1.06406
1.10334
1.08818
-0.100194
0.042621
1.11864
-0.65606
1.09114
1.09081
0.499501
-0.5745
0.749655
1.06323
1.06911
1.04106
-0.801476
-0.604142
1.08884
0.816506
1.08638
1.15806
-1.64308
-0.543262
0.77396
1.3898
1.05635
0.763378
-0.418141
-1.12053
-0.589326
-0.743968
1.096
0.160138
1.02386
-1.64365
-0.311793
-1.89103
0.161409
-0.401154
-0.208902
-0.551291
1.06695
-0.324089
0.711814
-0.421847
0.324409
-0.718428
-0.257777
-0.603857
0.999044
-1.03214
-0.336931
-0.601563
-0.873812
1.09425
-0.703291
-0.195342
-0.543911
0.999792
-0.038736
-0.434659
1.13291
1.09123
1.09487
0.872915
-0.377603
1.05489
1.06244
-0.705799
-1.92491
1.06854
1.12191
1.19773
1.07814
0.51597
-0.622325
-1.96236
-0.73518
-1.66432
-0.27789
-0.723698
-0.0716716
1.12488
0.454176
1.09866
1.19523
1.04904
-0.345374
-0.551588
1.06595
-0.306931
-0.282403
1.09168
0.402113
-1.54491
-1.40387
-0.479287
0.928723
0.8897
-0.502137
1.07225
0.415899
-0.918357
1.09833
-0.394024
0.701418
-1.87263
1.21059
-0.544047
0.829746
1.06957
0.958112
-0.152575
-1.2134
0.740657
1.43194
1.08733
0.864729
-0.904523
1.45999
-0.201377
-0.40998
-0.245182
0.864659
-0.0114021
1.167
1.37831
-0.468182
-0.516843
1.05092
-0.512075
1.14359
1.09467
0.945699
-0.00297419
1.06502
0.120511
1.10925
0.0683148
-0.5614
-0.752996
1.07116
0.0268698
-1.19012
-0.275822
1.17237
-0.582801
1.10912
0.693501
1.27831
0.817449
-0.781385
1.10414
-1.92773
0.976563
1.00274
-0.438903
-0.527206
1.01896
1.02799
1.14153
0.962574
0.562367
0.94595
1.11132
0.754111
1.06728
-0.120449
-1.97466
-0.766882
1.24993
-0.432783
-0.388169
-1.92911
-0.672379
-0.2607
-0.128175
0.661961
-0.450919
1.0971
1.16528
-1.92716
0.144734
-0.586502
-0.0581398
-1.25248
-1.92518
1.04537
-0.12256
1.08011
1.4263
1.13357
-0.617865
1.08647
0.924146
-0.351245
1.11807
1.01216
-1.52173
1.01863
0.76665
-0.0438724
-0.293613
1.55645
0.11137
-1.26647
-0.570918
0.672544
1.09017
-1.65383
-0.0618501
-1.92669
1.15453
-0.384457
0.650124
1.04574
1.11829
-0.136648
1.14183
-0.268508
1.07196
1.08945
-0.910088
1.0841
0.168954
1.12148
1.04194
-1.08082
-0.181699
-0.0501985
-0.920972
1.20725
0.177244
1.04919
1.39705
0.0994022
-0.00821273
1.1497
-0.00252967
1.14692
0.159644
0.339842
1.12639
1.13134
0.826988
-0.230038
0.530417
-1.80467
-2.01164
-1.54357
1.07763
1.14102
1.57128
-0.308278
-0.194282
1.0823
-0.589968
1.0787
0.884332
1.14786
1.03793
1.09147
-1.34729
-0.306179
-0.573028
0.66616
0.888076
-0.649532
-1.92414
-0.524868
1.09701
1.1617
-0.114864
-1.33876
1.09495
-0.0530325
-0.0893511
0.540386
0.739179
-0.0578137
-0.540946
-0.569627
-0.680107
-1.61303
-0.878939
-0.0323312
1.55257
1.31836
-1.72119
-0.758141
1.09255
1.07291
-1.85004
0.460513
0.16726
0.387669
1.1341
0.0723771
1.06798
0.424913
-0.547955
-0.807584
-1.45441
-2.13375
1.12767
-0.705039
-0.0785005
1.347
-0.666552
1.07099
1.18051
-1.92366
1.31407
1.46787
-1.85463
1.16308
-0.639385
-0.573593
0.936225
-0.591061
1.29229
1.07917
-0.61584
1.19867
0.610888
-1.56215
1.0902
1.30544
-0.291887
-0.605536
0.91369
1.06157
-0.546586
-0.655731
1.2144
-0.593565
0.867172
-0.515763
1.11648
-0.424593
-1.82307
-0.429175
-1.81753
0.966246
1.17481
1.49479
1.11642
0.81561
1.1115
0.929622
-0.382193
1.02066
1.38871
-1.91306
-0.575089
-1.53125
1.26709
0.181081
-0.610037
-1.09787
0.761958
-1.90476
-1.66029
0.872244
1.29759
-0.474427
-1.92768
-0.635975
-0.552671
-0.942469
-1.88003
-0.338655
0.700543
1.20313
-1.92999
-1.0713
-0.254761
0.63491
-0.585758
-1.77385
-0.304017
1.2429
-0.456425
-1.92556
1.52328
1.08128
0.825507
1.4253
-0.727305
1.26849
1.05693
1.25287
1.43724
0.00697105
0.424924
0.867839
0.702029
-0.278937
1.47558
1.15018
1.1526
1.21795
-1.92178
-0.488998
1.10673
0.64127
1.09695
-1.06974
-1.51265
1.08824
-0.445606
1.09682
-0.245714
1.38493
-0.269107
0.498213
1.0834
-1.92842
-0.267124
-1.72367
1.3054
-1.92925
-0.32365
1.05444
0.340653
-0.940332
1.10465
1.12726
-1.92946
-1.69893
0.915713
-1.10502
-0.278861
-0.676802
-1.92766
0.141378
0.943648
1.14207
-1.98025
0.989345
1.09021
1.35958
0.717141
-0.101236
-0.405553
1.18758
0.0968844
-1.92745
0.379089
-1.14025
-1.9269
1.01686
-1.93953
-0.25294
-0.291634
0.249146
0.952287
-1.92665
1.00377
-1.09598
0.89387
-1.92982
0.148495
-1.92587
0.805593
-0.32527
0.0345338
-1.93934
1.14799
-0.63766
-1.95927
-1.9935
-0.340875
1.08657
0.556276
-2.04728
-0.34912
-0.440039
-0.182162
-1.94455
-0.374495
-2.1028
0.377089
-0.359747
-0.672927
-0.386836
-0.976347
-2.19413
0.232495
0.819147
0.223162
-0.932113
0.974442
-0.323696
0.0600653
0.85343
1.0985
-1.91016
-1.65614
-0.344175
-1.0919
1.13206
1.42044
0.146725
-0.047705
0.511705
-0.688252
-0.636512
0.182276
0.942246
-1.52053
1.10498
-0.253928
1.46958
0.864225
1.58219
-1.92913
1.42327
-1.23256
1.26858
0.112313
-0.337433
1.33865
1.11656
-1.10368
-0.301178
-2.00358
0.887236
-2.00098
1.02609
-0.620574
-0.647947
-0.453648
1.34891
1.01005
1.36448
0.992978
1.10102
-0.159954
0.240962
1.11827
-0.873856
-0.769568
1.39487
-1.94125
0.874978
1.18071
1.45379
1.55377
-1.95001
-0.122159
1.14329
0.681174
0.0865885
-1.97009
-0.230347
-1.85437
-1.92553
0.926925
-1.29265
1.43299
-0.138303
0.919028
1.09427
0.984339
-0.839155
-0.395588
-0.718375
1.17946
-0.814099
1.07403
-1.45468
-1.15554
1.16298
1.50196
-0.421184
-0.365416
1.09094
-0.821869
-1.65466
1.00823
1.20594
1.38577
-2.13396
0.8192
0.659753
-0.364177
1.40574
-0.0917457
-1.9293
0.520533
-0.0390691
-0.120263
1.02089
-0.962321
-0.134688
-0.553079
-0.606743
-1.24267
-0.402094
0.998732
-1.44321
0.976111
-0.546855
0.553819
1.02597
0.726804
-0.398175
-1.45267
-0.533693
0.0518463
-0.423804
-0.567158
0.768185
-0.78789
-0.444146
0.937217
-0.592863
-1.91744
1.09098
0.0897425
0.818597
-0.0142944
-0.484796
0.243663
1.09258
-0.193161
-0.100178
1.15471
-0.62608
1.19867
-0.0164036
-0.898617
-0.727945
-0.331594
1.61912
-1.44277
1.32598
-0.660507
1.09331
1.20824
1.04877
1.19818
1.05728
-0.42509
0.319834
1.11731
1.32348
1.51003
-0.683417
1.05583
0.42325
-0.651436
1.11343
1.43747
-1.36791
1.29202
-0.247935
-1.69248
1.15123
-0.628605
-1.97156
1.11262
-1.20398
1.17169
1.32384
0.906339
-1.74955
0.773104
1.18815
-2.00699
-0.790696
-1.15895
-2.41088
-0.799386
-0.287506
1.53964
1.08928
-1.83941
1.21422
-0.606907
-0.909476
1.48261
1.14066
-1.49945
-0.800003
-0.309504
-0.578667
1.16238
-1.8701
0.570199
-1.67535
-0.852485
1.1651
-0.563274
1.35221
1.0698
1.13862
1.01737
1.23998
-1.05129
-0.584215
1.20561
1.36068
-1.45728
1.12737
-1.51982
-0.409149
-0.527308
0.953359
0.993482
-0.456843
-1.88877
0.925535
0.461604
-1.54375
0.99528
0.791246
-1.10616
0.844914
0.90173
0.0449777
-1.90887
-1.79774
-0.359717
-0.504305
1.50132
0.013016
0.730248
-1.89701
1.50929
0.813407
0.665377
0.831392
-1.64519
-0.057647
-0.317308
0.222949
-1.92825
1.22098
0.723331
-1.02747
0.726292
1.28524
1.10598
1.01927
0.0230373
1.12554
0.250791
0.825721
0.669096
-1.21434
-1.9199
-2.1107
-1.51631
1.08957
1.25868
1.09141
-0.223513
-0.216456
-0.286407
-1.9142
1.06938
1.22926
1.08546
-1.92528
-1.17022
-1.07861
-1.30569
-0.304523
-0.321521
-0.789521
1.00979
-1.63459
-1.93033
-0.295682
0.403142
0.46725
-2.15482
-0.268705
0.205753
0.832109
1.50829
-0.54869
1.21919
1.51439
0.384698
1.17647
-1.91416
-0.484875
1.56889
-0.263773
0.7457
-1.92973
-0.519352
-1.99595
-1.92956
1.18409
1.07755
1.09519
1.04547
-0.029099
1.11145
-0.37645
-0.216401
-0.268949
1.21
0.470356
1.08374
1.09947
0.374957
-0.00803809
1.11776
0.0119892
-0.351032
-1.93027
-1.98916
0.95682
-1.92851
1.08836
1.0253
-0.277963
1.45301
-1.91968
-1.01281
1.09137
-1.07203
-0.756265
-0.57062
0.297793
-1.93074
-2.13197
0.725715
1.09178
-0.203717
0.558424
-0.920968
-0.282598
-0.129261
-2.24441
0.364729
0.974087
-0.902427
-1.92792
1.1941
-0.169564
-0.0287787
-1.92637
-0.528565
1.08081
1.31514
0.201396
0.921881
-1.92695
-0.715354
-0.13128
0.0962398
0.845796
-1.93148
0.754163
-0.334721
-1.94503
1.42417
-1.97073
-0.206103
-0.502633
-1.88973
1.16181
-2.01593
-1.83708
-0.352304
0.479886
-2.07494
-0.541986
-1.6863
0.0716794
1.10366
-2.14048
0.324725
-0.372845
-0.803689
1.29168
1.55351
1.14664
1.08045
1.11464
-1.77058
1.05216
-1.91348
1.31087
-0.347149
-0.226929
1.47347
0.108471
0.881828
-2.03948
1.52658
-0.45094
1.48013
0.296131
0.61309
-1.93002
-1.92138
-0.333567
-2.00708
1.39237
1.13517
1.03613
0.977793
1.07924
1.18053
0.585984
-1.93263
-0.554099
-0.0972384
-0.568802
0.550392
1.07369
0.447178
-1.93097
-1.96479
-0.0196221
-0.341275
0.2546
1.5292
1.09482
1.06931
0.340009
-0.0710822
1.11367
-0.149173
-0.291742
-1.35689
-0.655925
0.534554
-1.92613
-1.92302
0.216079
0.999589
-0.42462
-0.496194
1.07402
0.979567
1.01547
1.05323
-0.300176
0.664484
1.35705
1.16028
-0.318392
1.09259
0.773485
0.0969439
-0.997
-1.92634
1.46872
0.718861
-1.11837
0.558251
0.722086
0.886852
-0.733281
-0.698223
0.0140257
-1.83533
-0.270501
-1.8347
-0.297849
1.04224
-2.06088
0.971853
1.43259
1.34831
0.927335
0.974152
1.05897
1.06211
-0.96287
-0.0931274
-1.17045
-0.409835
-0.00181244
-1.92748
1.09586
0.921237
-0.597632
1.16385
-1.40667
-0.601054
-1.95436
-0.0313898
0.921003
0.116229
1.03145
0.703225
-2.11488
0.130812
1.39569
-0.236158
0.00321751
0.19478
-1.82805
-1.9771
1.15992
0.537785
1.31125
-0.654971
0.128011
-0.308877
-1.02877
-0.609013
-0.272182
-1.80582
-0.762441
0.721028
-0.0758655
1.59719
-2.31283
0.0190497
-0.361472
-1.92838
1.14591
-0.38179
-0.721175
0.0317755
0.314719
1.0913
1.40582
-1.33332
-0.257786
0.604357
-0.355404
-0.165378
1.29862
-1.1445
-0.022053
-1.74492
0.504232
0.155482
-0.622326
1.04228
-0.299716
-1.58731
1.02695
-1.31074
-1.48074
-2.09724
-2.13213
0.481491
-0.616296
1.25957
-0.27598
0.64353
-0.345712
0.55648
-1.63328
-0.997649
0.351777
1.06455
1.14781
1.11629
1.12939
-2.04282
1.08858
0.922522
-1.81343
0.841681
-1.09837
-1.85211
-0.541321
1.37473
1.3543
-1.52978
-1.12071
-0.813327
0.846923
-1.39066
-0.191
0.223789
-1.9206
1.21937
0.869997
-1.92569
-1.74699
-1.93278
-1.92772
0.846248
-1.93389
0.819723
-0.202907
0.432296
0.616004
-1.9299
-1.22905
0.768958
-1.92208
-0.208087
1.35363
-0.328623
-1.92535
0.581161
-2.01422
-1.7957
0.380436
-0.724037
1.44987
-0.0107153
0.648145
-1.92438
1.50218
-1.9181
-1.72163
0.344941
0.235934
-0.346554
1.4638
0.385532
1.28475
-1.82278
1.13939
0.0605192
0.0202722
-1.85596
-1.85933
-1.91665
1.18213
0.252898
-0.521057
-1.92186
-0.645767
1.05611
-1.61481
1.48483
-0.342032
0.523794
-1.92777
-0.0248937
0.202922
0.15663
0.0463578
0.633231
-1.64113
0.872446
-1.86735
-1.58705
0.191099
0.721069
1.51269
0.301414
-1.78675
-1.93329
-1.92794
-0.171995
-2.24775
-1.92702
1.16289
0.656233
-1.92492
1.55613
-0.632062
-1.4502
1.47093
-1.92641
-0.331603
-1.51138
-1.9347
-1.92706
1.53861
-2.02734
1.41755
-1.92678
-1.36768
1.11106
0.410597
-1.63978
0.239337
-0.702767
-0.522263
0.194327
-1.92698
1.0957
-0.570479
-1.92612
-1.92942
-1.94294
-0.348948
1.1132
-0.770546
0.240461
-1.92521
1.43056
-0.255616
-1.77413
-1.81339
0.337419
-2.15588
-1.9535
-1.92734
0.481846
1.15932
-1.92015
-0.341172
-2.22924
0.0133852
-0.879893
-0.351496
1.50216
1.41894
0.0355966
-1.2274
-0.347295
-0.0815762
-0.341759
1.49208
-0.249529
1.33445
0.420244
1.48638
-0.415036
-2.14382
-1.09906
-0.634324
-1.86712
-0.633668
0.387025
-1.9245
1.40982
0.397079
-0.231123
0.32539
-0.335867
-1.37144
)
;

boundaryField
{
    frontback
    {
        type            empty;
    }
    Top
    {
        type            zeroGradient;
    }
    outlet
    {
        type            fixedValue;
        value           uniform 0;
    }
    bottom
    {
        type            zeroGradient;
    }
    Inlet
    {
        type            zeroGradient;
    }
    rectangle
    {
        type            zeroGradient;
    }
}


// ************************************************************************* //
