/*--------------------------------*- C++ -*----------------------------------*\
| =========                 |                                                 |
| \\      /  F ield         | OpenFOAM: The Open Source CFD Toolbox           |
|  \\    /   O peration     | Version:  2306                                  |
|   \\  /    A nd           | Website:  www.openfoam.com                      |
|    \\/     M anipulation  |                                                 |
\*---------------------------------------------------------------------------*/
FoamFile
{
    version     2.0;
    format      ascii;
    arch        "LSB;label=32;scalar=64";
    class       volScalarField;
    location    "24";
    object      p;
}
// * * * * * * * * * * * * * * * * * * * * * * * * * * * * * * * * * * * * * //

dimensions      [0 2 -2 0 0 0 0];

internalField   nonuniform List<scalar> 
2186
(
1.12461
0.123643
0.403906
1.43587
-0.790699
0.13496
1.06962
-0.484701
-0.322066
1.65852
1.25045
-0.425477
-0.497356
1.31469
-0.0853405
1.30529
1.33796
-0.886703
0.0652877
-0.878151
1.69132
-0.846429
1.32138
-0.495332
1.31284
1.41194
1.53469
1.27933
0.745766
1.31402
-0.851806
1.31309
-0.820885
-0.924822
-0.420987
0.210689
-0.882928
1.67136
-0.741943
0.0846528
-0.498808
-0.815658
-0.188074
-0.976904
1.11675
1.63894
0.76675
0.920156
-0.92528
-0.925009
-0.862056
1.07939
-0.183326
1.58618
-0.853144
1.3247
-0.234274
1.35079
-0.81324
1.15459
-0.823553
0.809169
0.706583
0.136347
0.73618
0.865237
0.831424
1.58687
1.48157
-0.322925
-0.478364
-0.848435
1.57297
1.36642
1.44921
1.51839
-0.897276
1.33163
-0.423055
-0.771751
-0.94651
0.165573
1.3089
0.787808
1.30545
1.31025
1.57368
0.136706
0.0563006
-0.435878
1.32388
-0.860772
1.25858
1.4979
1.32157
0.555547
0.289645
0.756298
-0.861333
1.36279
-1.07223
-0.908796
0.820393
1.27385
1.34031
-0.888534
1.44612
-0.185673
1.3012
-1.40421
-0.739593
-0.901062
0.945648
1.57032
-0.32332
-0.534657
-0.0677115
-1.05882
-0.437182
1.5816
0.0597848
-0.978858
1.03595
-0.8822
1.31123
-0.058079
-0.853605
1.50629
-0.875171
1.05237
1.72961
1.59757
0.663509
1.04471
-0.972812
-0.952142
1.2977
-0.342344
-0.555171
-0.442102
0.972971
0.24741
-0.476777
1.09242
1.25314
1.2882
-0.132023
-0.791589
1.00318
-0.941326
-0.864764
0.978457
1.33484
1.5434
1.41037
0.92958
1.55927
0.591166
0.478454
0.832606
-0.442456
-0.519584
1.26548
1.35377
0.07711
0.104044
-0.363216
-0.418049
-0.318999
-0.341055
0.490056
1.36645
1.33835
1.47559
0.560732
-0.25188
-0.744708
1.26559
-0.707722
1.05499
-0.418952
1.32591
-0.8685
0.697996
0.673653
-0.737837
-0.533759
1.35559
-0.49796
-0.514333
-0.685564
1.55255
-0.880613
1.33745
-0.439142
-1.53732
0.176318
1.4674
1.28311
-0.854662
-0.446894
-1.51357
0.516905
1.34804
-0.432351
-0.829313
-0.439551
-1.07492
1.2232
-0.877359
0.920579
0.152368
1.56104
1.00549
1.11191
1.32298
1.41641
1.31507
1.27643
1.33555
0.782934
-0.536207
-0.854551
0.197335
0.616702
-0.915125
-0.835019
1.24872
1.47222
-0.44418
-0.378463
-1.15195
0.786054
1.04492
1.13662
1.2787
1.48887
-0.89734
1.26006
-0.452451
-0.903549
-0.542266
1.20497
0.896581
1.37972
1.49452
1.33546
1.30737
-0.461597
1.21142
1.38361
-0.479352
1.18894
0.948992
-1.07807
-0.415625
-0.381551
1.37965
1.33132
-0.509214
-0.556671
-0.741681
1.33351
-0.911438
0.934972
1.30178
1.20784
-0.390664
-0.857222
1.29997
0.812557
-0.176751
-0.478569
1.61599
-0.834528
-0.468614
1.18859
1.54868
1.30808
-0.825696
-0.831711
-0.267253
1.14518
-0.491434
0.949978
1.29462
1.38035
0.254583
-0.0397681
1.24422
-0.396272
1.29612
1.5598
1.32781
1.32523
-0.603585
-0.954151
-0.497527
-0.828919
-1.21854
-0.836906
0.795478
-0.0782629
0.761959
1.53691
1.44071
1.14231
-0.168891
1.42268
-0.423052
0.113961
-0.491804
-0.437779
-0.527952
0.76729
-0.868129
-0.856695
0.268792
1.16859
-0.763664
0.510661
-0.905841
-0.0264359
-0.533436
-0.884376
1.52216
0.0679623
-0.14082
-0.854476
1.17882
0.730414
-0.374407
0.91914
-1.66242
-0.524977
0.820567
1.3414
1.29309
-1.53695
1.45563
1.27232
0.507904
1.60623
1.29861
1.2687
0.773997
-0.49034
-0.447397
1.07314
-0.959149
-0.405724
-0.457277
-0.542065
-0.442537
1.62389
-0.726026
-0.860121
-0.470691
1.29892
-0.721058
-1.0396
-0.961849
1.15201
-0.259342
-0.609675
1.53756
1.60244
1.49669
-0.479945
-0.346424
1.63619
1.30581
-0.719116
0.593888
-0.456845
0.603423
1.45012
1.20918
1.22366
1.64429
-0.0267845
-0.590454
-0.540503
-0.883449
-0.450756
-0.827884
0.180359
1.556
-0.982367
-0.431333
1.28716
0.986805
-0.419149
-0.91423
-0.449855
-0.922326
-0.53395
-0.435735
-0.891618
-0.814741
1.52146
-0.565521
-0.535187
1.3273
-0.477798
1.62286
-0.724778
-1.29824
-0.962943
1.31154
-0.410275
1.33002
1.23364
-1.21626
1.39183
-0.990615
-0.435804
-0.459475
1.38857
1.27224
-0.41312
-0.455562
-0.50856
1.2045
-0.567531
-0.905389
0.654057
1.19853
1.22449
1.07664
-0.424034
-0.783181
1.06492
-0.580275
1.16233
-1.60559
1.33276
0.0399615
1.49568
-0.436587
1.23883
0.899381
1.33666
-0.426692
1.2909
-0.921261
-0.434112
1.31463
-1.32123
0.247862
-0.545544
-0.0837202
1.30842
0.530985
0.711293
1.29854
0.356793
0.315119
-0.110186
-0.860331
0.657845
-0.51231
0.889844
-0.700002
1.2901
1.50526
-0.460079
-0.438957
-0.517483
-0.845665
0.572553
-0.544402
1.01965
0.398118
-0.504335
1.36274
-0.498584
0.50187
0.720535
-0.349151
0.977797
0.470948
-0.875364
-1.93083
-0.352006
-0.824462
1.32393
-1.79478
1.44677
1.58835
1.57283
0.822917
1.39717
-0.811667
-0.791927
1.23487
0.645569
1.28863
-0.839434
-0.511685
-0.792274
1.15917
-0.434725
-1.49046
-0.875376
-0.917921
0.186707
-0.450131
0.922078
0.912132
-0.583646
-0.346215
1.14341
0.513543
1.36279
-1.65928
-0.118798
-0.435048
0.936866
-0.122912
1.54163
1.65235
-0.84067
-0.830881
-0.350283
0.423161
-0.958909
1.41476
-0.402203
1.37326
0.976499
-0.473091
1.10312
1.06564
-1.20205
1.2195
-0.841401
-0.855781
-0.934491
-0.405036
-0.819811
-0.86399
-0.68627
1.31632
0.328324
-0.868309
0.994364
1.46149
1.57702
0.114517
1.12297
-0.42534
1.16941
-0.153757
-0.946481
-0.856124
0.646253
1.0158
1.30134
-1.12362
-0.430249
-0.432358
-0.444564
0.337267
1.12383
-0.881986
0.228009
-0.590909
1.15692
-1.77614
1.23671
-0.76274
-0.819918
1.27718
1.0408
-0.867711
-0.117654
1.25205
1.6498
1.33466
-2.02067
-0.945223
1.18243
-0.716921
1.16836
-0.578448
0.586734
1.2484
-0.521243
-0.857745
1.25652
-0.401574
1.49228
-0.169035
1.2639
0.154191
1.01838
-0.320376
1.56582
-0.857945
-1.02923
1.16672
0.673497
0.655843
-0.52744
-0.861595
-0.498139
1.00521
-0.144934
-0.756338
-1.92082
1.32546
0.534057
-0.947699
0.945987
1.10205
1.2755
-1.32712
-0.75872
-0.867031
1.32605
1.41558
0.902529
1.32277
0.124068
1.41257
0.165124
-0.260122
-0.733658
1.25831
1.29395
-0.673038
1.04181
-0.860386
1.019
-0.773732
1.21468
1.3144
1.32494
-1.74952
1.14416
-1.02927
-0.666535
1.49303
-0.941211
-1.78176
1.37796
-0.434474
1.33738
-0.952027
-0.859597
1.26167
1.17023
1.70914
1.31226
-0.971198
1.45821
1.33945
-0.830247
0.801006
-0.152441
-0.336217
1.80742
-0.445629
1.38191
-0.864112
0.723627
1.31332
-0.573297
1.28241
-1.0912
1.12896
1.28242
1.33096
0.246502
-0.51714
-0.121806
0.969601
1.04138
1.41888
-0.312652
1.02035
-1.58169
-0.337545
-0.801541
1.21552
1.51715
-0.947223
-0.365461
-0.126683
1.52858
-0.268824
0.915263
-0.304134
-1.07063
-0.46676
-0.859573
-1.90992
1.0296
-1.3665
-0.394068
-0.270141
-0.0495199
-0.894467
-0.472172
-0.421908
1.2601
1.32958
-0.548211
0.0545183
1.27898
1.26935
1.33128
-1.10885
1.27493
1.40072
1.31669
1.43621
-1.33781
-0.137629
-0.858677
0.785198
1.32184
1.10406
0.589164
-0.0381158
-1.67461
0.100792
1.62108
-0.218997
0.304028
-0.145596
-0.0418902
-0.488931
0.9834
-0.413681
-0.460467
-0.432896
1.30194
1.31541
1.31344
0.00128992
0.479157
1.60454
-0.0512746
1.31509
-0.0928282
-0.0365857
0.95297
1.32718
1.31734
0.142569
1.26573
1.26727
-0.81195
0.0175948
1.31452
1.32896
1.32832
-0.435643
-0.485312
1.32939
1.01214
1.31508
0.327643
-0.0473496
0.16663
-1.47342
-0.604358
-0.894355
-0.789729
-0.500985
1.33338
1.33745
0.972309
-0.451408
1.30136
-0.042322
0.22602
-0.0158498
1.31574
1.33559
1.33011
1.33941
1.31469
1.30631
1.29437
-0.113213
0.20311
0.168901
0.200066
0.0342625
0.0776941
0.00593775
-0.0619996
-0.0405201
-0.0050522
-0.0817865
1.31142
1.32794
1.3233
1.34378
1.34026
1.33061
1.33204
1.31894
1.31166
-0.0731647
0.234891
1.3298
1.33059
-0.0276955
1.33338
1.33003
0.119495
0.247467
-0.040653
-0.729516
-1.70391
1.31126
-0.491109
1.31252
1.01201
1.44698
-0.4455
1.31393
1.22539
1.27534
-0.858758
-0.514288
-0.529975
0.000621881
0.046154
-0.854523
1.32167
0.22629
1.40093
1.31356
-0.100359
1.41587
1.58121
0.0605318
1.12243
1.06526
1.30519
1.32402
1.32214
-0.443526
0.637215
0.164677
1.31331
1.32719
-0.553195
0.289062
1.31399
0.150518
-0.283405
1.31521
-0.694159
1.28423
1.32609
-0.327197
1.3247
0.231839
1.31415
1.35906
-1.24594
1.33217
1.33902
0.195802
0.889938
1.31795
1.3167
0.264181
-0.745659
1.11639
1.70767
1.32227
1.31915
1.31963
0.353827
1.31753
1.31152
1.31944
1.31597
1.31697
1.31803
1.40215
-1.35925
-1.22692
1.31949
1.30887
0.428598
-0.746036
-0.762762
-1.61014
1.13851
-0.643174
-1.76641
0.192287
1.31326
1.12066
0.230105
-0.114659
-0.0345987
-1.00014
-0.924057
0.284922
-1.60103
-1.02037
-0.277907
1.32246
0.321123
1.3094
1.19929
-0.433719
1.50278
-1.14538
-0.998058
1.11973
1.37159
0.608019
-0.434618
1.30428
0.155515
1.31936
-0.755631
1.32055
-0.41964
1.30998
0.130451
-0.765922
1.32129
1.33806
1.21432
0.0668571
-0.436708
-0.759088
0.174346
1.3373
1.17862
0.205962
1.30742
1.35318
1.29587
0.125715
-0.985081
-0.17102
-1.27061
0.745097
1.31332
-0.100499
1.31724
-0.972963
1.30973
1.34858
1.32394
0.00637126
-0.0600778
1.35148
-0.468095
1.32626
1.32865
0.457622
-0.487931
1.16217
1.40151
1.30822
1.29783
-0.0804857
-0.464258
1.29685
0.833286
1.32389
1.2351
-0.710714
-0.474745
1.11107
1.58555
1.30769
0.768059
-1.73208
0.193656
-1.40776
-1.77123
1.30895
-0.857104
1.28733
-0.820077
-0.440152
-0.817781
0.6308
-0.404262
-1.33436
-0.881051
1.30847
-0.434549
1.13102
-0.452463
0.287005
-0.379628
0.22219
-1.18528
1.26986
0.146318
-0.327599
-0.639149
-0.92756
1.31051
-1.36364
0.223278
-1.18446
1.34495
-1.03173
-0.451678
1.37903
1.30846
1.30326
0.889383
-0.405768
1.31045
1.33082
-1.79154
-0.846999
1.30862
1.19087
1.51969
1.32618
-1.0115
-1.18299
-0.877229
-0.618335
-0.736075
-0.434081
-0.0265499
-0.377302
1.19426
0.429219
1.32565
1.49429
1.30228
-0.439816
-0.436268
1.30929
-1.41054
-0.653351
1.30206
0.1877
-0.667813
-0.983249
-0.268805
1.23289
1.20122
-1.76695
1.19113
0.879454
-1.53273
1.30821
-0.559364
1.06532
-0.871284
1.34388
-1.59992
0.839751
1.31111
1.33407
-0.981635
-0.855306
1.08979
1.68118
1.33075
1.25497
-1.37929
1.61434
-0.35077
-0.698302
-0.317824
0.888583
-0.851384
1.4184
1.52431
-0.458997
-1.58094
1.30303
-0.699564
1.23129
1.33943
1.25012
-1.11692
1.31009
0.0403727
1.34231
-0.0622018
-0.814875
-0.0438285
1.31396
0.179218
-0.425373
-1.30479
1.34341
-1.16404
1.45017
0.694014
1.59114
1.2184
-0.791218
1.30748
-0.857247
1.26462
1.27277
-0.373215
-1.42607
1.37787
1.29083
1.48107
1.24781
0.527588
1.2449
1.31473
1.12046
1.3157
-0.377282
-0.827319
-1.38927
1.43636
-1.24389
-0.834341
-0.858287
-1.45919
-0.867689
-0.0579656
1.08933
-0.673979
1.28718
1.34688
-0.848102
-0.388939
-0.751074
-0.523607
-0.912889
-0.852631
1.30709
-1.33129
1.32645
1.59249
1.37024
-0.11262
1.33286
1.2212
-0.909212
1.29726
1.28269
-0.68855
1.28402
1.1745
0.167548
-0.719567
1.78504
-1.38733
-0.723946
-0.504434
0.670834
1.30144
-0.78903
-1.32945
-0.852891
1.43316
-1.0211
1.07856
1.31446
1.31415
-0.679557
1.30995
-0.903254
1.32125
1.33685
-0.372707
1.32833
0.688084
1.31908
1.10236
-0.966368
0.12447
0.0931951
0.149322
1.51743
-0.0890551
1.3266
1.67988
-0.93065
-0.0102674
1.38129
0.0190172
1.3786
-0.0490801
-0.0599477
1.37249
1.3772
0.846996
-0.497994
0.979839
-0.818493
-0.915895
-0.657067
1.33019
1.33005
1.77447
-0.435493
-1.10634
1.14275
-0.546257
1.36809
1.24865
1.32733
1.29624
1.28711
-0.994762
-0.433518
-0.570214
1.05711
1.20336
-1.20194
-0.850053
-0.447718
1.33048
1.36241
-1.16356
-0.886698
1.34533
-1.31403
0.38629
0.990743
1.15412
-0.397542
-0.522313
-0.138405
-0.526524
-0.822784
-1.06508
-1.51932
1.7367
1.62835
-0.70822
-0.52959
1.32926
1.30691
-0.775754
0.391119
0.115415
0.861741
1.39942
-0.470606
1.31647
-1.29852
-0.508296
-0.849708
-0.744404
-0.957821
1.31623
-0.524425
-0.563039
1.64191
-0.516552
1.31823
1.50134
-0.847371
1.42863
1.62398
-0.791676
1.50117
-0.509562
-0.497138
1.2871
-0.31272
1.39996
1.32184
-0.501624
1.39213
0.586161
-1.19383
1.34868
1.41721
-0.386643
-0.613075
1.22871
1.31034
-0.475096
-1.07677
1.54334
-0.493196
1.18958
0.00383724
1.28454
-0.419633
-1.38169
-0.454412
-0.76799
1.34082
1.36691
1.6595
1.46299
1.2173
1.36841
1.31096
-0.449524
1.38496
1.52221
-0.835307
-0.484849
-0.703
1.58674
-1.41242
-0.479823
0.258769
1.1737
-0.827068
-0.670758
1.26414
1.40724
-0.460821
-0.851427
-0.479673
0.35419
-0.999981
-0.809683
-0.445029
1.12282
1.28908
-0.85823
-0.387704
-0.354997
1.06937
-0.491876
-0.741035
-0.441424
1.33728
-0.611332
-0.847802
1.69717
1.24179
0.814057
1.57082
-0.159775
1.37041
1.31779
1.45446
1.58401
-0.592771
0.897386
1.25585
0.70236
-0.438027
1.73109
1.30861
1.27542
1.4012
-0.843321
-0.715457
1.22095
1.04592
1.29516
-0.979988
-1.09489
1.30879
-0.436544
1.19657
-0.410146
1.68406
-0.436045
0.956693
1.14496
-0.860401
-0.434352
-1.01399
1.4336
-0.860213
-0.432658
1.10895
0.828706
-0.669658
1.37176
1.21916
-0.859032
-0.625022
1.23689
-1.10028
-0.434081
-0.456484
-0.852984
-0.333179
1.26285
1.34151
-1.40979
1.0338
1.32317
1.63767
0.711445
0.471284
0.174696
1.27497
0.0330078
-0.860393
-1.23593
-0.529307
-0.860224
1.29332
-0.859605
0.35076
-0.433674
0.75452
0.988097
-0.858653
1.04839
-1.34726
0.920408
-0.857398
0.672808
-0.861472
0.821573
-0.43515
0.581077
-0.856411
1.22001
-0.664985
-0.859087
-0.868574
-0.429016
1.32904
0.53991
-0.899511
-0.444206
0.204498
0.293764
-0.860388
-0.428829
-0.944298
0.345507
-0.459111
0.0248135
-0.489856
-0.202791
-1.02591
0.185831
1.16107
0.182828
-0.779084
1.27302
0.0607749
-0.107966
0.87002
1.3001
-0.962788
-1.19159
-0.438968
-0.756682
1.25407
1.70284
-1.06044
-0.749379
0.47396
-0.519947
-0.284657
0.113328
1.25744
-0.671506
1.2901
-0.875858
1.75939
0.866332
1.77955
-0.854495
1.56677
-0.476888
1.38792
-0.367507
-0.435563
1.4599
1.3232
-0.924784
-0.434208
-0.862163
1.23955
-0.905662
1.29039
-0.901414
-0.445424
-0.456926
1.61085
1.32277
1.49217
1.30213
1.33339
-0.616929
-0.0449387
1.46377
-1.01929
-0.530265
1.68926
-0.867703
1.19415
1.31577
1.69185
1.76899
-0.893595
-0.485958
1.36053
0.664201
0.02709
-0.815789
-1.49093
-1.5385
-0.848343
0.950091
-0.753971
1.57762
-0.849973
1.29651
1.41301
1.31467
-0.979302
-0.407008
-0.573066
1.40908
-0.564884
1.42879
-0.680888
-0.661285
1.49969
1.67238
-0.439257
0.251156
1.2804
-0.636552
-0.750892
1.05824
1.53569
1.56985
-0.899983
1.15388
1.08064
-0.435322
1.58573
0.466153
-0.855992
-0.946982
-0.116115
0.145648
1.37669
-0.562205
0.440515
0.0921484
-0.0795901
-0.57013
-0.417432
1.28663
-0.935366
1.30171
0.0343675
0.533593
1.08077
0.69014
-0.430614
-0.550692
-0.646399
-0.147013
0.175274
-0.944324
1.17419
-0.766049
-0.744039
1.28168
-0.558748
-0.837238
1.32907
-0.306005
1.2146
-0.0195533
-0.430385
0.140211
1.1735
-0.28946
-0.558557
1.26195
-0.450455
1.40353
-0.0865756
-0.60389
-0.528887
-0.43565
1.83414
-1.02084
1.48253
0.195575
1.29399
1.48597
1.11314
1.3697
1.4139
-0.0311619
-0.94853
1.30493
1.46162
1.70805
-0.521117
1.34384
0.888121
-0.51423
1.18294
1.58499
-0.516507
1.60746
0.305591
-0.688875
1.22838
-0.505902
-0.86218
1.28293
-0.390583
1.38437
1.44065
1.23754
-0.725016
1.15803
1.52164
-0.824282
-0.244734
-1.03434
-1.21495
-0.579664
-0.434304
1.71851
1.15064
-0.781022
1.3035
-0.497325
-0.572096
1.64299
1.48293
-0.978102
-0.677434
-0.434011
-0.443469
1.32297
-0.801764
0.520129
-0.85176
-0.385671
1.38747
-0.47966
1.65659
1.34745
1.24895
1.31491
1.56451
-0.653473
-0.48971
1.36585
1.5088
-0.592642
1.33514
-1.09032
-0.452132
-0.467704
1.33108
1.36266
-0.457661
-0.812882
0.957406
0.380489
-0.975305
1.27957
1.19786
-0.736873
1.24159
1.2882
-0.404953
-0.830802
-0.754576
-0.44735
-0.467473
1.67517
-0.65464
1.14724
-0.821605
1.67835
1.1525
1.09396
1.20313
-1.35756
-1.21523
-0.443108
0.724879
-0.851218
1.3113
0.727849
-0.54859
1.11474
1.39122
1.35162
1.30495
0.0100134
1.35753
-0.0748545
0.833359
1.0499
-0.52513
-0.840821
-0.962346
-0.665097
1.32746
1.35677
1.32753
-0.574456
-0.301376
-0.439561
-0.789973
1.31924
1.55288
1.3335
-0.846899
-0.597045
-0.681423
-0.489265
-0.434464
-0.435781
-0.104837
1.29346
-0.648767
-0.859129
0.0882584
0.361299
0.931803
-1.50236
-0.437005
-0.332206
1.19855
1.74832
0.241432
1.43026
1.7822
0.864737
1.48698
-0.835673
-0.156479
1.75859
-0.434965
0.736997
-0.854279
-0.467909
-0.857342
-0.860775
1.33319
1.13577
1.44611
1.40512
0.0393242
1.17863
0.177721
0.0747886
-0.433675
1.43397
0.933891
1.32961
1.34585
-0.122297
0.103794
1.34917
-0.71128
-0.440038
-0.860258
-0.869895
0.990435
-0.860821
1.29085
1.07578
-0.435544
1.605
-0.84183
-0.244425
1.30688
-0.570355
-0.549385
-0.791708
0.793987
-0.858206
-1.00675
1.14274
1.33762
-0.177704
0.487218
-0.968761
-0.433222
-0.41549
-1.04178
0.265395
1.01368
-0.623933
-0.860881
1.52491
0.416764
0.529552
-0.859752
-0.4719
1.31759
1.42873
0.715763
0.952752
-0.857939
-0.52563
-0.251647
0.630689
0.867053
-0.856893
1.10663
0.286291
-0.855658
1.71673
-0.860623
-0.627267
-0.464093
-0.795045
1.23922
-0.879092
-0.782585
-0.449036
0.457307
-0.918531
0.125361
-0.698174
-0.0268906
1.44246
-0.977546
0.286808
-0.474881
-0.0743312
1.60555
1.74971
1.48711
1.32149
1.46135
-0.708424
1.30349
-0.836738
1.42458
-0.440388
-0.383492
1.63285
-0.3703
0.887768
-1.03472
1.73834
0.0656802
1.67947
0.79217
1.00981
-0.856006
-0.845661
-0.435624
-1.01077
1.62935
1.46424
1.29719
1.02098
1.31347
1.262
1.02765
-0.851816
-0.435431
0.402892
0.306977
0.999208
1.32132
0.420612
-0.856208
-0.851139
-0.445743
-0.436639
-1.04464
1.70747
1.34065
1.31649
-0.148009
0.0684144
1.34532
-1.40105
-0.434812
-1.30082
-0.515871
0.98718
-0.855965
-0.857541
0.155004
1.29542
-0.619685
-0.462464
1.3115
1.02084
1.09058
1.30451
-0.433762
1.08916
1.53395
1.23468
-0.433666
1.31214
0.784363
0.63029
-0.611131
-0.859157
1.73747
0.673598
-0.924522
0.474635
1.13305
1.23345
-0.527879
-0.637267
-0.0714501
-0.902596
-0.380113
-0.778836
-0.00819267
1.29782
-0.857117
1.27605
1.62185
1.47107
1.26139
1.337
1.40526
1.30978
-0.695828
-0.168638
-0.348074
-0.515577
-0.301187
-0.856938
1.42025
1.29571
-0.496659
1.31332
-0.619573
-0.390166
-0.859045
-0.886938
0.93912
-0.387329
1.2923
1.12412
-1.04136
0.0740929
1.64567
-0.551074
-0.733755
-0.342615
-0.772684
-0.828303
1.36801
0.981764
1.45518
-0.581734
-1.14111
-0.416791
-0.290986
-0.500633
-0.801422
-0.807661
-0.796923
1.1346
-0.228869
1.80384
-1.12119
-0.0887179
-0.472242
-0.855983
1.28194
-0.489157
-0.588926
-0.319517
0.132263
1.44233
1.57457
-1.27093
-1.4234
1.03668
-0.457445
-0.33248
1.45677
-0.976184
-0.919553
-1.00314
0.955037
0.0406148
-0.505053
1.29802
0.139074
-0.934186
1.30204
-0.618764
-0.801972
-0.86211
-0.944927
0.374682
-0.506206
1.57793
-0.436743
0.592377
-0.441302
0.999777
-0.823501
-0.593396
0.837033
1.13812
1.37432
1.29681
1.4502
-0.874951
1.20613
0.950715
-0.788583
1.19294
-0.306587
-0.863294
-0.697072
1.53527
1.51804
-0.839955
-0.605262
-0.616748
1.24263
-0.64838
0.21306
-0.362106
-0.860472
1.54306
1.25269
-0.851284
-0.729032
-0.85648
-0.856
1.17535
-0.847548
1.21302
0.376054
0.902749
1.04836
-0.838943
-0.633842
1.17027
-0.859175
0.00785804
1.59459
-0.442933
-0.854347
1.02527
-0.826721
-0.75823
0.263754
-0.535697
1.67763
-0.13401
0.57098
-0.849969
1.67113
-0.841154
-0.714275
0.831683
-0.360012
-0.43992
1.67216
0.864686
1.39186
-0.772453
1.48144
-0.610416
-0.258603
-0.793768
-0.794001
-0.839333
1.51645
0.756821
-0.463141
-0.84585
-0.512045
1.39163
-0.658488
1.64815
-0.439571
0.939041
-0.858798
0.531374
0.716105
0.678318
0.588838
0.617682
-0.681319
1.25121
-0.801943
-0.661345
-0.358263
0.698717
1.68563
0.154784
-0.754148
-0.851633
-0.858635
0.413755
-1.10905
-0.858749
1.23912
0.615921
-0.851541
1.74543
-0.508085
-0.831568
1.68917
-0.855628
0.287
-0.644648
-0.857892
-0.860221
1.72142
-0.852225
1.61598
-0.859899
-0.655376
1.44016
0.235866
-0.692809
0.745817
-0.528528
0.139052
0.0550566
-0.858272
1.18029
-0.424774
-0.856873
-0.858087
-0.859408
-0.447279
1.21208
-0.0522845
0.0156171
-0.851422
1.6388
-0.358939
-0.745519
-0.818033
0.286337
-0.998687
-0.843295
-0.855388
0.355671
1.49785
-0.841283
-0.437288
-0.898957
-0.20466
-0.140682
-0.452542
1.72232
1.64661
0.579395
-0.647268
-0.444086
0.485482
-0.444507
1.7245
0.351855
1.45344
0.893463
1.65129
0.220811
-1.00512
-0.635328
0.0523992
-0.800419
0.0519364
0.337019
-0.859621
1.62758
0.174303
0.365047
0.0528889
-0.435042
-0.68046
)
;

boundaryField
{
    frontback
    {
        type            empty;
    }
    Top
    {
        type            zeroGradient;
    }
    outlet
    {
        type            fixedValue;
        value           uniform 0;
    }
    bottom
    {
        type            zeroGradient;
    }
    Inlet
    {
        type            zeroGradient;
    }
    rectangle
    {
        type            zeroGradient;
    }
}


// ************************************************************************* //
