/*--------------------------------*- C++ -*----------------------------------*\
| =========                 |                                                 |
| \\      /  F ield         | OpenFOAM: The Open Source CFD Toolbox           |
|  \\    /   O peration     | Version:  2306                                  |
|   \\  /    A nd           | Website:  www.openfoam.com                      |
|    \\/     M anipulation  |                                                 |
\*---------------------------------------------------------------------------*/
FoamFile
{
    version     2.0;
    format      ascii;
    arch        "LSB;label=32;scalar=64";
    class       surfaceScalarField;
    location    "24";
    object      phi;
}
// * * * * * * * * * * * * * * * * * * * * * * * * * * * * * * * * * * * * * //

dimensions      [0 3 -1 0 0 0 0];

oriented        oriented;

internalField   nonuniform List<scalar> 
3181
(
-1.01189
0.392363
0.619527
-0.374499
0.35212
0.0223789
0.502537
-0.345572
-0.156965
0.112432
-0.188109
0.0756764
-0.0701289
0.0756794
-0.00555047
0.546689
1.26606
-1.81275
0.141243
-0.13525
-0.00599368
0.0106607
0.000343554
-0.0110042
0.525207
-0.704688
0.179481
-0.0763367
0.127489
-0.0511526
-0.0106877
-0.0545721
0.0652599
0.118874
0.0459973
-0.164871
-0.00132602
-0.0089849
0.0103109
-1.09683
0.154825
0.942002
-0.313801
0.67102
-0.357219
-1.12425
0.643061
0.481192
0.0835467
-0.930533
0.846986
-0.151205
0.0506249
0.10058
-1.49763
-0.153068
0.00179554
0.0674283
-0.0692238
0.053464
-0.0961508
0.0426867
-0.0618982
0.0602798
0.00161838
1.062
-1.03946
-0.0225371
0.0241666
0.0309467
-0.0551133
-0.956737
0.331649
0.625088
-0.105043
0.217475
0.301225
-0.257282
-0.043943
0.0279702
0.0588378
-0.0868079
-0.429111
0.354277
0.074834
-0.034832
-0.0231038
0.0261191
-0.00301539
-0.0428523
-0.913885
0.071577
-0.0539817
-0.0175953
0.335229
1.41945
-1.75468
-0.0499787
0.040621
0.00935778
0.187617
0.287303
-0.474919
1.93358
-1.59835
0.0775704
-0.0241064
1.62251
-0.875153
-0.747353
-0.811651
1.35834
-0.0321302
0.0308042
-0.0506098
-0.0112884
-0.392557
0.0787566
-0.151542
0.100932
-0.651187
0.125721
0.525467
-0.137775
0.061438
-0.160692
0.164612
-0.0039204
-0.259163
-0.074523
0.333686
0.256504
1.16781
-1.42431
0.0646692
0.0541694
-0.118839
-0.0213082
-0.106043
0.112562
-0.00651935
0.49402
0.177
-0.0942324
0.153995
-0.0597627
0.0841139
-0.0125369
-0.162259
0.186888
-0.0246295
0.156063
0.0544041
-0.210467
0.102699
-0.108331
0.00563186
1.25389
0.368611
-0.834574
-0.177316
-0.0443281
-1.59552
1.63984
0.568269
0.243384
-0.811653
-0.460697
-0.216643
0.677339
-1.2144
0.402747
-0.284073
0.852342
-0.309129
-0.100738
0.409867
-0.214786
-0.214324
-0.181929
0.172345
0.00958374
0.155825
0.275693
-0.431518
-0.152236
0.677443
-0.00952983
0.0201905
-2.00845
1.96412
0.170099
0.131126
-0.166058
-0.109768
0.275825
-0.267162
0.368914
-0.101752
-0.0750371
0.0833915
-0.00835438
-1.75194
-0.91995
0.0112205
0.908729
-0.0295806
-0.0203982
-1.13746
0.831815
0.305644
0.149366
-0.19609
0.0467243
-0.985552
-0.228846
1.10185
-0.947025
-0.74477
1.14347
-0.201467
1.059
0.180786
-0.170203
-0.0105832
1.79476
-0.5287
1.33774
-1.33774
-0.00779815
-0.000663333
0.00846148
-0.19969
-0.052583
0.252273
0.109569
-0.0771405
-0.0324282
-0.455569
0.81863
-0.363061
-0.0344928
-0.215758
0.250251
-1.08146
0.0420061
0.362002
0.057789
-0.419791
0.128038
-0.887101
1.13049
0.0814482
0.0147905
-0.0962387
-0.0177859
-0.144473
0.0449382
-0.168115
0.123177
-0.0300013
0.0749395
0.125985
-1.01309
0.315111
-0.77068
0.923644
-0.840098
-0.0162049
0.140282
-0.124077
0.0920971
0.0548465
-0.146944
-1.32835
-0.0789303
1.40728
-0.229687
0.392549
-0.162862
-1.00926
0.283511
0.725751
-0.496065
-0.641394
0.11316
-0.0484905
-0.145597
0.140261
0.00533591
-0.0796591
-0.0196045
0.0992635
-0.513588
-0.1911
-0.0275192
0.00862738
0.0188918
-1.01334
-0.409223
1.42256
1.6485
-0.480687
-0.0134095
0.00561131
0.0200703
0.150029
-0.209343
0.39696
0.0483904
0.0247573
-0.0731477
0.146394
0.071952
-0.218346
0.233181
-0.193
-0.0401808
-0.593672
-0.53058
-1.28734
0.274004
-0.030011
0.111459
-0.0957445
0.17326
-0.0775157
0.0819761
0.0235149
0.117729
-0.0558495
0.0625349
-0.0066854
-0.0886803
-0.0189218
0.107602
0.070684
-0.070684
-0.176596
0.200111
0.119365
0.10256
0.0987973
0.0880907
-1.18394
1.0317
-1.5607
0.0782536
1.48245
0.00951311
-0.00941315
-9.99578e-05
-0.0281185
-0.0545601
0.0826786
0.515702
-0.0206793
-0.495023
-0.00236961
0.0024516
-8.19903e-05
-0.190402
0.0138059
0.167848
0.650782
-0.352759
0.520607
-0.161647
-1.16671
-0.0710706
0.00094171
0.466665
-0.289268
-0.177397
0.122242
-0.106932
-0.0153098
0.0464018
-0.305565
0.0226984
-0.942648
0.0476318
-0.143376
-0.271101
-0.383652
0.086554
1.43429
-0.966864
-0.467422
1.11285
0.321436
0.0641712
0.269515
0.00853417
0.000978936
-0.116477
0.142708
-0.026231
-0.247891
-0.598822
0.846713
-0.339455
0.297126
1.06982
-1.22289
0.14304
0.0290645
-0.047236
0.0181715
-1.91577
0.189398
1.72637
-0.139615
-1.77615
-0.318399
0.680401
-0.907834
-0.0148484
0.00563073
-0.279867
0.274236
1.47938
-1.61326
0.133877
-0.0831506
0.01208
0.583486
-0.831377
-0.0293926
-0.190032
0.219425
-0.304394
-0.128032
0.432427
0.172105
-1.00864
-0.0728219
-0.0168626
-0.0523612
-0.582109
0.365466
-0.258661
0.0193351
0.239326
-0.0470054
-0.0361452
0.000859992
-0.000859992
-0.127526
0.140278
-0.0127514
-0.2505
-1.3102
0.0250712
0.00256138
-0.0276325
-0.116777
0.0549686
0.0618081
-0.23175
0.0498205
1.44934
-0.314507
-1.13483
-0.175675
0.429756
-0.25408
0.00199059
-0.00213145
0.000140865
-0.887537
-0.121725
-0.195052
-0.00496522
0.200018
-0.16135
0.317175
-0.108476
0.106709
0.00176728
0.0803596
0.0149288
-0.0952884
-0.0847241
0.0811272
0.00359689
-0.245796
1.09007
-0.844274
-0.210124
-0.0486443
0.258769
-0.681228
0.661963
0.0192647
-0.00417616
0.0351229
0.0412703
-0.0426571
0.00138686
-0.00562787
-0.0494855
1.07367
0.57483
0.170414
-0.896768
0.726354
-0.0264971
1.93282
-1.90632
0.365927
0.54372
0.794015
0.0743361
0.214946
-0.0685513
-0.0758595
-0.0301832
0.223242
0.168337
-0.0762401
0.734143
-0.402494
0.0583946
0.193878
0.0586014
-0.177153
0.118552
-0.745409
-0.132361
0.877769
-0.0040275
0.0040275
-0.0701867
-0.279306
0.566609
0.0118599
-0.221984
-0.0377778
0.0884026
0.0436852
-0.0736962
0.144741
-0.155429
-0.346338
0.311846
0.0442434
0.0273072
-0.0715505
0.367694
-0.321696
0.427944
-0.231905
-0.196038
-0.197348
0.26152
0.179983
-0.469251
-0.197937
0.5903
0.157192
-0.0312752
0.0312752
-0.272998
0.219214
0.0537841
0.364516
0.0280332
-0.00776077
0.00768136
7.9414e-05
-0.104048
-0.0158293
-0.0116899
-0.0513142
0.196056
-0.190201
0.253763
-0.0635615
0.139875
0.028462
-0.38067
0.123388
0.203195
-0.06332
-0.0486836
-0.0597927
-0.0150754
0.0225084
-0.00743301
0.139913
-0.0994657
-0.0404475
-0.033295
0.413633
-0.380338
-0.0385053
0.0289755
0.111148
-0.115735
0.00458729
0.0247442
0.368002
0.0599416
-0.0599704
0.0103931
0.0495773
-0.0493451
0.0423714
0.00697369
-0.0990645
0.0966287
-0.720112
0.623484
-0.00705904
-1.38308
-0.491314
1.87439
0.303273
1.25762
-1.5609
0.0780692
-0.220565
0.0275645
0.292953
0.258871
-0.551825
-0.211833
0.270435
0.127885
-0.860367
0.732482
-0.0245122
-0.0248329
-0.0339617
0.0170991
-0.980917
0.440511
0.540406
0.966864
-0.84088
-1.62083
1.5419
-1.47938
1.55763
0.0366136
-0.0963763
0.00817062
0.0330997
0.00511513
0.76699
-0.639105
0.113747
-0.0661149
0.410412
0.733057
-0.095297
-1.67513
1.64863
-0.62975
-0.554188
-0.243199
-0.407989
-0.00770112
-0.157945
0.204347
-0.570505
-0.354561
0.178886
0.742419
-0.226717
-0.85725
-0.763581
0.753901
0.0496833
-0.0741955
0.266894
0.0351558
-0.0351558
0.669508
0.150384
-0.819892
-0.226588
0.896095
0.370032
-0.599852
0.22982
0.116521
-0.0139609
0.0060925
0.00678842
-0.0128809
-1.59552
-0.856702
0.376015
0.999218
0.450119
-0.0330839
-0.127608
-0.230522
0.724542
-0.207855
-0.0508056
-0.00266606
-0.072371
-0.0586074
0.113454
0.387898
-0.262177
-0.791397
-0.300457
-0.0953479
0.00987424
0.0854737
-0.969842
1.51356
-0.10742
0.104002
0.00341833
0.0168687
-0.00833449
-0.0475801
0.0361715
0.0114085
0.00954816
0.400319
0.0792626
0.0429792
0.019618
0.0196754
-0.0392935
-0.0171411
-0.177911
-0.74465
0.386672
0.357979
0.917918
-2.11651
1.1986
0.145398
-0.167763
0.022365
0.00481305
0.108347
0.00436541
-1.3421
-0.0406308
-0.0069493
-0.0922483
0.0437578
0.151172
-0.360515
-1.87218
0.528443
1.34374
0.039382
0.0880114
0.0519018
-0.745409
0.426169
-0.671965
0.0528535
-0.016682
0.0459079
-0.641229
-0.0399981
0.0638349
0.13936
0.202533
0.021873
-0.453391
0.116061
0.363372
-0.305583
-0.106337
0.0176566
0.22003
0.843428
-1.06346
0.106147
-0.702959
0.596812
-0.908621
0.77626
-1.54609
0.0643741
1.48172
-0.00140584
0.00134665
5.91857e-05
0.181359
-0.485754
0.22295
-0.130279
-0.0926708
0.0505972
-0.00822573
-0.0206536
-0.0746943
-0.0031675
0.0213343
-0.0269622
0.0197182
0.0905674
-0.110286
0.673305
0.0073514
-0.00735151
1.07103e-07
0.0400608
-0.0110854
0.863091
0.0506965
-0.0386165
-0.297633
-0.559068
0.104524
0.0119963
0.00709145
0.0809199
-1.48172
1.3421
0.167243
-0.0984398
-0.0688031
-0.265244
0.0950406
0.120483
-0.131066
-0.00121447
0.0846059
-0.00202606
-1.9472
0.075016
-0.0525487
0.0722669
0.741225
-0.260033
-0.115782
-0.000995058
0.35894
-0.00139115
-0.00636962
-0.00734831
0.0780323
0.141477
0.227437
0.157777
-0.346835
0.189058
0.102092
0.54869
-0.0278984
-0.109876
0.890625
-0.243813
-0.646812
-1.54609
-0.546316
1.46423
1.93358
-0.0338342
0.211469
-0.177635
0.393424
-0.078859
-0.314565
0.0909355
-1.07649
-0.0805401
0.0819011
-0.00136109
0.120276
-0.159294
0.0390176
0.463004
-0.84429
0.381286
0.0387729
0.665532
-0.704305
-0.0421652
-0.103432
-0.030285
-0.0296853
0.027674
-0.300672
-0.000950895
-0.000454942
-0.00935076
0.0581844
-0.0488336
0.0136408
-0.130118
0.00396212
0.0129065
0.034436
0.105846
-0.0377812
-0.00487589
0.204315
-0.420073
-0.121687
1.37931
0.00231297
0.00171453
-0.989732
-0.0189106
0.122054
-0.067478
-0.0388589
-0.131539
0.102146
0.478334
-0.780948
0.302614
0.0646362
0.0398882
-0.937159
-0.00986604
-0.00299262
-0.649631
0.74626
-0.0165952
0.173787
0.11033
-0.710182
0.187617
-0.427565
0.239947
-0.0266157
0.051373
0.00144668
-0.00180511
0.000358431
-0.0293073
-0.0554168
-0.0193507
-0.125122
0.732686
-0.626538
-0.055118
0.0211173
-0.0937791
0.32548
-0.167703
0.141012
1.08673
-0.455567
-0.631167
-0.127086
0.146422
-0.511655
-0.232995
-0.545255
0.584594
-0.569053
-0.015541
-0.0578668
0.00274886
-1.67513
0.564142
-0.564142
-1.85971
1.85971
0.76699
-0.0539764
0.0315498
0.0224266
-0.898569
-0.0911633
0.658847
-0.383103
-0.275744
0.148888
-0.226404
-0.0110439
-0.00236552
-0.922964
-0.0901222
-0.933351
0.213239
0.0397526
-0.0298784
0.696584
-0.0986028
-0.597981
1.56507
0.368512
-0.00257018
0.00401686
-0.959696
0.497438
-0.729343
-0.0924945
-0.62102
0.713515
-0.0189968
-0.896514
-0.716745
0.222088
-0.81576
-0.877769
1.30707
-0.429303
-0.134104
0.268512
-0.134408
-0.0363301
0.732914
-0.111548
-0.972525
0.972525
-0.770239
0.549136
0.221104
0.00224162
0.00510978
0.0457945
-0.451817
0.8946
-0.0627853
-0.0915942
-0.0324897
0.0326278
0.000760619
0.00122997
1.89784
-1.83346
-0.355359
0.435719
-0.663063
1.05504
-0.391974
-0.0065532
-0.0340776
0.131215
-0.0592626
0.334548
-3.88837e-05
-0.00894602
0.359422
0.0542108
0.0448495
-0.259817
0.214968
0.132369
0.0322434
0.103096
0.190248
1.7937
0.170416
-0.25903
0.634318
-0.375287
-1.24725
1.43665
0.270885
-0.169952
0.0740476
-0.765938
0.691891
-0.313007
0.112339
-0.458677
-0.0743433
0.12572
-0.0513763
0.117942
-0.192285
-0.467917
-0.114192
-0.0773328
0.0807569
-0.00342406
-0.00667118
-0.0311101
0.017923
-0.0304599
0.639105
-0.596812
-0.0422936
-0.279063
0.290923
0.882201
0.666017
-0.272593
-0.00530215
0.00786354
-0.271884
0.0818514
0.161113
-0.558691
0.397578
-0.00203962
0.000234511
0.418635
-0.252223
-0.166412
0.0082687
-0.0146748
0.00640607
-0.0274588
0.0194099
0.00804895
-1.33411
0.805411
-0.0742383
-1.30884
-0.209046
-0.84088
1.55763
1.5419
-0.18331
-0.164556
0.115911
-0.0680055
0.0742029
-0.00619738
-0.486781
0.870027
-0.383245
0.574706
0.0841415
-0.00103385
-0.00100577
0.12784
-0.758897
0.0324897
-0.0569321
0.00438342
-0.2841
0.0122161
-0.0490994
0.0927846
-0.222341
0.590035
1.11285
-0.192891
-0.0572381
0.000997459
0.0562407
1.93395
-0.392047
-0.0574383
-0.0508922
-1.00558
0.164701
0.376776
-0.204672
-0.487301
-0.143473
0.630774
0.845059
-0.38129
-0.46377
0.018173
0.460161
-1.64863
0.053115
-0.0125315
-0.0449877
0.0575191
0.23399
1.69883
-0.162
0.168092
0.179033
2.15849
-0.600851
-0.670015
0.0427833
0.627232
0.401095
0.0192108
-0.358797
0.511897
0.78064
0.132055
0.0719379
-0.0200361
-1.1388
0.289504
0.849293
1.23321
0.0774158
-0.0577978
-0.0543246
-0.370465
0.117282
-0.329116
0.469182
0.617552
-0.0410609
-0.0168059
0.241596
-0.275431
-0.0214121
0.0172359
0.105459
-0.140259
0.0348006
-0.285755
0.297891
-0.0121356
0.188605
-0.644172
-1.41223
0.14773
1.2645
0.0961062
-0.12492
0.0288137
0.286418
0.039062
-0.0085621
0.434731
-0.671092
0.671092
1.63984
1.56507
-0.702959
0.314444
0.466196
-0.154483
0.208268
0.960621
-0.385915
0.0109403
-0.884606
0.873666
0.118854
0.00863497
0.0250753
-0.375895
0.367333
0.0824985
-0.164533
-0.112465
0.276998
0.0937531
-0.491272
0.326739
-1.12565
-0.299952
-0.660152
-0.016224
-0.00667143
-0.00068008
-0.229552
0.0268494
0.0586242
0.0319607
-0.156938
0.124977
-0.525489
-0.24475
-0.00531148
0.0641492
-0.324479
0.136409
0.188071
-0.543428
0.36603
-0.108545
0.135853
0.224385
-0.00701704
-0.0269446
-0.876139
0.561632
0.0367352
0.0744124
-0.104995
0.0112157
0.214338
0.00861215
-0.441439
1.73073
0.483358
0.258423
0.865251
-0.791203
0.819309
-0.460369
-0.637945
0.186129
0.158386
-0.798065
0.778197
0.0198678
1.07021
-0.601028
-0.21445
-0.140909
-0.0948355
0.0176951
0.950317
-0.839394
-0.110922
-0.19604
0.119799
0.026085
0.114176
0.877495
0.0409458
-0.0110998
-0.029846
-0.314312
-0.0402491
-0.143663
-0.180816
0.0990317
1.30825
1.68511
-0.120044
0.162553
0.548387
-0.71094
0.120985
0.0532995
-0.0174841
0.0104671
-0.527391
-0.110555
0.0581807
-0.105186
-0.198479
0.147165
-0.512008
0.257928
-0.992526
-0.455232
-0.296696
-0.756774
1.51541
-0.0329622
-0.296685
-0.294689
0.0105894
0.494739
0.315525
0.0438977
1.20111
-0.738103
-0.202498
0.139178
-0.107827
-0.227512
0.335339
-0.025262
0.0127305
0.0521369
-0.0597976
-0.225958
-0.107002
0.697128
-0.426772
-0.270356
-0.131729
0.125237
-0.0905439
-0.0346932
0.246373
0.0691514
-0.0539943
-1.5069
-0.101356
0.147264
0.287868
-0.246922
-0.00794077
0.0149145
-0.0270174
0.0120541
0.0149633
-0.00218674
-0.00722642
-0.254521
0.0773676
-0.0631742
-0.53303
0.398927
0.0271126
0.0422769
0.0538293
-0.697425
1.62149
-1.00394
0.0157387
-0.203837
0.188098
-0.145137
-0.527158
0.672295
0.0630727
-0.704302
-1.07022
-0.34201
-0.0072879
-0.000546611
0.00783451
-0.236494
-0.584594
-0.160814
-0.126695
-1.1388
-0.243487
0.174936
-0.0365968
-1.17632
-0.193072
0.227589
-0.034517
0.25205
0.105392
0.467603
0.300294
-0.767897
0.010146
0.0395373
0.936905
0.272683
-1.20959
-0.215423
0.218014
1.21864
-0.253984
0.190423
-0.498835
0.71685
-0.239491
0.0713754
-0.00212845
0.00724357
-0.0185792
1.26697
-1.00854
0.758263
0.0867961
-1.63448
-0.312714
0.259761
0.700861
0.873128
0.0174975
-0.0191901
-1.68511
-0.660152
-0.712104
0.723324
-0.062718
-0.85725
0.665532
0.587549
-0.930558
0.684809
-0.000530948
-0.797534
-0.315226
0.638612
-0.761966
0.123354
0.0757916
0.0494455
-0.52681
-0.339058
1.50352
-1.16447
-0.00111317
-0.00555825
-0.27633
0.225525
0.701684
0.211343
-0.197537
-0.171904
0.596331
-1.00555
0.164849
-0.142422
0.309092
0.54057
-0.849662
-1.18768
1.47718
0.216035
-0.0796265
0.0817312
0.510235
-0.849293
-0.000693327
0.223381
-0.0209534
0.0948506
0.0272037
0.0061949
-0.0220359
0.015841
-1.029
-0.0344588
0.307371
-0.806911
-0.811111
1.6771
-0.865989
0.384734
0.670303
-0.0454393
0.048497
-0.00305768
-0.171999
0.76833
-0.719182
0.744628
0.450729
-1.26184
0.328979
-0.105598
-0.58338
-0.409145
-1.05741
1.3665
-0.0531805
-0.885137
-1.81171
-0.0946149
0.510235
0.0512424
-0.858154
0.830916
-0.646428
-0.184488
-0.981973
0.398593
0.00472274
0.107596
6.33574e-05
-0.107659
-0.971439
0.562293
-0.203669
0.912078
-0.921944
0.200979
-0.21812
-0.100252
0.251424
0.72864
0.686965
-0.112081
-1.25404
0.62287
0.801038
-0.668983
-0.552566
-0.518364
1.07093
0.447434
0.0183591
-0.0115707
-0.738764
0.704305
0.0773086
-0.249308
-0.794015
0.486586
0.307429
1.08901
0.588089
0.771971
-0.806803
-0.493435
-0.449213
-0.471776
-0.499663
0.804199
-0.804199
0.687521
-0.687521
-0.738764
-0.257741
0.257741
-0.486586
-1.11653
-0.31426
-0.47561
0.0929285
-0.0929285
0.0773086
-0.249308
0.771971
0.764797
-0.764797
0.806803
0.758633
-0.758633
0.506565
0.528224
0.481636
0.170237
-0.500337
-0.550787
1.07901
-0.67566
-1.70685
0.64944
0.190427
0.0256078
-0.260927
-0.00679802
0.0574945
-0.884812
0.0889809
0.795832
-0.0547379
0.0470368
-0.994157
0.591663
0.889203
-0.574759
-0.122212
0.00124669
-0.00180687
-0.820486
-0.0762822
-0.540406
-0.0122896
0.0293887
0.302203
-0.0799502
0.0632682
0.183505
-0.00428804
-0.0073558
0.0116438
-0.812605
0.06781
0.744795
0.433158
0.295483
-0.526236
0.426065
0.100171
0.915781
-0.745745
-0.170037
0.0848094
0.31215
-0.0143895
-0.0629434
-0.0670815
-0.0134586
0.769941
-1.73978
-0.868591
0.0942225
-0.747022
0.794269
-0.0472468
0.120036
-0.900178
0.780142
-0.803638
0.901636
-0.0979978
-0.0281983
0.0260116
0.0204914
-0.300359
0.327869
1.03863
-0.0904541
-0.794358
0.91456
-0.089403
-0.825157
0.0621708
-0.068724
0.623585
0.825327
-1.48488
0.483588
-0.399446
0.0975875
-0.891946
1.59835
0.261358
-0.795428
-0.00210575
1.01668
-0.896644
1.13073
0.860932
-0.892831
0.031899
-0.883565
-0.110592
-0.42783
0.0474923
-0.316697
0.619311
-0.783708
0.783708
-0.625524
-0.0822013
-0.863292
0.117547
-0.991738
0.899244
0.0790316
-0.209311
-0.0543298
0.0505864
0.0119486
0.185397
0.831283
0.819435
0.774398
0.135693
-0.910091
-0.662122
0.68773
-0.784556
-0.100816
0.885372
0.162997
-0.88218
-0.677895
0.885387
-0.7878
-0.102509
0.461807
-0.00686372
-0.454944
-0.170861
1.51692
-1.34606
0.449021
-0.418756
-0.0302648
-0.887065
-0.828911
0.0818885
0.544665
0.274644
-1.88746
1.0961
-0.593617
0.593617
-0.709793
-0.544245
-0.00376526
0.371098
-0.746151
0.893881
0.784571
-0.192253
1.15458
-0.34917
1.07859
-0.998525
-0.0800607
-0.284695
-1.83182
0.0990723
0.198809
-0.233575
-0.43839
0.0124019
0.317785
-0.232976
0.782568
-0.880566
0.540047
0.147683
-0.142712
0.734375
0.59481
-0.59481
-0.0366513
0.0283168
0.11835
-0.086389
1.30998
0.206935
0.0912612
-0.000820689
0.00436617
-0.00354548
-0.675903
0.692665
-0.016762
0.0649983
-0.957829
0.104497
-0.892297
-1.06453
1.32835
-0.263822
0.1217
0.873552
-1.53768
1.60268
-0.756604
0.612211
-0.652209
-0.677026
0.165371
0.120757
0.0269456
0.147248
-0.158435
0.279192
0.00119237
-0.0477276
0.0613354
0.732934
0.688383
-0.0761722
0.0701071
0.792984
-0.454004
-0.0878015
0.541805
-0.402516
0.502201
0.386175
-0.917759
0.703621
0.214138
-0.685094
-0.130666
0.999865
-0.139819
-0.160853
-0.0330792
0.485917
0.514083
-0.771919
-0.108647
-0.241809
-0.611588
-0.324205
-0.278968
0.40127
0.59873
-0.0605788
0.0494935
-0.861322
-0.0558
-0.596409
-0.149484
-0.236448
0.385932
-0.00190492
-0.00012114
0.119705
0.0763502
-0.128535
-0.125985
0.76296
-0.649122
0.719229
0.599674
-0.758109
-0.14567
0.574471
-0.428801
-0.743774
-0.185
0.928774
-0.230432
0.219196
-0.0253178
-0.0477214
0.0115762
0.000323154
0.731018
-0.137401
0.109897
0.114488
-0.734827
0.058924
1.09234
0.231464
-0.549058
0.35302
0.137523
-0.281147
1.0142
-0.002444
0.167073
0.0119602
-0.00115252
-0.0557706
-0.0344428
0.00919808
1.08314
0.215847
-0.594719
0.378872
0.844849
-0.0251988
0.00414854
0.0210503
0.135444
-0.00100759
5.6695e-05
0.207262
-0.101804
0.0683118
-0.814463
0.692878
-0.477031
0.00538047
0.268231
-0.020248
-1.07096
1.3161
-0.245137
-0.777851
0.828131
-0.0502791
0.254488
-0.0682113
-0.171279
-0.0827423
1.31918
-0.467391
-0.058845
0.27043
0.438972
0.180232
-0.619205
0.385363
0.0302202
0.662445
-0.571671
0.575133
-0.00346242
1.41209
-0.917347
-0.0444617
0.0544532
-0.00999152
0.702137
-0.0095232
-0.0826017
0.0183108
1.24408
0.993366
-0.738878
0.0840757
-0.103314
-0.0216058
0.0335069
0.06263
-0.096137
0.00988379
-0.00368889
0.74261
-0.469927
0.0687702
0.209672
-0.024348
-0.0770704
0.236518
0.0921027
0.00553349
0.0512488
0.763472
0.683185
-0.65695
-0.0262343
-0.782814
0.420295
0.362519
0.643131
0.115275
-0.0485481
0.000162332
0.0483857
-0.367331
0.253754
-1.25228
-0.0118524
0.765753
0.727546
0.403543
0.305467
-0.832277
0.806128
0.136139
0.004873
-0.905208
0.123769
-0.272061
-0.243591
-0.167103
0.698573
0.0648989
0.0144101
0.316544
-0.384756
-0.180856
0.166876
0.0129982
-0.109149
0.4213
-0.0591187
0.149092
-0.0643611
0.127912
-0.291103
-0.491711
-0.144697
0.0189108
-0.0273253
-0.108462
0.000928174
0.000109832
-0.00103801
-1.51063
0.593287
-0.00189383
0.914557
-0.224378
-0.623552
0.656677
-0.0331254
0.300054
0.757497
0.049704
-0.478505
0.0828511
-0.183103
0.640048
0.117449
0.769059
0.744503
-0.278576
0.762163
0.289804
0.793337
-0.58568
0.351948
0.233733
-0.427327
-0.0710625
0.0395353
0.0709629
-0.0504751
1.22093
0.736108
0.0700207
0.635405
0.211309
-0.879757
-0.0826987
-0.681853
0.679747
-0.028594
-0.559267
0.409783
0.859461
0.670268
0.0544518
-0.0371164
-0.137263
-0.321414
0.823669
0.797819
0.799167
0.0305745
0.98286
-0.189523
0.533093
0.889466
-0.0829022
0.504355
-0.7284
0.920643
-0.192244
-0.41404
-0.17164
-0.0597715
-0.166847
-0.149971
0.836214
0.0257806
-0.00610515
0.626115
0.181651
0.171368
0.614468
-0.130847
0.220992
0.776859
0.259114
-1.03597
0.276694
-0.923122
0.351658
-1.35559
-0.166163
0.753099
-0.586935
-0.677557
-0.0756524
0.027931
-0.0566717
-1.39394
0.00758587
-0.0346033
0.557666
-0.0216251
-0.136869
0.158494
-0.00894344
-0.570505
0.137407
0.0296661
-1.63075
-0.00807215
0.00378411
0.0602891
-0.0553893
-0.603189
0.0315183
0.567626
0.291836
1.14167
0.732724
-0.229684
-0.390038
0.619722
0.190279
-0.619711
0.619711
-0.229091
-0.959975
1.18907
0.0318717
-0.158958
0.671017
-0.103391
-0.216689
-0.279171
0.118319
0.579621
0.78889
-0.107052
0.188752
-0.102198
-0.355252
0.482299
0.0928343
0.073672
0.00389847
-1.95186
-0.0275922
-0.0213074
0.693429
0.306571
-0.0275922
0.693429
0.200819
-0.0500264
0.200819
-0.696556
0.696556
0.303444
-0.0134316
0.163343
-0.0790486
0.240425
0.0943858
-0.493026
0.637395
-0.0229262
0.643724
-0.504853
-0.138871
-0.0472817
0.043233
0.00404866
-0.0114622
0.0106415
-0.596661
0.0176081
-0.0177793
-0.434694
-0.370042
0.140489
0.0373764
0.818782
-0.270395
-0.422281
0.432871
-0.0091294
-0.0762884
-0.00192411
0.692372
0.0733815
0.250221
-0.0385286
-0.000764884
-0.00708103
0.0835716
0.549624
-0.478688
-0.0709362
2.21727
0.561222
0.0840957
0.929399
0.0120763
-0.0666363
0.113085
0.276558
0.0744839
1.17569
-0.398836
8.87171e-05
-0.0163127
0.637625
-0.159496
0.0188798
-0.0188798
0.0232381
-0.0232381
-0.0175008
0.0175008
0.00231297
0.366908
0.464019
-0.0716791
-0.68939
0.462673
0.179617
0.027645
-0.0859072
-0.482269
0.622882
0.113359
-0.798453
-0.973001
0.262819
0.0655405
0.0216814
-0.00227158
-0.00108546
0.00108546
0.0786376
-0.000538852
0.000538852
0.700617
0.106151
-0.0288747
-0.00965385
0.0061658
-0.0634039
-0.0206003
0.0206003
-0.0151334
0.0151334
-0.0240971
0.0240971
3.6327e-05
-3.6327e-05
0.0689588
-0.30089
-0.0767891
0.2182
0.000391467
-0.000391467
-0.377984
0.497429
-0.119445
0.479774
-0.211262
-0.49557
0.0732887
0.55776
-0.145091
0.0856538
0.571024
0.565294
0.00085154
-0.00085154
0.0789414
0.0270624
-0.0270624
0.000648406
-0.000648406
0.778025
-1.26368
0.0376283
-0.43148
0.179257
-0.000582604
0.000582604
0.0168136
-0.0168136
0.0195762
-0.0195762
0.0210572
-0.0210572
-0.0252769
0.0252769
0.0374155
-0.0374155
0.498915
-0.0339863
0.0339863
0.000525907
-0.000525907
0.0257736
-0.0257736
-0.0108932
0.0108932
-0.000769548
0.000769548
-0.0130224
-0.0284235
0.0284235
0.398171
0.013542
-0.0420028
0.0420028
0.00950636
-0.00950636
0.0173489
-0.0173489
0.0357536
-0.0357536
0.0239498
-0.0239498
-0.000692437
0.000692437
-0.00673303
0.00673303
-0.274415
-0.20023
-0.0143823
0.0143823
0.000466721
-0.000466721
-0.0405557
0.0405557
-0.0261914
0.0261914
0.00377191
-0.00377191
-0.430043
0.689803
0.246849
-0.0340363
0.0340363
-0.00259824
-0.0166644
0.0166644
0.000372541
-0.000372541
0.0349301
-0.0349301
-0.190154
0.195027
0.00833808
-0.00833808
-0.0204782
0.0204782
-0.478787
0.0414873
0.511959
-0.0292982
0.0292982
-0.433948
0.0308838
0.0176132
0.0476058
-1.68209
-0.0390146
0.0390146
-0.211753
0.152634
-0.0384406
0.000231677
-0.000231677
-0.0142383
0.056925
0.266963
-0.321761
-0.262755
0.584516
0.176014
-0.00975478
0.00975478
-0.0943538
0.347903
-0.25355
0.748836
-0.377462
-0.371374
-0.48102
-0.658379
0.210903
0.221967
-0.123741
-0.278775
-0.574809
-0.0106398
0.190144
-1.17726
0.0188547
-0.0188547
7.48595e-06
-7.48595e-06
0.0327757
-0.0327757
0.0245455
-0.0245455
-0.00224372
0.00224372
-0.000227023
0.000227023
-0.121371
-0.0747197
0.160569
-0.282781
0.00274561
-0.00274561
-0.0421536
0.0421536
-0.0427931
0.0427931
0.131964
-0.0516235
-0.0803407
0.0166461
0.298487
-0.522865
-0.00326423
0.00326423
-0.01594
0.01594
-0.106002
0.266773
-0.0558695
-0.000585453
0.000585453
0.0530904
0.0148308
0.916207
-0.489085
-0.093638
0.582723
-0.617558
0.266632
-0.583329
-0.0361599
0.0361599
-0.67348
0.26591
0.0525256
-0.0525256
-0.675739
0.399995
0.251276
0.115626
-0.00196889
0.00196889
-0.870485
-0.00128881
0.00128881
0.324958
0.407956
0.0699565
-0.0567551
0.0567551
-0.00105683
0.00105683
-0.0449362
0.0449362
-0.0504567
0.0504567
-0.00128892
0.00128892
-0.0557926
0.0557926
-0.00140697
0.00140697
-0.0484229
0.0484229
-0.0134028
-0.042361
0.042361
0.00305747
-0.00305747
0.0510868
-0.0510868
-0.00189908
0.00189908
0.0445816
-0.0445816
-0.0691684
-0.00352649
0.00352649
-0.00517851
0.00517851
-0.03871
0.0780323
-0.0115846
0.0115846
0.00529866
-0.00529866
-0.0629153
0.0629153
0.308379
-0.0196335
0.0196335
-0.0536843
0.0536843
-0.00750658
0.00750658
-0.0711949
0.0711949
-0.0128176
0.0128176
-0.0851128
0.0851128
-0.0230542
0.0230542
-0.0884849
0.0884849
-0.70322
0.303819
-0.543643
0.510517
-0.896514
-0.00904845
-0.541744
0.374641
-0.0717428
-0.0599866
0.00381217
-0.00381217
0.0960497
-0.699223
0.0493574
-0.045459
-1.40054
1.76906
1.36679
0.243326
-0.00719918
-0.000627468
-0.377898
-0.595087
-0.0369719
0.393485
-1.22944
-0.0264293
0.0264293
-0.728388
0.0161028
-0.0161028
-0.00545621
0.00545621
0.332121
-0.392631
-0.00239414
0.00239414
0.017784
0.0134912
0.598294
0.189694
-0.00731362
-0.0120975
-0.00709261
-0.108212
0.511506
-0.403294
0.14826
-0.049188
0.00218982
1.05228
0.0120295
0.0412794
-0.410975
0.458467
-0.504613
-0.9633
-0.203408
-0.0777141
0.0191067
-0.0910697
-0.327686
0.0103419
-0.00757465
-0.0107599
0.800927
-0.534816
-0.046195
0.0591931
-0.0396958
0.0869718
0.0763709
0.414727
0.247236
-0.160341
0.201996
0.0203754
-0.00544653
-1.22721
0.0255785
0.0488419
-0.185711
-0.0175426
-1.40302
-0.0725745
0.271335
-0.354891
0.409102
0.177168
-0.933942
0.0413515
-0.0380006
-0.0307234
-0.356076
0.456247
-0.027388
-0.0183794
0.0457675
-0.0291976
0.0291976
0.180681
-0.453275
-0.00847628
0.0634449
-0.0877755
0.0591815
-0.0592213
-0.00421738
0.0634387
-0.031314
-0.159536
0.02865
-0.097132
-0.282848
-0.341186
0.624034
0.0173966
0.0645045
0.148919
-0.039022
-0.0458637
0.0748053
-0.165739
0.324125
-0.00631434
0.0273646
-0.0170414
0.16596
0.00315259
0.271084
0.00465395
-0.00465395
-0.413079
0.946172
0.0981482
-0.180847
-0.0204602
0.00146341
1.14271
0.459973
0.01542
-0.0162799
-0.536267
-0.0073762
-0.00319668
0.103576
-0.708374
0.322458
-0.0546484
0.365066
-0.647914
0.209781
0.49384
-0.095039
0.095039
6.33581e-05
-1.34152
0.41898
0.922537
-0.223159
0.166488
0.23465
-0.256834
-0.387338
-0.0804973
-0.0449866
0.0531572
0.929201
0.16299
-0.108538
-0.0705254
-0.701421
-0.560419
-0.0403251
-0.256355
0.768252
0.557874
-0.259387
-0.262515
0.530746
-0.0972311
0.308701
-0.264937
0.0446573
-0.455943
0.336498
0.11613
-0.11613
0.0653886
-0.0446371
-0.0207515
0.00122751
-0.000402464
0.0120541
-0.185945
-0.181386
0.214938
-0.185151
-0.029787
0.527962
-1.11558
0.191104
-0.750173
0.685321
-0.108093
-0.174689
-0.027048
-0.0799541
-0.498945
0.0642506
-0.300231
0.000575179
-0.0175426
0.396816
-0.00518537
-0.000151862
0.000355139
0.0163268
-0.0104359
-0.00589091
-0.0983853
-0.0184487
-0.175237
0.193686
-0.112152
-0.343791
0.017784
0.349728
0.000836426
-0.389818
0.0931217
0.00296529
0.0434111
-0.11509
-0.0132563
0.0132563
-0.00159844
0.00168023
-0.00873874
0.000256938
-0.0388396
0.000456949
-0.00117979
0.166697
-0.064551
-0.00123921
0.00123921
0.0375763
0.500696
0.000751158
-0.279607
0.546068
1.18844
-0.468229
0.319578
-0.440363
-0.10687
0.0983942
0.212736
-0.216555
-0.000520067
5.97846e-05
0.00026337
0.00198318
-0.175713
-0.365067
0.82774
0.342865
-0.464236
0.144892
-0.00166187
0.0906635
0.0310366
-0.000149273
-0.000104267
0.00016405
0.0043222
0.00144706
-0.00057899
0.738332
-0.663527
-0.249328
0.252546
0.816728
-9.41791e-05
0.00160505
-0.0384406
-0.00534842
0.817527
-0.432098
0.524932
-0.632895
0.905301
-0.328994
0.556231
-0.18159
0.71757
0.00113844
0.00342064
0.0182608
-0.121154
0.137997
-0.191585
0.00847101
0.00179617
0.0703789
-0.0575043
-0.0128746
0.0014167
0.0148165
0.0178356
-0.0326522
-0.0962092
0.00418379
0.000182384
0.00181826
0.495655
-0.439474
-0.0014089
0.000507679
1.208
-0.789019
0.371364
-0.00623887
-0.000224192
0.0918579
-0.0230877
-0.0488415
-0.09745
-0.011466
-0.00377845
0.134319
0.047798
-0.002777
0.39589
0.00127682
0.000588171
-0.000588171
-0.00120797
-0.0108895
0.000501896
-0.322079
-0.00392075
0.0764397
-0.107643
0.10789
0.230148
-0.0652038
0.00051862
0.00165202
0.44832
0.000274829
-0.00277956
-0.0569919
-0.00214311
0.000882037
0.0156812
0.07558
-0.709883
0.459195
-0.824262
-0.0609134
-0.000471377
0.366842
0.0132623
-0.000860364
0.571385
-0.0142968
0.053757
-0.00422947
-0.00143888
-0.556031
-0.00348668
-0.000118048
-0.00597167
0.88954
-0.504177
-0.0026639
-0.000492108
-0.00616021
-0.00162741
0.0734283
-0.0208799
0.0208799
-0.0383107
0.0399909
-0.00220791
-0.00827958
0.0366329
-0.0367847
-0.174542
0.103479
-0.00531098
-0.0139179
0.0365476
-0.0185327
0.0668641
-0.0477574
-0.624318
0.577071
0.0342381
-0.00148649