/*--------------------------------*- C++ -*----------------------------------*\
| =========                 |                                                 |
| \\      /  F ield         | OpenFOAM: The Open Source CFD Toolbox           |
|  \\    /   O peration     | Version:  2306                                  |
|   \\  /    A nd           | Website:  www.openfoam.com                      |
|    \\/     M anipulation  |                                                 |
\*---------------------------------------------------------------------------*/
FoamFile
{
    version     2.0;
    format      ascii;
    arch        "LSB;label=32;scalar=64";
    class       volVectorField;
    location    "24";
    object      U;
}
// * * * * * * * * * * * * * * * * * * * * * * * * * * * * * * * * * * * * * //

dimensions      [0 1 -1 0 0 0 0];

internalField   nonuniform List<vector> 
2186
(
(1.2928 -0.0700869 2.67916e-19)
(1.56118 -0.911182 1.83572e-20)
(1.41297 -0.888463 1.03015e-20)
(0.712238 -0.551635 -1.71327e-19)
(-0.377552 0.308797 -1.66349e-19)
(1.64583 -0.561265 0)
(0.695736 -0.642375 0)
(-0.0521088 -0.0637193 5.8805e-20)
(1.35211 -0.222677 6.29402e-20)
(0.529104 -0.269375 -2.03976e-21)
(0.711966 0.64396 0)
(0.782072 -0.26639 -6.33523e-20)
(-0.0633501 -0.0927261 -2.42381e-20)
(1.20167 0.0267977 -4.18653e-19)
(1.74148 -0.670242 6.5672e-21)
(1.01605 -0.000757093 1.95067e-19)
(0.979655 0.0132608 0)
(-0.509154 -0.149 0)
(1.63863 -0.444399 0)
(-0.0850267 0.303757 -7.025e-20)
(0.492697 0.151287 -1.22878e-19)
(-0.15564 0.222263 9.56107e-20)
(1.19021 0.0296687 3.44676e-19)
(-0.190199 -0.0255026 4.66287e-21)
(1.02906 0.012223 -2.71395e-19)
(0.762806 -0.52892 0)
(0.759486 0.00309577 1.60857e-19)
(0.587215 -0.566909 -2.04809e-19)
(1.2556 0.744907 0)
(0.960955 0.0249573 -3.70114e-19)
(-0.0389215 0.11335 0)
(1.022 -0.00595638 1.28289e-20)
(-0.0681604 0.243637 0)
(2.66016 -0.0808233 2.11988e-19)
(-0.155516 -0.117428 1.51367e-21)
(1.59509 0.805513 7.89454e-20)
(2.10905 0.0889715 1.33319e-19)
(0.523403 0.198619 -3.65406e-19)
(2.03996 0.191683 -3.22478e-19)
(1.30738 -0.40609 -1.48984e-20)
(-0.0969891 -0.143379 0)
(-0.0989789 0.202223 0)
(1.81069 -0.85309 4.15892e-20)
(-0.431918 0.241595 0)
(1.13793 0.299747 1.66039e-19)
(0.576858 -0.252239 3.14246e-19)
(0.887002 -0.756288 0)
(1.15036 -0.764199 1.5105e-19)
(2.30506 -0.0644822 0)
(-0.258791 0.279358 1.795e-19)
(-0.0308215 0.17516 1.03846e-19)
(0.661497 0.61061 8.48788e-20)
(2.0005 -0.742428 2.49973e-20)
(0.615565 0.320692 -2.93119e-19)
(-0.276291 0.0241976 3.74314e-20)
(0.735595 -0.623997 0)
(1.60044 -0.931745 1.691e-20)
(0.55767 -0.518594 0)
(2.33932 0.181991 9.4967e-20)
(1.11644 -0.157946 -4.33132e-19)
(1.8903 -0.0754353 1.39248e-19)
(1.39436 0.320569 -1.93138e-19)
(1.38559 0.56164 0)
(1.10325 -0.373652 1.63159e-20)
(1.3998 0.405229 -1.17437e-19)
(1.2144 -0.70704 -2.19906e-19)
(1.21278 0.691982 5.61402e-20)
(0.683071 0.109439 -6.03761e-19)
(0.82403 0.0869729 0)
(1.89104 -0.234405 -2.20317e-20)
(-0.0846613 -0.0937043 -6.62869e-20)
(2.26119 -0.00543863 -1.41266e-19)
(0.722502 -0.000658619 -2.67874e-19)
(0.848249 -0.490933 0)
(0.840521 0.211656 -9.81292e-20)
(0.522912 -0.482009 -3.41219e-19)
(2.24558 -0.0395155 0)
(1.00651 0.0105667 4.03239e-19)
(-0.152803 -0.143668 0)
(2.10747 0.362782 0)
(0.462397 -0.153769 8.02494e-20)
(1.08658 -0.355621 2.5811e-20)
(1.02391 0.0091236 4.51007e-20)
(1.36388 0.433626 2.95695e-20)
(0.965139 0.0254222 4.73681e-19)
(1.03472 0.0325494 -1.12077e-20)
(0.680982 0.218347 -3.57032e-19)
(1.554 -0.452495 3.4487e-21)
(1.35992 -0.253351 0)
(-0.0676204 -0.0441356 4.60852e-20)
(0.83309 -0.59583 -1.96802e-19)
(-0.110479 0.389046 -1.15076e-21)
(1.09848 -0.0640912 2.85403e-19)
(0.803389 -0.153456 0)
(0.970596 0.0238846 4.50579e-20)
(1.41438 0.671421 0)
(1.57169 -0.92482 0)
(1.34254 0.235292 0)
(-0.345699 0.301118 0)
(0.762456 -0.63682 3.43769e-19)
(-0.431723 0.194409 -2.31534e-19)
(0.149326 0.0649676 1.29972e-19)
(1.60884 0.196407 0)
(1.13493 -0.0922572 -2.6091e-19)
(1.12208 0.0244023 1.99584e-19)
(0.00543604 0.360769 1.33312e-19)
(0.672225 0.545201 0)
(2.12744 -0.20754 -4.42653e-20)
(0.93919 -0.45227 9.62842e-20)
(-1.09954 -0.138807 2.0138e-19)
(1.84112 0.304352 1.2745e-19)
(-0.234307 0.376652 -2.70235e-19)
(0.787054 -0.715034 0)
(0.596241 0.394602 1.76048e-19)
(1.53874 -0.218965 -1.84513e-19)
(-0.0956677 -0.112033 -2.6869e-19)
(1.25549 0.542183 2.03395e-20)
(1.72606 0.0107279 0)
(-0.0893627 -0.052136 -1.37971e-19)
(0.702163 -0.0353099 8.52146e-20)
(1.61944 0.915073 0)
(-0.186953 0.13628 -2.47886e-19)
(0.925228 0.797115 -2.86339e-19)
(-0.492347 -0.220618 2.58916e-19)
(1.03191 -0.0214853 0)
(1.57282 0.600407 -2.5634e-20)
(-0.339399 0.361818 0)
(0.671948 -0.464042 -1.22789e-19)
(-0.500575 -0.202501 -1.46615e-19)
(0.760814 -0.693572 0)
(0.408966 -0.224794 4.55279e-19)
(0.513414 -0.4228 3.15702e-19)
(0.395617 -0.357869 0)
(0.951256 -0.755581 -1.68074e-19)
(0.0396923 -0.019724 0)
(-0.154554 0.232835 -1.40643e-19)
(0.782117 -0.669874 1.67839e-19)
(2.28182 -0.27194 9.98033e-20)
(2.24493 0.146675 0)
(-0.0422807 -0.0429277 0)
(0.717898 0.66739 -3.56288e-19)
(1.72358 -0.610152 -3.28041e-20)
(-0.00810277 -0.0134967 0)
(0.952615 -0.779331 -1.78103e-20)
(1.12973 -0.0904925 0)
(1.07129 -0.111196 4.52109e-19)
(2.0269 -0.188823 -2.81335e-20)
(-0.378775 0.279942 0)
(1.18961 -0.534523 -7.14929e-20)
(-0.20278 0.324081 -4.67084e-20)
(-0.259318 0.450916 0)
(1.0623 -0.787275 1.13646e-20)
(1.00623 0.00558272 -6.73544e-19)
(0.624231 -0.447164 -1.1975e-20)
(0.790959 -0.48689 0)
(1.16576 -0.706095 -1.25823e-19)
(0.677824 0.278367 2.7487e-19)
(1.25835 0.13757 0)
(1.54344 0.0677684 -2.61833e-19)
(1.16321 -0.828725 -3.02729e-19)
(-0.0441731 -0.0442013 -5.10087e-20)
(-0.079525 -0.426436 -7.92237e-20)
(1.07982 0.0139367 2.50592e-19)
(0.892289 -0.438177 -1.21089e-19)
(1.6059 -0.492735 -3.19258e-21)
(1.29022 -0.307431 -4.66859e-20)
(0.692249 -0.111251 5.69394e-20)
(-0.173017 -0.0428239 -1.252e-19)
(1.82286 -0.223609 0)
(2.28398 -0.327031 6.70928e-20)
(1.49378 0.676374 1.44074e-19)
(0.781662 -0.586847 -2.50715e-19)
(0.995593 0.00921947 1.38002e-20)
(0.693245 -0.502001 3.3764e-19)
(1.35168 0.831651 1.31222e-19)
(1.88457 0.0382235 1.58973e-20)
(-0.379249 0.192785 0)
(1.09334 0.0609839 -2.59165e-19)
(-0.324771 -0.383222 -1.37216e-19)
(1.10676 0.514569 8.40109e-20)
(0.0736538 -0.107787 7.56639e-20)
(1.15967 0.0298754 -4.79553e-20)
(-0.19058 0.220265 -1.69665e-19)
(1.34081 0.608303 -8.08138e-20)
(1.18167 0.921766 0)
(-0.376735 0.123935 -7.74412e-20)
(-0.0198158 0.0202169 0)
(0.687894 0.595214 -2.89079e-19)
(2.09663 0.132918 -2.09086e-20)
(-0.0796486 -0.135929 8.46012e-20)
(-0.410695 -0.181962 -4.20478e-19)
(0.730603 0.113836 2.6526e-19)
(2.02161 -0.0466794 -3.22808e-20)
(0.958616 -0.325648 -3.49909e-20)
(-0.0102526 -0.00834642 0)
(-1.19873 -0.31146 3.7606e-19)
(1.38114 1.00979 -1.77929e-20)
(0.848069 0.106104 -1.45598e-19)
(0.584607 0.54931 2.01345e-19)
(0.476905 0.202693 0)
(-0.142766 -0.251476 -9.70207e-20)
(-1.06899 -0.357315 3.07248e-19)
(1.25506 -0.927876 8.84696e-22)
(0.984465 -0.0169206 -2.10686e-19)
(-0.155504 -0.136117 6.14333e-21)
(-0.224155 0.263225 1.43884e-19)
(-0.273278 -0.145331 -9.28374e-20)
(1.85434 -0.0952254 0)
(1.14559 0.0494326 -3.47643e-19)
(2.26194 0.0262272 1.78628e-19)
(1.23941 -0.598582 1.40118e-19)
(0.88237 -0.117084 -8.2952e-21)
(0.619648 0.375093 0)
(0.981719 0.783243 -1.6943e-20)
(0.716055 0.659916 1.91413e-19)
(0.870439 -0.537305 1.77227e-19)
(0.718877 0.538033 0)
(1.02071 0.00656403 9.02883e-21)
(0.854084 -0.637319 2.53292e-19)
(0.867124 0.454691 -4.79262e-19)
(1.19496 -0.0996802 0)
(-0.01838 -0.016676 -1.95058e-19)
(0.0134406 0.311768 -1.04741e-19)
(1.64292 0.747486 0)
(1.30724 -0.91045 -7.57025e-22)
(-0.423662 -0.074576 0)
(-0.365998 0.40715 1.07225e-19)
(0.77068 0.685904 -1.01913e-19)
(0.837795 -0.191178 0)
(-0.18833 -0.0419987 0)
(1.53655 -0.44673 0)
(-0.428407 -0.0626633 4.08596e-19)
(1.17418 -0.856874 1.97817e-19)
(1.14437 -0.581564 7.94105e-20)
(1.032 -0.165383 -2.00548e-19)
(0.84872 -0.66701 -2.01636e-19)
(0.177097 -0.180436 0)
(-0.57195 -0.217363 0)
(0.974456 -0.488835 2.13241e-19)
(-0.0388882 -0.0414538 0)
(-0.319843 0.227907 0)
(-0.114794 -0.109668 2.31777e-19)
(0.827318 0.703413 8.84456e-20)
(1.05154 0.827087 0)
(0.730622 0.589245 -8.83609e-20)
(0.827805 -0.012881 -2.43388e-19)
(0.779341 0.596442 -2.36751e-19)
(0.621489 0.579739 -1.73273e-19)
(-0.105819 -0.116862 3.98092e-22)
(0.693327 -0.621384 0)
(0.913722 0.201183 -3.4426e-19)
(-0.119798 -0.145989 2.95049e-20)
(0.633252 0.587905 3.90286e-19)
(0.995573 0.831283 0)
(-0.657354 0.182437 2.90632e-19)
(-0.145105 -0.167853 1.48255e-19)
(-0.121967 -0.0522234 -7.12763e-20)
(0.69826 0.60522 -1.53243e-20)
(0.968787 -0.00699592 6.50557e-20)
(-0.105997 -0.175856 0)
(2.26611 -0.201564 -1.40372e-19)
(1.80148 -0.223394 -2.49354e-19)
(0.626144 -0.578451 -8.96355e-20)
(-0.466085 -0.174925 8.73344e-21)
(1.23054 0.481654 1.89752e-19)
(0.914105 0.443153 0)
(1.02605 -0.156257 2.24026e-19)
(-0.0785133 -0.174001 -3.6377e-21)
(-0.117725 0.180161 3.92929e-19)
(0.912648 0.0204511 -5.89118e-20)
(1.15324 0.162483 0)
(1.89275 -0.0815594 -7.87686e-20)
(1.92558 0.051555 0)
(0.565082 0.303397 -4.81111e-19)
(-0.242107 0.305768 0)
(-0.0742795 -0.0804799 1.29487e-19)
(0.673725 0.102301 0)
(0.59262 -0.481755 -2.06451e-19)
(1.13384 0.019764 2.33208e-19)
(-0.387742 0.224731 3.66794e-20)
(2.01799 -0.0655905 3.24995e-21)
(1.98083 -0.261586 -4.26207e-20)
(1.14074 0.24634 -2.33321e-19)
(-0.124125 -0.16881 -5.83383e-20)
(1.04153 -0.823603 0)
(0.807438 0.0170918 -1.69573e-19)
(0.905099 -0.35179 -3.30416e-19)
(1.67876 -0.56263 5.21738e-21)
(1.68106 0.0260788 2.4286e-20)
(1.09448 -0.00147585 4.16785e-19)
(-0.0734617 -0.176012 -6.50258e-20)
(0.971928 -0.415094 -1.49275e-19)
(0.185875 -0.17853 2.90235e-19)
(1.00857 -0.00621688 0)
(1.00492 -0.00484079 0)
(0.232484 0.0751242 8.08489e-20)
(-0.0994404 0.320137 -1.0053e-19)
(0.17956 -0.115396 -7.22878e-20)
(1.88941 0.0498046 1.48199e-21)
(0.926236 0.105468 0)
(1.81287 -0.0169581 -1.15944e-19)
(0.909842 -0.791191 -1.20056e-19)
(1.7347 -0.548811 -1.8877e-20)
(1.14596 0.869849 0)
(0.448568 -0.428612 0)
(0.639047 0.554681 -1.83457e-19)
(1.12527 0.297254 -4.27062e-19)
(2.18852 -0.282252 9.61156e-23)
(0.875815 0.184729 1.4818e-19)
(-0.0860999 -0.280951 -1.83655e-19)
(1.4411 -0.397491 2.10079e-20)
(-0.131811 -0.356553 0)
(-0.0731862 -0.0664649 0)
(-0.132818 -0.210682 0)
(1.30132 -0.701801 -1.40863e-19)
(-0.251973 0.465988 -2.21937e-19)
(-0.149346 0.259139 0)
(1.33816 1.01168 -3.38698e-20)
(1.13818 0.163794 -4.4922e-19)
(2.54243 0.512573 -9.52147e-20)
(1.12266 0.958983 8.46953e-20)
(-0.192919 0.429304 1.39394e-19)
(1.14661 -0.112465 0)
(-0.138639 -0.206713 -1.85385e-19)
(-0.281812 0.436868 2.60312e-19)
(0.780884 0.0632059 1.9802e-19)
(1.59015 0.97935 8.76187e-22)
(1.98572 0.876589 -2.61262e-20)
(-0.135558 0.379636 -5.67472e-22)
(0.71743 -0.654366 -4.57395e-20)
(1.16005 -0.0387054 0)
(1.7159 -0.0176123 0)
(0.987143 0.0476033 0)
(-1.08609 -0.128786 -3.60954e-19)
(-0.148607 -0.260016 6.08987e-20)
(1.08676 0.87768 0)
(0.994732 0.0102263 5.65304e-19)
(0.802275 0.639075 -2.36577e-19)
(-1.43738 -0.229572 -2.12425e-19)
(0.866224 0.0435772 -4.47141e-20)
(0.688656 -0.626516 -2.62159e-19)
(1.4329 0.735746 -3.26937e-20)
(0.534375 -0.413352 -3.25875e-19)
(1.13499 0.00261625 -5.04097e-19)
(0.79491 0.0473456 5.0839e-20)
(1.4913 -0.180485 1.07715e-19)
(1.62511 -0.074042 -6.60611e-20)
(-0.00636702 -0.00543229 2.37772e-22)
(1.11198 0.495639 -2.80797e-19)
(1.3927 0.647333 8.17408e-20)
(-0.172896 -0.115485 0)
(-0.0661859 -0.340311 6.92598e-20)
(-0.0402889 -0.0282098 8.29829e-20)
(-0.184316 -0.0928101 -6.42658e-20)
(0.51003 0.369798 0)
(1.13351 -0.363382 0)
(-0.035454 0.042721 -1.4296e-19)
(-0.143969 -0.170997 -3.06326e-20)
(1.05227 -0.0270251 1.99866e-19)
(-0.346255 0.248818 -3.81582e-20)
(1.13735 0.200574 -2.93199e-19)
(-0.0049868 0.335133 0)
(0.803818 -0.711823 -3.73533e-19)
(1.41583 -0.0924558 9.01181e-20)
(-0.174189 -0.446551 8.53243e-20)
(0.734378 0.197977 3.47935e-19)
(0.635303 0.186756 1.12154e-19)
(0.477479 -0.449953 2.30354e-19)
(-0.0120132 -0.0255273 -7.12681e-20)
(1.69648 0.809832 0)
(0.426341 0.396237 -2.01302e-19)
(1.0293 -0.0115976 -3.18364e-19)
(-0.44146 -0.192729 1.66064e-19)
(1.46843 0.498087 -1.23284e-19)
(-0.0510146 -0.0583963 -2.59087e-20)
(0.658693 -0.601276 -1.05891e-19)
(0.836016 0.215999 -2.1831e-19)
(1.00568 0.451627 2.40002e-20)
(1.13375 -0.123541 4.04207e-20)
(0.590527 -0.188866 -3.29896e-19)
(1.94041 -0.348753 -1.46904e-20)
(1.82002 -0.0436705 0)
(1.99765 0.429797 -4.88665e-20)
(2.23816 -0.0660796 3.03439e-21)
(0.524843 -0.220394 4.43674e-20)
(1.02824 0.374205 -1.96081e-19)
(1.32681 -0.393354 -4.50499e-20)
(0.449843 0.42561 -2.61053e-19)
(-0.358409 -0.101814 1.94682e-19)
(1.66211 -0.23526 0)
(0.941589 0.0066856 0)
(0.841626 -0.744051 7.67138e-20)
(-0.146453 -0.177228 -1.62475e-19)
(-0.545379 -0.141781 -1.63115e-19)
(-0.011877 -0.0135927 -1.09572e-19)
(-0.304803 0.0810844 -1.36601e-19)
(-0.172423 -0.412152 0)
(-0.0631636 -0.0568119 1.91175e-20)
(0.168435 0.361622 -1.01808e-19)
(-0.246701 0.279493 -3.27164e-19)
(0.791186 -0.0801485 0)
(1.60319 -0.309725 1.03167e-19)
(-0.0291781 -0.0296063 0)
(0.993042 0.024121 4.06479e-19)
(-0.0803346 -0.401249 1.37967e-20)
(0.51088 -0.384794 4.36925e-19)
(-0.401577 -0.385777 2.27034e-19)
(-1.02627 -0.0262765 0)
(0.132626 0.261788 1.16177e-19)
(1.0002 0.0261754 -1.22585e-20)
(-0.148329 -0.067561 0)
(1.00492 -0.00836195 -6.2937e-20)
(0.83081 -0.699032 -3.48043e-19)
(1.1708 -0.364594 0)
(0.917905 -0.246848 2.35967e-19)
(-0.0342468 0.111901 2.06664e-19)
(-0.0169051 -0.0094605 0)
(-0.135628 -0.278132 -2.74744e-21)
(0.697944 -0.605329 -4.91158e-19)
(0.938949 -0.0247672 -3.01546e-19)
(-0.154083 -0.173779 1.91122e-19)
(-0.0881226 -0.09863 7.81451e-20)
(-0.139196 -0.376347 0)
(0.988055 0.502279 0)
(-0.150189 -0.47576 9.44849e-20)
(1.55827 -0.32508 -1.31859e-19)
(1.11601 0.932305 1.91351e-20)
(1.08928 0.228992 -1.32922e-19)
(1.12373 0.00938524 -2.5716e-19)
(1.02135 -0.0661354 -9.59393e-20)
(-0.145415 -0.191028 -1.78222e-19)
(1.88397 0.0937354 3.81569e-19)
(0.698206 0.03569 2.23407e-19)
(2.04529 -0.168401 9.83011e-20)
(1.02558 -0.139005 0)
(0.0818842 0.164944 4.15508e-19)
(1.14112 0.0272315 -5.50709e-19)
(1.80365 0.638647 7.31604e-21)
(0.714453 -0.423039 -1.81368e-19)
(-0.0770249 -0.0457553 1.03214e-19)
(0.768428 -0.672553 4.53868e-19)
(1.27391 0.210417 7.9122e-20)
(1.00775 -0.00768987 2.7863e-19)
(-0.0856119 -0.253374 -7.34543e-20)
(1.03028 0.0253929 0)
(2.06118 0.123661 -2.47291e-19)
(-0.0325163 -0.0160232 0)
(1.01451 0.0148822 -1.65644e-19)
(-1.10868 -0.064375 -4.8148e-19)
(1.74716 0.300319 3.4701e-20)
(-0.106736 -0.0604331 1.08643e-19)
(1.64239 0.0279663 -6.84241e-21)
(1.01546 -0.0161075 5.76523e-20)
(1.28829 -0.0823922 0)
(1.40384 -0.592308 -2.16361e-19)
(1.02753 0.0454646 -1.69605e-19)
(1.49231 0.818963 -5.63294e-20)
(1.33569 -0.0581676 0)
(0.647773 0.196979 -2.21695e-20)
(-0.0410578 0.0490778 0)
(1.29208 0.0400408 0)
(-0.1399 -0.233124 0)
(1.27425 0.469436 0)
(1.98642 0.26037 5.3291e-20)
(0.776153 0.649381 4.14708e-19)
(0.277116 -0.278095 -2.72756e-19)
(-0.135594 -0.154678 -1.84738e-19)
(-0.0171448 -0.0100572 0)
(2.26989 -0.222512 1.06233e-19)
(1.41968 0.543847 0)
(1.50501 0.300262 0)
(-0.167018 -0.230302 8.09063e-20)
(0.843745 0.746066 1.32942e-19)
(1.62071 -0.0360012 0)
(-0.0417517 -0.0649798 4.67382e-20)
(0.92774 0.248389 2.019e-19)
(1.99197 -0.143553 -5.74385e-20)
(1.288 0.962355 4.62631e-20)
(0.886167 -0.797277 -5.68145e-20)
(1.6948 -0.0739873 -2.86078e-20)
(0.830178 0.750384 1.36439e-19)
(1.22413 0.961584 0)
(2.2433 -0.0316185 1.56821e-19)
(0.915435 -0.150004 0)
(1.52435 -0.382128 5.25371e-20)
(1.10995 0.125783 2.13258e-19)
(1.00577 -0.00369001 0)
(-0.247619 -0.218639 4.61994e-19)
(0.874759 -0.144086 5.35626e-20)
(0.603407 -0.372014 0)
(0.644545 -0.344339 2.35591e-19)
(1.28016 0.582283 -3.49602e-20)
(0.503205 0.476313 2.86934e-19)
(-0.276137 0.331368 3.81434e-20)
(0.250557 -0.0396603 1.0796e-19)
(0.736998 0.0643364 0)
(1.28396 -0.87237 -1.45741e-19)
(1.03618 -0.0420295 4.43235e-19)
(1.5869 0.357269 1.55253e-19)
(-0.0523155 -0.0928325 4.01175e-20)
(-0.473149 -0.350359 0)
(1.20125 -0.230357 -1.36239e-19)
(-0.0133084 -0.00730396 -8.7929e-20)
(-0.0877565 -0.63797 -4.19326e-20)
(-0.148451 0.0669329 -9.06124e-22)
(-0.221554 0.113857 3.22673e-19)
(1.38419 -0.418365 -1.6036e-20)
(2.30995 -0.176046 1.87978e-19)
(1.2316 0.480872 -3.06011e-19)
(0.892812 -0.0652873 0)
(1.8399 -0.0622848 2.15612e-19)
(1.81367 0.0768099 4.15666e-20)
(0.880006 -0.737575 1.74277e-19)
(1.11474 -0.938953 -8.16856e-20)
(0.506922 0.471796 1.92711e-19)
(1.1862 -0.196582 0)
(1.83035 0.593247 3.25273e-20)
(-0.0180657 -0.0106869 -1.79386e-19)
(0.921545 0.8052 0)
(1.41751 0.713046 0)
(0.277118 -0.276246 -3.46037e-21)
(0.358129 0.354421 0)
(-0.503803 -0.332702 -2.2925e-19)
(-0.331095 0.410315 -1.15449e-19)
(1.67937 -0.417856 0)
(1.28614 0.0949879 1.92129e-19)
(-0.477196 -0.243772 1.36815e-19)
(0.509794 -0.482677 -5.35385e-19)
(1.96153 -0.096674 -2.65988e-20)
(0.585623 -0.529767 0)
(1.06337 0.137441 0)
(1.32052 -0.2281 0)
(1.14271 0.245871 -2.50199e-19)
(1.38228 0.11149 3.55933e-19)
(-0.86328 -0.110411 0)
(0.870363 -0.0565384 0)
(1.96011 -0.0853864 -7.41042e-22)
(-0.136996 0.255589 1.07825e-19)
(2.28849 -0.0148476 -2.3243e-19)
(1.02231 -0.485718 8.74909e-20)
(1.88786 0.0635825 -2.70418e-19)
(-0.555243 -0.199495 -1.10908e-19)
(1.95259 0.0430659 -1.84484e-19)
(1.01432 -0.0135853 4.59734e-19)
(1.57496 0.624246 0)
(-0.332417 0.40029 3.10805e-20)
(0.969324 -0.800164 2.25888e-19)
(0.854891 0.012036 5.22638e-20)
(0.606224 -0.395877 0)
(1.83597 -0.522278 -5.57146e-21)
(1.17843 -0.181427 1.82588e-19)
(1.63417 -0.310425 0)
(0.582985 -0.540502 5.45677e-19)
(1.09816 0.160573 -1.98572e-20)
(2.41653 -0.0485511 3.49268e-19)
(-0.16945 0.341706 -2.20203e-19)
(1.37972 0.645648 1.55086e-19)
(1.18334 0.428815 3.86043e-21)
(0.932659 0.403684 2.36726e-19)
(1.66945 -0.259691 -1.80136e-19)
(-0.152212 -0.195557 -7.4415e-23)
(0.443688 -0.193872 0)
(-0.14479 -0.0963516 1.70828e-19)
(1.04911 -0.912307 0)
(1.02981 -0.627358 2.66896e-20)
(0.937256 -0.354011 -3.66395e-19)
(1.38815 0.185353 -5.20209e-20)
(-0.253042 -0.361468 -2.06384e-19)
(1.02283 0.512606 1.83057e-19)
(-0.61575 -0.105356 3.98807e-19)
(0.702088 -0.0394288 0)
(1.89534 0.017102 0)
(2.02141 0.0650544 1.5582e-20)
(0.772495 -0.0130588 0)
(1.33155 -0.20306 -1.87881e-19)
(-0.575986 -0.216016 3.10689e-19)
(1.9807 0.511536 1.65677e-20)
(1.0523 -0.031507 0)
(0.524759 -0.306879 1.17618e-19)
(1.00793 0.0270305 2.17955e-19)
(0.490211 0.0678015 -3.88613e-19)
(-0.281908 -0.0505597 0)
(1.07939 -0.457838 5.90539e-19)
(1.79702 -0.0744323 -4.6767e-22)
(1.07047 -0.473262 -2.56697e-19)
(2.34913 0.207498 1.75634e-19)
(1.33428 0.824468 0)
(0.881597 0.0228457 0)
(-0.0893228 -0.153293 -1.04679e-19)
(-0.0387559 0.0451117 1.60898e-19)
(0.978365 0.393365 -2.19074e-19)
(0.0332386 -0.243996 -5.4323e-20)
(0.677982 0.450437 2.52221e-19)
(0.849285 0.253228 0)
(0.514391 -0.478009 0)
(0.264128 0.000496994 3.43122e-21)
(1.19635 -0.486897 -1.24324e-19)
(0.631137 0.0288734 5.60783e-21)
(0.724737 -0.114758 1.29464e-19)
(-0.110388 0.175384 -2.86721e-19)
(1.17598 -0.032591 1.9485e-19)
(0.69458 0.648377 0)
(1.31721 0.725472 0)
(1.66508 0.267936 0)
(-0.181069 -0.351564 -8.40715e-20)
(1.32948 0.596196 2.20325e-19)
(2.02698 -0.00519395 2.5942e-20)
(0.95503 -0.0154668 0)
(2.30883 -0.417525 0)
(2.05886 -0.0592697 -2.91849e-19)
(0.687997 0.166078 4.58786e-19)
(1.00499 0.00633118 -2.176e-19)
(1.53406 0.498388 0)
(-0.301561 0.0512941 0)
(1.2829 0.335866 3.05526e-19)
(1.059 0.556658 -1.36141e-19)
(1.07831 0.0311242 0)
(1.44459 -0.268949 0)
(2.08991 0.69183 -3.20183e-19)
(-0.123519 0.454173 -2.87833e-21)
(0.99513 0.015467 0)
(0.741598 0.51283 -3.47507e-20)
(0.900373 -0.793363 0)
(1.00161 0.0182308 5.07064e-20)
(-0.330308 -0.17874 -5.23297e-21)
(0.881579 -0.296419 3.49352e-19)
(0.377875 -0.334567 -5.21505e-20)
(2.08811 -0.169653 1.09448e-19)
(1.83718 0.159149 1.18754e-19)
(0.779458 -0.0254401 0)
(1.00372 0.0128709 0)
(-0.307751 -0.428129 0)
(0.698393 0.669221 -1.95588e-19)
(-0.0884606 0.13041 1.93052e-19)
(1.19851 0.370024 -4.90123e-19)
(-0.421953 0.0727367 0)
(0.865479 0.67787 1.7457e-19)
(0.984725 -0.309766 0)
(1.00552 -8.43902e-07 1.27221e-19)
(0.308948 -0.449283 6.00796e-20)
(1.06664 0.429246 2.70114e-19)
(1.46286 0.105158 0)
(2.17745 0.0896084 -7.35147e-20)
(0.819317 -0.0797461 -3.99245e-19)
(-0.656588 -0.319281 -3.22869e-19)
(1.02944 -0.0666805 0)
(0.899292 0.2706 1.8553e-19)
(1.84174 -0.273177 0)
(0.810004 0.558 3.77228e-19)
(-0.651294 -0.189954 1.32887e-19)
(-0.110059 0.186556 0)
(0.622358 0.59286 -7.33776e-20)
(0.994874 -0.614322 -1.86026e-19)
(0.451589 -0.193193 -1.33097e-19)
(1.0189 -0.00782092 0)
(-0.319617 -0.195847 -1.50707e-19)
(0.609652 -0.539187 9.27029e-20)
(0.929713 0.317563 0)
(1.62934 -0.285592 1.32982e-19)
(1.02354 0.872974 2.51637e-20)
(0.712057 -0.282179 -2.63143e-21)
(0.0567635 -0.0241965 -1.05356e-19)
(0.206252 0.0588026 -5.89632e-19)
(-0.0581179 -0.0596325 4.73718e-21)
(0.84753 0.391464 2.58666e-19)
(-0.279422 0.45669 -5.38564e-21)
(1.37013 -0.626857 3.19472e-21)
(1.01993 0.0181601 -3.79802e-19)
(-0.223419 -0.390774 0)
(1.03807 0.0441427 -4.4263e-19)
(2.07785 -0.186615 1.49779e-19)
(0.924487 0.723923 2.92786e-19)
(1.12177 -0.0626942 1.80388e-19)
(1.00073 -0.0160523 1.75771e-19)
(1.43638 0.221507 4.73253e-20)
(-0.0307263 -0.0513169 -1.3476e-22)
(1.67186 -0.843629 1.41177e-20)
(1.10967 -0.120282 -9.60723e-20)
(0.761857 0.0472017 1.11109e-19)
(0.890031 -0.267746 1.00725e-19)
(1.52181 0.263143 0)
(1.00035 0.76852 0)
(0.8029 -0.350092 -7.15964e-20)
(2.10227 0.197702 -2.4162e-20)
(-0.492271 -0.319984 1.12982e-19)
(0.999895 -0.512596 -6.128e-19)
(0.587854 -0.501962 4.40026e-19)
(1.44582 0.119709 -1.34085e-19)
(0.00825569 -0.199438 6.60143e-21)
(1.46816 -0.428705 0)
(0.762021 0.15353 -7.20719e-21)
(1.57463 -0.327382 -9.65692e-20)
(1.07946 0.794786 0)
(0.987569 -0.349333 0)
(-0.22903 -0.0297034 0)
(-0.0443352 -0.0424722 -3.10339e-20)
(-0.101793 0.177917 0)
(1.73134 0.304787 5.26555e-19)
(1.25304 0.194099 6.85575e-21)
(-1.04747 -0.295777 1.98886e-19)
(2.1308 0.888911 2.39828e-20)
(1.91108 0.465156 -7.34949e-20)
(2.06986 -0.328881 -1.23843e-20)
(-0.190553 0.0314336 -2.2723e-19)
(-0.14349 -0.335739 2.04676e-21)
(1.51381 0.166507 0)
(0.683492 -0.0341745 0)
(1.00124 0.00120239 1.78918e-22)
(-0.184229 -0.372751 0)
(1.4873 -0.0118528 1.95224e-21)
(0.68401 -0.0307123 0)
(1.04438 0.0139434 1.4485e-19)
(0.989491 0.016157 -4.95572e-20)
(1.23071 -0.0502328 1.08683e-19)
(1.07284 -0.0130639 -1.01263e-21)
(0.932786 -0.169281 -6.05133e-20)
(1.01853 -0.0204987 4.09762e-19)
(0.642378 -0.578896 2.11225e-19)
(-0.851506 -0.143293 -2.58731e-19)
(1.28263 0.590879 1.65179e-20)
(-0.0460994 0.0623409 0)
(1.16787 0.828072 0)
(1.02215 0.00667259 0)
(0.970499 -0.745894 -1.32854e-19)
(0.999624 -0.857769 8.79396e-20)
(1.03161 0.368496 -7.95256e-21)
(-0.16462 -0.134171 -8.18314e-19)
(0.848125 -0.208471 1.59303e-20)
(0.555832 -0.340064 -6.99414e-19)
(1.62894 0.543733 -6.41718e-20)
(0.266366 -0.072729 -8.73355e-20)
(1.98032 -0.31052 1.97551e-20)
(0.709879 0.127539 -1.00835e-20)
(-0.0459265 -0.0636497 -6.78699e-20)
(1.15033 0.581367 2.06452e-19)
(-0.193715 -0.191783 0)
(0.0583018 -0.381255 1.46444e-19)
(-0.0889041 -0.0682008 -6.32919e-23)
(1.02873 -0.0427286 3.635e-19)
(1.02078 0.00952708 -9.41957e-21)
(1.11334 -0.0086507 -1.00557e-19)
(1.45664 0.167822 1.41418e-20)
(1.68233 0.330555 6.12986e-20)
(0.373954 -0.347813 -3.51094e-19)
(0.708779 0.311158 1.36061e-20)
(1.02937 0.011492 -2.70093e-19)
(1.38616 0.465981 -1.70086e-20)
(1.39518 0.29724 0)
(1.14878 0.620097 -3.86781e-19)
(1.00251 -0.00218107 1.0385e-19)
(0.710527 0.638939 2.68386e-19)
(1.28646 -0.421754 -2.92674e-21)
(1.07929 -0.00383823 -3.2909e-20)
(1.13694 0.0177488 9.354e-22)
(2.2619 -0.0116287 1.34683e-20)
(0.672544 0.198041 0)
(1.04415 -0.038575 0)
(1.04794 -0.033832 6.37081e-19)
(1.0028 -0.00128013 0)
(-0.0409095 -0.0297644 0)
(0.91586 -0.549466 0)
(1.00086 0.00104505 -6.04038e-19)
(1.12059 -0.656263 1.11157e-19)
(1.02038 -7.46029e-05 1.27391e-20)
(1.39454 0.991459 -2.67748e-20)
(1.58524 1.04084 -1.00726e-20)
(0.803743 -0.221763 -2.73704e-20)
(1.4676 -0.220123 2.14017e-19)
(1.928 0.24536 0)
(0.0103073 0.39648 0)
(1.88635 -0.2224 2.74788e-19)
(0.941017 -0.269952 0)
(0.999457 -0.00422939 -1.86525e-19)
(1.01089 -0.000757365 3.62644e-19)
(1.48686 0.144487 -7.4198e-20)
(0.00934514 -0.119818 1.35434e-19)
(0.978248 0.000485322 1.96995e-19)
(0.123583 0.043084 4.46741e-21)
(0.60231 -0.122142 3.69266e-20)
(1.57624 0.192166 -3.03568e-23)
(0.924121 0.0185206 -2.00204e-19)
(1.00359 0.00472928 2.3491e-19)
(1.00015 9.17257e-05 1.38612e-20)
(0.791049 -0.0126107 0)
(0.730889 -0.0261571 0)
(0.727349 -0.0266728 8.37068e-22)
(0.704228 -0.028823 0)
(1.48677 -0.134326 0)
(1.00751 -0.179579 0)
(0.451078 -0.154508 -5.11091e-20)
(0.309744 -0.112975 3.08955e-20)
(1.40944 -0.395645 0)
(1.37001 -0.234943 3.09368e-20)
(1.57237 0.0842492 0)
(0.00745465 0.155984 0)
(0.103966 0.0359226 0)
(0.365412 0.10729 -3.55615e-21)
(1.10815 0.222396 2.9647e-20)
(0.775495 0.0236764 0)
(0.787027 0.0200085 0)
(0.963258 0.0216499 -2.46488e-19)
(0.8163 0.00812114 4.58212e-19)
(1.00786 -0.00145613 0)
(1.00012 -0.00064856 4.33802e-19)
(1.00023 -0.000780282 -2.81585e-22)
(0.784991 0.0227156 3.91547e-19)
(0.996642 -0.00594511 -2.26215e-19)
(-0.0565055 0.154168 0)
(0.676955 -0.139129 -3.695e-20)
(1.00074 -0.000649106 -2.18977e-19)
(0.999993 0.0021177 -3.76272e-19)
(1.26941 0.0901508 0)
(0.998783 0.00179176 0)
(0.999577 0.000303801 0)
(1.69982 -0.549133 -2.03766e-20)
(0.158616 0.0741574 4.27524e-20)
(0.939657 0.430779 0)
(-0.350792 0.277272 1.8056e-19)
(-0.475212 -0.214992 -4.54944e-19)
(1.02149 -0.0111647 -2.92222e-19)
(-0.149669 -0.226861 -5.89793e-20)
(1.01773 0.00912535 -2.35787e-19)
(1.13635 -0.204634 -1.35153e-19)
(0.771208 -0.440488 3.44958e-19)
(-0.0151182 -0.0110655 -4.39818e-20)
(1.02788 0.017162 0)
(1.06804 -0.00862106 -6.3214e-20)
(0.843591 0.0278589 0)
(-0.096611 0.12504 2.84133e-19)
(0.665613 -0.291698 0)
(-0.177377 -0.305064 -1.59034e-19)
(0.335363 0.103456 -3.57777e-22)
(1.72016 0.707435 -5.13579e-22)
(-0.0721677 0.018128 0)
(1.0523 -0.0373033 1.97036e-19)
(0.676299 -0.135244 4.31182e-21)
(0.929942 0.012749 3.07806e-19)
(1.01323 -0.00424002 -1.98838e-19)
(1.73876 0.891786 4.27085e-20)
(0.553943 0.522864 0)
(0.480764 0.447469 2.10434e-19)
(2.15217 -0.466534 -6.516e-22)
(1.17933 0.136932 2.0787e-19)
(1.05278 -0.684633 0)
(1.02333 0.00960839 0)
(0.999508 -0.016502 -4.57446e-19)
(1.01746 0.0192791 -4.47796e-19)
(-0.0955983 -0.106925 0)
(1.2669 0.855309 -1.3394e-19)
(1.50663 -0.516887 3.11637e-21)
(1.01662 0.00913178 1.72039e-19)
(1.01146 0.0159475 -2.15984e-19)
(-0.20454 -0.275152 -1.62858e-20)
(0.731164 -0.150606 -1.0968e-19)
(1.02019 -0.0111445 7.33064e-19)
(1.49098 -0.466223 0)
(1.93547 0.667777 -5.15928e-20)
(1.0166 -0.00763713 -2.28557e-19)
(2.09036 0.0173537 -8.91113e-20)
(1.06812 0.0127599 -5.25031e-22)
(1.00999 -0.00792065 4.56293e-20)
(1.95157 -0.273222 -1.0425e-19)
(1.01476 0.00879549 2.22171e-19)
(1.03065 0.551931 4.80209e-21)
(1.01907 0.00838546 0)
(0.949571 0.174152 5.3123e-20)
(-1.11482 -0.384211 4.0621e-21)
(0.996741 0.0229509 2.2076e-19)
(1.03853 0.0213915 -5.42331e-22)
(1.23247 -0.399464 -1.58672e-20)
(1.29176 0.332263 4.37224e-19)
(0.994361 0.0190202 1.5207e-19)
(1.01828 -0.0102697 5.02541e-22)
(1.80137 0.247539 -2.29546e-20)
(1.86238 0.988142 -1.1333e-19)
(0.744461 -0.667504 7.25136e-20)
(0.418669 -0.271973 -3.36041e-19)
(1.00826 -0.00810029 0)
(1.0188 0.00577922 5.51661e-20)
(1.01155 -0.00529171 1.16099e-19)
(0.79723 0.387005 4.70397e-21)
(1.01377 0.0108304 -2.31294e-19)
(1.02335 -0.0155549 2.66138e-19)
(1.00881 -0.00426648 -2.16959e-19)
(1.01363 0.0104005 -5.32938e-22)
(1.01311 0.00705677 -3.93749e-22)
(1.02391 0.0178241 2.21634e-19)
(0.912644 0.114788 5.49617e-19)
(1.94566 0.656687 0)
(0.536476 -0.700207 1.78513e-19)
(1.0103 0.001211 0)
(1.02323 -0.0116957 -6.40885e-20)
(1.59114 0.45772 -8.56594e-20)
(2.05243 -0.125934 0)
(2.16302 -0.0770072 -1.10968e-19)
(1.44176 0.321517 -9.50973e-20)
(0.779189 -0.0179145 0)
(1.68619 -0.303894 0)
(0.452747 0.293643 -4.33948e-19)
(1.14061 0.0460842 -3.85291e-20)
(1.0177 0.00145099 -2.3281e-19)
(1.08479 -0.540124 -7.35575e-20)
(1.1489 -0.307512 -5.09304e-20)
(1.11364 0.680714 0)
(1.53998 -0.438856 0)
(2.2186 0.401444 0)
(0.0418637 0.176232 1.05201e-19)
(0.907258 0.325779 1.04796e-19)
(-0.528058 -0.113129 0)
(-0.0981539 0.0756899 -2.2779e-19)
(1.76452 1.00242 -6.2735e-20)
(1.00782 -1.92122e-05 -4.55222e-19)
(0.6846 0.212016 4.92602e-20)
(1.02152 0.0162537 3.01706e-19)
(0.702097 -0.0430226 0)
(-0.111338 -0.121674 -1.32325e-20)
(0.647174 0.476982 -3.55811e-19)
(1.84981 0.554894 2.30843e-19)
(0.101491 0.161824 0)
(0.75756 0.0682884 9.40447e-20)
(0.54986 0.527668 5.3636e-20)
(1.23171 0.920197 -3.6041e-20)
(-0.0434531 -0.0264563 6.51396e-20)
(1.02417 0.0201306 0)
(1.07173 0.428842 3.64408e-20)
(1.01114 0.00221442 1.70778e-19)
(2.29508 0.019696 0)
(1.01155 0.0111767 2.86618e-19)
(0.0709211 -0.338253 -6.73148e-20)
(1.01938 0.0159679 -1.77392e-19)
(1.44351 0.645719 0)
(2.31344 -0.112509 5.05811e-22)
(1.00917 0.00711729 -1.18963e-19)
(0.996504 -0.0121953 3.13604e-19)
(1.11671 0.109082 -3.65428e-21)
(1.14064 0.655006 -2.28974e-20)
(-0.142253 -0.0784978 1.72676e-19)
(2.12132 0.242876 1.9325e-19)
(0.180845 0.294084 2.35888e-20)
(0.800656 0.0149631 -4.30215e-19)
(0.823268 0.0289202 0)
(0.0597499 0.0731801 5.02078e-20)
(1.02422 -0.00678411 -3.44181e-20)
(0.973768 0.0442924 0)
(1.05519 0.00532268 -2.17883e-19)
(-0.287918 0.354895 6.90053e-21)
(-0.714776 -0.195454 1.42579e-19)
(2.07789 -0.566605 0)
(-0.882252 0.112718 -5.14402e-19)
(1.4686 -0.333066 0)
(1.04261 -0.015569 6.39841e-20)
(1.04781 0.156027 1.9289e-21)
(1.01181 0.00390446 1.84974e-19)
(-0.577417 -0.150788 2.73385e-19)
(1.01992 0.00742807 0)
(0.994375 0.00371886 -4.42669e-19)
(1.008 0.011251 2.35023e-19)
(0.859007 -0.222799 0)
(0.615405 0.0252482 -1.16966e-20)
(0.957444 -0.00101775 -2.00814e-19)
(-0.159969 -0.214115 1.95314e-19)