/*--------------------------------*- C++ -*----------------------------------*\
| =========                 |                                                 |
| \\      /  F ield         | OpenFOAM: The Open Source CFD Toolbox           |
|  \\    /   O peration     | Version:  2306                                  |
|   \\  /    A nd           | Website:  www.openfoam.com                      |
|    \\/     M anipulation  |                                                 |
\*---------------------------------------------------------------------------*/
FoamFile
{
    version     2.0;
    format      ascii;
    arch        "LSB;label=32;scalar=64";
    class       volVectorField;
    location    "29.1";
    object      U;
}
// * * * * * * * * * * * * * * * * * * * * * * * * * * * * * * * * * * * * * //

dimensions      [0 1 -1 0 0 0 0];

internalField   nonuniform List<vector> 
2186
(
(1.29 -0.062814 2.43716e-19)
(1.61281 -0.932897 -3.68907e-20)
(1.45568 -0.909705 6.08029e-21)
(0.733096 -0.571916 -1.58353e-19)
(-0.160675 0.355289 -1.61517e-19)
(1.58263 -0.15103 0)
(0.722224 -0.666824 0)
(-0.0735475 -0.0295958 7.73683e-20)
(1.61271 -0.0692363 1.42478e-19)
(0.546392 -0.294727 -2.34132e-21)
(0.690096 0.623686 0)
(0.859351 -0.279173 -1.02763e-19)
(-0.0681011 0.0220777 -3.00066e-20)
(1.20599 0.025343 -4.00777e-19)
(1.80059 -0.677783 -4.63878e-20)
(1.01392 -0.000774046 1.89075e-19)
(0.980502 0.0120126 0)
(0.0212897 0.673065 0)
(1.27607 0.026768 0)
(-0.0917909 0.255192 -5.50718e-20)
(0.487493 0.11576 -1.20494e-19)
(-0.190576 0.202902 7.51274e-20)
(1.19394 0.028432 3.3069e-19)
(-0.189324 -0.0989188 6.70038e-21)
(1.03173 0.0106366 -2.60281e-19)
(0.783894 -0.547376 0)
(0.761341 -0.0166182 1.54633e-19)
(0.610677 -0.590084 -1.85423e-19)
(1.22922 0.727846 0)
(0.964609 0.0249269 -3.55116e-19)
(-0.0331129 0.0884104 0)
(1.02518 -0.00894214 1.23085e-20)
(-0.135323 0.166845 0)
(1.98171 -0.0650209 9.0467e-20)
(-0.172366 -0.188024 -1.31957e-23)
(1.55975 0.791234 1.04487e-19)
(1.85873 0.00959224 8.17487e-20)
(0.515657 0.163489 -3.59363e-19)
(1.92281 0.264569 -2.24847e-19)
(1.53364 -0.130734 -9.30976e-21)
(-0.0928368 0.0248272 0)
(-0.145396 0.173048 0)
(1.88379 -0.867178 6.89959e-20)
(-0.416541 0.190475 0)
(1.1221 0.290298 1.68707e-19)
(0.591954 -0.277228 2.99833e-19)
(0.921117 -0.783981 0)
(1.1803 -0.781338 1.26676e-19)
(2.36949 -0.118269 0)
(-0.181668 0.44463 1.37199e-19)
(-0.0273367 0.143607 8.14022e-20)
(0.639374 0.590374 8.83107e-20)
(2.06941 -0.738623 7.02473e-20)
(0.602607 0.292464 -2.89952e-19)
(-0.299031 0.00123564 2.90568e-20)
(0.759132 -0.644583 0)
(1.6736 -0.961578 1.87956e-20)
(0.580304 -0.540162 0)
(2.32296 0.245049 7.05176e-20)
(1.1271 -0.163867 -3.94249e-19)
(2.06971 -0.0865452 1.69541e-19)
(1.36859 0.312457 -2.03787e-19)
(1.36641 0.548609 0)
(1.61562 -0.151753 1.01999e-20)
(1.38506 0.398774 -1.2764e-19)
(1.24546 -0.724885 -1.79739e-19)
(1.18791 0.676419 5.95003e-20)
(0.68143 0.0872791 -5.88778e-19)
(0.820195 0.070231 0)
(2.26044 -0.0607774 -4.58823e-20)
(-0.100576 -0.0336959 -9.24712e-20)
(2.51002 -0.0918146 -1.65474e-19)
(0.725764 -0.0220588 -2.59666e-19)
(0.868975 -0.50835 0)
(0.832058 0.194044 -9.6442e-20)
(0.544288 -0.503355 -3.18825e-19)
(2.41992 -0.100377 0)
(1.00704 0.00920908 3.8861e-19)
(-0.179814 -0.198747 0)
(2.03841 0.384878 0)
(0.611762 0.318562 6.81411e-20)
(1.4714 -0.116722 5.36697e-21)
(1.02232 0.00786191 4.32366e-20)
(1.33505 0.428279 3.17207e-20)
(0.970331 0.0244349 4.53373e-19)
(1.03928 0.0295251 -1.07531e-20)
(0.67244 0.193423 -3.51282e-19)
(1.23788 -0.0252512 4.45674e-21)
(1.32631 -0.0827779 0)
(-0.0724996 -0.0764476 7.7033e-20)
(0.855172 -0.614326 -1.78481e-19)
(-0.161245 0.193121 -1.25256e-21)
(1.11083 -0.0701084 2.66754e-19)
(0.814097 -0.171693 0)
(0.974012 0.023278 4.32737e-20)
(1.38501 0.65919 0)
(1.61944 -0.943266 0)
(1.32235 0.228583 0)
(-0.211984 0.479921 0)
(0.785412 -0.658 3.1488e-19)
(0.347467 0.32965 -2.49789e-19)
(0.671825 0.347681 1.39122e-19)
(1.59333 0.200442 0)
(1.14589 -0.0967061 -2.43858e-19)
(1.12452 0.0237884 1.92184e-19)
(-0.148918 0.242207 9.87175e-20)
(0.651105 0.522241 0)
(2.1129 -0.121154 -7.35559e-20)
(0.960172 -0.468999 8.81503e-20)
(-1.24832 -0.166632 1.37436e-19)
(1.76096 0.326235 9.69809e-20)
(-0.202187 0.335758 -2.17806e-19)
(0.816027 -0.74118 0)
(0.577391 0.367917 1.75308e-19)
(1.76732 -0.139255 -4.26774e-19)
(0.0545904 0.299438 -3.07064e-19)
(1.57876 0.938798 5.31092e-20)
(1.99908 -0.0522178 0)
(-0.0966324 -0.110053 -2.30208e-19)
(0.708071 -0.0583852 8.21567e-20)
(1.58114 0.897196 0)
(-0.0541544 0.480676 -1.81666e-19)
(0.901339 0.775729 -2.96238e-19)
(-0.00533791 0.676167 2.72905e-19)
(1.03009 -0.0240169 0)
(1.60149 0.882016 -6.69419e-20)
(-0.192737 0.340196 0)
(0.691108 -0.483647 -1.14422e-19)
(0.0090861 0.697192 -1.47862e-19)
(0.78813 -0.718947 0)
(0.427096 -0.255787 4.35865e-19)
(0.534884 -0.44522 2.97148e-19)
(0.414401 -0.375034 0)
(0.980353 -0.777296 -1.4341e-19)
(0.283567 0.29753 0)
(-0.136718 0.414873 -1.07544e-19)
(0.806859 -0.692058 1.51848e-19)
(2.26201 -0.135319 1.84337e-19)
(2.22137 0.193155 0)
(-0.118984 -0.100052 0)
(0.695265 0.645918 -3.72571e-19)
(1.77794 -0.608541 -9.62698e-21)
(-0.0555507 -0.0404743 0)
(0.979719 -0.801459 -1.54098e-20)
(1.14161 -0.0934739 0)
(1.07774 -0.115847 4.22194e-19)
(2.02774 -0.111055 -7.06468e-20)
(-0.186858 0.493699 0)
(1.21597 -0.545938 -6.14146e-20)
(-0.21887 0.313616 -3.62559e-20)
(-0.154159 0.16901 0)
(1.09085 -0.80838 1.24022e-20)
(1.00676 0.00440188 -6.49121e-19)
(0.644789 -0.468661 -1.12146e-20)
(0.812009 -0.506226 0)
(1.19536 -0.723325 -1.06149e-19)
(0.664134 0.253508 2.71884e-19)
(1.24736 0.118367 0)
(1.5209 0.0899111 -3.12154e-19)
(1.19459 -0.850369 -2.399e-19)
(-0.122692 -0.109547 -8.17359e-20)
(-0.441491 0.00695463 -1.22762e-19)
(1.07464 0.00937015 2.4494e-19)
(0.913284 -0.454589 -1.10855e-19)
(1.24656 -0.0257096 -4.12605e-21)
(0.516882 0.330231 -6.12984e-20)
(0.766316 -0.131054 9.23877e-20)
(-0.0708018 -0.122695 -2.1335e-19)
(1.82732 -0.291502 0)
(2.41713 -0.288208 1.06105e-19)
(1.46617 0.663087 1.64586e-19)
(0.803213 -0.605969 -2.29666e-19)
(0.994771 0.00881602 1.32976e-20)
(0.714786 -0.521202 3.14587e-19)
(1.32292 0.815654 1.46838e-19)
(1.88716 0.0655473 9.22411e-21)
(-0.167305 0.568406 0)
(1.08859 0.0605308 -2.54494e-19)
(-0.668828 0.438005 -1.51187e-19)
(1.08669 0.501516 8.64599e-20)
(0.176583 -0.161469 1.28933e-19)
(1.16277 0.0284367 -4.61105e-20)
(-0.189173 0.173948 -1.32998e-19)
(1.31178 0.595681 -8.89102e-20)
(1.15435 0.900859 0)
(-0.161279 0.70971 -8.46822e-20)
(0.148282 0.28009 0)
(0.666048 0.575157 -2.92469e-19)
(2.14447 0.202071 -1.50576e-20)
(-0.045257 0.0979413 9.85996e-20)
(-0.229919 0.663672 -4.6074e-19)
(0.726991 0.0902447 2.58746e-19)
(2.023 0.143553 -4.09756e-20)
(0.976365 -0.33788 -3.23266e-20)
(-0.0875208 -0.0843223 0)
(-0.965642 -0.272238 2.81259e-19)
(1.34475 0.986225 -3.58507e-20)
(0.842073 0.08766 -1.4262e-19)
(0.564038 0.529878 2.04263e-19)
(0.431 0.194076 0)
(-0.254162 -0.0683532 -1.53675e-19)
(-1.04 -0.627133 2.67862e-19)
(1.29561 -0.95391 5.9046e-22)
(0.988678 -0.0252201 -2.01999e-19)
(-0.149793 -0.171386 4.98678e-21)
(-0.00790645 0.00381367 1.33304e-19)
(-0.191868 -0.240288 -1.49692e-19)
(2.02054 -0.202045 0)
(1.13707 0.0489743 -3.42953e-19)
(2.54102 0.132744 2.11184e-19)
(1.26941 -0.61026 1.15223e-19)
(1.04275 -0.0443988 9.70155e-21)
(0.602563 0.346955 0)
(0.958384 0.763711 -1.76222e-20)
(0.693454 0.63871 1.97287e-19)
(0.892543 -0.555118 1.61031e-19)
(0.698152 0.516369 0)
(1.02224 0.00428526 8.67526e-21)
(0.877454 -0.656496 2.2974e-19)
(0.850174 0.43577 -4.81965e-19)
(1.1991 -0.108395 0)
(0.0794471 0.154569 -2.24816e-19)
(-0.10086 0.186554 -8.16362e-20)
(1.60965 0.737527 0)
(1.34723 -0.932498 -5.05326e-22)
(0.0386286 0.632818 0)
(-0.160062 0.244261 1.00242e-19)
(0.749064 0.665367 -1.0394e-19)
(0.847272 -0.206351 0)
(-0.205598 -0.190347 0)
(1.63791 -0.451283 0)
(-0.0580684 0.211661 5.22823e-19)
(1.20937 -0.878702 1.56999e-19)
(1.17218 -0.595958 6.82075e-20)
(1.04581 -0.164899 -1.79892e-19)
(0.873051 -0.686427 -1.81977e-19)
(0.187105 -0.190712 0)
(-0.27945 0.649933 0)
(0.997122 -0.502639 1.9091e-19)
(-0.101478 -0.0787422 0)
(-0.154445 0.487597 0)
(0.0219302 0.368836 2.66771e-19)
(0.805973 0.683433 9.01919e-20)
(1.02762 0.80732 0)
(0.710061 0.56821 -8.91824e-20)
(0.831442 -0.0295904 -2.35005e-19)
(0.758646 0.575761 -2.39274e-19)
(0.600485 0.559416 -1.75854e-19)
(-0.131578 -0.0735756 -4.05061e-22)
(0.717805 -0.642983 0)
(0.906219 0.187162 -3.40599e-19)
(-0.130746 -0.0327469 4.11024e-20)
(0.611456 0.567648 3.98942e-19)
(0.971714 0.810716 0)
(-0.00556487 -0.0671638 3.69828e-19)
(-0.235747 -0.138393 2.59445e-19)
(-0.212374 -0.0328901 -1.40622e-19)
(0.677091 0.584026 -1.54705e-20)
(0.968968 -0.00768213 6.29062e-20)
(-0.103517 0.0793212 0)
(2.01781 0.0155028 -1.43276e-19)
(1.75797 -0.556967 -3.0101e-19)
(0.6506 -0.601509 -8.14605e-20)
(0.212433 0.64175 9.41846e-21)
(1.20769 0.471154 1.98698e-19)
(0.897686 0.425912 0)
(1.04589 -0.166005 2.06965e-19)
(-0.230586 -0.158243 3.38364e-21)
(-0.107606 0.125325 3.08596e-19)
(0.916116 0.0194546 -5.61502e-20)
(1.14082 0.144774 0)
(1.74836 0.0312854 -1.34364e-19)
(1.94344 0.0834926 0)
(0.553112 0.273201 -4.74906e-19)
(-0.0294963 0.0155523 0)
(-0.10511 -0.0577962 1.81756e-19)
(0.684936 0.0961554 0)
(0.613586 -0.503134 -1.93068e-19)
(1.13913 0.019945 2.22656e-19)
(-0.178392 0.541631 3.43044e-20)
(2.17466 -0.0653131 5.82458e-21)
(2.09667 -0.164957 -9.57982e-20)
(1.12425 0.236853 -2.35235e-19)
(-0.135113 0.00206913 -7.64601e-20)
(1.07156 -0.846243 0)
(0.810947 0.0173985 -1.61993e-19)
(0.922784 -0.367393 -3.07346e-19)
(1.7106 -0.569639 -1.25405e-21)
(1.67862 -0.0170017 1.06009e-19)
(1.0844 -0.00447888 4.09595e-19)
(-0.192846 -0.106156 -1.23344e-19)
(0.990633 -0.429338 -1.35629e-19)
(0.196336 -0.188785 2.72106e-19)
(1.00794 -0.00749796 0)
(1.00458 -0.00611867 0)
(0.773124 -0.345499 1.15634e-19)
(-0.13954 0.338374 -7.5147e-20)
(0.19735 -0.113969 -1.14214e-19)
(2.04599 -0.0403477 -2.99395e-21)
(1.19848 0.0820811 0)
(1.88315 0.133307 -1.27806e-19)
(0.943584 -0.819722 -9.54001e-20)
(1.79396 -0.558087 -5.30465e-20)
(1.12027 0.850082 0)
(0.468611 -0.449054 0)
(0.617801 0.532724 -1.84454e-19)
(1.1099 0.289731 -4.34113e-19)
(2.17164 -0.179269 2.61953e-22)
(0.86839 0.170831 1.46124e-19)
(-0.295321 -0.104112 -3.34125e-19)
(1.58736 -0.149359 -1.63868e-20)
(-0.334957 0.00666007 0)
(-0.147214 -0.120973 0)
(-0.106272 0.195249 0)
(1.33515 -0.715495 -1.06024e-19)
(-0.164045 0.179188 -1.81244e-19)
(-0.0731727 0.074798 0)
(1.30445 0.988038 -4.3052e-20)
(1.12103 0.157365 -4.52064e-19)
(2.45631 -0.00236727 -1.04995e-19)
(1.09306 0.933843 9.81777e-20)
(-0.202351 0.290327 1.10499e-19)
(1.20066 -0.0197331 0)
(-0.0895407 0.261589 -2.092e-19)
(-0.205325 0.28659 2.14041e-19)
(0.779164 0.0451127 1.92032e-19)
(1.5521 0.961311 -2.52259e-20)
(1.54849 0.594433 -1.2831e-19)
(-0.177269 0.183091 -1.89177e-21)
(0.74419 -0.67826 -4.04706e-20)
(1.14343 -0.0142796 0)
(1.74244 -0.0416796 0)
(1.00118 0.0495577 0)
(-0.805361 -0.388806 -1.97877e-19)
(-0.168516 0.171074 7.12127e-20)
(1.06132 0.85695 0)
(0.99757 0.00310033 5.42071e-19)
(0.780947 0.6185 -2.39979e-19)
(-1.12963 -0.510297 -1.15488e-19)
(0.864969 0.0297641 -4.3265e-20)
(0.712021 -0.648618 -2.36345e-19)
(1.40325 0.722067 -3.90183e-20)
(0.555418 -0.437409 -3.08011e-19)
(1.12775 0.0033547 -4.89546e-19)
(0.803374 0.0385568 4.79201e-20)
(1.50028 -0.164552 8.20562e-20)
(1.65244 -0.117557 -9.59366e-20)
(-0.075368 -0.0723058 -4.02807e-22)
(1.09196 0.479907 -2.87626e-19)
(1.33662 0.626847 6.13409e-20)
(-0.216404 -0.0703454 0)
(-0.329873 -0.0690442 1.2155e-19)
(0.129571 0.342564 9.64196e-20)
(-0.147518 -0.185162 -1.0692e-19)
(0.488922 0.338116 0)
(1.61782 -0.62193 0)
(-0.0111566 0.0143431 -1.12542e-19)
(-0.161686 -0.0550964 -4.07564e-20)
(1.04819 -0.0294683 1.94034e-19)
(-0.15067 0.468076 -4.25364e-20)
(1.43248 0.0859982 -4.45603e-19)
(-0.156205 0.301935 0)
(0.830668 -0.735417 -3.2896e-19)
(1.37331 -0.115826 1.42788e-19)
(-0.619247 0.323994 9.50632e-20)
(0.724113 0.175653 3.42442e-19)
(0.628038 0.156555 1.10231e-19)
(0.498173 -0.47018 2.1476e-19)
(-0.059343 -0.0330283 -9.4107e-20)
(1.97369 0.589028 0)
(0.405707 0.366078 -2.00215e-19)
(1.02972 -0.0140722 -3.08586e-19)
(-0.210971 0.6714 1.8328e-19)
(1.43513 0.493702 -1.40825e-19)
(-0.104987 -0.078244 -3.7979e-20)
(0.689549 -0.628728 -7.09854e-20)
(0.823152 0.199886 -2.16343e-19)
(0.988705 0.436368 2.44091e-20)
(1.14707 -0.133884 3.72271e-20)
(0.603366 -0.213704 -3.14668e-19)
(2.00736 -0.308482 -9.99802e-20)
(1.77466 -0.0523939 0)
(2.20848 -0.104555 -7.93353e-20)
(1.70188 -0.0861685 4.32463e-21)
(0.775295 0.0863134 8.93103e-20)
(0.94563 0.361616 -1.53727e-19)
(1.69041 -0.134148 -1.02855e-20)
(0.429584 0.402518 -2.60634e-19)
(0.160891 0.535124 1.51931e-19)
(2.07511 0.0597928 0)
(0.942465 0.00787424 0)
(0.871579 -0.770376 6.53162e-20)
(-0.219724 -0.138657 -2.84676e-19)
(0.127639 0.60605 -1.94424e-19)
(-0.0825468 -0.0769977 -1.68945e-19)
(-0.072322 0.584358 -1.15767e-19)
(-0.431653 0.00936787 0)
(-0.1473 -0.126827 3.16194e-20)
(-0.0225653 0.274095 -7.57063e-20)
(-0.00326813 0.0058956 -3.04142e-19)
(0.801473 -0.0975726 0)
(1.4878 -0.503768 1.14411e-19)
(0.0823384 0.184728 0)
(0.994912 0.0241506 3.91029e-19)
(-0.353818 -0.0488415 1.12303e-20)
(0.53175 -0.409312 4.12901e-19)
(-0.661983 0.445004 2.51054e-19)
(-0.947192 -0.106575 0)
(-0.0175332 0.270746 8.07916e-20)
(1.00271 0.0247309 -1.17785e-20)
(0.0069363 -0.171015 0)
(1.00493 -0.00893406 -6.08672e-20)
(0.855245 -0.720502 -3.11092e-19)
(1.53043 -0.523053 0)
(0.931247 -0.261866 2.1983e-19)
(-0.00565131 0.394857 1.5163e-19)
(-0.0795745 -0.0812948 0)
(-0.265814 -0.0548821 -4.22955e-21)
(0.720283 -0.626328 -4.52115e-19)
(0.947426 -0.0209788 -2.83943e-19)
(-0.243466 -0.134895 3.46505e-19)
(-0.127996 -0.0863096 1.15899e-19)
(-0.361411 0.0133893 0)
(0.97082 0.486404 0)
(-0.471007 0.112175 1.24844e-19)
(1.50758 -0.0327768 -8.33325e-20)
(1.0888 0.909127 2.10232e-20)
(1.0799 0.220639 -1.32316e-19)
(1.12241 0.00832841 -2.37577e-19)
(1.03554 -0.0647486 -8.56977e-20)
(-0.243389 -0.117248 -3.07681e-19)
(1.97574 0.0869145 3.92333e-19)
(0.696597 0.0375185 2.25545e-19)
(1.64633 0.00569941 7.4521e-20)
(1.03926 -0.143361 0)
(-0.272146 -0.010051 2.00204e-19)
(1.14413 0.0263285 -5.29824e-19)
(1.77355 0.633814 2.64456e-20)
(0.734318 -0.442789 -1.69961e-19)
(-0.101304 -0.112017 1.72091e-19)
(0.793869 -0.694998 4.07586e-19)
(1.25357 0.201624 8.20585e-20)
(1.00699 -0.00823946 2.69537e-19)
(-0.248867 -0.0704892 -1.28199e-19)
(1.0269 0.0215901 0)
(1.88835 -0.0205859 -1.6405e-19)
(-0.100683 -0.0992626 0)
(1.01379 0.0142259 -1.59211e-19)
(-0.673417 -0.315293 -5.62932e-19)
(1.7644 0.323752 4.82779e-20)
(0.0900703 0.415172 1.31045e-19)
(1.63997 0.0218749 9.15386e-21)
(1.01486 -0.0174426 5.59331e-20)
(1.26975 -0.0903991 0)
(1.43664 -0.600196 -1.65627e-19)
(1.02527 0.0406616 -1.65611e-19)
(1.46011 0.803721 -7.8927e-20)
(1.27365 -0.03996 0)
(0.596547 0.485878 3.28382e-20)
(-0.0153965 0.0173021 0)
(1.31032 0.0563745 0)
(-0.149142 0.0952328 0)
(1.25951 0.456568 0)
(1.8891 0.289845 3.68677e-20)
(0.754692 0.629473 4.20838e-19)
(0.291405 -0.292875 -2.54242e-19)
(-0.160979 -0.0772408 -2.69214e-19)
(-0.0979615 -0.0935045 0)
(2.4525 -0.395322 1.45523e-19)
(1.35344 0.53174 0)
(1.48044 0.301163 0)
(-0.135884 0.317245 9.13509e-20)
(0.820215 0.725173 1.38638e-19)
(1.63626 -0.00312422 0)
(-0.0411578 0.0264419 5.79208e-20)
(0.916722 0.233488 1.99833e-19)
(2.10411 -0.244111 -9.41514e-20)
(1.25835 0.941457 5.26001e-20)
(0.921136 -0.828033 -4.26785e-20)
(1.50054 -0.124616 -5.37685e-20)
(0.805972 0.72846 1.43063e-19)
(1.19406 0.939062 0)
(2.35579 -0.171224 1.83714e-19)
(0.30312 -0.0645033 0)
(1.44964 -0.359922 7.03817e-20)
(1.01472 0.105855 1.58501e-19)
(1.00566 -0.00453108 0)
(-0.687964 -0.298923 1.64774e-19)
(0.887117 -0.160138 5.05272e-20)
(0.622115 -0.393849 0)
(0.662774 -0.36673 2.22814e-19)
(1.25587 0.569422 -3.70532e-20)
(0.483465 0.457123 2.8908e-19)
(-0.012899 0.031018 3.66392e-20)
(0.120044 -0.0327169 8.0003e-20)
(0.746694 0.0581727 0)
(1.31993 -0.893916 -1.00005e-19)
(1.03481 -0.0440966 4.31007e-19)
(1.52511 0.347116 1.21785e-19)
(-0.0302346 0.0832349 4.89532e-20)
(-0.705054 0.448383 0)
(1.22432 -0.230337 -1.2201e-19)
(-0.0815074 -0.0797769 -1.4508e-19)
(-0.654146 -0.31182 -2.08905e-20)
(-0.133865 0.0468716 -6.98885e-22)
(-0.209149 0.0954025 2.57211e-19)
(0.585852 0.0570321 -1.90512e-20)
(2.16134 -0.0239865 1.91917e-19)
(1.20847 0.472454 -3.20428e-19)
(0.881768 -0.0537927 0)
(1.91265 -0.100997 1.84552e-19)
(1.74212 0.0513947 5.81586e-20)
(0.906353 -0.7598 1.53642e-19)
(1.15644 -0.971894 -5.3787e-20)
(0.487269 0.453149 1.94932e-19)
(0.73864 0.0876449 0)
(1.78251 0.590489 1.30352e-20)
(-0.0936002 -0.0942296 -2.95239e-19)
(0.897654 0.783833 0)
(1.72838 0.728674 0)
(0.291994 -0.29107 -3.81807e-21)
(0.337397 0.324616 0)
(-0.752001 0.342925 -2.55524e-19)
(-0.106028 0.130644 -1.0371e-19)
(1.74331 -0.427309 0)
(1.29009 0.0792934 2.31355e-19)
(0.144016 0.586656 1.61585e-19)
(0.531143 -0.503718 -4.93794e-19)
(1.70821 0.0111925 -2.54954e-20)
(0.608754 -0.55124 0)
(1.05155 0.128635 0)
(1.369 -0.275965 0)
(1.12854 0.235071 -2.52942e-19)
(1.37328 0.113296 3.60475e-19)
(-0.912013 -0.0223501 0)
(0.872155 -0.050593 0)
(2.15147 -0.104341 -1.08784e-20)
(-0.113219 0.117607 8.59052e-20)
(2.4479 0.0307606 -2.75554e-19)
(1.08651 -0.509064 1.5041e-19)
(2.00421 0.0122183 -2.94627e-19)
(-0.0371212 0.646737 -1.17705e-19)
(2.00713 0.0846596 -1.55527e-19)
(1.01713 -0.0171914 4.4148e-19)
(1.53829 0.61583 0)
(-0.193401 0.285557 2.81031e-20)
(0.999181 -0.82372 1.93023e-19)
(0.857265 -0.00342646 5.05706e-20)
(0.626251 -0.417281 0)
(1.89777 -0.506045 1.33929e-21)
(1.19958 -0.18898 1.61415e-19)
(1.46362 -0.360409 0)
(0.606234 -0.562712 4.82791e-19)
(1.80917 0.128736 -6.7628e-20)
(2.41138 0.0179795 4.35074e-19)
(-0.121012 0.125799 -1.78971e-19)
(1.35177 0.632498 1.706e-19)
(1.16378 0.417763 3.98123e-21)
(0.916998 0.386783 2.37652e-19)
(1.67162 0.0366683 -7.10218e-20)
(-0.238614 -0.100597 -6.0696e-22)
(0.821666 0.0616967 0)
(-0.127055 -0.111366 2.80048e-19)
(1.09317 -0.948732 0)
(1.05704 -0.643676 2.3542e-20)
(0.483368 0.093958 -1.44586e-19)
(1.5035 1.0319 -2.08465e-20)
(-0.452385 0.286052 -2.34716e-19)
(1.00269 0.497297 1.87073e-19)
(-1.04461 -0.611706 2.18454e-19)
(0.700399 -0.0412921 0)
(1.99014 -0.0375197 0)
(1.64198 -0.154977 -8.61416e-21)
(0.77576 -0.00776488 0)
(1.34158 -0.197426 -1.66094e-19)
(-0.397158 0.592069 3.69748e-19)
(1.96054 0.512462 -1.44563e-20)
(1.04888 -0.0329955 0)
(0.544161 -0.331576 1.10451e-19)
(1.00911 0.0261429 2.09743e-19)
(0.100766 -0.518887 -1.22024e-19)
(0.0403403 0.632209 0)
(1.10042 -0.465953 5.25892e-19)
(1.90121 -0.0890828 -5.72595e-22)
(1.09295 -0.487313 -2.28813e-19)
(2.36264 0.263935 1.23778e-19)
(1.307 0.806286 0)
(0.878764 0.0234604 0)
(-0.0503218 0.155443 -1.2224e-19)
(-0.0134184 0.01384 1.26634e-19)
(0.962738 0.379475 -2.20979e-19)
(-0.23664 -0.146847 -1.27208e-19)
(0.659459 0.4263 2.51857e-19)
(0.730416 0.487354 0)
(0.536878 -0.498947 0)
(-0.317564 0.109104 -2.89452e-21)
(1.22365 -0.496658 -1.08031e-19)
(0.828023 -0.0798232 1.26653e-20)
(0.730258 -0.137069 1.23986e-19)
(-0.0959738 0.101894 -2.26416e-19)
(1.04033 0.174292 2.06021e-19)
(0.671609 0.626513 0)
(1.28983 0.710029 0)
(1.64548 0.267537 0)
(-0.354214 0.0989112 -1.04256e-19)
(1.27466 0.574508 1.72858e-19)
(1.85725 0.050222 2.48792e-20)
(0.947285 -0.013322 0)
(2.3587 -0.308657 0)
(2.16967 -0.0637984 -2.9608e-19)
(0.043923 -0.41874 1.53456e-19)
(1.00531 0.00416704 -2.09895e-19)
(1.52154 0.489865 0)
(-0.00421341 0.540694 0)
(1.25939 0.329218 3.15928e-19)
(1.03869 0.540913 -1.40127e-19)
(1.07378 0.0303613 0)
(1.18667 0.000669665 0)
(2.02106 0.686665 -2.4657e-19)
(-0.175377 0.21361 -4.14196e-22)
(0.994726 0.0138572 0)
(0.721594 0.490074 -3.49352e-20)
(0.933069 -0.821492 0)
(1.00159 0.0162544 4.87558e-20)
(-0.15305 -0.657984 -6.84691e-20)
(0.898075 -0.310975 3.24055e-19)
(-0.354818 -0.758663 5.73122e-20)
(2.03285 -0.0404857 2.07564e-19)
(1.97237 0.0409048 9.42906e-20)
(0.781899 -0.0191391 0)
(1.00881 0.011672 0)
(-0.653319 0.415627 0)
(0.675266 0.646706 -2.02645e-19)
(-0.0620889 0.0624383 1.5287e-19)
(1.18417 0.359455 -5.05516e-19)
(-0.140563 0.692328 0)
(0.844049 0.657965 1.77865e-19)
(1.00173 -0.323304 0)
(1.00532 -0.00104793 1.2285e-19)
(-0.253414 -0.0348042 2.18822e-20)
(1.04886 0.416546 2.76808e-19)
(1.29727 0.25005 0)
(2.25068 0.156698 -6.40746e-20)
(0.823891 -0.0977483 -3.82153e-19)
(-0.779847 0.296168 -3.38243e-19)
(0.316755 -0.00135064 0)
(0.888429 0.256044 1.84412e-19)
(1.9454 0.0101509 0)
(0.789736 0.537132 3.81164e-19)
(-0.698195 0.392701 1.53996e-19)
(-0.0687642 0.0712057 0)
(0.600756 0.571702 -7.46869e-20)
(1.01998 -0.631551 -1.6452e-19)
(0.470305 -0.223952 -1.27665e-19)
(1.02036 -0.0107266 0)
(0.177081 0.567 -1.41234e-19)
(0.631504 -0.56013 8.61679e-20)
(0.916745 0.302889 0)
(1.90002 -0.315343 1.69423e-19)
(0.99794 0.850748 2.66402e-20)
(0.611847 -0.269906 2.53103e-20)
(0.259151 -0.00930059 -2.31779e-19)
(0.22241 0.00277237 -5.72964e-19)
(-0.122342 -0.0991348 7.31979e-21)
(0.829307 0.373082 2.59751e-19)
(-0.161679 0.192527 -4.51464e-21)
(1.40506 -0.638297 3.5567e-21)
(1.02313 0.014909 -3.64766e-19)
(-0.478966 0.145948 0)
(1.03371 0.0400524 -4.32385e-19)
(1.81542 -0.0599297 5.9055e-20)
(0.902884 0.704311 3.01112e-19)
(1.12948 -0.0630034 1.69684e-19)
(1.0038 -0.02071 1.68752e-19)
(1.35446 1.01246 1.80648e-20)
(0.0210013 0.0848686 5.0347e-22)
(1.73319 -0.861182 1.54321e-20)
(1.11864 -0.126874 -8.34321e-20)
(0.775378 0.0465917 9.61039e-20)
(0.903099 -0.280786 9.45797e-20)
(1.92072 0.0665432 0)
(0.977616 0.748882 0)
(0.0718517 -0.0644197 -2.61004e-20)
(2.03583 0.196461 -1.40197e-20)
(-0.655298 0.422333 1.26467e-19)
(1.02309 -0.52897 -5.51887e-19)
(0.609073 -0.522997 4.11905e-19)
(1.23705 0.198603 -1.01104e-19)
(-0.123258 -0.0743477 1.45814e-20)
(1.48312 -0.220654 0)
(0.756451 0.131711 -7.04751e-21)
(1.56835 -0.205574 -1.27018e-19)
(1.05578 0.775806 0)
(0.676412 -0.334881 0)
(0.754196 0.395047 0)
(-0.0860177 -0.0568379 -4.47256e-20)
(-0.139496 0.176553 0)
(0.834901 -0.426082 1.74835e-19)
(1.23675 0.185952 6.97324e-21)
(-0.736811 -0.0952421 2.02108e-19)
(1.86424 0.393868 6.64418e-20)
(1.85182 0.471449 -3.9099e-20)
(2.06909 -0.277347 -2.5389e-20)
(-0.177648 0.0119941 -1.79305e-19)
(-0.302259 -0.0691787 3.15449e-21)
(1.91916 0.140438 0)
(0.680758 -0.0357002 0)
(1.00061 0.000190701 2.05124e-22)
(-0.414971 0.143447 0)
(1.37172 0.0514625 -4.25966e-20)
(0.680161 -0.0321059 0)
(1.04588 0.00844405 1.36466e-19)
(0.989559 0.0154312 -4.76922e-20)
(1.15014 0.223366 1.27638e-19)
(1.06615 -0.0154985 -9.8836e-22)
(0.943625 -0.181079 -5.70834e-20)
(1.02237 -0.0256091 3.91606e-19)
(0.664738 -0.601078 1.95243e-19)
(-0.674364 -0.276884 -2.62499e-19)
(1.82808 0.43619 4.01775e-20)
(-0.0173092 0.0239956 0)
(1.14232 0.808965 0)
(1.02605 0.000730333 0)
(0.996009 -0.765986 -1.15372e-19)
(1.03767 -0.887931 5.79153e-20)
(1.58358 0.595234 3.12818e-20)
(-0.746747 -0.0850047 -3.89068e-19)
(0.178241 0.200047 1.32277e-20)
(0.576696 -0.365162 -6.63305e-19)
(2.10531 0.119406 -1.41226e-19)
(-0.142992 0.0526183 6.19365e-20)
(2.06571 -0.245289 7.32942e-20)
(1.56348 0.116733 -4.6142e-20)
(-0.068561 -0.00818467 -8.92393e-20)
(1.12922 0.565392 2.15434e-19)
(-0.238305 -0.221413 0)
(-0.272227 -0.0731234 2.61001e-19)
(-0.168079 -0.151506 5.16134e-23)
(1.02799 -0.0449598 3.52875e-19)
(1.02325 0.00607533 -9.05067e-21)
(1.1073 -0.00909328 -9.74661e-20)
(1.1442 0.812875 1.00315e-20)
(1.65636 0.326716 7.33481e-20)
(0.393565 -0.367243 -3.30734e-19)
(1.1261 0.574648 -6.79537e-20)
(1.03304 0.00764694 -2.58245e-19)
(2.07871 0.543527 -4.13916e-20)
(1.03707 0.840895 0)
(1.12608 0.604396 -4.04577e-19)
(1.00265 -0.00421792 1.00215e-19)
(0.688556 0.617803 2.7153e-19)
(1.04783 -0.193679 -2.22023e-21)
(1.07101 -0.00735299 -3.22386e-20)
(1.12949 0.0182881 9.12977e-22)
(2.3888 0.0988023 1.53102e-20)
(1.50487 0.281077 0)
(1.04319 -0.0405397 0)
(1.04832 -0.0347987 6.16713e-19)
(1.00256 -0.00256287 0)
(-0.125116 -0.112706 0)
(0.969216 -0.581839 0)
(1.0009 -0.000542087 -5.82884e-19)
(1.14936 -0.673078 9.37799e-20)
(1.02325 -0.00121881 1.22401e-20)
(1.36219 0.971199 -3.52274e-20)
(1.54747 1.02015 5.49875e-20)
(0.187775 -0.255364 -2.03996e-20)
(1.09986 -0.0673197 6.77677e-20)
(1.88847 -0.0982212 0)
(-0.161554 0.256325 0)
(1.93817 0.17305 1.45287e-19)
(1.2126 -0.344973 0)
(0.999802 -0.00487798 -1.80403e-19)
(1.0108 -0.00118583 3.50611e-19)
(1.47728 0.148058 -7.69509e-20)
(0.0128841 -0.110317 2.19561e-19)
(0.980053 0.00208351 1.91158e-19)
(0.760325 0.125461 -4.53117e-20)
(0.948113 -0.0365828 -3.98219e-21)
(1.13368 0.861361 8.38269e-23)
(0.928577 0.0179753 -1.92009e-19)
(1.00362 0.00406448 2.26403e-19)
(1.00033 -0.000363378 1.33777e-20)
(0.789495 -0.0134346 0)
(0.727726 -0.0270318 0)
(0.723307 -0.0274675 6.92827e-22)
(0.69988 -0.0299293 0)
(1.31144 -0.109802 0)
(1.15233 -0.0972169 0)
(0.898743 -0.0525598 -8.81126e-21)
(0.880556 -0.0395861 4.11712e-21)
(1.60736 -0.181605 0)
(1.32979 0.551103 3.67699e-20)
(1.12662 0.722551 0)
(0.415698 0.189817 0)
(0.65291 0.131905 0)
(1.08411 0.26154 1.34909e-20)
(1.80541 0.180765 1.11504e-19)
(0.775079 0.0240712 0)
(0.785876 0.0201205 0)
(0.96687 0.0208461 -2.36639e-19)
(0.814615 0.00775406 4.41164e-19)
(1.00778 -0.00126717 0)
(1.00017 -0.00052129 4.18468e-19)
(1.00027 -0.000703345 -3.41362e-22)
(0.784376 0.0225211 3.75694e-19)
(0.998154 -0.00487676 -2.19385e-19)
(0.445305 0.108687 0)
(1.0155 -0.0598594 3.98522e-21)
(1.00062 -0.00117911 -2.11561e-19)
(0.999567 0.00113725 -3.62971e-19)
(0.665702 0.499228 0)
(0.999012 0.00155765 0)
(0.99967 0.00020135 0)
(1.66534 -0.245703 -5.89013e-21)
(0.264425 0.416897 2.90402e-20)
(1.56071 0.597272 0)
(-0.118855 0.301248 1.97823e-19)
(-0.506303 -0.0619394 -1.61777e-19)
(1.01991 -0.0121798 -2.82339e-19)
(-0.180147 0.0125931 -7.4827e-20)
(1.0186 0.00691685 -2.27115e-19)
(1.15833 -0.211127 -1.13954e-19)
(0.790841 -0.459489 3.20645e-19)
(-0.0884474 -0.0834852 -6.95149e-20)
(1.03021 0.014277 0)
(1.06343 -0.0105726 -6.22063e-20)
(0.847729 0.0232888 0)
(-0.0748076 0.0803935 2.23098e-19)
(1.10618 -0.553166 0)
(-0.219695 0.185193 -1.84548e-19)
(1.1586 0.126033 2.78847e-20)
(1.68017 0.698054 -4.86363e-20)
(-0.0573451 -0.00479802 0)
(1.05213 -0.0381523 1.90793e-19)
(-0.189805 0.224375 2.54718e-21)
(0.92939 0.00187846 2.97919e-19)
(1.01223 -0.00747868 -1.92368e-19)
(1.69838 0.878098 1.66587e-20)
(0.533241 0.502215 0)
(0.459622 0.420927 2.09562e-19)
(2.15635 -0.282778 -3.20346e-21)
(1.16128 0.13099 2.10143e-19)
(1.0798 -0.702949 0)
(1.02372 0.00585584 0)
(0.999877 -0.0178479 -4.42682e-19)
(1.01875 0.0165442 -4.31101e-19)
(-0.148788 -0.110728 0)
(1.23946 0.836615 -1.49889e-19)
(1.12106 -0.0909795 2.36373e-21)
(1.01616 0.00573366 1.66212e-19)
(1.01175 0.014333 -2.08053e-19)
(-0.205887 0.314329 -1.84641e-20)
(0.0768438 0.0789988 -3.86451e-20)
(1.01846 -0.0121772 7.09077e-19)
(1.38919 -0.0796872 0)
(1.88408 0.664708 -2.0675e-20)
(1.01583 -0.00957216 -2.20786e-19)
(1.8576 0.0189176 -7.02122e-20)
(1.06375 0.0125979 -5.11014e-22)
(1.00941 -0.00957492 4.41411e-20)
(1.9912 -0.0649402 -1.80663e-19)
(1.0162 0.00716168 2.13923e-19)
(0.746219 0.773794 1.1429e-20)
(1.01826 0.0064522 0)
(0.940799 0.162959 5.25292e-20)
(-0.949662 0.0363026 3.37999e-21)
(0.999242 0.0224234 2.12326e-19)
(1.04015 0.0212079 -6.11402e-22)
(0.749108 -0.16048 -2.00519e-20)
(1.2747 0.324629 4.58955e-19)
(0.995315 0.0168376 1.46107e-19)
(1.01711 -0.0124401 4.70752e-22)
(1.77909 0.258271 -3.19373e-20)
(1.79788 0.959869 -9.23135e-20)
(0.771364 -0.691504 6.36951e-20)
(0.438964 -0.301173 -3.20395e-19)
(1.00738 -0.00917473 0)
(1.02044 0.00415707 5.31371e-20)
(1.01128 -0.0078265 1.12207e-19)
(0.885112 0.733484 2.16487e-20)
(1.01471 0.00783159 -2.22782e-19)
(1.02736 -0.0187926 2.549e-19)
(1.00809 -0.00748447 -2.09745e-19)
(1.01376 0.00704352 -4.921e-22)
(1.01291 0.00328358 -3.39363e-22)
(1.02506 0.0157291 2.13261e-19)
(0.906001 0.0999744 5.37744e-19)
(1.53363 -0.320016 0)
(-0.300357 -0.0143212 6.93199e-20)
(1.01126 -0.00133596 0)
(1.02182 -0.0141326 -6.1915e-20)
(1.55693 0.45565 -1.03065e-19)
(1.57744 -0.0211414 0)
(2.25258 -0.211781 -1.52006e-19)
(0.921126 -0.341879 -4.24357e-20)
(0.772507 -0.0190546 0)
(1.78688 0.0301027 0)
(-0.382814 -0.549405 -2.75278e-19)
(1.33817 0.739175 -3.68843e-20)
(1.01797 -0.00179139 -2.24598e-19)
(1.10966 -0.554065 -6.51135e-20)
(0.136105 0.027797 -4.68313e-20)
(0.751425 0.650424 0)
(1.41812 -0.210233 0)
(2.04952 -0.172618 0)
(-0.111979 0.157852 6.97044e-20)
(0.807458 0.799505 -5.16762e-20)
(-1.22535 -0.889473 0)
(0.107455 0.432554 -1.78455e-19)
(1.72279 0.984757 -2.4474e-20)
(1.00779 -0.00199332 -4.38683e-19)
(0.828477 0.769008 2.5901e-20)
(1.02106 0.0122831 2.90611e-19)
(0.699168 -0.0448305 0)
(-0.180845 -0.133567 -2.21194e-20)
(0.628117 0.453016 -3.55552e-19)
(1.58046 -0.152126 2.63291e-19)
(-0.0346701 0.336752 0)
(0.77322 0.0749655 8.40126e-20)
(0.529576 0.507507 5.41777e-20)
(1.20431 0.899909 -4.09824e-20)
(-0.0937226 -0.101489 1.08646e-19)
(1.02281 0.0181372 0)
(0.737778 0.680729 -6.3916e-20)
(1.01199 -0.000614285 1.64773e-19)
(2.36061 0.159677 0)
(1.01211 0.00890225 2.76207e-19)
(-0.159056 -0.0499782 -1.26427e-19)
(1.01858 0.0133367 -1.71147e-19)
(1.60082 1.04935 0)
(2.50138 -0.283015 6.19282e-22)
(1.00885 0.00437999 -1.14694e-19)
(0.996417 -0.0198536 3.02492e-19)
(1.10153 0.103853 -2.74051e-21)
(0.773531 0.6105 1.09635e-19)
(-0.109512 -0.145279 2.87076e-19)
(2.038 0.274372 1.34507e-19)
(-0.0137447 0.226002 -1.23546e-19)
(0.799528 0.0145709 -4.13874e-19)
(0.818915 0.0307351 0)
(0.493466 0.355094 -1.46412e-20)
(1.02249 -0.0103956 -3.3277e-20)
(0.971494 0.036072 0)
(1.05187 0.00486092 -2.11524e-19)
(-1.03517 -0.293218 7.68735e-20)
(-0.847172 0.181201 1.33354e-19)
(2.14696 -0.544955 0)
(-0.185612 0.112783 -6.70972e-19)
(1.49636 -0.335871 0)
(1.04075 -0.017043 6.19582e-20)
(0.714773 0.594455 -1.42327e-21)
(1.01379 0.00146838 1.78167e-19)
(-0.151772 0.512738 3.52805e-19)
(1.01952 0.00465384 0)
(0.994383 0.00360975 -4.28371e-19)
(1.00884 0.00816095 2.26503e-19)
(1.46636 -0.204509 0)
(0.220995 0.25714 8.97126e-21)
(0.956251 -0.00127717 -1.9349e-19)