/*--------------------------------*- C++ -*----------------------------------*\
| =========                 |                                                 |
| \\      /  F ield         | OpenFOAM: The Open Source CFD Toolbox           |
|  \\    /   O peration     | Version:  2306                                  |
|   \\  /    A nd           | Website:  www.openfoam.com                      |
|    \\/     M anipulation  |                                                 |
\*---------------------------------------------------------------------------*/
FoamFile
{
    version     2.0;
    format      ascii;
    arch        "LSB;label=32;scalar=64";
    class       volScalarField;
    location    "18";
    object      p;
}
// * * * * * * * * * * * * * * * * * * * * * * * * * * * * * * * * * * * * * //

dimensions      [0 2 -2 0 0 0 0];

internalField   nonuniform List<scalar> 
2186
(
0.856468
-0.289831
0.0197227
1.157
-0.735207
-0.0698464
0.752063
-0.949539
-0.972069
1.4103
1.15587
-0.892965
-0.960144
1.1125
-0.521069
1.1191
1.14088
-1.13931
0.00286424
-0.70808
1.51497
-0.68934
1.12067
-0.970205
1.11213
1.13148
1.3346
0.981672
0.695631
1.11222
-0.695041
1.11296
-0.650141
-1.16857
-0.89099
0.21931
-1.07845
1.50523
-0.663173
-0.142442
-0.973125
-0.672922
-0.632427
-0.784881
1.00082
1.39373
0.415408
0.589938
-1.51573
-0.84012
-0.700254
1.00186
-0.632193
1.44021
-0.665146
1.03268
-0.681782
1.06052
-0.764503
0.894423
-1.01239
0.730836
0.654138
-0.127413
0.667439
0.530985
0.77122
1.40275
1.29836
-1.00364
-0.954631
-1.088
1.36904
1.08664
1.28914
1.24482
-1.28297
1.13588
-0.895339
-0.637306
-1.40758
-0.21112
1.10661
0.717349
1.10084
1.10779
1.41146
-0.0115321
-0.0543709
-0.909235
1.03517
-0.704161
1.02221
1.26588
1.12174
0.522268
-0.10628
0.680502
-0.804838
1.07508
-1.66774
-1.62277
0.7345
1.04383
1.1428
-0.709503
1.33205
-0.741889
1.01981
-1.87398
-0.60609
-0.784045
0.614775
1.43967
-0.931052
-0.87776
-0.0778311
-1.6272
-0.910765
1.37021
0.0874454
-1.00185
0.961622
-1.35892
1.12382
-0.0522456
-0.765879
1.23629
-1.19956
0.732354
1.48371
1.3312
0.304326
0.724294
-1.4883
-0.863517
1.00311
-1.00773
-0.620465
-0.919574
0.905498
-0.155054
-0.934602
0.777681
1.01124
1.0517
-0.669836
-0.754188
0.687336
-0.742384
-0.730031
0.653534
1.13871
1.27599
1.13327
0.600682
1.40932
0.524668
0.428069
0.492325
-0.920939
-1.23892
1.09327
1.07638
-0.00349656
0.0160957
-0.82017
-0.86676
-0.22892
-0.262613
0.462527
1.08108
1.14158
1.20073
0.531502
-0.268358
-0.735049
1.09365
-1.46759
0.963844
-0.864606
1.12733
-0.703051
0.649425
0.636056
-0.769531
-0.771638
1.25145
-0.523707
-0.958283
-0.939287
1.37178
-1.46932
1.06873
-0.917191
-1.80259
0.195257
1.29103
1.18551
-0.694051
-1.04553
-1.19423
0.143712
1.1419
-0.90607
-0.729326
-0.909189
-1.4702
1.05958
-1.22791
0.594929
-0.068196
1.42568
0.933652
1.03071
1.03699
1.30357
1.11668
0.981723
1.21685
0.444751
-0.829597
-0.678974
0.205968
0.253169
-1.13985
-0.756079
1.1536
1.23676
-0.89105
-0.842462
-1.86712
0.439847
0.7322
0.871135
0.982818
1.2118
-1.51379
0.972109
-0.926838
-0.844941
-0.862636
1.11349
0.835192
1.2709
1.28939
1.22955
1.20765
-0.942844
0.907859
1.22888
-0.968097
1.10019
0.882773
-1.91865
-0.899347
-0.873461
1.27263
1.14119
-0.979019
-1.24626
-0.740295
1.04145
-1.43331
0.853236
1.18564
0.959568
-0.919336
-0.699525
1.08787
0.72072
-0.694183
-0.511343
1.46471
-0.73077
-0.942566
0.941954
1.27962
1.10286
-0.793671
-1.05472
-0.860516
1.021
-0.984771
0.620303
1.08597
1.11499
-0.150559
-0.531636
1.07758
-0.969609
1.0196
1.29031
1.1363
1.13311
-1.00637
-0.827379
-0.972986
-1.09828
-1.82369
-1.51512
0.448113
-0.522086
0.714569
1.26522
1.32891
1.02551
-0.712102
1.25992
-1.09332
-0.14713
-1.13406
-0.919001
-0.973505
0.422285
-0.730378
-0.716114
0.275455
1.03632
-0.372695
0.490263
-0.774561
-0.0514605
-0.947017
-0.766686
1.33345
0.0964947
-0.0121863
-0.692852
0.871422
0.649083
-0.384579
0.605683
-1.04465
-1.00942
0.767609
1.13858
1.19241
-1.51198
1.26642
0.974776
0.48172
1.34229
1.11468
1.04482
0.437482
-0.42696
-0.925368
0.977634
-0.787902
-0.887119
-1.14621
-0.792168
-0.91381
1.4911
-0.794953
-0.700325
-0.973969
1.11417
-0.713193
-1.83846
-0.821641
0.842143
-0.170652
-1.33179
1.3739
1.43561
1.2207
-0.940412
-0.0795937
1.50718
1.11866
-0.97942
0.553664
-0.93302
0.238114
1.29777
1.09765
0.974681
1.408
-0.493122
-0.553762
-0.350442
-0.942618
-1.36956
-0.679096
-0.215076
1.43624
-1.21867
-1.2233
1.10547
0.660415
-0.90699
-1.56177
-0.928248
-1.00616
-1.22749
-0.913264
-0.697238
-0.722212
1.29958
-0.597383
-0.850298
1.12895
-1.21558
1.36105
-1.40319
-1.84387
-0.830681
1.11124
-0.860759
1.13925
0.933471
-1.27742
1.14352
-1.05099
-0.914251
-1.05779
1.10371
1.04947
-0.926408
-0.934146
-1.14908
1.09729
-1.35746
-1.76955
0.619272
1.05915
0.983371
0.800164
-0.943982
-1.00776
0.934377
-1.02927
0.902913
-2.10379
1.13472
0.0674057
1.22819
-0.911442
0.938429
0.801563
1.14677
-1.06274
1.11197
-0.842696
-0.912918
1.11499
-1.71168
0.224631
-0.820885
-0.0948197
1.12125
0.143037
0.361094
1.11979
0.349202
-0.121309
-0.0877735
-0.700649
0.294465
-1.00669
0.807246
-0.573668
1.19117
1.22945
-0.954516
-0.917902
-0.550409
-0.684408
0.52785
-0.952768
0.947797
-0.0150653
-0.953648
1.21713
-0.483442
0.482287
0.365339
-0.25354
0.90985
0.454701
-1.05389
-1.74718
-0.229608
-0.615568
1.13073
-2.03085
1.21426
1.32764
1.3149
0.758103
1.29041
-0.725641
-0.623737
1.00053
0.285589
1.10612
-0.679966
-0.946313
-1.59607
0.886299
-0.913174
-2.13001
-0.707806
-0.744785
0.0413581
-1.08829
0.842768
0.807883
-0.65628
-0.883541
0.833494
0.138984
1.25919
-2.03387
-0.0729403
-0.914532
0.872567
-0.0833082
1.26974
1.52224
-1.62673
-0.73904
-0.81495
0.384463
-1.5466
1.13077
-0.928202
1.08544
0.862841
-0.938484
0.979595
0.940672
-1.79791
0.980266
-1.10031
-0.70405
-1.3285
-0.872201
-1.06141
-1.39024
-0.800682
1.11508
0.320214
-0.75755
0.668875
1.26228
1.31337
-0.309092
0.847795
-0.439331
0.861102
-0.149012
-1.44856
-0.709344
0.604189
0.922563
1.18032
-1.7854
-0.958641
-1.32516
-0.915751
-0.05441
0.815017
-1.89058
0.0521419
-1.16563
1.05787
-1.27796
1.06826
-0.870214
-0.70186
1.0577
0.750095
-1.49936
-0.0723343
1.07958
1.39562
1.13664
-1.07123
-1.18941
0.887911
-0.75238
0.874816
-0.527702
0.553421
1.07686
-0.95213
-0.699934
1.13747
-1.10316
1.36603
-0.147266
0.964436
0.251759
0.707216
-0.770638
1.34634
-0.703413
-1.45998
1.08029
0.630134
0.595947
-1.12899
-0.69612
-0.995672
0.882266
-0.118097
-0.943787
-1.19985
1.13161
0.49409
-1.0496
0.851317
1.00847
1.09917
-1.96586
-0.622249
-0.704935
1.12875
1.29959
0.566903
1.12463
0.0311301
1.15541
0.227345
-0.847283
-0.544089
1.03003
1.07856
-1.47402
0.968208
-0.705906
0.915911
-0.813081
1.12118
1.04896
1.13211
-2.03693
1.03881
-1.36168
-0.75316
1.27922
-1.74037
-1.78645
1.2364
-1.20937
1.2286
-1.67113
-0.710658
1.16602
0.867411
1.4657
1.11456
-1.38911
1.17924
1.20558
-0.909891
0.750906
0.034025
-0.840828
1.60776
-0.927546
1.2576
-0.735493
0.375425
1.11506
-1.19863
1.10544
-1.65103
1.04352
1.05954
1.1277
0.0607019
-0.922353
-0.558233
0.667957
0.760515
1.16947
-0.230308
0.945787
-2.12232
-0.344456
-1.42761
0.923498
1.24441
-0.845496
-0.980212
-0.0809775
1.35637
-0.134336
0.850688
-0.147087
-1.65019
-0.942679
-0.707895
-1.08133
0.911115
-1.75257
-0.138559
-0.206731
-0.537027
-0.724456
-1.13613
-0.304291
1.08541
1.13431
-1.14367
-0.428843
1.09925
1.04393
1.13365
-1.60581
1.09763
1.1618
1.10999
1.15496
-1.47324
-0.131156
-0.700559
0.733783
1.11564
0.791675
0.222285
-0.122254
-2.13506
0.106012
1.36234
-0.153694
0.317476
-0.661418
-0.0998061
-0.947103
0.900478
-0.886618
-1.24834
-0.908728
1.11689
1.1163
1.12707
-0.020028
0.451118
1.33734
-0.170013
1.11114
-0.132919
-0.0494616
0.877132
1.13438
1.21643
0.00924358
1.09222
1.0908
-1.21177
-0.103725
1.12754
1.13965
1.13575
-0.915902
-0.954149
1.13605
0.692335
1.11665
0.326792
-0.00376258
0.177598
-1.89274
-0.446528
-0.720222
-1.5816
-0.474434
1.1421
1.14672
0.862087
-0.920391
1.11694
-0.167934
-0.184247
-0.0131388
1.11318
1.13954
1.13657
1.15028
1.12726
1.12076
1.1115
-0.0721091
-0.104704
-0.144499
-0.216391
-0.0117525
0.0134037
0.00560696
-0.109986
-0.161567
-0.14568
-0.108766
1.10759
1.12848
1.1232
1.14589
1.14411
1.13634
1.14034
1.11785
1.125
-0.151959
-0.208105
1.13731
1.13605
-0.0147332
1.13824
1.1372
-0.0370033
0.21415
-0.15765
-0.699003
-1.76442
1.1197
-1.01612
1.11683
0.72148
1.17563
-0.925327
1.11576
1.05976
1.05953
-0.69891
-0.241625
-1.04747
-0.128226
0.0728105
-0.694129
1.13305
0.137329
1.20784
1.12352
-0.0547426
1.30751
1.45812
-0.075355
0.990716
0.750308
1.11672
1.13472
1.12548
-0.923407
0.601039
0.00745721
1.122
1.13077
-1.00532
0.163309
1.12407
-0.0762387
-0.219341
1.12302
-1.11394
1.10396
1.13588
-0.978719
1.12792
0.268289
1.11915
1.20112
-1.9836
1.13304
1.1409
0.0596301
0.801647
1.11946
1.12593
0.273978
-0.609141
0.803429
1.45671
1.13218
1.12164
1.12687
0.26486
1.12209
1.10729
1.12885
1.12271
1.12511
1.12088
1.23038
-0.718533
-2.10905
1.12331
1.11834
0.397007
-1.09599
-0.779951
-0.81337
0.99166
-1.46925
-0.6081
0.0514825
1.11978
0.817434
0.0863979
0.112882
-0.084711
-0.570649
-0.744069
0.219678
-0.720191
-1.23316
-0.208549
1.1271
0.139966
1.11477
1.0391
-0.911493
1.3792
-0.45545
-0.961079
0.852543
1.26721
0.576909
-0.911621
1.11889
0.206751
1.12512
-0.99757
1.12547
-1.18505
1.11718
0.125102
-0.842186
1.12725
1.14223
1.06877
0.208997
-0.909064
-0.614707
0.28384
1.13895
1.02289
0.239026
1.11861
1.16075
1.11165
0.332471
-1.75435
-0.627948
-1.71458
0.39856
1.125
-0.0982874
1.12084
-1.6704
1.11937
1.15816
1.12878
-0.0526017
-0.0559556
1.15397
-1.00597
1.13054
1.13466
0.0778355
-0.948975
1.0754
1.27067
1.11482
1.11323
0.419353
0.196978
1.08714
0.491278
1.12936
0.936728
-0.759603
-0.940338
0.96897
1.35928
1.11971
0.421582
-0.681376
0.467008
-1.84225
-0.581257
1.10232
-1.21633
1.10584
-1.26937
-0.919498
-0.734371
0.572993
-0.986517
-0.454785
-0.411296
1.11644
-0.909631
1.0466
-0.930317
-0.108318
0.135519
0.0721251
-0.427027
1.09245
0.244524
-0.777337
-0.186843
-0.961351
1.10559
-0.596686
0.0672582
-1.70938
1.21558
-0.301734
-0.927759
1.18863
1.10337
1.09356
0.566342
-0.875104
1.12469
1.1523
-1.38871
-0.718252
1.11563
0.88633
1.3865
1.13693
-1.26376
-0.777038
-0.735974
-1.20077
-0.876475
-0.91261
-0.0153346
-1.04214
0.89098
0.0463764
1.12511
1.33971
1.1158
-0.912124
-1.03953
1.11767
-1.19386
-0.529766
1.09457
-0.27148
-0.683044
-1.71141
0.0992708
1.07117
1.0428
-1.17534
0.937104
0.811913
-1.52121
1.1013
-1.41309
0.93676
-0.646839
1.08849
-1.67718
0.505653
1.11866
1.23226
-1.81953
-1.52141
0.954824
1.49423
1.13938
1.1569
-1.01063
1.34816
-0.861781
-0.286725
-0.77714
0.55216
-1.92943
1.23178
1.26338
-0.933987
-1.40893
1.11603
-0.82559
0.948451
1.14909
1.08941
-1.71664
1.1198
-0.0442382
1.14544
-0.048983
-0.187064
-0.000494907
1.12262
-0.163968
-0.341479
-0.353564
1.11301
-0.31209
1.32756
0.338209
1.46074
1.12668
-0.813558
1.09805
-0.708828
1.09531
1.09436
-0.1561
-0.400439
1.26357
1.10838
1.36301
1.07707
0.156836
1.08135
1.10438
0.995001
1.12721
-0.945647
-0.833419
-1.22984
1.21212
-1.56724
-0.605632
-0.705061
-1.63504
-0.167617
-0.0636858
1.00913
0.0420988
1.06888
1.12253
-0.722692
-1.15354
-0.895871
-1.31687
-0.890959
-0.709188
1.12467
-1.9311
1.13647
1.34211
1.17593
-0.0760315
1.14312
1.05624
-1.49383
1.07266
1.10413
-0.78037
1.10325
1.08394
-0.123601
-1.0558
1.57525
-1.88595
-1.14387
-1.03148
0.312019
1.09449
-1.15009
-0.769529
-0.693347
1.26116
-0.803732
0.997372
1.13631
1.10028
-1.32419
1.08266
-2.02113
1.13308
1.14793
-0.307711
1.13751
0.649857
1.10514
0.802866
-1.71725
0.024616
0.021232
0.0810413
1.37368
-0.165738
1.15275
1.52545
-0.6451
-0.0491617
1.18372
-0.0688176
1.18085
-0.0366994
-0.0539838
1.18314
1.18745
0.505642
-1.3409
0.908271
-0.60505
-0.784776
-0.535991
1.14342
1.11169
1.5326
-0.911906
-0.912945
0.831898
-1.05252
1.20156
1.12667
1.10366
1.11201
1.07228
-1.8912
-0.911729
-1.23308
0.946906
1.04728
-1.95423
-0.713068
-0.930726
1.13397
1.14932
-1.27762
-1.55846
1.15735
-1.28355
0.348187
0.921598
1.06885
-0.212412
-1.08432
-0.106402
-0.928832
-0.641915
-2.03057
-1.67088
1.47995
1.50556
-0.671971
-0.877329
1.13473
1.11098
-0.867045
0.00075588
-0.297193
0.801635
1.2205
-1.34579
1.12832
-1.35866
-1.07076
-0.878111
-1.08977
-0.780816
1.09766
-0.915534
-1.47201
1.49695
-0.932743
1.12877
1.36512
-0.712994
1.14593
1.35724
-0.722573
1.38778
-0.946535
-1.09033
1.15695
0.169551
1.11519
1.13008
-0.950993
1.17431
0.222055
-1.96023
1.16495
1.13348
-0.849472
-1.29684
1.07406
1.12152
-0.943612
-1.70678
1.42707
-0.950909
1.03837
0.063346
1.05452
-0.883289
-2.0284
-0.933898
-0.711873
1.23972
1.14834
1.39558
1.3518
1.12624
1.18422
1.21085
-0.930017
1.27977
1.24834
-0.729502
-0.951542
-0.833496
1.46707
-1.74866
-1.05897
0.145379
1.08665
-0.732372
-0.644141
1.16873
1.12242
-0.937973
-0.71978
-1.02736
0.136471
-1.76407
-0.727803
-0.925809
1.04072
0.992106
-0.711688
-0.306039
-0.817398
0.992989
-0.949739
-0.696577
-0.922476
1.04575
-1.53702
-0.722938
1.43645
1.00798
0.478477
1.30264
0.117653
1.08181
1.13538
1.23852
1.3157
-0.204427
0.837511
1.15552
0.3453
-0.918689
1.55157
1.07689
1.01724
1.17688
-0.727077
-1.8091
0.96177
0.943476
1.08094
-1.92947
-1.8428
1.10691
-0.917325
0.929555
0.00375311
1.55531
-0.916161
0.890653
0.833264
-0.704769
-0.914169
-1.20226
1.16572
-0.707098
-0.910055
0.795152
0.776085
-1.17614
1.19307
0.940106
-0.70891
-0.596406
1.08502
-2.08362
-0.912563
-1.00643
-0.6951
-0.923975
1.11118
1.12769
-2.01986
0.7113
1.12639
1.47477
0.361202
0.456923
0.186325
0.98485
-0.389476
-0.702912
-1.56928
-0.436781
-0.700781
1.11814
-0.700114
0.349711
-0.911184
0.709764
0.660968
-0.697968
0.731361
-2.07701
0.586206
-0.695376
0.636674
-0.704207
0.476667
-0.909767
0.554866
-0.693019
0.918084
-1.5634
-0.69385
-0.700671
-0.90374
1.13737
0.167897
-0.728539
-0.915624
0.220011
0.261293
-0.695902
-0.908908
-0.77046
-0.0461789
-0.930146
0.0611431
-0.962044
-0.139488
-0.846869
-0.219425
1.01983
-0.231642
-1.75049
1.10898
0.0579827
-0.135713
0.54136
1.08758
-1.45168
-1.94044
-0.911144
-1.37252
0.999289
1.5526
-0.962209
-0.158208
0.0962262
-0.917955
-0.258258
-0.302383
1.10245
-0.706966
1.0709
-1.33598
1.62051
0.544668
1.53004
-0.716979
1.29731
-0.384376
1.11718
-0.989291
-0.908683
1.1796
1.11292
-1.71319
-0.911247
-0.697799
1.10852
-0.741162
1.10871
-1.04688
-0.971693
-0.93434
1.43367
1.17011
1.21725
1.147
1.1364
-0.0415377
-0.549413
1.35078
-2.06504
-0.870319
1.55408
-0.715908
1.03958
1.06286
1.4941
1.54253
-0.728985
-1.38101
1.15624
0.309281
-0.39521
-0.653416
-1.02571
-2.1623
-0.716105
0.648124
-1.24373
1.30854
-1.29147
1.1905
1.26927
1.17203
-1.25959
-0.888086
-1.00533
1.20959
-0.889081
1.31965
-0.557135
-0.953712
1.38221
1.41394
-0.904539
0.257642
1.06218
-1.16311
-0.958591
0.759017
1.41715
1.33711
-0.902963
1.00986
0.992885
-0.907649
1.348
0.448
-0.713833
-1.13817
-0.135424
-0.12518
1.25894
-0.79236
0.427039
0.0726725
-0.0451511
-0.700367
-0.897175
1.11721
-1.61127
1.15584
0.0636793
0.162251
0.789083
0.334851
-0.897931
-0.445377
-1.12629
-0.116536
0.0813069
-1.20028
1.08185
-1.7587
-1.78243
1.14689
-1.09885
-0.730832
1.13494
-0.931141
1.1173
-0.0458752
-0.918132
-0.285425
0.890561
-0.782052
-1.54607
0.991892
-0.952473
1.19162
-0.518256
-0.941007
-0.899569
-0.910503
1.59921
-1.79011
1.23446
0.126136
1.07856
1.31555
0.819396
1.13895
1.30473
-0.0223672
-1.7458
1.0872
1.19996
1.47299
-0.924715
1.17612
0.823266
-0.943121
0.884527
1.31498
-0.416518
1.48649
0.298045
-0.658161
0.931204
-0.949512
-0.697355
1.05838
-0.308074
1.17751
1.15784
1.09273
-0.685835
1.04659
1.40702
-0.942047
-0.192385
-1.77355
-1.02579
-0.941102
-0.911552
1.45973
0.843322
-0.719056
1.00846
-0.952565
-0.835856
1.37747
1.37063
-1.58975
-1.31545
-0.910262
-0.937829
1.08876
-0.726378
0.146338
-0.671566
-0.328073
1.1853
-0.949518
1.53087
1.17361
0.983489
1.15326
1.44697
-1.01551
-0.955156
1.12781
1.25161
-0.652909
1.1256
-1.82328
-0.932888
-0.937175
1.22994
1.25951
-0.937245
-0.740886
0.640342
-0.016015
-1.1018
1.10872
1.10874
-1.29401
1.14834
1.19047
-1.20975
-0.731186
-0.704958
-0.928974
-0.939118
1.42055
-0.5376
1.06281
-0.733465
1.4159
1.00626
1.01493
1.08468
-2.08923
-1.13817
-0.924923
0.678842
-0.722749
1.01703
0.372529
-0.467214
1.00341
1.10459
1.16181
1.13547
-0.0652706
1.16015
-0.0538166
0.500642
0.935144
-0.427592
-0.729517
-0.786604
-0.538061
1.13318
1.06674
1.13225
-1.60536
-0.750829
-0.921229
-0.636033
1.13151
1.42792
1.14495
-0.726282
-0.735016
-1.10455
-0.39384
-0.910951
-0.911151
-0.0613024
1.12155
-0.625727
-0.711005
0.0353773
-0.0290016
0.868435
-1.98119
-0.918423
-1.04081
1.07591
1.55126
0.0998107
1.22059
1.61399
0.808416
1.34131
-0.733915
0.0430221
1.50477
-0.915484
0.3916
-0.719474
-0.943313
-0.694107
-0.706186
1.08921
0.823513
1.33598
1.29819
0.0109125
0.871981
0.184808
0.0159837
-0.913147
1.23113
0.870097
1.13988
1.15654
-0.115235
-0.148516
1.15141
-1.21287
-0.914018
-0.708604
-0.704053
0.680452
-0.704015
1.0783
0.758486
-0.914609
1.33667
-0.721942
-0.178327
1.10182
-0.734585
-0.898762
-1.88952
0.745046
-0.713714
-1.00755
1.0585
1.14785
-0.105023
0.100562
-2.05501
-0.911542
-0.693658
-1.27149
-0.148778
0.688572
-1.02078
-0.701904
1.40522
0.408396
0.508843
-0.69968
-0.948074
1.12256
1.14546
0.675149
0.621821
-0.696616
-0.908622
-0.735225
0.59909
0.527376
-0.693654
0.968615
0.292484
-0.690389
1.58129
-0.694
-1.63876
-0.939323
-0.646012
0.937004
-0.710093
-0.718129
-0.920181
0.0774824
-0.746046
0.149981
-0.671465
-0.121478
1.31639
-0.801803
-0.110236
-0.946153
-0.0261553
1.48116
1.50499
1.3723
1.12888
1.34931
-0.553516
1.11581
-0.72509
1.14301
-0.912086
-0.915042
1.36837
-1.07103
0.563152
-1.40566
1.51349
0.0763234
1.44882
0.7432
0.904671
-0.716168
-0.717331
-0.909421
-0.899672
1.43127
1.33176
1.11473
0.721816
1.11727
0.962332
0.955377
-0.693712
-0.932936
0.398746
0.134404
0.930404
1.13267
0.0381482
-0.711937
-0.690406
-1.32179
-0.909169
-1.59432
1.45022
1.15096
1.12674
-0.0866372
-0.113415
1.14799
-1.04625
-0.91204
-2.19365
-0.934365
0.918952
-0.708491
-0.697947
-0.256207
1.1317
-1.61309
-0.938247
1.11741
0.697157
0.816378
1.11689
-0.910808
1.00531
1.29775
0.932746
-0.908965
1.10935
0.435259
0.598242
-0.888826
-0.705171
1.57362
0.317478
-0.999143
0.0810539
1.04128
1.0991
-0.894468
-1.27161
-0.108964
-0.674706
-0.84915
-0.722157
-0.0106321
1.11201
-0.894743
1.11534
1.38819
1.19253
1.11949
1.22139
1.28185
1.12041
-1.2578
-0.609461
-0.267211
-0.987246
-0.866818
-0.696948
1.28096
1.18653
-0.946319
1.07243
-0.666325
-0.0882784
-0.695381
-0.381251
0.622761
-1.16779
1.11
1.04122
-1.16465
-0.342556
1.45911
-1.51333
-0.992717
-1.03204
-0.727231
-0.665673
1.15944
0.905276
1.19961
-1.10549
-0.889442
-0.886317
-0.224317
-0.946817
-1.47041
-1.12763
-1.89348
1.04517
-0.724605
1.56262
-0.933317
-0.545169
-0.94475
-0.696135
1.03569
-0.968629
-1.05895
-0.904005
-0.326414
1.33181
1.32832
-2.16436
-1.22047
0.955275
-0.928918
-0.856482
1.21218
-1.1261
-1.72326
-0.900227
0.882767
-0.400317
-0.946128
1.11296
0.140689
-0.773497
1.12641
-0.705167
-1.29735
-0.952533
-0.763114
-0.0410619
-0.944764
1.4522
-0.916055
0.223031
-0.913198
0.924476
-0.56685
-0.831057
0.783205
0.857695
1.17506
1.07394
1.3103
-0.706873
0.949261
0.63701
-1.02853
1.06061
-0.233776
-0.575413
-1.77202
1.28609
1.27289
-0.648503
-0.782859
-1.0785
1.14891
-0.726856
0.177532
-1.18885
-0.702618
1.41638
1.14681
-0.716659
-0.691151
-0.717696
-0.711701
1.02502
-0.73937
1.11294
0.367538
0.842109
0.967603
-0.67862
-0.796791
1.07312
-0.698844
-0.00374597
1.39993
-0.922466
-0.709206
0.953458
-1.01922
-0.706517
-0.160734
-0.909979
1.47136
-0.603594
0.192997
-0.718364
1.40951
-0.720325
-0.68735
0.778485
-1.13866
-0.91212
1.44974
0.80804
1.10575
-0.715055
1.36831
-0.261057
-0.816743
-0.72257
-0.726545
-0.723395
1.40049
0.711578
-0.934884
-0.72163
-0.940243
1.2578
-0.642314
1.38525
-0.912425
0.842414
-0.707475
0.509861
0.675053
0.641089
0.561055
0.256544
-0.665591
1.14158
-0.724724
-0.54175
-1.06824
0.347614
1.42688
-0.290016
-0.712251
-0.736569
-0.709027
0.405152
-0.930833
-0.706157
0.937865
0.252957
-0.712217
1.49358
-0.942991
-1.39958
1.47442
-0.709873
0.292875
-0.667488
-0.695594
-0.704872
1.46781
-0.687764
1.38946
-0.703593
-0.764355
1.30568
-0.214125
-0.688595
0.701739
-0.912485
0.16133
-0.394754
-0.706228
0.904026
-0.989957
-0.706091
-0.697024
-0.696688
-0.918551
0.943244
-0.0079545
-0.467428
-0.714412
1.41857
-0.825711
-0.700498
-0.68262
-0.111539
-0.819531
-0.682246
-0.713299
-0.0718639
1.38303
-0.725512
-0.908392
-1.02111
-0.730916
-0.0875728
-0.923905
1.50646
1.44122
0.552349
-0.847034
-0.915745
0.468683
-0.915735
1.52063
0.350186
1.17276
0.833966
1.39057
0.234285
-0.831912
-0.897206
0.0841853
-0.724868
0.084615
-0.0555441
-0.703983
1.41553
-0.288345
0.361111
-0.431356
-0.908292
-0.870868
)
;

boundaryField
{
    frontback
    {
        type            empty;
    }
    Top
    {
        type            zeroGradient;
    }
    outlet
    {
        type            fixedValue;
        value           uniform 0;
    }
    bottom
    {
        type            zeroGradient;
    }
    Inlet
    {
        type            zeroGradient;
    }
    rectangle
    {
        type            zeroGradient;
    }
}


// ************************************************************************* //
