/*--------------------------------*- C++ -*----------------------------------*\
| =========                 |                                                 |
| \\      /  F ield         | OpenFOAM: The Open Source CFD Toolbox           |
|  \\    /   O peration     | Version:  2306                                  |
|   \\  /    A nd           | Website:  www.openfoam.com                      |
|    \\/     M anipulation  |                                                 |
\*---------------------------------------------------------------------------*/
FoamFile
{
    version     2.0;
    format      ascii;
    arch        "LSB;label=32;scalar=64";
    class       surfaceScalarField;
    location    "18";
    object      phi;
}
// * * * * * * * * * * * * * * * * * * * * * * * * * * * * * * * * * * * * * //

dimensions      [0 3 -1 0 0 0 0];

oriented        oriented;

internalField   nonuniform List<scalar> 
3181
(
-1.05695
0.41661
0.64034
-0.393531
0.370911
0.0226198
0.52991
-0.363506
-0.166404
0.124281
-0.205158
0.0808766
-0.0646683
0.0759202
-0.0112519
0.791565
0.702162
-1.49373
0.151414
-0.144935
-0.00647982
0.0745511
0.00139847
-0.0759496
0.586876
-0.768893
0.182017
-0.0749163
0.139937
-0.0650208
-0.0102887
-0.0502101
0.0604988
0.122355
0.0505946
-0.172949
-0.00387939
-0.0630256
0.066905
-1.09632
0.151401
0.944915
-0.332547
0.706507
-0.37396
-1.12064
0.636083
0.484557
0.0852757
-0.933596
0.84832
-0.328834
0.266428
0.0624062
-0.831167
-0.464451
0.00455827
0.0439988
-0.0485571
0.0325372
-0.0831391
0.0506019
-0.0683608
0.0593846
0.00897615
1.0635
-1.0381
-0.0253998
0.022618
0.0363233
-0.0589413
-0.957667
0.326268
0.6314
-0.109489
0.233771
0.309077
-0.241008
-0.0680696
0.030346
0.0636064
-0.0939523
-0.404623
0.333225
0.0713981
-0.0328114
-0.0144442
0.0145035
-5.92273e-05
-0.0374491
-0.920218
0.0592755
-0.0505034
-0.00877209
0.158534
1.48917
-1.6477
-0.0511343
0.0527097
-0.0015754
0.176241
0.272555
-0.448796
1.65195
-1.49342
0.0701238
-0.0375866
1.52495
-0.791508
-0.733442
-0.295219
1.08678
-0.125165
0.121286
-0.0681775
-0.000183267
-0.413809
0.0812622
-0.133381
0.0652036
-0.628088
0.127524
0.500565
-0.151896
0.0769801
-0.171184
0.175555
-0.00437116
-0.275415
-0.0771858
0.352601
0.161827
1.35017
-1.512
0.0710449
0.152049
-0.223094
-0.00988596
-0.0984055
0.104389
-0.00598389
0.523121
0.183386
-0.0960418
0.136908
-0.0408667
0.0893823
-0.0301067
-0.1744
0.201346
-0.0269459
0.165987
0.0565144
-0.222502
0.111358
-0.117386
0.00602743
1.25252
0.272431
-0.863831
-0.193119
0.0511236
-1.72685
1.67572
0.545839
0.229513
-0.775352
-0.439833
-0.202181
0.642014
-0.7953
0.500082
-0.26992
0.815758
-0.32825
-0.102887
0.431136
-0.204283
-0.20034
-0.192918
0.164608
0.0283095
0.127686
0.286364
-0.41405
-0.177828
0.764704
-0.013369
0.0879201
-2.05989
2.11102
0.192609
0.116468
-0.182109
-0.11177
0.293879
-0.26944
0.351357
-0.081917
-0.0830494
0.0912587
-0.00820929
-1.89807
-0.918635
0.0101837
0.908451
-0.0545824
0.0034481
-1.04806
0.790247
0.257811
0.493741
-0.276846
-0.216895
-0.811761
0.0164606
1.10709
-0.955693
-0.709753
1.14555
-0.200639
1.06964
0.163213
-0.175001
0.0117886
1.47313
-0.770971
0.743209
-0.743209
-0.00785354
-0.000497104
0.00835064
-0.216251
-0.0532657
0.269516
0.0930892
-0.0651245
-0.0279647
-0.452723
0.837913
-0.38519
-0.013631
-0.242412
0.256043
-1.08261
0.044508
0.341705
0.0547746
-0.396479
0.136379
-0.849317
1.07883
0.0771682
0.0693755
-0.146544
-0.0175202
-0.15688
-0.347198
0.0425868
0.304611
-0.19305
-0.154148
0.118889
-0.968206
0.333465
-0.786188
0.923225
-0.837949
-0.0123315
0.178837
-0.166506
0.0807696
0.0512655
-0.132035
-1.40207
-0.096628
1.4987
-0.249399
0.41415
-0.164751
-1.205
0.593543
0.611459
-0.466117
-0.58194
0.145734
-0.0746889
-0.155444
0.149787
0.00565673
-0.0769747
-0.012039
0.0890137
-0.546157
-0.222736
-0.117859
0.047347
0.0705117
-1.12593
-0.228987
1.35492
1.78189
-0.431711
-0.0132446
0.00539107
0.0432383
0.149371
-0.198311
0.374553
0.0320077
0.217512
-0.249519
0.136417
0.0672826
-0.2037
0.303547
0.0113641
-0.314911
-0.594711
-0.525929
-1.16536
0.0394267
-0.0452961
0.122464
-0.108354
0.187008
-0.0786548
-0.0252866
0.0254093
0.126005
-0.0574661
0.0724722
-0.015006
-0.0976047
-0.022399
0.120004
0.0757441
-0.0757441
-0.187791
0.2132
0.30069
0.184057
0.106956
0.0943896
-1.27344
1.09561
-1.57028
0.12095
1.44933
0.029684
-0.0253334
-0.00435069
-0.0261852
-0.0505338
0.076719
0.545302
-0.0241912
-0.521111
-0.0380811
0.0393712
-0.00129008
-0.203494
0.0157035
0.161054
0.676859
-0.371272
0.532325
-0.164653
-1.23742
-0.0913423
0.026674
0.490296
-0.308084
-0.182212
0.111983
-0.0955962
-0.0163873
0.0482926
-0.323707
0.0239716
-0.942606
0.0498976
-0.158251
-0.291598
-0.405435
0.0671708
1.37631
-0.925352
-0.450954
1.08003
0.296277
0.0670141
0.285587
0.029546
0.000138093
-0.105036
0.149888
-0.0448515
-0.25404
-0.584584
0.838624
-0.36117
0.641966
0.845827
-1.31028
0.144973
0.0351006
-0.0545016
0.019401
-1.7127
0.449814
1.26288
-0.29147
-1.42123
-0.301798
0.643503
-0.909624
-0.0181495
0.00497389
-0.2639
0.258926
1.45775
-1.56912
0.111366
-0.10026
0.00891729
0.569849
-0.823888
0.168547
-0.412687
0.24414
-0.292882
-0.115506
0.408389
0.180073
-1.00669
-0.0759229
-0.0074464
-0.0411107
-0.548653
0.346472
-0.243348
0.0181846
0.225164
-0.0329881
-0.0672715
0.0419216
-0.0419216
-0.117464
0.128726
-0.0112626
-0.304948
-1.26533
0.0942901
0.0281798
-0.12247
-0.149419
0.0226411
0.126778
-0.218294
0.0253765
1.53625
-0.460449
-1.07581
-0.195942
0.452631
-0.25669
0.00907795
-0.00867849
-0.000399456
-0.64816
-0.556841
-0.182866
-0.00481767
0.187684
-0.176806
0.304491
-0.0999815
0.098314
0.00166747
0.0743305
0.0101606
-0.0844911
-0.125398
0.166436
-0.0410382
-0.771658
1.13176
-0.360101
-0.221919
-0.051814
0.273733
-0.698477
0.662687
0.0357904
-0.00373501
0.0400583
0.0280934
-0.028248
0.000154583
-0.00524533
-0.053696
0.966951
0.814934
0.175137
-0.886587
0.71145
0.0102259
2.04745
-2.05768
0.387409
0.48401
0.259199
0.0599338
0.201412
-0.0649953
-0.0702159
-0.0281895
0.240613
0.154358
-0.0735882
0.7365
-0.410232
0.0612981
0.208218
0.046294
-0.161193
0.114899
-0.794823
-0.138581
0.933404
-0.0450061
0.0450061
-0.062835
-0.262735
0.53529
0.0132903
-0.235209
0.140179
0.126249
0.0339226
-0.0792186
0.133588
-0.143877
-0.344735
0.331104
0.0382392
0.0635885
-0.101828
0.387766
-0.337171
0.868989
-0.49023
-0.378759
-0.209767
0.276782
0.18751
-0.495594
-0.205164
0.621774
0.168254
-0.0342425
0.0342425
-0.259322
0.446393
-0.187072
0.388224
0.0259264
-0.0289167
0.0342102
-0.00529354
-0.153719
-0.0736459
-0.0442128
-0.0487975
0.182386
-0.17803
0.238348
-0.0603177
0.126508
0.0278497
-0.393433
0.152425
0.187679
-0.0611706
-0.0451867
-0.0547948
-0.0745862
0.0668243
0.00776196
0.150172
-0.106467
-0.0437047
-0.0125117
0.393208
-0.380696
-0.12786
0.114491
0.102768
-0.10703
0.00426213
0.0233824
0.532646
0.336343
-0.0890209
-0.0100688
0.0990896
-0.0813013
-0.00070998
0.0820113
-0.089614
0.0974735
-0.720038
0.622565
-0.030875
-1.51642
-0.46099
1.97741
0.582599
1.14377
-1.72637
0.0844124
-0.278789
0.290153
0.274545
0.248368
-0.522913
-0.206047
0.252341
0.140714
-0.893269
0.752554
0.0260193
-0.107321
-0.0157232
0.00827679
-0.992867
0.447098
0.545769
0.925352
-0.806463
-1.70931
1.61269
-1.45775
1.5787
0.0405862
-0.0814529
0.00845814
0.0196352
0.0133339
0.80177
-0.661056
0.124664
-0.0747661
0.413507
0.732048
-0.11987
-1.78116
1.79139
-0.675623
-0.597815
-0.239548
-0.38854
-0.0065743
-0.168452
0.216744
-0.57936
-0.378709
0.182767
0.780873
-0.235571
-0.904684
-0.804631
0.744986
0.156674
-0.130654
0.28788
0.0388807
-0.0388807
0.671238
0.147769
-0.819007
-0.22509
0.896327
0.439395
-1.1527
0.713302
0.219189
-0.0351316
0.00746545
0.00538216
-0.0128476
-1.72685
-1.09511
0.663403
1.06256
0.473692
-0.0349767
-0.136207
-0.240326
0.763447
-0.195189
-0.048159
-0.00313384
-0.0799156
-0.0520194
0.103285
0.374421
-0.246897
-0.840276
-0.281951
-0.1087
-0.065832
0.174533
-0.596954
1.08096
-0.145505
0.143738
0.00176721
0.0324534
-0.00290748
-0.129743
0.0729272
0.0568161
0.00863872
0.422497
0.0811847
0.0307988
0.0146014
0.00661139
-0.0212128
-0.0157511
-0.167115
-0.718921
0.367478
0.351442
0.638159
-1.65263
1.01447
0.136499
-0.157286
0.0207875
-0.00642617
0.15216
0.183313
-0.926522
-0.121234
-0.00850923
-0.111333
0.0366443
0.141647
-0.339958
-1.64228
0.67741
0.964868
0.0302542
0.0944539
0.0557182
-0.794823
-0.196534
-0.575125
0.136289
-0.0633623
0.0431583
-0.638346
-0.060131
0.0603373
0.127341
0.483599
0.047543
-0.461593
0.124736
0.342966
-0.288191
-0.120004
0.0223989
0.223984
0.837719
-1.0617
0.103086
-0.714831
0.611746
-0.954863
0.816282
-1.44296
0.224965
1.21799
-0.0115259
0.0122822
-0.000756244
0.16643
-0.459313
0.204441
-0.119708
-0.0847335
0.0500442
-0.0507541
0.0168422
-0.125543
-0.00308444
0.0226259
-0.0278712
0.0210142
0.0747547
-0.0957689
1.02199
-0.000154928
0.000399561
-0.000244633
0.105902
0.00858902
0.860067
0.0481536
-0.0392363
-0.39353
-0.701584
0.192981
0.0262079
0.00798508
0.0864688
-1.21799
0.926522
0.174472
-0.197818
0.0233452
-0.247951
0.0729497
0.11904
-0.107251
-0.00150435
0.092763
-0.0366826
-1.51175
-0.130523
-0.0406451
0.0616593
0.740044
-0.255488
-0.242098
0.0926796
0.340216
0.0100463
-0.038963
-0.00777335
0.0835174
0.147337
0.20402
0.155703
-0.327708
0.172005
0.111276
0.565583
-0.0429529
-0.108943
0.94161
-0.261472
-0.680138
-1.44296
-0.455611
1.09377
1.65195
-0.10362
0.346397
-0.242777
0.352991
-0.0719901
-0.281001
-0.0891283
-0.722633
-0.0709583
0.0716467
-0.000688326
-0.0251634
-0.174287
0.19945
0.486682
-0.953992
0.46731
0.0417645
0.656196
-0.69796
-0.0447483
-0.110696
-0.00963432
-0.0793866
0.246571
-0.505893
-0.0122952
0.000769269
0.134504
0.0202275
-0.154732
0.0340894
-0.139125
0.00323467
0.0292188
0.0487243
0.130113
-0.0246637
-0.00358427
0.193561
-0.435973
-0.439898
1.58367
0.029968
0.0150381
-0.988618
-0.0180723
0.16673
-0.0738659
-0.0461378
-0.0775256
0.246072
0.814664
-1.07231
0.25765
0.161351
0.0316295
-0.940413
-0.01528
-0.0162624
-0.649721
0.747195
-0.0182682
0.186523
-0.0777396
-1.07496
0.181667
-0.446798
0.265132
-0.0136351
0.231147
0.00339324
-0.00361033
0.000217086
-0.018195
-0.107203
-0.0214825
-0.135397
0.74706
-0.643975
-0.116955
0.0768705
-0.111415
0.307527
-0.151825
0.129621
1.21282
-0.330468
-0.882352
-0.119096
0.137281
-0.504975
-0.213946
-0.559804
0.619375
-0.596606
-0.0227694
-0.0824444
-0.0345105
-1.78116
0.542742
-0.542742
-1.8529
1.8529
0.80177
0.0245186
-0.212753
0.188235
-0.896564
-0.0920534
0.622328
-0.364462
-0.257866
0.166375
-0.245029
-0.0108055
-0.00243908
-0.886534
-0.0816722
-0.932938
0.212899
0.0267136
-0.0925456
0.695936
-0.108168
-0.587769
1.19937
0.452585
-0.00125743
0.00465067
-0.965813
0.478771
-0.969001
-0.0705164
-0.600572
0.671089
-0.0767303
-0.867866
-0.70125
0.218069
-0.81278
-0.933404
1.38277
-0.449368
-0.138819
0.281701
-0.142882
-0.0261323
0.722069
-0.105831
-1.02704
1.02704
-0.840218
0.457228
0.38299
0.000551042
-0.000705972
0.105415
-0.435207
0.812429
-0.0221824
-0.0835398
-0.0357468
0.113664
0.00527284
0.00380511
1.86113
-1.63616
-0.324638
0.398968
-0.627875
1.00287
-0.374995
-0.050052
-0.071182
0.122337
-0.055054
0.355733
0.00561324
-0.0686388
0.354949
0.0382589
0.0420031
-0.244617
0.202613
0.14107
0.0344855
0.0961514
0.178502
1.70136
0.409659
0.213902
0.600702
-0.814604
-1.084
1.53382
0.196772
-0.131569
0.0765034
-0.766653
0.69015
0.23842
0.134537
-0.479272
-0.0746287
0.135852
-0.0612237
0.134974
-0.209602
-0.443445
-0.105208
-0.070595
0.0736347
-0.00303964
-0.00158523
-0.0230785
-0.0228133
-0.00729347
0.661056
-0.611746
-0.0493098
-0.294225
0.307515
0.879483
0.597686
-0.244695
-0.0347261
0.062906
-0.324381
-0.0883053
0.180221
-0.588339
0.408118
-0.00345366
-0.000156665
0.118245
0.0286563
-0.146901
0.00454917
-0.0104807
0.00593157
-0.0229909
0.0152507
0.00774022
-1.34407
0.5731
-0.137933
-1.37848
-0.195077
-0.806463
1.5787
1.61269
-0.195509
-0.174869
0.123055
-0.062372
0.0679759
-0.00560389
-0.189224
0.969001
-0.779777
0.54881
0.0735181
0.000832278
-0.00428594
0.119534
-0.487946
0.0357468
-0.0453277
0.0046826
-0.6259
0.301519
-0.0451636
0.0790862
-0.230584
0.61835
1.08003
-0.032218
-0.0625388
0.00143923
0.0610995
1.99083
-0.378147
-0.0620355
-0.0553501
-0.967639
0.161177
0.388219
-0.208145
-0.474556
-0.12793
0.602486
0.813805
-0.361578
-0.452227
-0.00440518
0.819069
-1.79139
0.0645413
-0.00777292
-0.0245354
0.0323083
0.213929
1.83353
-0.171052
0.178517
0.131482
2.24019
-0.661493
-0.679116
0.0546015
0.624514
0.380768
0.011131
-0.34589
0.540547
0.820561
0.499668
0.0774658
-0.0217476
-0.721016
0.200223
0.520793
1.27649
0.0525001
-0.0378987
-0.0500076
-0.356483
0.102638
-0.308685
0.783761
0.42906
-0.112494
0.03005
0.294683
-0.398303
-0.0220848
0.0183498
0.11205
-0.149115
0.0370645
-0.301918
0.316421
-0.0145027
0.433321
-0.763789
-1.42027
0.0975315
1.32274
0.0989405
-0.198334
0.0993932
0.267263
0.0402645
-0.514955
0.318421
-0.65662
0.65662
1.67572
1.19937
-0.714831
0.338301
0.48226
-0.519938
0.332867
0.907066
-0.358256
0.00802074
-0.874956
0.866935
0.13509
0.00484762
0.0266607
-0.6448
0.129845
0.115015
-0.167528
-0.122405
0.289933
0.232767
-0.515649
0.348121
-1.09646
-0.283217
-0.648599
-0.0656538
0.000294337
0.000105224
-0.22507
0.112678
0.0618545
0.0345107
-0.142845
0.108334
-0.43928
-0.400938
-0.00580071
0.0694071
-0.869527
0.546197
0.32333
-0.569174
0.386962
-0.0977322
0.161321
0.236799
-0.00304345
-0.0126797
-0.880496
0.420047
0.0338528
0.0689151
-0.153178
0.0417628
0.196204
0.00823684
-0.424898
1.4462
0.45903
-0.0440981
0.866246
-0.789743
0.780979
-0.440763
-0.609356
0.174149
0.151756
-0.79177
0.764383
0.027387
1.15514
-0.371377
-0.194886
-0.129752
-0.0883941
0.0232695
0.956057
-0.841174
-0.114883
-0.179352
0.105764
0.0279997
0.121788
0.880134
0.460407
-0.730911
0.270504
-0.326364
-0.0523448
-0.0750851
-0.794442
0.123437
1.37526
1.17663
0.0227395
0.169063
0.554523
-0.723586
0.0463221
0.0493354
-0.0052004
0.00215694
-0.508624
-0.100732
0.123394
-0.156382
-0.184383
0.135586
-0.537052
0.280363
-0.991743
-0.401977
-0.287307
-0.579805
1.53772
-0.0883919
-0.283548
-0.380384
-0.245516
0.154397
0.297508
0.0574404
1.32436
-0.83768
-0.186628
0.125457
-0.415719
-0.307246
0.722965
-0.0106741
0.00290123
0.0481039
-0.0601579
-0.24176
-0.122487
0.696596
-0.417585
-0.279011
0.115866
0.1366
-0.098305
-0.0382945
0.241913
0.0555958
-0.297964
-1.42841
-0.0947842
0.137942
0.874087
-0.41368
0.00308869
0.0789226
-0.0206023
0.0207752
-0.000172915
0.00964614
-0.0349795
-0.238813
0.0776202
-0.0589519
-0.55978
0.420961
0.0174799
0.0930094
0.00593114
-0.692752
1.66831
-1.23925
0.0156506
-0.19032
0.174669
-0.137947
-0.540877
0.678824
0.0781227
-0.716469
-1.1667
-0.253571
-0.0678134
-0.0012418
0.0690552
-0.247822
-0.619375
-0.175448
-0.144697
-0.721016
-0.228061
0.163066
-0.283733
-1.15396
-0.504545
0.378178
0.126367
0.265819
0.116454
0.496213
0.161095
-0.657308
0.101916
0.0547573
0.794793
0.405469
-1.20026
-0.222574
0.488105
1.04571
-0.238589
0.178271
-0.674195
1.1623
0.0605475
-0.0179607
-0.027123
0.0404569
-0.0126055
1.11948
-1.16358
0.725357
0.0884483
-1.39364
-0.118115
0.231791
0.675275
0.921961
0.0196489
-0.0184417
-1.17663
-0.648599
-0.712693
0.722876
-0.0601689
-0.904684
0.656196
0.609114
-0.933228
0.724658
-0.00596531
-0.785805
-0.312261
0.635142
-0.771462
0.13632
0.0820787
0.0545208
-0.485402
-0.23076
1.22401
-0.993252
0.000324816
-3.04802e-05
-0.260114
0.211955
0.713265
0.225212
-0.209508
-0.182642
0.670552
-0.899539
0.15788
0.0303544
0.384365
0.84937
-1.23373
-0.911144
1.11137
0.872152
-0.325955
0.0816853
0.290032
-0.520793
-0.00904462
0.213312
-0.0517836
0.0809741
0.0857556
0.00300903
-0.0297441
0.0267351
-1.02544
-0.0362657
0.318915
-0.807368
-0.704968
1.65574
-0.950768
0.368986
0.633885
-0.0506118
0.0541628
-0.00355108
-0.0750343
0.745586
-0.716861
0.736066
0.571775
-1.27674
0.309491
-0.0961794
-0.584181
-0.407562
-0.94216
1.32653
-0.0595055
-0.880921
-1.8901
-0.16758
0.290032
0.0501216
-0.857489
0.83252
-0.647094
-0.185425
-0.982038
0.397857
0.0085075
0.114537
-0.000518565
-0.114019
-0.971656
0.564094
-0.217925
0.908992
-0.924272
0.189804
-0.205555
-0.0946995
0.236346
1.1727
0.375361
-0.140298
-1.43241
0.550062
1.29651
-0.796846
-0.553218
-0.517653
1.07087
0.446782
0.0173054
-0.0119232
-0.734226
0.69796
0.0515254
-0.12656
-0.259199
0.0580436
0.201155
1.00286
0.652876
0.779999
-0.812811
-0.492712
-0.449894
-0.471347
-0.500309
0.802862
-0.802862
0.684104
-0.684104
-0.734226
-0.0745042
0.0745042
-0.0580436
-0.53991
-0.450088
-0.519384
-0.0728217
0.0728217
0.0515254
-0.12656
0.779999
0.768303
-0.768303
0.812811
0.759714
-0.759714
0.507288
0.528653
0.482347
-0.0212963
-0.499691
-0.550106
1.07876
-0.578173
-1.48949
0.547325
0.414433
0.457719
-0.163472
-0.00614797
0.0543015
-0.884809
0.0937967
0.791012
-0.12944
0.122865
-0.99574
0.585507
0.937306
-0.599005
-0.125223
0.00793147
-0.0112257
-0.80743
-0.0791571
-0.545769
-0.00318892
0.0114657
0.622319
-0.154939
0.091577
0.170828
0.00258323
-0.0101641
0.00758086
-0.812897
0.0666673
0.74623
0.67911
0.493589
-0.532924
0.410978
0.121946
0.916274
-0.741358
-0.174916
0.0785763
0.295976
-0.0136708
-0.0569242
-0.0564319
-0.0145264
0.694692
-1.29165
-0.836134
0.0984957
-0.739895
0.795747
-0.055852
0.122972
-0.899352
0.77638
-0.801947
0.902987
-0.10104
-0.0652138
0.07486
0.0194529
-0.283353
0.476044
0.850482
-0.0940612
-0.790748
0.91683
-0.0932866
-0.823544
0.0852397
-0.135292
1.09354
0.822213
-1.01768
0.452579
-0.379061
0.102988
-0.893736
1.49342
0.359482
-0.790774
0.00496934
1.01794
-0.894964
1.21905
1.05698
-0.75535
-0.301625
-0.878112
-0.117627
-0.410504
0.0298079
-0.543808
0.801458
-0.786375
0.786375
-0.601203
-0.0856786
-0.86384
0.122481
-0.930161
0.859645
0.0746722
-0.19438
-0.0584659
0.0612873
0.0111849
0.189055
0.828882
0.817309
0.771255
0.140438
-0.911692
-0.59725
1.05497
-0.782649
-0.106689
0.889338
0.174239
-0.8911
-0.674785
0.889026
-0.786038
-0.106964
0.458757
-0.0268037
-0.431953
0.00577035
1.34057
-1.34634
0.221789
-0.368335
0.146546
-0.889613
-0.830298
0.0904031
0.523003
0.257976
-1.93413
1.12526
-0.573483
0.573483
-0.863372
-0.569042
-0.119639
0.249485
-0.994397
1.09193
0.782337
-0.205661
1.13821
-0.565109
0.921756
-1.12554
0.203786
-0.0972993
-1.55533
0.210076
0.459725
-0.499997
-0.0751274
0.185815
0.298407
-0.21983
0.779654
-0.880694
0.638032
0.416936
-0.151787
0.737295
0.577463
-0.577463
-0.0680839
0.0651765
0.108558
-0.0740478
1.19183
0.148746
0.262776
0.000273387
0.00413475
-0.00440813
-0.668081
0.694501
-0.0264192
0.324053
-1.0794
0.109959
-0.895996
-1.08447
1.43107
-0.346605
0.193652
0.876134
-1.20808
1.53213
-0.755559
0.5998
-0.659931
-0.652942
0.147967
-0.157647
0.0280169
0.0789871
-0.486403
0.328756
0.00397949
-0.62758
0.0714709
0.724276
0.694671
-0.0948707
0.0754515
0.784615
0.134784
0.373909
-0.508693
-0.796103
0.532863
0.528241
-0.96022
0.737608
0.222612
-0.684743
-0.128037
1.029
-0.368538
-0.137354
-0.0392855
0.486155
0.513845
-0.770007
-0.110688
-0.546873
-0.287458
-0.450829
-0.25368
0.402336
0.597664
-0.126744
0.135333
-0.863293
-0.0704658
-0.589465
-0.154468
-0.250533
0.405
-0.0325884
-0.00409423
0.11107
0.0713162
-0.128504
-0.110309
0.758507
-0.641997
0.717448
0.0498378
-0.536241
-0.184622
-0.0153709
0.199993
-0.745397
-0.194396
0.939793
-0.244744
0.232998
-0.0247795
-0.0811138
0.0138423
0.0122481
0.705046
-0.131563
0.126627
0.110173
-0.736776
0.0686942
1.00562
-0.298824
-0.393384
0.0146249
-0.250513
-0.289837
1.02188
-0.00615865
0.342348
-0.210866
-0.0085404
-0.0467488
-0.103941
0.0460101
0.959606
0.212645
-0.291433
0.0787878
0.84891
-0.0251597
0.00014544
0.0250143
0.12672
-0.0117005
-0.000594669
0.219379
-0.107328
0.172069
-1.16647
0.51947
-0.306825
0.0075966
0.290486
-0.306804
-0.955885
1.28143
-0.325542
-0.779808
0.839023
-0.0592149
0.444343
0.249877
-0.18933
-0.0667721
1.23784
-0.453971
-0.0789532
0.276487
0.457744
0.193005
-0.650748
0.410204
0.0409116
0.653589
-0.573441
0.559114
0.0143268
1.30692
-1.15253
-0.0271406
0.0345358
-0.00739521
0.697122
-0.0089866
-0.0829108
0.0196228
1.37661
0.742095
-0.297752
0.0747585
-0.0772473
-0.121086
0.119352
0.0529085
-0.172261
0.0123488
-0.00933978
1.15409
-0.74862
0.163771
0.224011
-0.0260601
-0.0919547
0.220286
0.0980476
0.0059321
0.0738908
0.768593
0.347907
-0.0658999
-0.282007
0.653585
0.209676
-0.863262
0.644626
0.122355
-0.0645757
0.0122038
0.0523719
-0.675784
-0.0395684
-1.08597
-0.00234742
0.747333
0.715429
0.143342
0.244498
-0.7299
0.818866
0.121485
0.00813627
-0.877125
0.1073
-0.271921
-0.148886
-0.172371
0.692027
0.0765666
0.0131811
0.511133
-0.261255
-0.203026
0.162304
0.0295082
-0.112647
0.42115
-0.057042
0.381994
-0.0730108
0.164409
0.108592
0.544994
-0.153785
0.117603
-0.0506152
-0.110056
0.0169941
-0.00059006
-0.016404
-1.48492
0.332392
-0.0124999
0.876224
-0.227768
-0.617023
0.636378
-0.0193556
0.463403
0.760721
0.413024
-0.213031
0.0773163
-0.172016
0.631631
0.12909
0.521477
0.559487
-0.265936
0.718515
0.144313
0.815292
-0.604877
0.349095
0.255782
0.106199
-0.0710186
0.0415726
0.0627157
-0.0465312
1.16413
0.737864
0.0810022
0.61937
0.219254
-0.873325
-0.0808638
-0.672906
0.677875
-0.0234766
-0.586636
0.432169
0.874184
0.672543
0.13368
0.00352441
-0.164325
-0.314948
1.10956
0.558753
0.288464
0.0196286
0.78884
0.0264523
0.687236
0.66768
-0.0769794
0.575809
-0.743617
0.931344
-0.187726
-0.412205
-0.192672
-0.0435278
-0.189288
-0.208242
0.768644
0.00983768
-0.00322629
0.627457
0.157049
-0.142424
0.602077
-0.132622
0.2407
0.751688
0.233439
-0.985127
0.276788
-0.923882
0.187397
-1.42665
-0.179883
0.770445
-0.590562
-0.665365
-0.11504
0.0339261
-0.0547342
-1.10681
0.0238082
-0.0444105
0.820452
0.137691
-0.339233
0.201542
-0.024025
-0.57936
0.104407
0.237941
-1.44364
-0.000964273
0.0035475
-0.00928754
-0.0533915
-0.590253
0.0168122
0.566724
0.30746
1.10082
0.876586
-0.248558
-0.385255
0.633813
-0.0248211
-0.617437
0.617437
-0.241638
-0.908714
1.15035
0.0297467
-0.148843
0.684476
-0.117752
-0.221054
-0.368791
0.231437
0.64184
0.803355
-0.0796454
0.172353
-0.105182
-0.460576
0.484779
0.0743353
0.0551828
0.0149411
-1.53259
-0.0787243
-0.208404
0.694028
0.305972
-0.0787243
0.694028
-0.0458044
-0.156327
-0.0458044
-0.696026
0.696026
0.303974
-0.0144196
0.20724
-0.0755228
0.189479
0.117028
-0.460822
0.63928
-0.0372033
0.660763
-0.504593
-0.156169
-0.0590064
0.058709
0.000297433
-0.0112368
0.0115102
-0.0751875
0.019
-0.0696997
-0.437308
-0.350835
0.125765
0.0445426
0.831701
-0.277178
-0.591167
0.345651
-0.000525352
-0.133194
-0.00805938
0.680813
0.0665204
0.311522
-0.0196868
-0.00152602
0.0116567
0.0849073
0.565431
-0.475133
-0.0902974
2.04792
0.54441
-0.359746
0.891989
0.011084
-0.0616177
0.105169
0.182626
0.13334
1.12225
-0.370559
0.0131581
-0.078812
0.65511
-0.508632
0.0226302
-0.0226302
0.0196996
-0.0196996
-0.014112
0.014112
0.029968
0.366066
0.458284
-0.03703
-0.723127
0.487556
0.190334
0.0290454
-0.0818431
-0.482568
0.761993
0.11126
-0.796003
-1.12675
0.051797
0.109315
0.0184483
-0.0031976
-0.0208882
0.0208882
0.192951
-0.0196464
0.0196464
0.700845
0.0894421
-0.0138004
-0.00588639
0.00676046
-0.0692992
-0.0229468
0.0229468
-0.0102562
0.0102562
-0.0218067
0.0218067
-0.0147881
0.0147881
0.111082
-0.295239
-0.083518
0.221543
-0.0136142
0.0136142
-0.372758
0.514031
-0.141273
0.505326
-0.223625
-0.430282
-0.160885
0.558737
-0.109849
0.0717881
0.56459
0.566725
-0.00683862
0.00683862
0.122192
0.0242386
-0.0242386
-0.0122229
0.0122229
0.752601
-1.16865
0.0364473
-0.255885
0.284542
0.00358665
-0.00358665
0.012359
-0.012359
0.0179768
-0.0179768
0.0237671
-0.0237671
-0.0229822
0.0229822
0.0343981
-0.0343981
0.479783
-0.0311579
0.0311579
-0.00299198
0.00299198
0.0235807
-0.0235807
-0.00557017
0.00557017
0.0081287
-0.0081287
-0.0621314
-0.024927
0.024927
0.31182
0.00387879
-0.0386602
0.0386602
0.00541559
-0.00541559
0.0128237
-0.0128237
0.0328254
-0.0328254
0.0261722
-0.0261722
0.00417671
-0.00417671
-0.00224501
0.00224501
-0.528434
-0.246599
-0.00899986
0.00899986
-0.00223574
0.00223574
-0.0373594
0.0373594
-0.0284091
0.0284091
0.000361694
-0.000361694
-0.412401
0.644192
0.259779
-0.0313755
0.0313755
-0.041633
-0.0129933
0.0129933
-0.00162681
0.00162681
0.037949
-0.037949
-0.186368
0.194504
0.00330331
-0.00330331
-0.0235637
0.0235637
-0.502476
0.0452376
-0.23819
-0.0319216
0.0319216
-0.447873
0.0346779
0.0194849
-0.047793
-1.34585
-0.0359173
0.0359173
-0.196384
0.139342
-0.0412586
-0.00122735
0.00122735
0.00502542
0.0455765
0.262542
-0.324169
-0.285811
0.60998
0.199084
-0.00442544
0.00442544
-0.205438
0.418518
-0.213081
0.77713
-0.404666
-0.372464
-0.457215
-0.662615
-0.0147423
0.360394
-0.371176
-0.424927
-0.572185
0.00677601
0.18879
-1.2165
0.015017
-0.015017
-0.000746525
0.000746525
0.0301771
-0.0301771
0.0265631
-0.0265631
0.000376353
-0.000376353
-0.00058986
0.00058986
0.00627872
-0.283125
0.178403
-0.303626
-0.000217665
0.000217665
-0.045563
0.045563
-0.0394247
0.0394247
0.190201
0.0347229
-0.224923
-0.00278484
0.320062
-0.547831
-4.29412e-05
4.29412e-05
-0.00666603
0.00666603
-0.0883518
0.10856
-0.123302
-0.000806947
0.000806947
0.0942949
0.0143202
0.997117
-0.48561
-0.0752432
0.560854
-0.631303
0.0980051
-0.641813
-0.0390832
0.0390832
-0.68142
0.279615
0.0483478
-0.0483478
-0.638744
0.380878
0.26654
0.12309
0.000506234
-0.000506234
-0.823578
0.000401013
-0.000401013
0.313138
0.408931
0.0498828
-0.052189
0.052189
-0.00104948
0.00104948
-0.0413974
0.0413974
-0.0543927
0.0543927
0.000645647
-0.000645647
-0.0600494
0.0600494
0.000571705
-0.000571705
-0.0446185
0.0446185
-0.0028641
-0.0456297
0.0456297
0.00274515
-0.00274515
0.0470522
-0.0470522
-0.000137593
0.000137593
0.0483107
-0.0483107
-0.140045
-0.00203704
0.00203704
-0.00398864
0.00398864
-0.0551077
0.0835174
-0.00992021
0.00992021
0.00531181
-0.00531181
-0.0577839
0.0577839
0.291416
-0.0176604
0.0176604
-0.0574573
0.0574573
-0.00764391
0.00764391
-0.065378
0.065378
-0.0133662
0.0133662
-0.0781428
0.0781428
-0.0209911
0.0209911
-0.0945219
0.0945219
-0.688167
0.272088
-0.526726
0.50737
-0.867866
0.15455
-0.567183
0.394811
-0.0271105
0.142977
0.00372228
-0.00372228
0.300652
-0.728835
0.0419377
-0.0269967
-1.09857
1.55116
1.19004
0.254794
-0.0546553
-0.0317134
-0.398152
-0.573962
-0.0507334
0.390466
-1.24339
-0.0184069
0.0184069
-0.761858
0.0210726
-0.0210726
-0.0014248
0.0014248
0.306114
-0.381366
-0.00224805
0.00224805
0.0194118
0.0148307
0.595512
0.213476
-0.0110914
-0.00979685
-0.00864486
-0.0944342
0.491234
-0.3968
0.186344
0.0237314
0.0125101
0.934822
-0.0181996
0.0573575
-0.408596
0.438404
-0.483839
-1.01734
-0.220084
-0.0697058
0.0176864
-0.231967
-0.136368
0.0623851
-0.00338996
-0.0136355
0.781949
-0.557732
-0.0351818
0.06469
-0.0351983
0.0495695
0.157671
0.42761
0.235077
-0.165675
0.212953
0.0128554
-0.00269479
-1.3003
0.0207354
-0.0908659
-0.248367
-0.0193958
-1.4603
-0.0709267
0.26146
-0.351414
0.389673
0.308564
-0.888369
0.0483355
-0.0350243
-0.100267
-0.344798
0.466745
-0.0818352
-0.0335596
0.115395
-0.0266204
0.0266204
0.179386
-0.424081
-0.0991989
0.12184
-0.0772341
0.0537575
-0.0661349
-0.00674093
0.0728758
-0.034295
-0.150154
0.112953
-0.0795812
-0.289611
-0.361918
0.651529
0.0140789
0.0575678
0.152637
-0.0260102
-0.133491
0.0644339
-0.153228
0.304984
-0.00215226
0.0271665
-0.0295725
0.18221
0.00294115
0.255985
0.000883414
-0.000883414
-0.28501
0.972246
0.0861592
-0.167023
-0.0497599
-0.0269704
0.860101
0.672032
-0.0166937
-0.0252279
-0.532392
0.00566653
0.181258
0.0869896
-0.672294
0.314038
-0.0559901
0.3869
-0.676511
0.221099
0.516509
-0.0871543
0.0871543
-0.000518565
-1.31983
0.570063
0.749764
-0.208099
0.153365
0.132043
-0.186551
-0.577238
-0.129869
-0.0323124
0.0407705
0.930159
0.241358
-0.107678
-0.0687571
-0.571308
-0.705435
-0.0726105
-0.266605
0.807152
0.582972
-0.262909
-0.266562
0.557048
-0.0378908
0.384287
-0.267468
0.0954643
-0.468291
0.327018
0.123567
-0.123567
0.11686
-0.119277
0.0024171
0.00907975
0.000704673
0.0207752
-0.281642
-0.394142
0.231957
-0.186407
-0.04555
0.548179
-1.07181
0.23551
-0.937095
0.697926
-0.124014
-0.179612
-0.0432339
-0.079253
-0.481994
0.0446867
-0.282183
0.00485837
-0.0193958
0.373079
-0.00522738
-0.00128832
0.00117393
0.0124323
-0.0111662
-0.00126613
-0.107364
-0.016516
-0.163673
0.180189
-0.130978
-0.337313
0.0194118
0.346908
0.00111866
-0.370101
0.082794
0.00243198
0.158449
-0.195479
-0.0117698
0.0117698
-0.000933474
0.00210273
-0.00953998
0.00139122
-0.0833195
0.000820241
-0.0011755
0.230935
0.0151369
-0.00108876
0.00108876
0.107121
0.518323
0.00125637
-0.290959
0.44729
1.11864
-0.475777
0.342512
-0.439152
-0.236265
0.137066
0.235918
-0.23407
-0.0233598
0.0158018
-0.00355368
-0.00329842
-0.18022
-0.381194
0.86875
0.445266
-0.438988
0.209786
-0.00157271
0.193207
0.000444778
0.00063438
0.000891776
0.01491
0.225148
0.00130086
-0.000203411
0.71482
-0.650386
-0.244337
0.123657
0.949346
0.000608924
0.0010583
-0.0412586
-0.00574937
0.817818
-0.43141
0.505745
-0.495862
0.903635
-0.410007
0.582057
-0.187245
0.690934
0.00114473
0.00333062
0.0151176
-0.117967
0.140417
-0.243328
0.00954842
0.000249948
0.0631552
-0.0481893
-0.014966
0.00112214
0.0521983
0.00910279
-0.0613011
-0.0877435
0.00409547
3.92817e-05
0.00165639
0.466804
-0.425743
-0.00615764
0.000318751
1.20434
-0.634277
0.391173
-0.00574017
0.000480828
0.203396
-0.0396253
-0.039385
-0.120855
-0.0185799
-0.00350747
0.115104
0.0467738
-0.00155755
0.416381
0.000820208
-0.00328494
0.00328494
0.00358535
-0.0133822
0.000158685
-0.321813
-0.00363822
0.0709788
-0.106836
0.0270173
-0.0042201
-0.0656861
0.000260606
0.0019516
0.471309
0.00012988
-0.00380446
-0.0397234
-0.00197271
0.00052172
0.0915486
0.171228
-0.710982
0.48335
-0.864544
-0.0278082
-0.000242537
-0.638114
0.0739179
0.111897
0.602145
-0.0153094
0.0177895
-0.00384125
-0.00129559
-0.55233
-0.00322106
-7.39407e-05
-0.0455756
0.937804
-0.5276
-0.00243369
-0.0007093
-0.00559491
-0.00189945
0.0664527
-0.0226084
0.0226084
-0.0294658
0.0315685
-0.0023321
-0.00759408
0.0311119
-0.0324002
-0.160421
0.0894028
-0.00572226
-0.0127648
0.043703
-0.0159482
0.0605624
-0.042876
-0.625487
0.569635
0.02078
-0.00158952
0.330414
-0.166005
-0.0721906
-0.689721
-0.0784322
-0.122206
-0.092221
0.0902483
0.682875
0.000541387
0.0117607
-0.0107024
0.277893
0.0552899
-0.144777
0.0894876
-0.0709792
-0.614188