/*--------------------------------*- C++ -*----------------------------------*\
| =========                 |                                                 |
| \\      /  F ield         | OpenFOAM: The Open Source CFD Toolbox           |
|  \\    /   O peration     | Version:  2306                                  |
|   \\  /    A nd           | Website:  www.openfoam.com                      |
|    \\/     M anipulation  |                                                 |
\*---------------------------------------------------------------------------*/
FoamFile
{
    version     2.0;
    format      ascii;
    arch        "LSB;label=32;scalar=64";
    class       volVectorField;
    location    "18";
    object      U;
}
// * * * * * * * * * * * * * * * * * * * * * * * * * * * * * * * * * * * * * //

dimensions      [0 1 -1 0 0 0 0];

internalField   nonuniform List<vector> 
2186
(
(1.34374 -0.0770389 2.06129e-19)
(1.64136 -0.965464 -8.22213e-20)
(1.48635 -0.941195 2.11144e-21)
(0.764658 -0.606857 -1.37662e-19)
(-0.354949 0.387504 -1.52883e-19)
(1.36706 -0.121746 0)
(0.745297 -0.689455 0)
(-0.285164 -0.453641 1.13813e-19)
(1.46702 -0.261922 1.85143e-19)
(0.572999 -0.342056 -2.409e-21)
(0.659355 0.593649 0)
(0.808445 -0.285286 -1.3247e-19)
(-0.348377 -0.546883 -4.60838e-20)
(1.19765 0.02324 -3.5364e-19)
(1.82907 -0.710967 -9.00219e-20)
(1.01208 -0.00677464 1.67164e-19)
(0.985985 0.0123129 0)
(-0.662164 0.423695 0)
(1.29494 -0.00714023 0)
(-0.0793391 0.20179 -5.69349e-20)
(0.480812 0.0522367 -1.10377e-19)
(-0.204691 0.159657 7.75686e-20)
(1.18467 0.0266461 2.92012e-19)
(-0.219259 -0.0153832 5.51663e-21)
(1.03347 0.00620833 -2.29654e-19)
(0.815299 -0.5818 0)
(0.763682 -0.0557968 1.3836e-19)
(0.633257 -0.613059 -1.57883e-19)
(1.1853 0.695547 0)
(0.966762 0.0227271 -3.13584e-19)
(-0.0343027 0.0507818 0)
(1.02498 -0.0132081 1.0861e-20)
(-0.0658482 0.194787 0)
(2.66744 0.14847 2.47549e-19)
(-0.120972 -0.19782 3.03924e-21)
(1.50472 0.764145 7.89512e-20)
(1.9082 0.128235 1.52455e-19)
(0.503506 0.101046 -3.29373e-19)
(1.8681 0.311938 -2.80637e-19)
(1.12768 -0.0152287 1.79559e-20)
(-0.396133 -0.602043 0)
(-0.162557 0.118205 0)
(1.906 -0.908715 8.80095e-20)
(-0.389504 0.125468 0)
(1.09382 0.270099 1.4898e-19)
(0.615087 -0.323494 2.68162e-19)
(0.945637 -0.807561 0)
(1.21543 -0.81375 9.90135e-20)
(2.35583 -0.16328 0)
(-0.323051 0.539727 1.62774e-19)
(-0.0250677 0.0978802 8.4142e-20)
(0.613204 0.565811 7.89397e-20)
(2.10472 -0.793563 1.05733e-19)
(0.580986 0.239632 -2.65661e-19)
(-0.252599 0.0227947 2.93862e-20)
(0.789552 -0.675267 0)
(1.68752 -0.992687 1.85907e-20)
(0.6032 -0.563155 0)
(2.26843 0.281304 9.13709e-20)
(1.15928 -0.177711 -3.33832e-19)
(2.01942 -0.115721 1.77802e-19)
(1.33525 0.301083 -1.74192e-19)
(1.31776 0.520136 0)
(0.761624 0.0112449 -1.96679e-20)
(1.33855 0.382676 -1.06599e-19)
(1.2769 -0.755441 -1.3622e-19)
(1.14453 0.646305 5.20652e-20)
(0.674882 0.0418145 -5.33785e-19)
(0.816031 0.0341256 0)
(2.1214 -0.245791 -6.75878e-20)
(-0.276183 -0.506504 -1.32699e-19)
(2.11237 -0.165712 -1.75246e-19)
(0.728571 -0.0677787 -2.34465e-19)
(0.897947 -0.539889 0)
(0.816374 0.156587 -8.70682e-20)
(0.571368 -0.53314 -2.7978e-19)
(2.63174 -0.162867 0)
(1.00461 0.00939243 3.43978e-19)
(-0.113552 -0.264858 0)
(1.92714 0.412276 0)
(0.726449 0.406377 1.13144e-19)
(0.880926 -0.0579218 -3.17252e-20)
(1.02936 0.00558349 3.81476e-20)
(1.29828 0.414059 2.68723e-20)
(0.970713 0.0235938 4.00055e-19)
(1.04426 0.0287457 -9.48856e-21)
(0.657987 0.144584 -3.19709e-19)
(1.31698 -0.0256324 -2.44766e-22)
(0.810715 -0.17323 0)
(-0.0673404 -0.0420416 9.60871e-20)
(0.886689 -0.6467 -1.52497e-19)
(-0.0733856 0.346337 -1.10014e-21)
(1.12761 -0.0846053 2.32796e-19)
(0.830617 -0.207101 0)
(0.975792 0.0218715 3.82449e-20)
(1.33586 0.634151 0)
(1.65569 -0.980901 0)
(1.28348 0.2183 0)
(-0.385007 0.496719 0)
(0.819071 -0.692539 2.71437e-19)
(0.345614 0.304885 -3.47934e-19)
(0.677821 0.288316 2.20233e-19)
(1.53717 0.194097 0)
(1.15576 -0.105619 -2.12811e-19)
(1.11733 0.0224223 1.70253e-19)
(-0.0377478 0.480868 1.05376e-19)
(0.616567 0.480222 0)
(2.23184 -0.190382 -1.33805e-19)
(0.986035 -0.498264 7.60829e-20)
(-1.46321 0.22771 2.6657e-19)
(1.68956 0.31977 1.0156e-19)
(-0.238426 0.550737 -2.33727e-19)
(0.839938 -0.76468 0)
(0.546576 0.316591 1.6148e-19)
(1.68126 -0.267575 -5.34748e-19)
(-0.482017 -0.4603 -4.38414e-19)
(1.3138 0.293079 2.07381e-20)
(1.96051 -0.224859 0)
(-0.0898034 -0.0504205 -2.87742e-19)
(0.715036 -0.102499 7.40076e-20)
(1.52534 0.866233 0)
(-0.29872 0.635315 -2.57411e-19)
(0.86456 0.742213 -2.65524e-19)
(-0.871559 0.343827 3.95657e-19)
(1.02782 -0.0253506 0)
(1.47924 0.338083 -2.6132e-20)
(-0.312322 0.484508 0)
(0.721749 -0.520627 -1.00231e-19)
(-0.791127 0.378004 -2.10393e-19)
(0.813193 -0.74337 0)
(0.456929 -0.314709 3.90715e-19)
(0.566455 -0.483877 2.62327e-19)
(0.423565 -0.383762 0)
(1.01216 -0.807745 -1.1428e-19)
(0.688962 0.336035 0)
(-0.155369 0.625815 -1.27661e-19)
(0.838741 -0.724223 1.29306e-19)
(2.45708 -0.273068 2.98486e-19)
(2.27954 0.19197 0)
(-0.100491 -0.172772 0)
(0.666951 0.619836 -3.31551e-19)
(1.81352 -0.650376 1.02373e-20)
(-0.179018 -0.237431 0)
(1.01323 -0.833803 -1.24903e-20)
(1.1583 -0.10199 0)
(1.09976 -0.133964 3.69491e-19)
(2.16624 -0.199143 -1.26409e-19)
(-0.390322 0.388892 0)
(1.2466 -0.570546 -4.95844e-20)
(-0.25933 0.274806 -3.66797e-20)
(-0.192555 0.421353 0)
(1.12219 -0.839957 1.25395e-20)
(1.00685 0.00425268 -5.74581e-19)
(0.675792 -0.506949 -9.86472e-21)
(0.841241 -0.540139 0)
(1.22827 -0.753459 -8.36315e-20)
(0.642035 0.205865 2.4896e-19)
(1.21307 0.116094 0)
(1.47112 0.0960965 -2.40433e-19)
(1.22618 -0.882141 -1.73222e-19)
(-0.0902557 -0.155182 -1.06206e-19)
(-0.0721033 -0.425507 -1.94939e-19)
(1.06516 0.00555146 2.1623e-19)
(0.940878 -0.485811 -9.56733e-20)
(1.36068 -0.0348314 2.26618e-22)
(1.26418 -0.0529161 -9.93809e-21)
(0.720736 -0.113905 1.17398e-19)
(-0.184402 -0.060405 -2.59102e-19)
(1.63212 -0.484625 0)
(1.68881 -0.520099 5.96736e-20)
(1.41669 0.637519 1.35154e-19)
(0.834862 -0.639316 -1.98009e-19)
(0.995354 0.00776294 1.17719e-20)
(0.746702 -0.55685 2.75538e-19)
(1.27493 0.786253 1.2402e-19)
(1.83527 0.115612 1.64584e-20)
(-0.43135 0.296715 0)
(1.08056 0.0493779 -2.24211e-19)
(-0.770077 -0.192562 -2.73132e-19)
(1.0506 0.474922 7.68245e-20)
(0.0469312 -0.114925 1.56578e-19)
(1.15394 0.0264745 -4.07725e-20)
(-0.146849 0.144482 -1.38092e-19)
(1.26649 0.571715 -7.54244e-20)
(1.11103 0.867144 0)
(-0.489075 0.29125 -8.19846e-20)
(-0.226537 -0.243447 0)
(0.633411 0.54122 -2.66892e-19)
(2.02226 0.241471 -2.01649e-20)
(-0.448995 -0.583108 1.55709e-19)
(-0.792269 0.0937895 -5.7949e-19)
(0.720534 0.0438599 2.34474e-19)
(2.07133 0.139581 -5.62274e-20)
(1.00025 -0.365376 -2.81346e-20)
(-0.0391831 -0.0542353 0)
(-1.03917 0.257599 4.04503e-19)
(1.29411 0.950295 -2.23741e-20)
(0.834403 0.0510842 -1.28567e-19)
(0.539062 0.505185 1.85849e-19)
(0.41655 0.189184 0)
(-0.0606338 -0.539526 -2.22567e-19)
(-0.621782 0.366733 2.33684e-19)
(1.32596 -0.98317 3.04881e-22)
(0.993214 -0.0447744 -1.7844e-19)
(-0.181182 -0.143483 7.31604e-21)
(-0.136468 0.175543 1.27186e-19)
(-0.300563 -0.151249 -1.86882e-19)
(1.96029 -0.287641 0)
(1.13012 0.0405705 -3.01366e-19)
(2.25409 0.147092 2.52032e-19)
(1.30068 -0.639647 8.80633e-20)
(0.382414 -0.159867 6.97967e-21)
(0.575761 0.295707 0)
(0.920562 0.731019 -1.57284e-20)
(0.665293 0.611552 1.77517e-19)
(0.922378 -0.58669 1.3793e-19)
(0.663693 0.475671 0)
(1.02376 -0.00180397 7.66446e-21)
(0.909219 -0.6887 1.96326e-19)
(0.818166 0.397685 -4.36972e-19)
(1.26696 -0.111499 0)
(-0.216672 -0.251007 -2.98176e-19)
(0.00762534 0.311572 -8.42574e-20)
(1.55292 0.711574 0)
(1.38172 -0.965728 -2.60953e-22)
(-0.666707 0.457737 0)
(-0.32608 0.444809 9.6931e-20)
(0.715078 0.631838 -9.41701e-20)
(0.861571 -0.240761 0)
(-0.197496 -0.179466 0)
(1.61394 -0.47762 0)
(-1.21564 -0.0507242 6.10026e-19)
(1.24362 -0.910554 1.13486e-19)
(1.20277 -0.624842 5.50587e-20)
(1.08111 -0.184482 -1.51803e-19)
(0.907516 -0.720036 -1.54614e-19)
(0.194185 -0.198697 0)
(-1.08716 0.193557 0)
(1.0262 -0.531533 1.61395e-19)
(-0.142418 -0.237409 0)
(-0.317823 0.543509 0)
(-0.457458 -0.433235 3.73943e-19)
(0.770667 0.64964 8.16952e-20)
(0.98848 0.774968 0)
(0.675224 0.52924 -8.13748e-20)
(0.83416 -0.0670017 -2.10928e-19)
(0.724036 0.538428 -2.17654e-19)
(0.573394 0.53209 -1.60079e-19)
(-0.23813 -0.490928 1.59735e-21)
(0.743019 -0.667795 0)
(0.897352 0.156507 -3.06206e-19)
(-0.324554 -0.597885 6.03341e-20)
(0.586026 0.54296 3.61199e-19)
(0.933104 0.777246 0)
(-1.00205 -0.03615 4.23944e-19)
(-0.104838 -0.379686 3.20887e-19)
(-0.0268812 -0.264188 -1.65377e-19)
(0.642873 0.546701 -1.41433e-20)
(0.969592 -0.00818307 5.56594e-20)
(-0.411191 -0.609662 0)
(2.4124 -0.0701106 -3.27324e-19)
(1.853 -0.590758 -2.58782e-19)
(0.676141 -0.627314 -6.96326e-20)
(-0.505693 0.300729 1.39109e-20)
(1.17074 0.450855 1.73337e-19)
(0.866983 0.389047 0)
(1.06219 -0.17943 1.79022e-19)
(0.069771 -0.410315 -5.2865e-21)
(-0.0665566 0.0855405 3.20407e-19)
(0.930496 0.020067 -4.93575e-20)
(1.10928 0.140211 0)
(1.98899 -0.0762876 -3.08373e-19)
(1.90172 0.129351 0)
(0.53266 0.219353 -4.36342e-19)
(-0.147354 0.207686 0)
(-0.25615 -0.453007 2.605e-19)
(0.706316 0.10875 0)
(0.646373 -0.541409 -1.6961e-19)
(1.13413 0.0148488 1.96132e-19)
(-0.427534 0.434106 3.60842e-20)
(2.18727 -0.0975285 4.76588e-21)
(2.12724 -0.282282 -1.35638e-19)
(1.09947 0.220572 -2.07738e-19)
(-0.341631 -0.62609 -1.18781e-19)
(1.1045 -0.877863 0)
(0.81076 0.0154028 -1.42794e-19)
(0.946586 -0.398104 -2.69166e-19)
(1.76257 -0.597032 -6.63863e-21)
(1.77445 0.0323932 2.73973e-19)
(1.07749 -0.00738212 3.60711e-19)
(0.0793425 -0.417308 -1.58579e-19)
(1.01573 -0.457428 -1.16303e-19)
(0.204784 -0.197262 2.39526e-19)
(1.00684 -0.0087682 0)
(1.00577 -0.00718701 0)
(1.02119 -0.491336 1.19728e-19)
(-0.0748458 0.600198 -8.6595e-20)
(0.173218 -0.121452 -1.39715e-19)
(2.03846 -0.056811 7.3462e-21)
(1.1755 -0.0807156 0)
(1.94356 0.115785 -1.64003e-19)
(0.968451 -0.844791 -6.89365e-20)
(1.82503 -0.584272 -7.98638e-20)
(1.07879 0.817731 0)
(0.492656 -0.475301 0)
(0.584071 0.49402 -1.69299e-19)
(1.08204 0.274125 -3.83413e-19)
(2.3192 -0.280097 4.30519e-22)
(0.852271 0.13946 1.314e-19)
(0.0887765 -0.479069 -4.73616e-19)
(1.06472 -0.405548 -1.97944e-20)
(-0.180438 -0.467583 0)
(-0.108872 -0.187056 0)
(-0.498692 -0.536963 0)
(1.36905 -0.746689 -7.10429e-20)
(-0.192604 0.428382 -1.86399e-19)
(-0.0606193 0.143505 0)
(1.25618 0.952519 -3.38514e-20)
(1.09841 0.138039 -3.98163e-19)
(1.9479 0.509435 -4.32742e-20)
(1.05125 0.899005 8.16499e-20)
(-0.200108 0.557206 1.20209e-19)
(0.650039 -0.179449 0)
(-0.501876 -0.477803 -3.23423e-19)
(-0.262928 0.524714 2.25663e-19)
(0.772945 0.00648768 1.72887e-19)
(1.49643 0.929291 -7.91032e-21)
(1.74243 0.527171 3.28466e-21)
(-0.103521 0.318685 -2.04489e-21)
(0.769644 -0.703422 -3.36547e-20)
(1.10003 -0.0106495 0)
(1.71079 -0.0872361 0)
(1.06186 0.0551063 0)
(-1.2413 0.574746 -2.44551e-19)
(-0.438639 -0.535941 1.18642e-19)
(1.02066 0.823289 0)
(1.00363 -0.0125333 4.7948e-19)
(0.745724 0.581241 -2.18343e-19)
(-1.70915 0.298446 -2.34728e-19)
(0.858365 -0.00123307 -3.87496e-20)
(0.73865 -0.675417 -2.00442e-19)
(1.35352 0.694396 -3.14283e-20)
(0.587893 -0.480334 -2.72795e-19)
(1.1272 -0.00284813 -4.32612e-19)
(0.818609 0.0416016 4.19056e-20)
(1.57091 -0.180791 5.55811e-20)
(1.4385 -0.142053 -5.36319e-20)
(-0.0596841 -0.0797425 -7.79694e-23)
(1.059 0.45097 -2.5535e-19)
(1.27909 0.595375 6.50577e-20)
(-0.0945267 -0.334755 0)
(0.0665973 -0.468627 1.76191e-19)
(-0.304251 -0.355221 1.25062e-19)
(-0.193208 -0.095628 -1.33322e-19)
(0.456112 0.2798 0)
(1.36706 -0.586556 0)
(0.00450127 -0.00123674 -1.16603e-19)
(-0.264874 -0.616177 -6.65485e-20)
(1.04551 -0.0303888 1.71446e-19)
(-0.363428 0.276795 -3.70052e-20)
(1.49182 -0.0314951 -5.57656e-19)
(-0.0821748 0.626335 0)
(0.859052 -0.763128 -2.72141e-19)
(1.04992 -0.155179 6.28656e-20)
(-0.373552 -0.306819 1.7149e-19)
(0.708676 0.13029 3.11499e-19)
(0.614805 0.102178 1.00841e-19)
(0.522133 -0.495546 1.88106e-19)
(-0.201365 -0.298001 -1.38669e-19)
(1.44056 0.471739 0)
(0.373171 0.312595 -1.85629e-19)
(1.02739 -0.0166354 -2.72818e-19)
(-0.853981 0.0977559 2.25466e-19)
(1.38884 0.477839 -1.15627e-19)
(-0.16489 -0.297884 -5.24552e-20)
(0.704429 -0.643858 -3.74014e-20)
(0.801617 0.162112 -1.95733e-19)
(0.958315 0.406125 2.17906e-20)
(1.16729 -0.147466 3.20445e-20)
(0.622188 -0.261375 -2.81367e-19)
(2.04907 -0.382981 -1.68814e-19)
(1.66956 -0.144121 0)
(1.53192 0.4019 -2.91451e-20)
(1.91463 0.103122 -1.82901e-20)
(0.836447 -0.268226 1.33014e-19)
(0.889293 0.341064 -1.60028e-19)
(0.922988 -0.14259 5.16059e-20)
(0.400444 0.365262 -2.40805e-19)
(-0.222901 0.319183 2.37867e-19)
(1.95429 -0.220452 0)
(0.92899 0.0022173 0)
(0.898085 -0.796094 5.19227e-20)
(-0.104514 -0.437059 -3.51167e-19)
(-0.826829 0.153494 -2.72181e-19)
(-0.0809786 -0.117661 -2.26067e-19)
(-0.451395 0.57728 -1.51914e-19)
(-0.262826 -0.409959 0)
(-0.0912532 -0.148158 4.01287e-20)
(0.189964 0.466045 -8.04516e-20)
(-0.154453 0.195003 -2.90183e-19)
(0.813282 -0.135963 0)
(1.61 -0.639578 1.05676e-19)
(-0.271195 -0.338421 0)
(0.995954 0.0243093 3.45906e-19)
(-0.0171759 -0.477063 2.24451e-20)
(0.563342 -0.452297 3.65616e-19)
(-0.809141 -0.192066 4.52635e-19)
(-1.56714 0.0234118 0)
(0.209273 0.578281 9.67458e-20)
(1.00803 0.0214149 -1.03978e-20)
(-0.144708 -0.146913 0)
(1.00556 -0.00869751 -5.39297e-20)
(0.887532 -0.751602 -2.61568e-19)
(1.50861 -0.521148 0)
(0.947857 -0.290846 1.92575e-19)
(0.0575636 0.600165 2.14965e-19)
(-0.0238822 -0.0225087 0)
(-0.0910242 -0.512807 -6.44153e-21)
(0.75138 -0.658127 -3.91359e-19)
(0.964807 -0.0303555 -2.48378e-19)
(-0.0852253 -0.469567 4.32115e-19)
(-0.206928 -0.410661 1.59784e-19)
(-0.227789 -0.458463 0)
(0.937404 0.453476 0)
(-0.274989 -0.466653 2.16761e-19)
(1.85232 -0.0387294 -2.49063e-19)
(1.0476 0.874529 1.80845e-20)
(1.05822 0.20047 -1.1678e-19)
(1.15487 0.000245911 -2.05491e-19)
(1.06622 -0.0813747 -7.2173e-20)
(-0.0704732 -0.504357 -3.968e-19)
(2.00981 0.106685 4.84456e-19)
(0.668874 0.025782 1.95854e-19)
(2.0466 -0.111607 1.64423e-19)
(1.06549 -0.151013 0)
(-0.0594636 0.456156 5.36901e-19)
(1.13514 0.0255056 -4.68727e-19)
(1.71014 0.612747 1.18714e-20)
(0.763705 -0.479445 -1.49679e-19)
(-0.0752313 -0.0462414 2.15161e-19)
(0.822922 -0.723917 3.44346e-19)
(1.2222 0.190527 7.0337e-20)
(1.00577 -0.00754199 2.38946e-19)
(0.113905 -0.493536 -1.7399e-19)
(1.01979 0.0161992 0)
(1.67114 0.143252 -2.3297e-19)
(-0.0374416 -0.0316681 0)
(1.0192 0.0122185 -1.40613e-19)
(-1.54063 -0.046425 -6.78159e-19)
(1.66764 0.315025 3.3321e-20)
(-0.427104 -0.39424 1.54592e-19)
(1.60183 -0.00645899 -6.79643e-21)
(1.01236 -0.0191142 4.94776e-20)
(1.36253 -0.0904279 0)
(1.47506 -0.628264 -1.14655e-19)
(1.01911 0.0297396 -1.46483e-19)
(1.40889 0.773633 -5.76419e-20)
(1.4111 -0.0619679 0)
(0.69658 0.0120471 -1.47483e-20)
(0.00279937 -0.00101628 0)
(1.37941 0.0499187 0)
(-0.421418 -0.574586 0)
(1.22085 0.431536 0)
(1.81904 0.310577 4.43177e-20)
(0.719725 0.594501 3.82713e-19)
(0.303304 -0.305334 -2.22635e-19)
(-0.243623 -0.567784 -3.81634e-19)
(-0.0416755 -0.0574179 0)
(1.8682 -0.434012 1.10352e-19)
(1.29105 0.507772 0)
(1.4284 0.297254 0)
(-0.527736 -0.44016 1.42815e-19)
(0.787166 0.695285 1.23599e-19)
(1.72004 -0.0260656 0)
(-0.358316 -0.493955 8.809e-20)
(0.901594 0.202991 1.79751e-19)
(2.00521 -0.433041 -4.97035e-20)
(1.21218 0.907635 4.41589e-20)
(0.944986 -0.851389 -2.82691e-20)
(1.3671 -0.192756 -1.26631e-20)
(0.773489 0.698963 1.27045e-19)
(1.14958 0.905319 0)
(2.4965 -0.253577 1.94592e-19)
(1.05077 0.751602 0)
(1.41794 -0.655349 3.0653e-20)
(0.906578 0.0980301 1.62315e-19)
(1.00455 -0.00660011 0)
(0.162783 0.451991 5.04342e-19)
(0.899022 -0.192156 4.46811e-20)
(0.652125 -0.435382 0)
(0.689836 -0.408218 1.97767e-19)
(1.21332 0.542781 -3.22607e-20)
(0.459425 0.432285 2.65093e-19)
(-0.181853 0.254763 3.43174e-20)
(0.00940259 -0.0131355 8.22992e-20)
(0.762617 0.0636154 0)
(1.35207 -0.925927 -5.52683e-20)
(1.0329 -0.0437327 3.80555e-19)
(1.45024 0.333502 1.26852e-19)
(-0.394643 -0.538753 7.63319e-20)
(-0.890513 -0.22057 0)
(1.2474 -0.257431 -1.03286e-19)
(-0.0231512 -0.024475 -1.84916e-19)
(-0.00435425 -0.00134878 -6.07367e-20)
(-0.124082 0.0405643 -5.92815e-22)
(-0.194055 0.0863077 2.62133e-19)
(1.39368 -0.166221 -5.69259e-21)
(2.42643 -0.0692044 4.38277e-19)
(1.16911 0.450908 -2.79516e-19)
(0.847909 -0.0460214 0)
(1.91155 -0.14284 2.47729e-19)
(1.89586 0.116821 1.29307e-19)
(0.938183 -0.790266 1.27267e-19)
(1.18155 -0.99849 -2.69153e-20)
(0.46411 0.430086 1.77956e-19)
(1.49387 0.384684 0)
(1.72094 0.57505 2.40932e-20)
(-0.0309467 -0.0395715 -3.76756e-19)
(0.862613 0.752641 0)
(1.3493 0.416014 0)
(0.304888 -0.304841 -3.86305e-21)
(0.306543 0.274224 0)
(-1.18567 -0.0929661 -4.21918e-19)
(-0.255319 0.383417 -1.01592e-19)
(1.75872 -0.442785 0)
(1.23798 0.104402 1.7233e-19)
(-0.632887 0.184866 2.27242e-19)
(0.554125 -0.526892 -4.28091e-19)
(2.03359 -0.0994006 -5.68867e-20)
(0.633284 -0.576195 0)
(1.02103 0.117629 0)
(1.36874 -0.257799 0)
(1.10137 0.216492 -2.21574e-19)
(1.32714 0.103693 3.13587e-19)
(-1.37632 -0.0297962 0)
(0.894508 -0.0645014 0)
(2.15023 -0.129692 -3.02936e-21)
(-0.0643911 0.144991 8.86417e-20)
(2.61332 -0.0240257 -3.31631e-19)
(1.07663 -0.524672 1.92547e-19)
(2.03105 0.0192872 -3.49019e-19)
(-1.04422 0.23924 -1.75285e-19)
(1.97811 0.132429 -2.10122e-19)
(1.0175 -0.0273218 3.899e-19)
(1.48581 0.595452 0)
(-0.299126 0.482285 2.71904e-20)
(1.03134 -0.854002 1.54092e-19)
(0.858892 -0.0353609 4.52939e-20)
(0.657065 -0.45786 0)
(1.93402 -0.560233 7.09133e-21)
(1.22774 -0.205614 1.34793e-19)
(1.72173 -0.638558 0)
(0.627305 -0.58343 4.01348e-19)
(0.686944 0.0789217 -2.21395e-20)
(2.42416 -0.00463293 5.69403e-19)
(-0.0957576 0.23819 -1.82726e-19)
(1.3048 0.604947 1.44689e-19)
(1.12959 0.395179 3.51197e-21)
(0.890168 0.352243 2.14322e-19)
(1.9507 0.0427883 -2.80145e-19)
(-0.0747863 -0.533252 -4.58203e-21)
(0.797489 -0.216467 0)
(-0.15466 -0.101723 3.54266e-19)
(1.11406 -0.971138 0)
(1.08915 -0.673739 1.9548e-20)
(1.17618 -0.158753 -7.43902e-19)
(1.44903 0.0779318 -1.24224e-20)
(-0.584487 -0.262227 -4.05258e-19)
(0.968051 0.464355 1.67651e-19)
(-0.168821 0.701702 2.70499e-19)
(0.690871 -0.0383231 0)
(1.90443 -0.103601 0)
(1.55496 0.169392 2.47467e-20)
(0.77859 -0.013025 0)
(1.38939 -0.22282 -1.38701e-19)
(-1.48022 0.15567 5.37398e-19)
(1.88966 0.496907 6.73754e-21)
(1.04033 -0.032161 0)
(0.573176 -0.378539 9.73469e-20)
(1.00998 0.0263061 1.85594e-19)
(0.349878 0.759854 -2.31313e-19)
(-0.467584 0.576309 0)
(1.13071 -0.492826 4.42192e-19)
(1.78173 -0.125893 -5.03386e-22)
(1.11939 -0.513552 -1.92592e-19)
(2.30791 0.270581 1.60239e-19)
(1.26078 0.773996 0)
(0.86104 0.0177188 0)
(-0.45483 -0.562763 -1.92095e-19)
(0.00317711 -0.0014534 1.31184e-19)
(0.935576 0.352059 -1.98026e-19)
(0.270055 -0.403853 -1.55494e-19)
(0.629038 0.381725 2.31404e-19)
(0.923925 0.0292536 0)
(0.556827 -0.51813 0)
(0.836315 -0.255041 5.1684e-21)
(1.25058 -0.523073 -8.84146e-20)
(0.662353 -0.0415681 1.36416e-20)
(0.740067 -0.181475 1.11092e-19)
(-0.0464422 0.0770298 -2.34849e-19)
(1.21421 0.170434 2.79386e-19)
(0.643412 0.599414 0)
(1.24349 0.680866 0)
(1.58923 0.262305 0)
(-0.364661 -0.4161 -1.76886e-19)
(1.21656 0.541337 1.78524e-19)
(2.05917 0.0689617 5.54821e-20)
(0.920347 -0.00737846 0)
(1.60791 -0.499404 0)
(2.20106 -0.0999798 -3.69479e-19)
(0.533647 0.436374 2.64758e-19)
(1.00499 0.00421222 -1.85763e-19)
(1.46467 0.462564 0)
(-0.341809 0.567951 0)
(1.22885 0.315708 2.74783e-19)
(1.0013 0.508618 -1.24542e-19)
(1.06617 0.0214016 0)
(1.72883 0.11903 0)
(1.92702 0.663783 -2.6226e-19)
(-0.0824462 0.432202 -2.1554e-21)
(0.997499 0.0109 0)
(0.688861 0.448124 -3.18828e-20)
(0.959988 -0.847838 0)
(1.00752 0.0152226 4.31115e-20)
(0.823771 -0.569983 1.64322e-20)
(0.918458 -0.341181 2.83122e-19)
(0.932581 -0.366983 -7.91135e-20)
(2.233 -0.154583 3.74791e-19)
(1.32343 0.130843 9.57415e-20)
(0.792184 -0.0252714 0)
(1.01965 0.0100442 0)
(-0.604608 -0.328108 0)
(0.648282 0.620606 -1.81606e-19)
(-0.0235753 0.0417878 1.58434e-19)
(1.15167 0.339036 -4.40461e-19)
(-0.555568 0.318654 0)
(0.808065 0.622008 1.61021e-19)
(1.02336 -0.351606 0)
(1.00527 -0.0017193 1.08721e-19)
(0.253483 0.0962768 7.54842e-20)
(1.01791 0.391965 2.45695e-19)
(1.33988 0.226626 0)
(2.14525 0.192529 -8.44225e-20)
(0.831553 -0.13231 -3.41054e-19)
(-1.19063 -0.0990537 -5.88478e-19)
(1.09706 0.258857 0)
(0.872045 0.223723 1.66562e-19)
(2.03865 -0.191575 0)
(0.755812 0.498285 3.46823e-19)
(-1.5398 0.0663716 2.35407e-19)
(-0.0341114 0.0816527 0)
(0.574499 0.54572 -6.77616e-20)
(1.05079 -0.661406 -1.37224e-19)
(0.497749 -0.281184 -1.14588e-19)
(1.01906 -0.020029 0)
(-0.439755 0.302922 -2.21785e-19)
(0.660913 -0.591263 7.52782e-20)
(0.896915 0.270999 0)
(1.68518 -0.548376 1.39545e-19)
(0.959533 0.817864 2.34831e-20)
(0.995564 -0.558531 -1.73029e-20)
(0.202521 -0.189083 -2.61132e-19)
(0.24251 -0.0925914 -5.21452e-19)
(-0.127909 -0.232709 9.76741e-21)
(0.798394 0.333481 2.35495e-19)
(-0.215646 0.45269 -4.61896e-21)
(1.43793 -0.66799 3.48802e-21)
(1.0234 0.00465654 -3.22134e-19)
(-0.446706 -0.36591 0)
(1.02787 0.0303804 -3.81717e-19)
(2.20447 0.194312 2.32915e-19)
(0.865933 0.669705 2.70582e-19)
(1.14086 -0.0763799 1.48732e-19)
(1.00619 -0.0367191 1.49046e-19)
(1.5226 0.0936804 1.12568e-20)
(-0.354854 -0.427512 -6.48521e-22)
(1.75716 -0.895536 1.54854e-20)
(1.17231 -0.137319 -6.88249e-20)
(0.812448 0.0471099 7.87749e-20)
(0.922317 -0.311163 8.3458e-20)
(0.95458 0.208275 0)
(0.939614 0.714806 0)
(0.831736 0.226903 -8.99876e-20)
(2.07177 0.188394 -2.50142e-20)
(-1.0904 -0.0559354 1.95715e-19)
(1.05052 -0.557082 -4.6907e-19)
(0.639623 -0.557205 3.62102e-19)
(1.16273 0.241883 -1.36475e-19)
(0.252963 -0.394565 1.79662e-20)
(1.43366 -0.556259 0)
(0.746013 0.08806 -6.38077e-21)
(1.50265 -0.615214 -5.46908e-20)
(1.01631 0.742558 0)
(1.28506 -0.681987 0)
(0.448675 0.131851 0)
(-0.197142 -0.327541 -6.32194e-20)
(-0.126103 0.166284 0)
(1.57561 0.669146 3.16275e-19)
(1.20744 0.17561 6.06009e-21)
(-1.27759 0.073014 2.5639e-19)
(1.79945 0.58511 1.12773e-20)
(1.78889 0.467648 -5.69137e-20)
(2.18471 -0.344039 -3.93292e-20)
(-0.165986 0.00974454 -1.83977e-19)
(-0.107904 -0.506368 4.79923e-21)
(1.0066 0.102953 0)
(0.674577 -0.0332455 0)
(1.00156 0.000176651 2.48164e-22)
(-0.399867 -0.402387 0)
(1.56249 -0.00674713 -1.22364e-19)
(0.676464 -0.031159 0)
(1.06345 0.00672972 1.19149e-19)
(0.995368 0.0160889 -4.21968e-20)
(1.09361 0.218197 1.76088e-19)
(1.06003 -0.0193622 -8.71722e-22)
(0.960623 -0.20798 -5.0478e-20)
(1.02429 -0.0346173 3.45602e-19)
(0.694973 -0.633493 1.69694e-19)
(-1.0709 -0.00991815 -2.77112e-19)
(1.14604 0.399 1.89826e-20)
(0.00229607 0.00469211 0)
(1.10078 0.776268 0)
(1.02863 -0.010681 0)
(1.02823 -0.798052 -9.40827e-20)
(1.06253 -0.911928 2.89876e-20)
(0.903914 0.218713 -2.59912e-20)
(0.0281549 0.166623 -1.05423e-18)
(1.29775 -0.458889 1.85954e-20)
(0.606729 -0.410613 -5.89624e-19)
(1.26749 0.40877 -3.81554e-20)
(0.90342 -0.166699 -9.53341e-20)
(2.10363 -0.344555 1.19317e-19)
(0.429669 0.093452 -1.70037e-20)
(-0.318642 -0.487165 -1.3235e-19)
(1.09141 0.534455 1.89547e-19)
(-0.0962642 -0.34126 0)
(0.247912 -0.460786 3.94355e-19)
(-0.0973092 -0.137397 -1.34834e-22)
(1.02904 -0.0441366 3.11921e-19)
(1.02429 -0.00203844 -7.99606e-21)
(1.10776 -0.0116481 -8.62267e-20)
(1.45194 0.0731901 3.92133e-22)
(1.59928 0.319274 5.65019e-20)
(0.417174 -0.392342 -2.92267e-19)
(0.827019 0.14885 4.79208e-20)
(1.03487 -4.82623e-05 -2.27925e-19)
(1.08939 0.280144 -1.95413e-20)
(1.40431 0.118326 0)
(1.08594 0.574044 -3.55628e-19)
(1.00233 -0.0034485 8.87617e-20)
(0.655859 0.584142 2.47865e-19)
(1.30529 -0.337059 -1.58193e-22)
(1.06386 -0.0111541 -2.84018e-20)
(1.12929 0.0122994 8.05235e-22)
(2.51577 0.0719242 2.03607e-20)
(0.353965 0.10321 0)
(1.04775 -0.0391003 0)
(1.05393 -0.0346678 5.46425e-19)
(1.00233 -0.00234516 0)
(-0.0650381 -0.0926945 0)
(0.964237 -0.59147 0)
(1.00054 -0.000867793 -5.16069e-19)
(1.18128 -0.703137 7.38872e-20)
(1.02156 -0.00576914 1.08054e-20)
(1.3124 0.937398 -2.70095e-20)
(1.4915 0.985185 1.27133e-20)
(1.15295 -0.259204 -2.7937e-20)
(1.55899 0.209062 2.58179e-19)
(1.36506 0.253564 0)
(0.0223096 0.517852 0)
(2.19326 -0.105694 5.431e-19)
(1.25119 -0.763196 0)
(0.999647 -0.00552062 -1.59969e-19)
(1.00949 -0.00120582 3.10773e-19)
(1.42441 0.139437 -6.59583e-20)
(-0.00326578 -0.1243 2.73832e-19)
(0.969311 -0.0015679 1.69045e-19)
(0.175337 -0.00728438 2.80761e-20)
(0.20484 -0.0544411 -3.14295e-20)
(1.53751 0.0933125 -7.49606e-23)
(0.927216 0.0165981 -1.6953e-19)
(1.00251 0.00342946 2.00411e-19)
(1.00079 -0.000837369 1.18447e-20)
(0.789572 -0.0128932 0)
(0.727658 -0.0263767 0)
(0.724426 -0.0268761 6.56112e-22)
(0.699765 -0.0293005 0)
(1.02741 -0.174479 0)
(0.305686 -0.0489455 0)
(-0.0457532 -0.0725684 5.30964e-20)
(0.213592 0.0909398 -3.02762e-20)
(1.18314 0.0521666 0)
(1.29114 0.00656596 5.06035e-21)
(1.51851 0.0651061 0)
(0.0247599 0.0571649 0)
(-0.0619199 0.000272266 0)
(0.0899683 0.0398347 -3.2631e-21)
(0.669095 0.14651 3.82366e-20)
(0.790819 0.0237412 0)
(0.793093 0.0204563 0)
(0.965199 0.0192115 -2.09094e-19)
(0.818998 0.00843352 3.90747e-19)
(1.00691 -0.0014031 0)
(0.999888 -0.000565726 3.70426e-19)
(0.999705 -0.00101607 -3.76952e-22)
(0.795597 0.0219441 3.31828e-19)
(0.990241 -0.00753207 -1.94052e-19)
(0.165337 0.0307517 0)
(-0.038715 0.000249946 3.14527e-20)
(1.00135 -0.0021178 -1.8737e-19)
(0.999887 0.000353555 -3.21301e-19)
(1.23079 -0.00811812 0)
(0.999426 0.00186051 0)
(0.99936 2.07372e-05 0)
(1.46667 -0.471725 1.32798e-20)
(0.849675 -0.131033 2.51514e-20)
(0.977645 0.294216 0)
(-0.325728 0.28301 1.72756e-19)
(-0.580833 0.562255 -4.92688e-19)
(1.01907 -0.0161288 -2.49548e-19)
(-0.325587 -0.603824 -1.22452e-19)
(1.01889 0.00119901 -2.00692e-19)
(1.19118 -0.229105 -8.88735e-20)
(0.819076 -0.494161 2.80387e-19)
(-0.0660421 -0.0919137 -9.14756e-20)
(1.02971 0.00863336 0)
(1.05119 -0.0133295 -5.46723e-20)
(0.859255 0.0218178 0)
(-0.0402337 0.0452252 2.31687e-19)
(1.19413 -0.651788 0)
(-0.463623 -0.471119 -3.10246e-19)
(0.241344 0.0348293 -2.24599e-20)
(1.62095 0.676113 -1.38e-20)
(-0.0564234 -0.0238061 0)
(1.05869 -0.0388478 1.68908e-19)
(1.20529 -0.252353 3.44418e-21)
(0.926091 -0.0217024 2.65353e-19)
(1.01223 -0.00890906 -1.70124e-19)
(1.63772 0.84958 3.03457e-20)
(0.505761 0.473006 0)
(0.427256 0.374932 1.94101e-19)
(1.53894 -0.469324 -2.53077e-21)
(1.13779 0.119048 1.84072e-19)
(1.11163 -0.733057 0)
(1.02027 0.00145275 0)
(0.997683 -0.018783 -3.92079e-19)
(1.0173 0.0157824 -3.81101e-19)
(-0.16898 -0.346415 0)
(1.19517 0.804041 -1.26611e-19)
(1.45146 -0.311429 1.68427e-22)
(1.01495 0.00582636 1.46898e-19)
(1.01201 0.0110363 -1.84051e-19)
(-0.559207 -0.407838 -3.0406e-20)
(1.15698 -0.11036 -7.44795e-20)
(1.01695 -0.0156628 6.27104e-19)
(1.25369 -0.176314 0)
(1.81751 0.646833 -3.82118e-20)
(1.01549 -0.0129074 -1.95209e-19)
(2.04198 0.105557 -1.49256e-19)
(1.05924 0.00526308 -4.51061e-22)
(1.0101 -0.0113018 3.90955e-20)
(2.10105 -0.269862 -3.13617e-19)
(1.01563 0.00537732 1.89145e-19)
(1.07973 0.193044 3.12309e-21)
(1.01738 -4.69798e-05 0)
(0.931315 0.137354 4.69698e-20)
(-1.2819 -0.0364648 6.54155e-21)
(0.998929 0.0212443 1.87887e-19)
(1.03988 0.0190527 -5.8128e-22)
(1.30109 -0.174806 -4.2458e-21)
(1.23598 0.30984 3.93683e-19)
(0.999514 0.0156847 1.29022e-19)
(1.01518 -0.015322 4.57702e-22)
(1.70752 0.26422 -2.20437e-20)
(1.72166 0.917546 -9.30968e-20)
(0.796704 -0.716275 5.25321e-20)
(0.470271 -0.354996 -2.85984e-19)
(1.00688 -0.0109178 0)
(1.01912 0.00256001 4.69753e-20)
(1.01301 -0.0103285 9.92308e-20)
(1.0907 0.0425416 4.50006e-21)
(1.01397 0.00497263 -1.96906e-19)
(1.02993 -0.0280211 2.24901e-19)
(1.00897 -0.00864616 -1.8557e-19)
(1.01678 0.00442823 -4.67264e-22)
(1.01193 0.000243508 -3.42521e-22)
(1.02362 0.0139299 1.88467e-19)
(0.894907 0.071737 4.81638e-19)
(1.72154 0.641148 0)
(0.523191 -0.192438 2.89116e-19)
(1.01304 -0.00423385 0)
(1.02101 -0.022168 -5.47214e-20)
(1.51215 0.446688 -7.843e-20)
(1.91553 -0.00909925 0)
(2.28515 -0.337154 -1.15265e-19)
(1.2262 0.587556 -5.12892e-20)
(0.755046 -0.0130066 0)
(1.9259 -0.141698 0)
(0.0451871 0.31227 -1.63694e-19)
(1.3288 0.0139577 -1.17117e-20)
(1.01838 -0.00470797 -1.98565e-19)
(1.13876 -0.580919 -5.44013e-20)
(1.23403 -0.0962349 -2.17583e-20)
(1.39954 0.448815 0)
(1.33541 -0.484626 0)
(1.85421 0.474746 0)
(0.127871 0.487477 8.28742e-20)
(1.19499 0.13891 7.76873e-20)
(-0.0837761 0.408913 0)
(-0.105533 0.514512 -2.78735e-19)
(1.66123 0.95132 -4.45917e-20)
(1.00737 -0.00270865 -3.88012e-19)
(1.15428 0.034402 1.86548e-20)
(1.02006 0.00579541 2.56801e-19)
(0.684659 -0.039337 0)
(-0.15018 -0.308722 -2.7925e-20)
(0.595744 0.407751 -3.26205e-19)
(1.75616 0.629227 8.01831e-20)
(0.0587613 0.582406 0)
(0.797043 0.0751601 7.07671e-20)
(0.504608 0.481307 4.95679e-20)
(1.16048 0.867255 -3.44117e-20)
(-0.0423095 -0.032867 1.3662e-19)
(1.02011 0.0103273 0)
(1.30241 0.253877 4.47245e-20)
(1.01298 -0.00537714 1.45692e-19)
(2.40134 0.167738 0)
(1.00983 0.00709711 2.44293e-19)
(0.28792 -0.44852 -1.86101e-19)
(1.02038 0.010567 -1.51174e-19)
(1.35104 0.271847 0)
(2.02694 -0.327762 5.44443e-22)
(1.01084 0.00264679 -1.01437e-19)
(0.994739 -0.0388524 2.67877e-19)
(1.08255 0.0852892 -2.4599e-21)
(1.11387 0.31 -4.6896e-20)
(-0.150124 -0.0786674 3.58497e-19)
(1.94039 0.321825 1.66635e-19)
(0.593732 0.119477 5.44086e-20)
(0.804456 0.015651 -3.66318e-19)
(0.795907 0.0250852 0)
(0.69763 -0.0330451 5.22473e-20)
(1.02101 -0.019022 -2.94137e-20)
(0.972527 0.0153377 0)
(1.04968 0.00040147 -1.869e-19)
(0.341802 -0.538785 -3.82822e-20)
(-1.47858 -0.0535165 2.65321e-19)
(2.18792 -0.609853 0)
(-1.04972 -0.037633 -7.79849e-19)
(1.53885 -0.353884 0)
(1.03944 -0.0178658 5.48197e-20)
(1.0953 0.0507556 1.75335e-21)
(1.0151 -0.00377222 1.57472e-19)
(-0.992616 0.11268 4.72223e-19)
(1.01743 0.00184144 0)
(0.99152 0.00372887 -3.80166e-19)
(1.00617 0.00813119 2.00343e-19)
(0.847231 0.112961 0)
(0.718933 -0.0825649 -9.34014e-21)
(0.958377 -0.00156803 -1.71408e-19)
(-0.228577 -0.59686 4.15021e-19)
(1.00559 -0.00231243 -1.95401e-19)