/*--------------------------------*- C++ -*----------------------------------*\
| =========                 |                                                 |
| \\      /  F ield         | OpenFOAM: The Open Source CFD Toolbox           |
|  \\    /   O peration     | Version:  2306                                  |
|   \\  /    A nd           | Website:  www.openfoam.com                      |
|    \\/     M anipulation  |                                                 |
\*---------------------------------------------------------------------------*/
FoamFile
{
    version     2.0;
    format      ascii;
    arch        "LSB;label=32;scalar=64";
    class       volScalarField;
    location    "25";
    object      p;
}
// * * * * * * * * * * * * * * * * * * * * * * * * * * * * * * * * * * * * * //

dimensions      [0 2 -2 0 0 0 0];

internalField   nonuniform List<scalar> 
2186
(
1.14215
0.126548
0.410114
1.45406
-0.796252
0.139762
1.08263
-0.475272
-0.287554
1.6803
1.27734
-0.43323
-0.485958
1.33666
-0.0835753
1.32934
1.36082
-0.88426
0.0786079
-0.837406
1.71333
-0.798555
1.34372
-0.503698
1.33519
1.42969
1.55715
1.29521
0.777954
1.3364
-0.808881
1.33543
-0.78738
-0.762106
-0.429891
0.245798
-0.762147
1.69326
-0.735482
0.110139
-0.486529
-0.771942
-0.189246
-0.918266
1.14673
1.66043
0.776137
0.931056
-0.976171
-0.91292
-0.819473
1.1082
-0.182784
1.6089
-0.796329
1.34123
-0.237028
1.3677
-0.823006
1.17295
-0.761835
0.842095
0.738907
0.158029
0.769048
0.875751
0.863138
1.60971
1.50487
-0.269236
-0.469444
-0.744102
1.59523
1.38341
1.47407
1.53809
-0.856501
1.35458
-0.431973
-0.753252
-1.01767
0.179258
1.33098
0.820016
1.32711
1.33255
1.59692
0.139328
0.050352
-0.445225
1.34016
-0.835349
1.27746
1.51832
1.34392
0.589319
0.29456
0.790644
-0.854654
1.37988
-1.21534
-1.03047
0.853865
1.29178
1.363
-0.871146
1.47012
-0.133162
1.31723
-1.27754
-0.708889
-0.887055
0.956971
1.59267
-0.30584
-0.534782
-0.046028
-1.01351
-0.446241
1.6035
0.0959007
-0.975142
1.06526
-0.897637
1.33514
-0.0324482
-0.846086
1.52562
-0.876733
1.06512
1.75251
1.61866
0.671305
1.05731
-1.07982
-0.941429
1.31374
-0.276747
-0.553101
-0.440624
1.00284
0.251927
-0.469396
1.10557
1.27155
1.30578
-0.0942889
-0.795388
1.01539
-0.89249
-0.852005
0.990085
1.35768
1.56336
1.4281
0.940789
1.58261
0.625755
0.512579
0.842696
-0.440742
-0.461033
1.29101
1.37064
0.092988
0.121092
-0.377125
-0.435127
-0.32005
-0.334449
0.524281
1.38347
1.36122
1.49443
0.594021
-0.229944
-0.760547
1.29164
-0.605575
1.08496
-0.431638
1.34846
-0.827351
0.730659
0.706115
-0.75263
-0.554096
1.38092
-0.490702
-0.503061
-0.688949
1.57558
-1.02127
1.35439
-0.438839
-1.40706
0.211796
1.49136
1.30956
-0.806823
-0.433014
-1.54272
0.52382
1.36981
-0.438298
-0.824246
-0.452889
-0.904148
1.24987
-0.907275
0.931653
0.129683
1.58383
1.03519
1.14033
1.33925
1.44106
1.33735
1.29203
1.36202
0.796889
-0.539559
-0.822303
0.23272
0.624708
-0.913361
-0.830999
1.27566
1.49195
-0.478718
-0.384434
-1.17317
0.795761
1.05744
1.15264
1.29435
1.508
-0.90614
1.27529
-0.448634
-0.893168
-0.544756
1.23246
0.927332
1.4049
1.51656
1.36139
1.33336
-0.455755
1.22625
1.40919
-0.469701
1.21657
0.979241
-1.15198
-0.421123
-0.400507
1.40466
1.35476
-0.495469
-0.407973
-0.518254
1.35019
-0.93869
0.96639
1.32872
1.2246
-0.39018
-0.818842
1.32113
0.845452
-0.11618
-0.465913
1.63844
-0.827316
-0.461722
1.20543
1.56872
1.32967
-0.824024
-0.828669
-0.226262
1.17469
-0.479201
0.961427
1.31576
1.39782
0.26033
0.00463801
1.27103
-0.393555
1.31216
1.58005
1.35135
1.34871
-0.116743
-0.944265
-0.507363
-0.793054
-1.17118
-0.986614
0.805358
-0.0749045
0.793802
1.55698
1.46463
1.17194
-0.139515
1.44772
-0.398395
0.0927729
-0.464302
-0.436943
-0.516211
0.776688
-0.853864
-0.831193
0.303705
1.19738
-0.852589
0.544105
-0.890234
-0.0344221
-0.523313
-0.870487
1.545
0.104137
-0.181098
-0.825981
1.19312
0.763636
-0.357962
0.932625
-1.76382
-0.508575
0.851917
1.36352
1.31953
-1.45211
1.47865
1.28809
0.541842
1.62744
1.32288
1.2883
0.787927
-0.448914
-0.444217
1.10304
-0.914411
-0.427531
-0.423868
-0.550361
-0.452206
1.64495
-0.702834
-0.819317
-0.461974
1.3231
-0.743198
-1.12935
-0.954013
1.16593
-0.26197
-0.51854
1.56134
1.62526
1.51599
-0.471565
-0.42953
1.65676
1.32969
-0.720385
0.627139
-0.451174
0.610695
1.47506
1.23761
1.24156
1.66593
-0.0157762
-0.519361
-0.610371
-0.797468
-0.32228
-0.777056
0.185826
1.57775
-0.994427
-0.323119
1.31175
0.998588
-0.421994
-0.946421
-0.445291
-0.9183
-0.484184
-0.436934
-0.871752
-0.812188
1.54255
-0.532525
-0.535338
1.35
-0.429647
1.64439
-0.640503
-1.23029
-0.958335
1.33386
-0.423313
1.35344
1.24871
-0.7732
1.41003
-0.991922
-0.43943
-0.442075
1.40612
1.29201
-0.412811
-0.450652
-0.476882
1.23285
-0.480971
-0.649172
0.686587
1.22691
1.24157
1.08956
-0.421454
-0.791898
1.09602
-0.468803
1.17827
-1.22096
1.35533
0.0770031
1.51484
-0.444842
1.25402
0.932256
1.36019
-0.407007
1.31569
-0.866732
-0.438312
1.33703
-1.25867
0.279917
-0.551877
-0.0544875
1.33215
0.547463
0.720098
1.32341
0.39139
0.335698
-0.0761909
-0.819093
0.673926
-0.496642
0.921312
-0.679744
1.3165
1.52471
-0.453523
-0.438912
-0.467426
-0.797815
0.604445
-0.53487
1.04904
0.417983
-0.493264
1.38893
-0.472271
0.535534
0.729347
-0.333052
1.00761
0.504669
-0.705734
-1.69743
-0.308357
-0.750157
1.34716
-1.51341
1.46629
1.60908
1.59327
0.854821
1.42169
-0.811147
-0.755168
1.25349
0.653903
1.31327
-0.786368
-0.500552
-0.662877
1.17463
-0.436977
-1.11481
-0.828424
-0.870809
0.187403
-0.329354
0.953356
0.942907
-0.576827
-0.258704
1.15724
0.520229
1.38804
-1.29911
-0.0805721
-0.436694
0.967158
-0.0998601
1.56173
1.67242
-0.737653
-0.82752
-0.353645
0.454911
-1.00823
1.43286
-0.306026
1.39057
1.00719
-0.491008
1.13266
1.09531
-1.18691
1.23728
-0.819997
-0.824109
-0.970947
-0.41198
-0.805525
-0.869736
-0.687412
1.33861
0.363596
-0.856587
1.00632
1.48393
1.59754
0.120091
1.13742
-0.409493
1.18357
-0.153311
-1.02862
-0.83259
0.67925
1.04654
1.32845
-0.843804
-0.425757
-0.313891
-0.45235
0.341947
1.13734
-0.606611
0.216811
-0.556795
1.18566
-1.81448
1.26294
-0.676692
-0.797993
1.29721
1.05462
-0.858816
-0.0797121
1.27767
1.67158
1.35724
-2.03274
-0.945131
1.19658
-0.626382
1.18258
-0.559791
0.620028
1.27403
-0.509458
-0.817723
1.28436
-0.366235
1.51614
-0.126109
1.27942
0.135437
1.03094
-0.359988
1.5873
-0.820436
-1.15872
1.19456
0.706198
0.69029
-0.49913
-0.815437
-0.389615
1.03585
-0.124844
-0.764473
-1.86565
1.34835
0.567481
-0.947986
0.977362
1.13143
1.30093
-1.00789
-0.714645
-0.847233
1.34867
1.44046
0.913501
1.34536
0.123856
1.43052
0.120076
-0.196102
-0.75808
1.27716
1.31478
-0.557741
1.07096
-0.824593
1.04978
-0.781131
1.24217
1.33137
1.34823
-1.36625
1.17334
-1.13609
-0.676399
1.51431
-0.794949
-1.46915
1.40397
-0.321052
1.36345
-0.919607
-0.82852
1.28838
1.18432
1.73176
1.33481
-0.995573
1.47695
1.36625
-0.62694
0.832456
-0.131508
-0.355985
1.82908
-0.441688
1.40782
-0.852946
0.732866
1.33578
-0.530679
1.30769
-0.840307
1.15753
1.30125
1.35286
0.231522
-0.510051
-0.122326
0.981867
1.05271
1.43711
-0.361578
1.05003
-1.22549
-0.318661
-0.742372
1.23015
1.53676
-0.960902
-0.352196
-0.150514
1.55224
-0.226113
0.945978
-0.154466
-1.22597
-0.459704
-0.811634
-1.85877
1.0603
-1.30821
-0.466887
-0.231437
-0.031077
-0.847515
-0.445099
-0.465068
1.28554
1.35253
-0.516456
0.0907634
1.30376
1.28847
1.35394
-1.25961
1.30002
1.41949
1.33788
1.45456
-1.22994
-0.0822019
-0.819679
0.816974
1.34307
1.11721
0.596548
0.0273496
-1.25724
0.0776907
1.64248
-0.232819
0.255133
-0.125719
0.0223753
-0.478653
1.01398
-0.442282
-0.395314
-0.436945
1.32603
1.33781
1.33745
-0.00870172
0.51018
1.62569
0.0185295
1.33694
-0.0284774
-0.0314502
0.9838
1.35028
1.34328
0.144898
1.29165
1.29249
-0.864708
0.114184
1.33842
1.35257
1.35153
-0.435894
-0.494347
1.35258
1.02433
1.33753
0.362356
-0.0106817
0.144767
-1.15016
-0.619495
-0.8806
-0.565354
-0.521433
1.35665
1.36085
1.00363
-0.459984
1.32551
0.045796
0.219396
-0.0267364
1.33783
1.35839
1.35334
1.36295
1.33845
1.33031
1.31873
-0.122604
0.181837
0.178971
0.205171
0.0447547
0.0977271
0.00345418
-0.00504683
0.0410964
0.0982727
-0.0526157
1.33336
1.3504
1.34581
1.36652
1.36303
1.35372
1.3554
1.3413
1.3355
-0.00645201
0.226609
1.35309
1.35375
-0.0335605
1.35638
1.35326
0.12356
0.21603
0.0478296
-0.751574
-1.50544
1.33464
-0.476896
1.33531
1.02605
1.46535
-0.442078
1.33651
1.2517
1.29611
-0.81851
-0.582672
-0.511196
0.107178
0.082557
-0.810178
1.34535
0.210768
1.42398
1.33711
-0.0634106
1.44008
1.60266
0.024599
1.15184
1.07802
1.32884
1.34742
1.34495
-0.441016
0.669992
0.157548
1.33692
1.34997
-0.539268
0.293525
1.33757
0.139412
-0.246477
1.33857
-0.561362
1.30899
1.34958
-0.247974
1.34742
0.195832
1.33707
1.3849
-1.12272
1.35467
1.36171
0.191015
0.922322
1.34064
1.34018
0.294482
-0.703041
1.12992
1.73038
1.34579
1.34197
1.34294
0.302314
1.34037
1.33345
1.34312
1.33903
1.3403
1.34072
1.42685
-1.46632
-0.909742
1.34232
1.33241
0.461829
-0.618472
-0.584707
-1.76003
1.16731
-0.459172
-1.99107
0.183842
1.33633
1.13397
0.237051
-0.204196
-0.0300808
-1.0587
-0.914736
0.244149
-1.78584
-1.03912
-0.239188
1.34534
0.354224
1.33224
1.22636
-0.434361
1.52622
-1.28375
-0.999262
1.1344
1.39657
0.640982
-0.441001
1.3285
0.125627
1.34241
-0.79478
1.34344
-0.369467
1.3332
0.0945228
-0.624441
1.34452
1.36052
1.2428
0.008998
-0.446249
-0.739313
0.0958859
1.35989
1.20639
0.197163
1.3309
1.37628
1.3201
0.0512696
-0.901302
-0.168909
-1.32272
0.758606
1.33688
-0.0962758
1.33994
-1.01906
1.33313
1.37207
1.34693
0.0191576
-0.061961
1.37431
-0.457216
1.34919
1.35148
0.465318
-0.477847
1.19012
1.4273
1.33142
1.32214
-0.203655
-0.573929
1.31829
0.843522
1.34685
1.25008
-0.726426
-0.4656
1.13987
1.60678
1.33157
0.77743
-1.8894
0.140277
-1.36622
-1.9912
1.33084
-0.857716
1.31194
-0.811776
-0.438564
-0.816714
0.663389
-0.396008
-1.55458
-1.01185
1.33169
-0.441012
1.15947
-0.447584
0.291154
-0.484868
0.231938
-1.3226
1.29482
0.0709271
-0.358268
-0.756803
-0.963685
1.33239
-1.54121
0.262562
-1.32277
1.37157
-1.22985
-0.447809
1.40238
1.33047
1.3247
0.901244
-0.413711
1.33456
1.35551
-1.59509
-0.83094
1.33171
1.20533
1.5433
1.34983
-0.78289
-1.21668
-0.862784
-0.578848
-0.744374
-0.437343
-0.083974
-0.359198
1.20869
0.434936
1.34794
1.51871
1.32632
-0.448275
-0.421699
1.33274
-1.15678
-0.888475
1.32385
0.215424
-0.69622
-0.998174
-0.400255
1.25997
1.22874
-1.66458
1.20938
0.910932
-1.39638
1.3296
-0.443547
1.09565
-0.843011
1.36154
-1.48453
0.850055
1.33442
1.35972
-1.21728
-0.784085
1.11927
1.70347
1.35403
1.28199
-1.25422
1.63573
-0.367049
-0.768354
-0.321841
0.899393
-1.01733
1.44185
1.54393
-0.453186
-1.39082
1.32688
-0.714316
1.24648
1.36299
1.27701
-1.2977
1.33346
0.062071
1.36514
-0.0603348
-0.979857
-0.00727166
1.33724
0.163853
-0.386088
-1.52803
1.36256
-1.37095
1.47472
0.702767
1.61285
1.24565
-0.813838
1.3283
-0.830365
1.29049
1.29757
-0.417822
-1.64011
1.40345
1.31549
1.50456
1.27356
0.535011
1.2715
1.33555
1.14985
1.33925
-0.386834
-0.824497
-1.2239
1.4564
-1.00265
-0.880981
-0.8232
-1.21936
-1.07722
-0.0482601
1.11807
-0.858898
1.30734
1.36656
-0.833974
-0.305595
-0.777279
-0.372476
-0.935122
-0.824696
1.33147
-1.30558
1.34966
1.61325
1.39312
-0.0784888
1.35643
1.24775
-0.691642
1.31739
1.3079
-0.703967
1.30876
1.20257
0.16028
-0.760364
1.80761
-1.25057
-0.707098
-0.487167
0.679186
1.32275
-0.787255
-1.3937
-0.808934
1.45771
-0.991679
1.1077
1.3392
1.33443
-0.506304
1.32883
-1.06019
1.34501
1.3604
-0.337981
1.35177
0.720358
1.33966
1.11606
-1.09969
0.148237
0.0881685
0.141535
1.54141
-0.0326775
1.35164
1.70142
-0.939587
0.0068386
1.40403
0.0372448
1.40131
-0.0268015
-0.025027
1.39598
1.40072
0.857483
-0.406791
1.01
-0.775075
-0.902492
-0.613568
1.35389
1.35039
1.79814
-0.442113
-0.931597
1.15655
-0.527329
1.39344
1.2767
1.34697
1.32059
1.3079
-0.817108
-0.43611
-0.516704
1.08771
1.23086
-1.3474
-0.827307
-0.444413
1.35337
1.38309
-0.986268
-0.8566
1.36904
-0.976524
0.420009
1.02039
1.18212
-0.469788
-0.499574
-0.107232
-0.518005
-0.763666
-0.751753
-1.30833
1.76022
1.64843
-0.739233
-0.526488
1.35243
1.32958
-0.781227
0.398766
0.117259
0.89299
1.42356
-0.34484
1.34003
-0.901308
-0.487238
-0.879781
-0.738649
-0.910665
1.33662
-0.517779
-0.387341
1.66347
-0.507682
1.34187
1.52542
-0.826717
1.44695
1.64567
-0.797592
1.52369
-0.499351
-0.473961
1.31468
-0.453482
1.4176
1.34536
-0.490778
1.41259
0.594287
-0.950357
1.37281
1.43528
-0.392803
-0.544446
1.25607
1.33401
-0.466948
-1.23775
1.56509
-0.482775
1.21736
-0.0313265
1.30398
-0.43275
-1.03819
-0.448735
-0.780924
1.36619
1.3871
1.68184
1.4863
1.24453
1.39241
1.33703
-0.444824
1.40964
1.54198
-0.826809
-0.474976
-0.715207
1.60774
-1.12076
-0.461229
0.220374
1.20155
-0.822474
-0.712033
1.29082
1.42516
-0.45391
-0.83194
-0.465666
0.373118
-1.17464
-0.809963
-0.441534
1.15119
1.30509
-0.82922
-0.344844
-0.358185
1.09831
-0.48142
-0.762411
-0.439408
1.35387
-0.464042
-0.831765
1.72012
1.2603
0.827048
1.59137
-0.221436
1.38772
1.34199
1.47528
1.60475
-0.727216
0.928073
1.28298
0.710817
-0.437442
1.75269
1.32692
1.29204
1.42103
-0.830871
-0.511359
1.23711
1.07651
1.31614
-0.760236
-1.01097
1.33104
-0.435892
1.21242
-0.549741
1.70325
-0.437062
0.986784
1.15902
-0.823983
-0.437068
-1.06629
1.45188
-0.825967
-0.438189
1.12217
0.859957
-0.639513
1.39613
1.23436
-0.827111
-0.684505
1.26468
-0.828222
-0.438554
-0.446467
-0.80829
-0.249288
1.29006
1.3624
-1.18682
1.04638
1.34585
1.66005
0.72029
0.504984
0.210352
1.29052
0.0349205
-0.822085
-0.956275
-0.495283
-0.820395
1.31854
-0.826066
0.38522
-0.439681
0.786362
0.99977
-0.81707
1.06079
-1.0039
0.931274
-0.814446
0.705239
-0.822801
0.831746
-0.443773
0.614147
-0.812178
1.23456
-0.496667
-0.813676
-0.821921
-0.434304
1.35242
0.546451
-0.852328
-0.453402
0.239897
0.326656
-0.82454
-0.43172
-0.897355
0.350555
-0.468153
0.0613497
-0.499587
-0.164587
-0.979301
0.188105
1.19023
0.178918
-0.610314
1.29958
0.0893806
-0.0875502
0.880478
1.32123
-1.00358
-1.02258
-0.448436
-0.695164
1.2712
1.7234
-0.977935
-0.954615
0.481632
-0.512334
-0.257988
0.117564
1.28463
-0.696025
1.30986
-0.982687
1.77761
0.879451
1.80343
-0.831783
1.58724
-0.435518
1.40542
-0.273063
-0.445242
1.47884
1.3442
-1.0838
-0.439895
-0.815656
1.26788
-0.899008
1.31521
-0.946096
-0.438943
-0.450669
1.6336
1.3492
1.51129
1.32853
1.35622
-0.827815
-0.0105671
1.48722
-0.75466
-0.528451
1.70902
-0.8499
1.22227
1.33305
1.71412
1.79194
-0.880279
-0.381069
1.38217
0.673067
0.0283438
-0.766451
-1.46153
-1.15039
-0.829101
0.963347
-0.727244
1.5982
-0.672575
1.32321
1.43841
1.34171
-1.07417
-0.416084
-0.560082
1.43153
-0.564246
1.45285
-0.637475
-0.660151
1.5227
1.69468
-0.452456
0.286318
1.30061
-0.605613
-0.755062
1.07117
1.55788
1.5905
-0.892067
1.18219
1.11003
-0.443784
1.60655
0.499927
-0.829869
-0.705904
-0.0940836
0.140756
1.40247
-0.574639
0.474603
0.0834803
-0.0526638
-0.603242
-0.429503
1.31263
-1.02411
1.32879
0.0693891
0.540985
1.09434
0.702487
-0.442058
-0.509729
-0.658798
-0.121885
0.160828
-1.01667
1.20235
-0.579004
-0.498667
1.30935
-0.532698
-0.829616
1.35211
-0.302283
1.24229
-0.00841115
-0.429817
0.147481
1.18796
-0.303034
-0.401232
1.27808
-0.445258
1.42444
-0.088961
-0.599148
-0.523513
-0.443834
1.85782
-1.04874
1.50183
0.197825
1.31506
1.51008
1.12674
1.38892
1.43822
-0.00244566
-1.09636
1.32486
1.48037
1.73056
-0.512765
1.36926
0.91928
-0.503848
1.19708
1.60603
-0.475611
1.62806
0.340377
-0.725556
1.24327
-0.495126
-0.816673
1.30153
-0.351488
1.40576
1.45929
1.26528
-0.751335
1.1872
1.54374
-0.822964
-0.208967
-1.15253
-1.16752
-0.573338
-0.438751
1.74176
1.1644
-0.790185
1.31976
-0.48662
-0.578129
1.66504
1.50584
-1.05997
-0.612946
-0.441662
-0.439787
1.34157
-0.804441
0.528769
-0.82643
-0.352563
1.40948
-0.470458
1.67627
1.37248
1.26506
1.34082
1.58586
-0.64464
-0.479044
1.38446
1.52823
-0.637708
1.35633
-1.06604
-0.446628
-0.46172
1.35684
1.38765
-0.451278
-0.81386
0.969171
0.389821
-1.00362
1.30519
1.2254
-0.694691
1.26854
1.31455
-0.332769
-0.8241
-0.771591
-0.442925
-0.458871
1.69742
-0.659686
1.17534
-0.819248
1.701
1.18222
1.12262
1.23179
-0.976392
-1.07675
-0.43979
0.757127
-0.833378
1.32763
0.737013
-0.520765
1.14461
1.40886
1.37512
1.33047
0.0346759
1.38031
-0.0565572
0.843604
1.08042
-0.484613
-0.829909
-0.916558
-0.620787
1.35046
1.37371
1.35042
-0.40288
-0.307096
-0.43785
-0.742448
1.34297
1.57526
1.35714
-0.832348
-0.619271
-0.663714
-0.44796
-0.441233
-0.443824
-0.068359
1.31917
-0.695713
-0.828755
0.0544008
0.367379
0.96217
-1.21807
-0.437061
-0.291704
1.22738
1.77047
0.244583
1.45157
1.80235
0.895707
1.51146
-0.829686
-0.243728
1.78231
-0.436798
0.74631
-0.833154
-0.460026
-0.8111
-0.825578
1.35108
1.14939
1.46982
1.42947
0.0305006
1.193
0.212374
0.0529866
-0.437385
1.45601
0.964211
1.35298
1.36938
-0.0725813
0.138827
1.37187
-0.558159
-0.448164
-0.827364
-0.823916
1.00267
-0.823579
1.3121
1.08876
-0.437529
1.62639
-0.830204
-0.206304
1.3287
-0.59087
-0.546403
-0.560872
0.825531
-0.830756
-1.02112
1.17081
1.36116
-0.17137
0.498972
-0.730171
-0.438606
-0.743306
-1.06623
0.275001
1.02575
-0.612087
-0.822077
1.54746
0.450817
0.562914
-0.819053
-0.46307
1.34046
1.447
0.747895
0.964016
-0.8157
-0.519455
-0.256642
0.663431
0.877599
-0.813334
1.13716
0.321165
-0.81074
1.73578
-0.814561
-0.432389
-0.456993
-0.749792
1.25458
-0.832059
-0.790986
-0.457966
0.46333
-0.871347
0.161259
-0.729364
0.0313436
1.46732
-0.930738
0.290719
-0.484311
-0.0371201
1.62646
1.77295
1.51019
1.3448
1.48481
-0.654592
1.32739
-0.82695
1.44263
-0.44989
-0.399507
1.65461
-0.274448
0.900283
-1.08297
1.76102
0.0994497
1.70161
0.823702
1.04094
-0.831617
-0.828123
-0.445086
-1.00526
1.65184
1.48887
1.32149
1.03378
1.33628
1.27767
1.05682
-0.807408
-0.433193
0.431718
0.299102
1.02865
1.34492
0.426565
-0.834703
-0.805361
-0.348801
-0.446384
-1.11324
1.73046
1.36418
1.34011
-0.109623
0.105473
1.36803
-1.32161
-0.440142
-0.889906
-0.507843
1.01695
-0.824547
-0.815835
0.159221
1.32141
-0.464523
-0.456107
1.33445
1.03304
1.1041
1.32847
-0.440681
1.1183
1.5542
1.24957
-0.441963
1.33424
0.794103
0.663011
-0.613617
-0.823061
1.75817
0.686715
-0.965715
0.487653
1.16181
1.26164
-0.523928
-0.579379
-0.0445558
-0.889079
-0.38561
-0.788338
-0.0113205
1.32198
-0.853974
1.30268
1.64328
1.48999
1.28911
1.3634
1.43073
1.33342
-0.653131
-0.170708
-0.308864
-0.526008
-0.291233
-0.814304
1.44568
1.32258
-0.486052
1.33138
-0.654306
-0.395744
-0.814218
-1.00222
0.951234
-0.336854
1.31664
1.15248
-1.05819
0.0746415
1.66818
-0.408299
-0.466044
-0.30551
-0.782846
-0.780501
1.38916
1.01219
1.47391
-0.554873
-1.09207
-0.421287
-0.25335
-0.490162
-0.593105
-0.80778
-0.583933
1.16326
-0.234203
1.82761
-1.07419
-0.084583
-0.480352
-0.812726
1.29958
-0.493963
-0.569941
-0.324791
0.15281
1.46612
1.59513
-0.936299
-1.28128
1.06647
-0.466365
-0.339097
1.47583
-1.04254
-1.0881
-1.00404
0.985625
0.0475922
-0.494521
1.32213
0.167175
-0.930898
1.3272
-0.64555
-0.779682
-0.857097
-0.897262
0.389054
-0.49488
1.5997
-0.437541
0.60397
-0.450323
1.02987
-0.792563
-0.601676
0.868187
1.15252
1.39664
1.31673
1.4752
-0.827862
1.22267
0.962923
-0.7901
1.22169
-0.267966
-0.830986
-0.50464
1.55521
1.53786
-0.819883
-0.620685
-0.598104
1.26954
-0.67064
0.242742
-0.287437
-0.818226
1.56575
1.28012
-0.83007
-0.75328
-0.837624
-0.82806
1.20443
-0.83934
1.24085
0.410429
0.933353
1.07798
-0.793445
-0.648269
1.19866
-0.816342
-0.00968676
1.61716
-0.440605
-0.824489
1.05461
-0.824781
-0.773608
0.276622
-0.530037
1.69993
-0.131681
0.585232
-0.830594
1.69364
-0.827272
-0.741381
0.862891
-0.295988
-0.449338
1.6943
0.895615
1.40959
-0.783796
1.50445
-0.723377
-0.241466
-0.798972
-0.799225
-0.827288
1.53886
0.788608
-0.457854
-0.829843
-0.502248
1.41762
-0.700069
1.67017
-0.448659
0.971235
-0.825293
0.564691
0.748192
0.710684
0.621811
0.625824
-0.714743
1.27883
-0.804783
-0.620043
-0.321411
0.708767
1.70824
0.169978
-0.769512
-0.841855
-0.826535
0.447799
-1.06318
-0.823887
1.25421
0.626253
-0.826482
1.76889
-0.497723
-0.800912
1.7115
-0.825665
0.321784
-0.679703
-0.814302
-0.823338
1.74448
-0.804102
1.63754
-0.82205
-0.672823
1.46528
0.254947
-0.720328
0.777694
-0.521859
0.174826
0.0652745
-0.823315
1.19513
-0.417633
-0.823379
-0.815172
-0.815351
-0.455882
1.22774
-0.0153085
0.0412164
-0.827939
1.66075
-0.362793
-0.764323
-0.775119
0.291681
-0.952666
-0.797135
-0.829056
0.372052
1.52064
-0.831625
-0.445323
-0.895013
-0.192378
-0.103241
-0.461084
1.74486
1.66893
0.612425
-0.656523
-0.452704
0.519098
-0.452175
1.74686
0.386268
1.47211
0.924178
1.67323
0.255949
-0.959599
-0.638871
0.0887354
-0.803632
0.0880869
0.342925
-0.821606
1.64965
0.197151
0.399387
0.0832408
-0.440279
-0.688186
)
;

boundaryField
{
    frontback
    {
        type            empty;
    }
    Top
    {
        type            zeroGradient;
    }
    outlet
    {
        type            fixedValue;
        value           uniform 0;
    }
    bottom
    {
        type            zeroGradient;
    }
    Inlet
    {
        type            zeroGradient;
    }
    rectangle
    {
        type            zeroGradient;
    }
}


// ************************************************************************* //
