/*--------------------------------*- C++ -*----------------------------------*\
| =========                 |                                                 |
| \\      /  F ield         | OpenFOAM: The Open Source CFD Toolbox           |
|  \\    /   O peration     | Version:  2306                                  |
|   \\  /    A nd           | Website:  www.openfoam.com                      |
|    \\/     M anipulation  |                                                 |
\*---------------------------------------------------------------------------*/
FoamFile
{
    version     2.0;
    format      ascii;
    arch        "LSB;label=32;scalar=64";
    class       surfaceScalarField;
    location    "25";
    object      phi;
}
// * * * * * * * * * * * * * * * * * * * * * * * * * * * * * * * * * * * * * //

dimensions      [0 3 -1 0 0 0 0];

oriented        oriented;

internalField   nonuniform List<scalar> 
3181
(
-1.00421
0.385803
0.618402
-0.374514
0.35142
0.0230939
0.50121
-0.345019
-0.156191
0.111344
-0.18671
0.0753664
-0.0712905
0.0785403
-0.00724977
0.579054
1.26107
-1.84012
0.140908
-0.134933
-0.00597489
0.0022556
-0.000522272
-0.00173333
0.512322
-0.713533
0.201212
-0.0765902
0.126588
-0.0499974
-0.0106804
-0.0547671
0.0654475
0.124701
0.0433658
-0.168067
0.00111779
-0.00251532
0.00139753
-1.09658
0.154899
0.941679
-0.31182
0.670411
-0.358591
-1.12448
0.643517
0.480959
0.0839052
-0.930503
0.846598
-0.154505
0.0847996
0.0697052
-1.49173
-0.176295
-0.0012394
0.0767279
-0.0754885
0.0551913
-0.0971836
0.0419924
-0.0661803
0.0637414
0.00243896
1.06144
-1.03987
-0.0215688
0.028309
0.0294203
-0.0577292
-0.956803
0.332656
0.624147
-0.104866
0.216209
0.30059
-0.25877
-0.0418204
0.0278762
0.058724
-0.0866002
-0.430517
0.355662
0.0748545
-0.0351377
-0.0216263
0.025363
-0.00373673
-0.0432283
-0.913575
0.0889628
-0.0589777
-0.0299851
0.359545
1.34966
-1.7092
-0.0529075
0.0412501
0.0116574
0.187584
0.288919
-0.476504
1.91955
-1.56
0.0780979
-0.0229066
1.638
-0.876073
-0.761923
-0.835937
1.41499
-0.0160286
0.0171464
-0.0551503
-0.01103
-0.392729
0.0809092
-0.156337
0.101187
-0.653068
0.124835
0.528233
-0.136703
0.0601132
-0.160486
0.164393
-0.00390731
-0.257954
-0.0745824
0.332536
0.160228
1.27816
-1.43839
0.075828
0.0612389
-0.137067
-0.0228657
-0.106293
0.112819
-0.00652642
0.489895
0.180515
-0.0938482
0.155215
-0.0613665
0.0796093
0.00935353
-0.161494
0.185984
-0.0244901
0.155394
0.0553099
-0.210704
0.102364
-0.107988
0.00562423
1.28263
0.35537
-0.829102
-0.175103
-0.00412709
-1.57801
1.58214
0.570433
0.245207
-0.81564
-0.462017
-0.218196
0.680213
-1.29778
0.461844
-0.286246
0.856679
-0.307667
-0.101086
0.408753
-0.215259
-0.215257
-0.180929
0.17294
0.00798896
0.158415
0.2747
-0.433115
-0.17714
0.689462
-0.0050947
0.0073503
-1.94449
1.94036
0.16823
0.13236
-0.164689
-0.109819
0.274508
-0.26668
0.370175
-0.103495
-0.0745804
0.083021
-0.00844063
-1.78426
-0.920129
0.0116319
0.908497
-0.024606
-0.0283015
-1.13875
0.842103
0.296646
0.174552
-0.187043
0.0124915
-1.07495
-0.222828
1.1015
-0.946602
-0.748263
1.14344
-0.201766
1.05827
0.18204
-0.169533
-0.0125064
1.79316
-0.532085
1.39834
-1.39834
-0.00760775
-0.00116768
0.00877544
-0.198309
-0.0526975
0.251007
0.123015
-0.0868647
-0.0361506
-0.455241
0.816963
-0.361722
-0.0364588
-0.213478
0.249937
-1.08191
0.0420407
0.363716
0.0574593
-0.421176
0.126696
-0.890762
1.13597
0.0878304
0.0199419
-0.107772
-0.0179
-0.143594
-0.022722
-0.147938
0.17066
-0.0236695
0.000947473
0.127082
-1.01784
0.314573
-0.769813
0.924229
-0.840324
-0.0204789
0.153803
-0.133324
0.0930457
0.0550187
-0.148064
-1.30405
-0.0880326
1.39208
-0.228139
0.391154
-0.163015
-0.924003
0.118924
0.805079
-0.500921
-0.637828
0.119343
-0.0435155
-0.145299
0.139958
0.0053414
-0.0796964
-0.0203179
0.100014
-0.528955
-0.184578
-0.00894405
0.00322104
0.00572301
-0.929806
-0.496949
1.42676
1.67653
-0.398374
-0.0152578
0.00765001
0.0180887
0.150142
-0.21033
0.397914
0.0576088
0.0402813
-0.0978901
0.147049
0.0721816
-0.21923
0.184266
-0.088986
-0.0952803
-0.593474
-0.531003
-1.31258
0.382773
-0.029455
0.117285
-0.0946075
0.172229
-0.077621
0.0297615
0.0234053
0.117503
-0.0557933
0.0617577
-0.00596442
-0.0880716
-0.0186237
0.106695
0.0707304
-0.0707304
-0.176009
0.199414
0.150883
0.118848
0.0982059
0.0877783
-1.17276
0.995616
-1.58616
0.0845023
1.50166
0.00652018
-0.00768574
0.00116556
-0.0281922
-0.0546495
0.0828417
0.511424
-0.0179819
-0.493442
0.00304028
-0.00302944
-1.08349e-05
-0.18962
0.0136111
0.168345
0.648618
-0.351284
0.519629
-0.145628
-1.15842
-0.0792327
0.00794218
0.465105
-0.287661
-0.177444
0.126772
-0.113894
-0.0128777
0.0464225
-0.304376
0.022826
-0.942955
0.0475819
-0.142189
-0.269554
-0.38225
0.0881915
1.44252
-0.972925
-0.469596
1.12125
0.321268
0.0642459
0.26829
0.00434896
0.00217122
-0.0637742
0.0971659
-0.0333917
-0.246471
-0.60059
0.847061
-0.337958
0.301423
0.952247
-1.12854
0.15301
0.0264574
-0.0401526
0.0136952
-1.87487
0.14697
1.7279
-0.106505
-1.76837
-0.318602
0.682318
-0.907677
-0.0144814
0.00594964
-0.280956
0.275006
1.49962
-1.6315
0.131871
-0.0831941
0.00396142
0.584885
-0.831355
0.0526248
-0.181463
0.128838
-0.305084
-0.129133
0.434217
0.179467
-1.00889
-0.0730267
-0.0237617
-0.0517268
-0.584471
0.366275
-0.25954
0.0193192
0.240221
-0.0297376
-0.0534565
-0.0082942
0.0082942
-0.128128
0.140984
-0.0128559
-0.263618
-1.32255
0.0130198
-0.00060096
-0.0124189
-0.0754155
0.0162061
0.0592093
-0.23288
0.051951
1.5176
-0.335558
-1.18204
-0.173628
0.427918
-0.25429
0.00245755
-0.00284052
0.00038297
-1.01404
0.0900388
-0.195339
-0.00506256
0.200401
-0.159581
0.317996
-0.108794
0.107026
0.00176863
0.0801758
0.013187
-0.0933629
-0.0615097
0.05511
0.00639973
0.0361852
0.941692
-0.977877
-0.209823
-0.0484019
0.258225
-0.679351
0.662488
0.0168624
-0.0055607
0.034981
0.0415779
-0.0431942
0.00161626
-0.0104979
-0.0472313
1.01316
0.663371
0.169577
-0.898126
0.728549
-0.0406551
1.99057
-1.94992
0.364019
0.519141
0.879204
0.0755183
0.215788
-0.0687394
-0.0760299
-0.030263
0.221811
0.169304
-0.0762584
0.734123
-0.401466
0.0582702
0.192736
0.05977
-0.178447
0.118677
-0.739626
-0.130891
0.870516
0.0023971
-0.0023971
-0.0794566
-0.279129
0.568048
0.0114524
-0.221275
-0.00567955
0.0904791
0.0467251
-0.0761801
0.14547
-0.156151
-0.346706
0.310247
0.0366606
0.029946
-0.0666066
0.367993
-0.324628
0.23671
-0.0540646
-0.182646
-0.196636
0.260882
0.179751
-0.467413
-0.200392
0.586194
0.156476
-0.0312559
0.0312559
-0.142007
0.184949
-0.0429414
0.362747
0.0284067
-0.00380489
0.00266324
0.00114165
-0.117125
0.00223488
-0.0111789
-0.051446
0.196916
-0.190991
0.254702
-0.0637104
0.140887
0.0284172
-0.379589
0.12082
0.20425
-0.0633627
-0.0488349
-0.0599595
-0.00486958
0.0124534
-0.00758385
0.139532
-0.0991731
-0.0403588
-0.0355138
0.41584
-0.380327
-0.0208243
0.0157296
0.111451
-0.116044
0.00459347
0.0247967
0.36737
-0.13066
-0.0523056
0.0196959
0.0326097
-0.0376143
0.0622985
-0.0246841
-0.0997109
0.096299
-0.719974
0.623675
-0.00300879
-1.34741
-0.465616
1.81303
0.202653
1.29345
-1.4961
0.077874
-0.172481
0.0834948
0.295078
0.259216
-0.554294
-0.21201
0.27178
0.13012
-0.858335
0.728215
-0.0391978
0.00158349
-0.0399135
0.0161518
-0.979558
0.440422
0.539136
0.972925
-0.845843
-1.58884
1.50081
-1.49962
1.58413
0.0361871
-0.0975536
0.00668187
0.034896
0.00248072
0.76523
-0.63511
0.112976
-0.0653942
0.409966
0.733478
-0.0998302
-1.6998
1.65914
-0.633705
-0.539052
-0.243332
-0.409736
-0.00367786
-0.157333
0.203755
-0.569592
-0.352522
0.178894
0.740337
-0.228914
-0.841013
-0.747831
0.754462
0.0139082
-0.053106
0.264903
0.0350678
-0.0350678
0.668936
0.150684
-0.81962
-0.227304
0.89624
0.488525
-0.54726
0.0587346
0.122655
-0.00380707
0.00537921
0.007826
-0.0132052
-1.57801
-0.917986
0.519611
1.00148
0.516113
-0.0330828
-0.127403
-0.233856
0.723751
-0.208687
-0.0508537
-0.00262157
-0.0719588
-0.0590835
0.114102
0.38906
-0.264225
-0.779333
-0.302193
-0.0707472
0.0203915
0.0503557
-1.03891
1.55805
-0.0752178
0.0711075
0.00411033
0.016463
-0.012114
-0.0252016
0.0192256
0.00597601
0.0100826
0.398671
0.0772408
0.0495309
0.0216415
0.0234673
-0.0451089
-0.0169609
-0.178378
-0.746667
0.388403
0.358264
1.02281
-2.1922
1.1694
0.145842
-0.168221
0.0223787
0.0144398
0.104904
-0.0525877
-1.34576
-0.0242005
-0.00100112
-0.0938297
0.0503142
0.15111
-0.361439
-1.89374
0.454282
1.43946
0.0435587
0.0877435
0.0517884
-0.739626
0.620469
-0.584283
0.0324004
-0.0131748
0.0460154
-0.641162
-0.0381884
0.0640015
0.140248
-0.0723495
0.0194275
-0.452542
0.115655
0.364171
-0.306712
-0.105268
0.0171965
0.219433
0.843637
-1.06307
0.106491
-0.701394
0.594903
-0.902595
0.771704
-1.49229
0.0400257
1.45226
-0.000242248
-9.83789e-05
0.000340627
0.182932
-0.488016
0.221788
-0.129379
-0.0924088
0.053274
0.00902448
-0.0225632
-0.0481839
-0.0058971
0.0190671
-0.029565
0.0195309
0.0919046
-0.111436
0.691178
0.00678342
-0.00668281
-0.000100616
0.024563
-0.00883339
0.86295
0.0503938
-0.0464324
-0.236696
-0.68129
0.103224
0.0194303
0.00702406
0.0807194
-1.45226
1.34576
0.103479
-0.0982622
-0.00521641
-0.266452
0.0969187
0.12046
-0.132967
-0.00119035
0.0842114
0.002518
-2.00406
0.110319
-0.0534801
0.073011
0.741641
-0.260682
-0.106275
0.0308594
0.361611
-0.00336283
-0.000442056
-0.007393
0.0781234
0.140681
0.229493
0.157603
-0.348406
0.190803
0.100888
0.54773
-0.0266364
-0.110067
0.880802
-0.235438
-0.645364
-1.49229
-0.516058
1.53887
1.91955
-0.0540384
0.176273
-0.122235
0.389075
-0.0789462
-0.310129
0.0563705
-1.13132
-0.0811599
0.0825784
-0.00141851
0.0902209
-0.156112
0.0658909
0.43348
-0.840853
0.407373
0.0386173
0.666514
-0.705131
-0.0420815
-0.103218
-0.03741
-0.0148956
0.104104
-0.246111
0.000873088
-0.00111534
0.0133487
0.0535561
-0.0669048
0.0177138
-0.081488
0.00568635
0.0107766
0.0484362
0.105367
-0.0386063
-0.00458785
0.205303
-0.418781
-0.0779261
1.37138
-0.00100793
-0.00138917
-0.989653
-0.0192319
0.0746027
-0.06704
-0.0382281
-0.050003
0.102628
0.372175
-0.735346
0.363171
0.0668453
0.0363792
-0.937429
-0.00917216
-0.00349206
-0.649642
0.745941
-0.0164815
0.172958
0.191181
-0.738441
0.188526
-0.425528
0.237002
-0.0339092
0.0741906
0.00284632
-0.00334468
0.000498365
-0.0229236
-0.0385861
-0.0191817
-0.124412
0.73106
-0.624569
-0.0358265
0.0090906
-0.057504
0.326634
-0.169031
0.0700869
1.02858
-0.414828
-0.61375
-0.127485
0.146804
-0.512135
-0.234532
-0.543762
0.57891
-0.564838
-0.0140718
-0.0471645
0.011338
-1.6998
0.568116
-0.568116
-1.80304
1.80304
0.76523
-0.140619
0.153371
-0.0127525
-0.89905
-0.0906036
0.660164
-0.385192
-0.274972
0.14736
-0.224981
-0.0117382
-0.00351958
-0.926596
-0.0912479
-0.9332
0.213226
0.0362144
-0.0158229
0.696872
-0.0971694
-0.599703
1.60036
0.319188
-0.00298165
0.00582797
-0.958998
0.616422
-0.670487
-0.0892202
-0.626634
0.715854
-0.00366222
-0.906128
-0.725367
0.22244
-0.815914
-0.870516
1.29333
-0.42281
-0.134619
0.268048
-0.133428
-0.0374912
0.734363
-0.112333
-0.957659
0.957659
-0.700647
0.572028
0.128619
0.00252251
0.00426091
0.0293916
-0.453186
0.895048
-0.0529449
-0.092149
-0.0324462
0.0169791
0.000311542
0.00214601
1.84629
-1.80627
-0.353321
0.433497
-0.666373
1.0612
-0.394824
-0.0112928
-0.0129077
0.131603
-0.0594211
0.335667
-0.00107375
-0.00144157
0.359791
0.0560493
0.0448602
-0.260587
0.215727
0.132141
0.0322524
0.10341
0.190703
1.72607
0.214289
-0.384487
0.567
-0.182512
-1.26215
1.40912
0.25793
-0.156744
0.0736013
-0.765405
0.691804
-0.525106
0.110182
-0.456888
-0.074486
0.124993
-0.050507
0.116474
-0.19096
-0.469558
-0.114914
-0.0776063
0.0810435
-0.00343716
-0.00795059
-0.0306557
0.0279693
-0.0186157
0.63511
-0.594903
-0.0402067
-0.278373
0.289825
0.882254
0.657665
-0.26859
-0.00146597
0.000865014
-0.183492
0.00202974
0.158368
-0.55577
0.397401
-0.00353955
0.000194871
0.33256
-0.291306
-0.0412544
0.00725709
-0.0137074
0.00645031
-0.0267602
0.0185707
0.00818955
-1.23742
0.705333
-0.0733137
-1.2741
-0.210341
-0.845843
1.58413
1.50081
-0.182596
-0.164355
0.115953
-0.0681876
0.074385
-0.00619739
-0.466105
0.737808
-0.271703
0.578452
0.0817114
-0.00165786
-0.00188169
0.128207
-0.858298
0.0324462
-0.0578018
0.0043217
-0.270718
0.0872258
-0.0481288
0.0948539
-0.227128
0.595121
1.12125
-0.068377
-0.0570613
0.000960495
0.0561008
1.87635
-0.37554
-0.0572399
-0.0507485
-1.01097
0.165131
0.391666
-0.212199
-0.487949
-0.145071
0.63302
0.848029
-0.38276
-0.465269
-0.0390498
0.411224
-1.65914
0.0811303
-0.0156006
-0.052898
0.0684986
0.287441
1.70313
-0.163413
0.168792
0.0896685
2.198
-0.613877
-0.669352
0.0418873
0.627465
0.40319
0.0234557
-0.360162
0.506481
0.776771
0.109223
0.0718035
-0.0200151
-1.27964
0.27699
1.00265
1.28892
0.0890486
-0.067407
-0.0549001
-0.371362
0.118829
-0.330839
0.417874
0.610704
-0.024769
-0.0223955
0.204448
-0.258486
-0.0220238
0.0164631
0.10533
-0.140264
0.0349339
-0.284691
0.296534
-0.0118427
0.143087
-0.557915
-1.57526
0.232665
1.34259
0.0535694
-0.0869591
0.0333898
0.287793
0.0388408
0.185401
0.435067
-0.67325
0.67325
1.58214
1.60036
-0.701394
0.311697
0.465073
-0.177853
0.134911
0.963104
-0.384652
0.0113998
-0.885733
0.874333
0.117547
0.00904059
0.0251792
-0.167023
0.352424
0.0845414
-0.164614
-0.111559
0.276173
0.0898503
-0.489483
0.324869
-1.13969
-0.300762
-0.661851
-0.00644288
-0.00600092
-0.000681885
-0.229577
0.006478
0.0438777
0.0315805
-0.157856
0.126275
-0.527552
-0.173095
-0.00531401
0.0640381
-0.211045
0.048449
0.162596
-0.541688
0.364245
-0.122488
0.152434
0.223391
-0.00956811
-0.0303454
-0.897833
0.562275
0.036873
0.074578
-0.0693242
0.0118201
0.213479
0.00830899
-0.442859
1.67531
0.498206
0.399977
0.865206
-0.791605
0.823466
-0.461855
-0.641292
0.188106
0.158661
-0.798313
0.778951
0.0193619
0.976764
-0.55889
-0.212156
-0.141165
-0.0996617
0.012797
0.950364
-0.839317
-0.111046
-0.19714
0.120881
0.025964
0.113994
0.877337
-0.00419083
0.0724226
-0.0682318
-0.313462
-0.0390605
-0.123095
-0.0879495
0.113652
1.27843
1.7957
-0.195339
0.162258
0.547484
-0.709742
0.0305756
0.0533983
-0.0205489
0.0109808
-0.529035
-0.112257
0.0740645
-0.103802
-0.199438
0.147992
-0.509602
0.255313
-0.992709
-0.312734
-0.297213
-0.746951
1.54445
-0.0427881
-0.297961
-0.210219
-0.0604992
0.555296
0.317317
0.042474
1.17155
-0.738066
-0.20356
0.140197
-0.152371
-0.124454
0.276825
-0.0300169
0.0144162
0.0522587
-0.0599481
-0.224743
-0.105791
0.697991
-0.428302
-0.269689
-0.0726171
0.124507
-0.0900541
-0.034453
0.246511
0.070806
-0.00965622
-1.48645
-0.101672
0.147688
0.195769
-0.19996
-0.0241493
-0.000534873
-0.0275585
0.0113852
0.0161733
-0.00613784
-0.0015479
-0.255614
0.0771673
-0.0635797
-0.531514
0.396895
0.028639
0.0365642
0.0170052
-0.69776
1.56212
-0.951414
0.0157043
-0.20474
0.189035
-0.147091
-0.525629
0.672721
0.0619789
-0.703141
-1.14043
-0.434825
-0.000127187
-0.000340418
0.000467604
-0.237335
-0.57891
-0.160716
-0.124936
-1.27964
-0.244506
0.175767
0.0198266
-1.19067
-0.186198
0.155028
0.0311701
0.251188
0.104536
0.486153
0.278637
-0.76479
-0.0187621
0.0326703
0.96647
0.216926
-1.1834
-0.214501
0.149813
1.25931
-0.25498
0.191269
-0.468588
0.618402
-0.0909207
-0.0570171
0.00153732
0.0009434
-0.0152048
1.23532
-0.835339
0.761465
0.0865645
-1.66885
-0.335209
0.256633
0.706471
0.871473
0.00932856
-0.0195032
-1.7957
-0.661851
-0.712031
0.723663
-0.03276
-0.841013
0.666514
0.583969
-0.929921
0.732935
0.000173886
-0.798487
-0.315346
0.638775
-0.761322
0.122547
0.0754611
0.049046
-0.742836
-0.373862
1.61494
-1.24108
-0.000380519
-0.0056204
-0.277321
0.226467
0.700754
0.210341
-0.196729
-0.171748
0.570425
-1.06737
0.237001
-0.249753
0.330752
0.412435
-0.743187
-1.29929
1.57628
0.138942
-0.0904928
0.0921406
0.628787
-1.00265
-0.000335802
0.223875
-0.0133326
0.0701391
0.00446357
0.00799534
-0.0242101
0.0162148
-1.02905
-0.0340239
0.30582
-0.806606
-0.864528
1.65252
-0.787991
0.386029
0.675168
-0.0451787
0.0482143
-0.00303563
-0.213197
0.783622
-0.719434
0.756639
0.354232
-1.21876
0.330173
-0.106298
-0.583781
-0.408928
-0.975649
1.3064
-0.0524045
-0.885559
-1.86298
-0.0869376
0.628787
0.051223
-0.857829
0.830728
-0.646271
-0.184457
-0.981934
0.398153
0.00599789
0.108103
0.000397354
-0.108501
-0.971406
0.562477
-0.202498
0.912753
-0.921925
0.201732
-0.218693
-0.100722
0.251831
0.575031
0.705062
-0.113894
-1.2183
0.604554
0.822952
-0.713729
-0.552719
-0.518389
1.07111
0.447281
0.0188956
-0.0110696
-0.739155
0.705131
0.104855
-0.318051
-0.879204
0.584018
0.295185
1.17336
0.479154
0.771358
-0.806495
-0.493492
-0.449463
-0.471729
-0.499677
0.804269
-0.804269
0.687932
-0.687932
-0.739155
-0.36119
0.36119
-0.584018
-1.17653
-0.370981
-0.416835
0.0979681
-0.0979681
0.104855
-0.318051
0.771358
0.764455
-0.764455
0.806495
0.758507
-0.758507
0.506508
0.528271
0.481611
0.202823
-0.500323
-0.550537
1.07881
-0.696032
-1.67879
0.703142
0.171849
-0.0329069
-0.310735
-0.00888896
0.0592828
-0.883978
0.0874872
0.796491
-0.0352313
0.0315535
-0.99328
0.591814
0.88382
-0.572123
-0.122194
0.00106719
-0.000822078
-0.821929
-0.0761977
-0.539136
-0.0141387
0.0302905
0.354363
-0.0514027
0.0382279
0.182856
-0.00336474
-0.00716571
0.0105304
-0.812609
0.0681204
0.744488
0.285314
0.289716
-0.525683
0.427636
0.0980466
0.915154
-0.745737
-0.169417
0.0841794
0.313734
-0.0143914
-0.0632149
-0.06786
-0.0132999
0.712321
-1.75123
-0.870709
0.0940354
-0.747729
0.794609
-0.0468798
0.120142
-0.900442
0.780299
-0.803816
0.901477
-0.0976613
-0.0196811
0.0135433
0.0203657
-0.301322
0.3587
0.947702
-0.0894202
-0.794557
0.914862
-0.0896876
-0.825174
0.0314572
-0.04275
0.457163
0.825734
-1.48143
0.483218
-0.401507
0.0972886
-0.891846
1.56
0.243037
-0.795312
-0.00317505
1.01677
-0.896625
1.10927
0.892469
-0.955777
0.0633083
-0.884558
-0.108721
-0.429678
0.0493514
-0.246702
0.609873
-0.783687
0.783687
-0.627534
-0.0816614
-0.863248
0.117512
-0.996436
0.907216
0.0799211
-0.2093
-0.0542137
0.0496926
0.0120652
0.185511
0.831255
0.819815
0.774335
0.135972
-0.910307
-0.750329
0.717422
-0.78493
-0.100451
0.88538
0.161859
-0.881293
-0.677737
0.885392
-0.788103
-0.10211
0.461775
-0.0048063
-0.456968
-0.285114
1.55355
-1.26844
0.395976
-0.324019
-0.0719568
-0.887039
-0.829057
0.0813279
0.548886
0.27458
-1.81592
0.950202
-0.596848
0.596848
-0.705929
-0.512375
0.0980229
0.254401
-0.655589
0.888254
0.784941
-0.19124
1.00934
-0.304009
1.11952
-0.958538
-0.160983
-0.389152
-1.80305
0.115281
0.14214
-0.153143
-0.43114
0.0319817
0.317933
-0.233754
0.782749
-0.88041
0.621634
0.0957875
-0.142918
0.734732
0.597053
-0.597053
-0.0304576
0.0183436
0.118996
-0.0874151
1.26718
0.286366
0.11057
-0.000144699
0.00549626
-0.00535156
-0.677208
0.691932
-0.0147239
-0.0297166
-0.92606
0.10429
-0.892393
-1.09008
1.36477
-0.274694
0.0766171
0.872428
-1.66125
1.63153
-0.756421
0.612551
-0.650739
-0.678523
0.166388
0.193461
0.0267171
0.133125
-0.123707
0.317168
0.000205034
-0.0271845
0.060914
0.733695
0.687599
-0.0750478
0.0689972
0.793953
-0.395206
-0.166888
0.562094
-0.36259
0.496624
0.32832
-0.912283
0.698268
0.214015
-0.685078
-0.130835
0.92626
-0.184651
-0.0614603
-0.0325662
0.485919
0.514081
-0.771625
-0.108785
-0.238459
-0.68948
-0.230229
-0.261786
0.401169
0.598831
-0.041286
0.0324526
-0.861313
-0.0541322
-0.596607
-0.151138
-0.234605
0.385743
0.00230035
0.00021765
0.12029
0.0766263
-0.12831
-0.127304
0.763707
-0.649687
0.718684
0.621183
-0.74489
-0.225977
0.573183
-0.347206
-0.74404
-0.183663
0.927703
-0.229719
0.218211
-0.0254742
-0.05319
-0.00026648
-0.00149212
0.735778
-0.13893
0.108464
0.114927
-0.733939
0.0567313
1.04822
0.289983
-0.343845
0.161199
0.101258
-0.279882
1.01336
-0.00135886
0.143929
-0.0542603
-0.000669305
-0.0560794
-0.0168916
0.0734684
0.974756
0.134537
-0.604861
0.470324
0.845034
-0.0278721
0.00402452
0.0238476
0.135994
0.000593538
0.00027955
0.207364
-0.102034
0.119199
-0.774789
0.637377
-0.50284
0.00466356
0.269178
-0.0316778
-1.08033
1.34415
-0.263816
-0.778391
0.827064
-0.0486739
0.206237
-0.0300786
-0.060842
-0.084328
1.34065
-0.468591
-0.057092
0.26932
0.436811
0.179491
-0.616302
0.382922
0.0279526
0.663979
-0.571867
0.576323
-0.00445532
1.34312
-0.787828
-0.0500266
0.0599762
-0.00994958
0.702116
-0.0096385
-0.0823377
0.0181195
1.22745
0.837238
-0.631002
0.0916806
-0.0456236
-0.0413355
0.0572632
0.0316607
-0.0889239
0.0123354
-0.00434003
0.635367
-0.418441
0.0251156
0.208572
-0.024311
-0.075676
0.2376
0.091954
0.00469326
0.039287
0.76303
0.906958
-0.764476
-0.142482
-0.888971
0.273446
0.615524
0.643401
0.116646
-0.0462913
-0.00748128
0.0537725
-0.309105
0.317877
-1.27642
-0.0134468
0.767908
0.728754
0.507784
0.0234829
-0.766319
0.80526
0.103619
-0.0335321
-0.908128
0.133336
-0.2726
-0.320362
-0.167495
0.69964
0.0633901
0.0144255
0.388216
-0.418295
-0.098972
0.167662
0.0116574
-0.108841
0.421466
-0.0591896
-0.140639
-0.0638024
0.128285
-0.426786
-0.462184
-0.144112
0.15152
-0.024906
-0.108507
-0.00173519
0.00021105
0.00152414
-1.44252
0.654691
-0.000244628
0.930573
-0.22458
-0.623725
0.658414
-0.0346891
0.31464
0.756371
0.149254
-0.49646
0.0828082
-0.18353
0.64116
0.115211
0.836138
0.721913
-0.280782
0.764
0.252328
0.722428
-0.583894
0.351534
0.23236
-0.353586
-0.0708641
0.039607
0.0715867
-0.0505969
1.23984
0.7354
0.0698604
0.637172
0.209889
-0.880895
-0.0826786
-0.682428
0.679253
-0.0290688
-0.558123
0.406985
0.857946
0.669113
0.0321354
-0.0257657
-0.135028
-0.32186
0.737457
0.824661
0.74377
0.0381532
0.923472
-0.201044
0.454375
0.972381
-0.0832363
0.427013
-0.727385
0.920479
-0.193093
-0.413714
-0.170179
-0.0629043
-0.151391
-0.159507
0.841523
0.0305219
-0.00705456
0.626488
0.0861179
0.0750813
0.614981
-0.130847
0.219008
0.786247
0.256035
-1.04228
0.276767
-0.923038
0.359512
-1.31093
-0.164252
0.751532
-0.58728
-0.678398
-0.064459
0.0112689
-0.056748
-1.42505
0.00623267
-0.0337912
0.605729
0.033243
-0.125934
0.0926912
-0.00583974
-0.569592
0.0730319
0.070897
-1.65759
-0.00692262
0.00355788
0.112768
-0.0554709
-0.604569
0.032702
0.568423
0.289523
1.10665
0.706373
-0.22819
-0.38981
0.618
0.226601
-0.619812
0.619812
-0.237583
-0.962506
1.20009
0.0319373
-0.159422
0.669847
-0.101424
-0.216819
-0.22774
0.16628
0.517273
0.92576
-0.10782
0.189842
-0.101651
-0.324729
0.482012
0.0943102
0.0752485
0.0028494
-1.99839
-0.115741
-0.0178139
0.69331
0.30669
-0.115741
0.69331
0.21988
0.011256
0.21988
-0.696527
0.696527
0.303473
-0.0134094
0.108083
-0.0792129
0.239315
0.101097
-0.492938
0.636899
-0.0219188
0.641904
-0.505594
-0.13631
-0.0463582
0.0419771
0.00438117
-0.0133782
0.0132335
-0.651708
0.0175898
-0.0199455
-0.434484
-0.371849
0.142272
0.0362564
0.817662
-0.270178
-0.465934
0.405434
-0.0134335
-0.0644828
-0.000802159
0.69335
0.074558
0.0959416
-0.0445154
-0.000593461
-0.0105905
0.083323
0.548543
-0.479883
-0.06866
2.17432
0.561852
0.048699
0.934915
0.0120914
-0.0667408
0.113499
0.239574
0.050048
1.18322
-0.396974
-0.000676237
-0.00576664
0.539063
-0.271663
0.0186618
-0.0186618
0.0233707
-0.0233707
-0.0166297
0.0166297
-0.00100793
0.366777
0.465043
-0.0465388
-0.687321
0.458407
0.179418
0.0279459
-0.0860513
-0.481874
0.611821
0.113341
-0.798419
-0.997438
0.258997
0.0442083
0.0215664
-0.00299575
0.00102425
-0.00102425
0.0994462
0.00136467
-0.00136467
0.70042
0.107505
-0.034119
-0.0103964
0.00615931
-0.0632207
-0.0205468
0.0205468
-0.0144326
0.0144326
-0.0241058
0.0241058
0.00149626
-0.00149626
0.0483186
-0.301043
-0.0764216
0.218503
0.00179856
-0.00179856
-0.378364
0.496095
-0.117731
0.478096
-0.210049
-0.485082
0.0191482
0.557396
-0.0696992
0.0870539
0.57136
0.565052
0.00184198
-0.00184198
0.0350995
0.0271032
-0.0271032
0.0020488
-0.0020488
0.780404
-1.27847
0.0377581
-0.545625
0.254319
-0.00109757
0.00109757
0.0158212
-0.0158212
0.0195659
-0.0195659
0.0209652
-0.0209652
-0.0252793
0.0252793
0.0374217
-0.0374217
0.500304
-0.0339914
0.0339914
0.000818021
-0.000818021
0.0257633
-0.0257633
-0.0110367
0.0110367
-0.00183115
0.00183115
-0.0327982
-0.0285218
0.0285218
0.334066
0.0097325
-0.0420152
0.0420152
0.00942042
-0.00942042
0.0171965
-0.0171965
0.03576
-0.03576
0.0239529
-0.0239529
-0.00130862
0.00130862
-0.00724148
0.00724148
-0.153154
-0.192641
-0.0140083
0.0140083
0.000477394
-0.000477394
-0.0405633
0.0405633
-0.0262033
0.0262033
0.00395254
-0.00395254
-0.433607
0.69024
0.249702
-0.0340369
0.0340369
0.00196455
-0.0156202
0.0156202
7.95139e-05
-7.95139e-05
0.0349295
-0.0349295
-0.163594
0.130062
0.00887442
-0.00887442
-0.0203396
0.0203396
-0.475472
0.0413011
0.493862
-0.0293052
0.0293052
-0.432989
0.0306577
0.0175566
0.0264868
-1.69534
-0.0390334
0.0390334
-0.212772
0.153583
-0.038478
-0.000303456
0.000303456
-0.0158357
0.0578281
0.266716
-0.3222
-0.260076
0.582276
0.174235
-0.0101477
0.0101477
-0.0643534
0.269877
-0.205523
0.746879
-0.374252
-0.372627
-0.483619
-0.657525
0.114959
0.290475
-0.124791
-0.237799
-0.575473
-0.0169143
0.19111
-1.1661
0.019049
-0.019049
-0.000567776
0.000567776
0.0327857
-0.0327857
0.0245534
-0.0245534
-0.0020603
0.0020603
-0.000762644
0.000762644
-0.0868754
-0.100168
0.159064
-0.281258
0.00267271
-0.00267271
-0.0421432
0.0421432
-0.0428156
0.0428156
0.0829973
-0.000492525
-0.0825047
0.01843
0.296161
-0.520741
-0.00333572
0.00333572
-0.0175599
0.0175599
-0.107163
0.275216
-0.160256
-0.00126101
0.00126101
0.0388523
0.0143331
0.902893
-0.489296
-0.0950976
0.584394
-0.616193
0.308624
-0.555326
-0.0361683
0.0361683
-0.672283
0.265242
0.0525442
-0.0525442
-0.67777
0.402798
0.250217
0.114084
-0.00165964
0.00165964
-0.875411
-0.000977752
0.000977752
0.326455
0.407909
0.0817119
-0.0567635
0.0567635
-0.00173742
0.00173742
-0.0449611
0.0449611
-0.0504534
0.0504534
-0.000877139
0.000877139
-0.0557947
0.0557947
-0.000953127
0.000953127
-0.0484496
0.0484496
-0.0145192
-0.0423853
0.0423853
0.00371409
-0.00371409
0.0511132
-0.0511132
-0.00143814
0.00143814
0.0445685
-0.0445685
-0.133018
-0.00311795
0.00311795
-0.00489382
0.00489382
-0.0380395
0.0781234
-0.0113441
0.0113441
0.00515058
-0.00515058
-0.0629061
0.0629061
0.308281
-0.0195337
0.0195337
-0.0538124
0.0538124
-0.00743722
0.00743722
-0.071155
0.071155
-0.0128079
0.0128079
-0.0850148
0.0850148
-0.023065
0.023065
-0.0887463
0.0887463
-0.704321
0.292505
-0.545189
0.510499
-0.906128
-0.0759157
-0.540345
0.37285
-0.0418334
-0.0307837
0.00378704
-0.00378704
0.105025
-0.696452
0.0498807
-0.0470313
-1.42918
1.74837
1.36714
0.243491
-0.000803425
-0.00745314
-0.376573
-0.59646
-0.0465577
0.394849
-1.26897
-0.0269701
0.0269701
-0.723104
0.0157664
-0.0157664
-0.00587456
0.00587456
0.330393
-0.371202
-0.00254641
0.00254641
0.0177936
0.0134623
0.59933
0.109263
-0.00935372
-0.0113749
-0.00812826
-0.110012
0.513724
-0.403713
0.152912
-0.0376307
0.000854997
1.06945
0.0140833
0.0399731
-0.410977
0.460328
-0.506074
-0.948888
-0.209536
-0.0782364
0.0191529
-0.0609984
-0.263021
0.00183186
-0.00792105
-0.00798107
0.803312
-0.532675
-0.0471021
0.0587595
-0.0401256
0.0666317
0.0414509
0.413513
0.248975
-0.161227
0.202512
0.0170603
-0.00387321
-1.1498
0.0258572
-0.0141129
-0.111821
-0.0175112
-1.34969
-0.0725754
0.271967
-0.355005
0.411054
0.199522
-0.946472
0.0416341
-0.0109257
-0.0318242
-0.357533
0.455579
-0.0267843
0.00269767
0.0240866
-0.0292004
0.0292004
0.185171
-0.453762
-0.0351336
0.0513398
-0.0885789
0.0595102
-0.0587331
-0.00397321
0.0627064
-0.0335361
-0.159707
0.0373737
-0.0580645
-0.282849
-0.339082
0.621931
0.017693
0.0648854
0.148702
-0.0402378
-0.0635689
0.0760832
-0.166599
0.325259
-0.00422199
0.0280696
-0.0159603
0.164662
0.00296635
0.27204
0.00496787
-0.00496787
-0.458893
0.913267
0.099104
-0.181783
-0.0198665
0.0162042
1.25961
0.37192
0.0250529
-0.0167587
-0.536344
-0.00884453
0.0408859
0.105323
-0.711079
0.326428
-0.0551938
0.362769
-0.645618
0.206221
0.492047
-0.0948111
0.0948111
0.000397353
-1.40175
0.357103
1.04465
-0.224144
0.167396
0.159487
-0.208878
-0.349037
-0.0527055
-0.0480168
0.0546987
0.929254
0.162536
-0.130401
-0.0705611
-0.740172
-0.478587
-0.0318099
-0.259109
0.76559
0.555902
-0.25974
-0.274384
0.543563
-0.0733176
0.249591
-0.265429
0.0310625
-0.455303
0.337572
0.116692
-0.116692
0.03771
-0.0432987
0.00558867
1.63159e-05
0.00149535
0.0113852
-0.135679
-0.173425
0.213622
-0.185311
-0.0283102
0.525769
-1.12234
0.149463
-0.830753
0.684372
-0.106697
-0.174561
-0.0257035
-0.0800872
-0.500442
0.065958
-0.301309
0.000131589
-0.0175112
0.397854
-0.00515106
0.000566716
0.000302298
0.0154833
-0.0106173
-0.00486596
-0.0970926
-0.0180779
-0.175457
0.193535
-0.11045
-0.344853
0.0177936
0.349862
0.00100952
-0.391771
0.0945582
0.00299748
0.0657603
-0.112299
-0.0133629
0.0133629
-0.00167779
0.0013886
-0.00872619
0.000250234
-0.0171688
0.000418423
-0.00117357
0.111035
-0.00840702
-0.00176339
0.00176339
0.020472
0.499076
0.000424286
-0.280336
0.535961
1.19264
-0.467983
0.316847
-0.440116
-0.0921986
0.057065
0.210423
-0.215204
0.00749303
-0.00224687
0.000754751
0.00236014
-0.1761
-0.365589
0.823996
0.368765
-0.455641
0.0909118
-0.00166171
0.0556033
0.0210138
-0.00020093
-0.000221393
-0.00202548
-0.0225511
0.00145186
-0.000625633
0.740465
-0.664382
-0.249499
0.273467
0.745137
-0.000397881
0.00163294
-0.038478
-0.00535235
0.817554
-0.431766
0.526077
-0.707294
0.905521
-0.25053
0.554749
-0.181899
0.719584
0.000888926
0.00353132
0.0180351
-0.123368
0.137649
-0.137671
0.00819161
0.00185545
0.070886
-0.0582868
-0.0125991
0.00127333
0.00055448
0.0319622
-0.0325166
-0.0950837
0.00547028
2.59747e-05
0.00195071
0.496591
-0.440611
0.00036343
0.000616823
1.22282
-0.865713
0.370187
-0.00624767
-0.00026432
0.0635352
-0.0384196
-0.0496269
-0.0954172
-0.0107967
-0.00378217
0.135949
0.0468371
-0.00289542
0.393521
0.00136692
0.00108723
-0.00108723
8.68608e-05
-0.0114618
0.000612409
-0.322253
-0.0039211
0.076594
-0.107742
0.121912
0.24545
-0.0651971
0.000663014
0.00177587
0.44583
0.000400662
-0.0014925
-0.0614118
-0.00214555
0.00101532
0.0240912
0.0864785
-0.709812
0.453659
-0.819248
0.0121949
-0.000476408
0.592973
0.0182922
0.0136895
0.564887
-0.014285
0.0137664
-0.0042193
-0.00143099
-0.557072
-0.00348854
-7.59917e-05
-0.000787109
0.893382
-0.51046
-0.00266356
-0.00048501
-0.00614263
-0.00167982
0.0723138
-0.0208893
0.0208893
-0.0378623
0.0392509
-0.00228664
-0.00824889
0.0386095
-0.0380427
-0.175479
0.104615
-0.00537064
-0.0138598
0.0360126
-0.0187262
0.067136
-0.0479831
-0.62444
0.57756
0.035785
-0.00136354
0.314979