/*--------------------------------*- C++ -*----------------------------------*\
| =========                 |                                                 |
| \\      /  F ield         | OpenFOAM: The Open Source CFD Toolbox           |
|  \\    /   O peration     | Version:  2306                                  |
|   \\  /    A nd           | Website:  www.openfoam.com                      |
|    \\/     M anipulation  |                                                 |
\*---------------------------------------------------------------------------*/
FoamFile
{
    version     2.0;
    format      ascii;
    arch        "LSB;label=32;scalar=64";
    class       volVectorField;
    location    "25";
    object      U;
}
// * * * * * * * * * * * * * * * * * * * * * * * * * * * * * * * * * * * * * //

dimensions      [0 1 -1 0 0 0 0];

internalField   nonuniform List<vector> 
2186
(
(1.28514 -0.0656647 2.72143e-19)
(1.56191 -0.906401 1.89316e-20)
(1.41182 -0.884223 1.04508e-20)
(0.708499 -0.546938 -1.735e-19)
(-0.388185 0.338007 -1.66991e-19)
(1.67831 -0.537785 0)
(0.694416 -0.641027 0)
(-0.0102038 -0.0107846 5.76573e-20)
(1.38663 -0.178169 5.80262e-20)
(0.52613 -0.263122 -2.06865e-21)
(0.714494 0.646672 0)
(0.810698 -0.264854 -6.42405e-20)
(-0.0126886 -0.0320906 -2.36978e-20)
(1.2015 0.0269789 -4.25628e-19)
(1.74299 -0.66233 7.29306e-21)
(1.01622 0.000704528 1.98645e-19)
(0.979752 0.0127612 0)
(-0.453087 -0.00252977 0)
(1.65394 -0.440429 0)
(-0.0747041 0.323477 -6.68452e-20)
(0.493593 0.15927 -1.24481e-19)
(-0.167718 0.224903 9.03499e-20)
(1.19045 0.0303978 3.50525e-19)
(-0.187423 -0.0455189 4.71617e-21)
(1.0284 0.0137056 -2.75988e-19)
(0.759029 -0.524053 0)
(0.759132 0.008052 1.63194e-19)
(0.585859 -0.565549 -2.07357e-19)
(1.25905 0.748264 0)
(0.96041 0.0252602 -3.76395e-19)
(-0.0296332 0.113535 0)
(1.02194 -0.00539507 1.30472e-20)
(-0.0278564 0.292384 0)
(2.54793 -0.116089 1.77598e-19)
(-0.17242 -0.110293 6.81342e-22)
(1.5988 0.810583 8.84712e-20)
(2.09725 0.0671851 1.17742e-19)
(0.524472 0.20657 -3.70325e-19)
(2.04943 0.223519 -3.16308e-19)
(1.36485 -0.422428 -1.80335e-20)
(-0.0400408 -0.0738844 0)
(-0.119714 0.205599 0)
(1.8155 -0.844842 4.19781e-20)
(-0.43117 0.251643 0)
(1.14122 0.303559 1.70398e-19)
(0.57431 -0.246117 3.18383e-19)
(0.886117 -0.754816 0)
(1.14637 -0.759787 1.52842e-19)
(2.34699 -0.170736 0)
(-0.299177 0.317293 1.77306e-19)
(-0.0204763 0.182426 9.88291e-20)
(0.662941 0.612099 8.73149e-20)
(2.00185 -0.728233 2.46835e-20)
(0.617493 0.327598 -2.97395e-19)
(-0.257771 0.104188 3.52464e-20)
(0.732574 -0.620622 0)
(1.60748 -0.9279 1.7229e-20)
(0.556255 -0.517057 0)
(2.37892 0.203134 9.68347e-20)
(1.11027 -0.154124 -4.39917e-19)
(1.85613 -0.0511317 1.31008e-19)
(1.40035 0.324272 -2.00543e-19)
(1.3913 0.565173 0)
(1.18598 -0.366215 1.97501e-20)
(1.40701 0.407701 -1.22945e-19)
(1.21114 -0.703054 -2.22572e-19)
(1.21656 0.69547 5.81735e-20)
(0.683945 0.115287 -6.12476e-19)
(0.824186 0.0919811 0)
(1.91181 -0.186456 -1.86829e-20)
(-0.0361451 -0.0301468 -6.52007e-20)
(2.25702 -0.111476 -1.18552e-19)
(0.722251 0.00536162 -2.71665e-19)
(0.844819 -0.486678 0)
(0.842028 0.216651 -9.9763e-20)
(0.520452 -0.478852 -3.45642e-19)
(2.19489 -0.106311 0)
(1.00676 0.010749 4.10163e-19)
(-0.171531 -0.12181 0)
(2.10668 0.393243 0)
(0.49651 -0.0817041 8.49482e-20)
(1.17943 -0.351334 2.71883e-20)
(1.02347 0.00909239 4.58578e-20)
(1.36864 0.438654 3.08282e-20)
(0.965283 0.0264151 4.81565e-19)
(1.03482 0.0326948 -1.13985e-20)
(0.682004 0.225091 -3.62411e-19)
(1.56688 -0.442388 3.73571e-21)
(1.40061 -0.208895 0)
(-0.0682601 -0.0519273 4.70599e-20)
(0.829314 -0.591512 -1.99213e-19)
(-0.12833 0.430107 -1.94955e-21)
(1.09673 -0.0633282 2.89556e-19)
(0.80117 -0.148906 0)
(0.970771 0.0239127 4.58223e-20)
(1.41873 0.675464 0)
(1.56976 -0.918682 0)
(1.34763 0.236765 0)
(-0.373561 0.336758 0)
(0.758671 -0.632664 3.48076e-19)
(-0.350909 0.268636 -2.62669e-19)
(0.266834 0.14818 1.43692e-19)
(1.61741 0.198491 0)
(1.13314 -0.0917512 -2.64707e-19)
(1.12284 0.0243495 2.02958e-19)
(0.00529975 0.38816 1.30513e-19)
(0.675872 0.550541 0)
(2.09231 -0.187731 -3.33428e-20)
(0.936598 -0.448726 9.74781e-20)
(-1.06835 -0.4789 1.69805e-19)
(1.84118 0.323005 1.19915e-19)
(-0.276112 0.380475 -2.65995e-19)
(0.785726 -0.713582 0)
(0.599554 0.401556 1.78595e-19)
(1.56511 -0.179077 -1.7497e-19)
(-0.039368 -0.0178528 -2.689e-19)
(1.25048 0.653179 1.25473e-20)
(1.81452 -0.128156 0)
(-0.0903323 -0.0652198 -1.40717e-19)
(0.701561 -0.0298134 8.63789e-20)
(1.62249 0.919392 0)
(-0.222018 0.190693 -2.4747e-19)
(0.92866 0.800404 -2.94071e-19)
(-0.435524 -0.0291092 2.61323e-19)
(1.03224 -0.0210231 0)
(1.5297 0.721982 -1.58147e-20)
(-0.365242 0.378807 0)
(0.66816 -0.458706 -1.24361e-19)
(-0.422593 -0.0237126 -1.47561e-19)
(0.759098 -0.691971 0)
(0.405313 -0.216784 4.6129e-19)
(0.50997 -0.417712 3.19853e-19)
(0.396132 -0.358272 0)
(0.948372 -0.752324 -1.70092e-19)
(0.00993514 0.0667144 0)
(-0.188264 0.270394 -1.38936e-19)
(0.778967 -0.666484 1.69906e-19)
(2.23867 -0.238503 7.94633e-20)
(2.26698 0.161191 0)
(-0.0408402 -0.0180229 0)
(0.719629 0.668944 -3.67193e-19)
(1.72128 -0.599912 -3.33912e-20)
(0.0177466 0.0178939 0)
(0.949118 -0.775818 -1.80249e-20)
(1.12687 -0.0908107 0)
(1.06867 -0.108826 4.58343e-19)
(2.0007 -0.164883 -2.0144e-20)
(-0.385135 0.31941 0)
(1.18591 -0.53115 -7.23562e-20)
(-0.173414 0.370071 -4.39875e-20)
(-0.302008 0.45681 0)
(1.05909 -0.783548 1.1497e-20)
(1.00665 0.00502654 -6.85089e-19)
(0.620709 -0.441978 -1.213e-20)
(0.78761 -0.482322 0)
(1.16206 -0.702076 -1.2734e-19)
(0.679374 0.284662 2.78914e-19)
(1.26606 0.135352 0)
(1.55206 0.0732411 -2.80816e-19)
(1.16021 -0.824937 -3.06419e-19)
(-0.0476412 -0.0238297 -5.08392e-20)
(-0.0889983 -0.266463 -7.07715e-20)
(1.08171 0.014745 2.55584e-19)
(0.889319 -0.434057 -1.22592e-19)
(1.59971 -0.478829 -3.45829e-21)
(1.18228 -0.235859 -5.56459e-20)
(0.72007 -0.117875 5.83087e-20)
(-0.143081 -0.0471812 -1.29813e-19)
(1.77282 -0.15885 0)
(2.30558 -0.281987 6.44523e-20)
(1.4972 0.679708 1.53121e-19)
(0.777862 -0.582373 -2.53851e-19)
(0.99542 0.00946343 1.40362e-20)
(0.689573 -0.497012 3.41957e-19)
(1.35555 0.835933 1.38455e-19)
(1.91089 0.0342549 1.48444e-20)
(-0.375055 0.257188 0)
(1.09436 0.0637816 -2.64627e-19)
(-0.328762 -0.163395 -1.19876e-19)
(1.11107 0.518476 8.63052e-20)
(0.113317 -0.117458 7.84439e-20)
(1.16036 0.0299009 -4.87727e-20)
(-0.176879 0.269553 -1.61857e-19)
(1.34518 0.612355 -8.48148e-20)
(1.18543 0.925347 0)
(-0.36678 0.212671 -7.9025e-20)
(0.0157705 0.0787601 0)
(0.690931 0.59899 -2.94628e-19)
(2.13497 0.154254 -2.03717e-20)
(-0.0287283 -0.0637123 8.27368e-20)
(-0.352162 -0.00634547 -4.21251e-19)
(0.731149 0.119605 2.69125e-19)
(2.09193 -0.0753773 -3.7756e-20)
(0.955532 -0.321218 -3.54341e-20)
(-0.0171836 -0.00823823 0)
(-1.16933 -0.728805 3.49894e-19)
(1.38333 1.01309 -2.39486e-20)
(0.848584 0.111388 -1.47968e-19)
(0.586144 0.551012 2.05433e-19)
(0.45897 0.200138 0)
(-0.115289 -0.17095 -9.43119e-20)
(-1.20732 -0.77935 2.95903e-19)
(1.25369 -0.924973 8.96365e-22)
(0.983866 -0.0131477 -2.14185e-19)
(-0.146341 -0.143556 5.71609e-21)
(-0.232018 0.264196 1.43229e-19)
(-0.256295 -0.164018 -9.50146e-20)
(1.84923 -0.160733 0)
(1.14743 0.0509752 -3.55346e-19)
(2.33799 -0.00360931 1.85173e-19)
(1.23611 -0.594331 1.41813e-19)
(0.965476 -0.115567 -6.91685e-21)
(0.622072 0.381743 0)
(0.985491 0.786808 -1.74325e-20)
(0.717833 0.661785 1.963e-19)
(0.866985 -0.533094 1.79396e-19)
(0.722388 0.543095 0)
(1.02031 0.007636 9.18221e-21)
(0.850407 -0.633178 2.5639e-19)
(0.870595 0.459585 -4.88602e-19)
(1.18853 -0.0986924 0)
(0.00622609 0.0218536 -1.96659e-19)
(0.0191871 0.370672 -1.01044e-19)
(1.64611 0.752738 0)
(1.30496 -0.906158 -7.67005e-22)
(-0.423337 0.0306036 0)
(-0.387352 0.413633 1.06967e-19)
(0.77401 0.689393 -1.04168e-19)
(0.835598 -0.186014 0)
(-0.18341 -0.0299299 0)
(1.55916 -0.43858 0)
(-0.182844 -0.127989 4.06189e-19)
(1.1713 -0.853024 2.00243e-19)
(1.14114 -0.577948 8.03713e-20)
(1.02859 -0.158755 -2.03187e-19)
(0.84479 -0.662857 -2.04107e-19)
(0.177134 -0.180319 0)
(-0.456006 0.00967488 0)
(0.971196 -0.484887 2.15788e-19)
(-0.0199149 -0.00419151 0)
(-0.349227 0.272806 0)
(-0.0647182 -0.00771889 2.3241e-19)
(0.830989 0.707066 9.04047e-20)
(1.05535 0.830631 0)
(0.734347 0.594079 -9.00215e-20)
(0.827596 -0.00787512 -2.46964e-19)
(0.782871 0.600785 -2.41409e-19)
(0.623404 0.581856 -1.76785e-19)
(-0.067502 -0.0466009 2.6657e-22)
(0.691449 -0.61936 0)
(0.916111 0.206264 -3.50655e-19)
(-0.0641223 -0.0752904 2.89316e-20)
(0.634623 0.589424 3.99145e-19)
(0.999371 0.83479 0)
(-0.455039 -0.0503651 3.06129e-19)
(-0.169922 -0.0940522 1.49697e-19)
(-0.158515 0.0372294 -7.29371e-20)
(0.701789 0.609597 -1.56067e-20)
(0.968885 -0.0067493 6.61979e-20)
(-0.0510207 -0.0987307 0)
(2.19008 -0.187765 -1.02793e-19)
(1.73619 -0.272757 -1.90231e-19)
(0.624383 -0.576546 -9.07561e-20)
(-0.368508 0.0105792 9.09052e-21)
(1.23497 0.485522 1.96163e-19)
(0.917356 0.448185 0)
(1.02335 -0.15659 2.27141e-19)
(-0.132546 -0.0965927 -1.78475e-21)
(-0.116359 0.212047 3.75031e-19)
(0.910817 0.0208759 -5.98724e-20)
(1.15854 0.163426 0)
(1.84021 -0.0654039 -5.11044e-20)
(1.9567 0.053483 0)
(0.56731 0.310144 -4.8765e-19)
(-0.25862 0.310547 0)
(-0.03232 -0.0200193 1.27375e-19)
(0.672142 0.0972493 0)
(0.588856 -0.476615 -2.09117e-19)
(1.13343 0.0211628 2.37037e-19)
(-0.403131 0.272742 3.65715e-20)
(2.04377 -0.0674821 1.2047e-21)
(1.96903 -0.227309 -3.82185e-20)
(1.14412 0.249724 -2.39126e-19)
(-0.0665018 -0.0977816 -5.67685e-20)
(1.03837 -0.82014 0)
(0.807048 0.0165697 -1.72364e-19)
(0.902397 -0.347479 -3.34615e-19)
(1.67307 -0.555134 5.37942e-21)
(1.65647 0.0212493 1.03865e-21)
(1.09577 -0.000863918 4.2565e-19)
(-0.109234 -0.0906549 -6.40147e-20)
(0.968925 -0.41108 -1.5112e-19)
(0.185638 -0.178219 2.94014e-19)
(1.00834 -0.00570147 0)
(1.00489 -0.0041324 0)
(0.124699 0.014418 3.6898e-20)
(-0.147572 0.333513 -9.92663e-20)
(0.189434 -0.113062 -7.37365e-20)
(1.86167 0.00482938 4.83998e-21)
(0.924253 -0.0521716 0)
(1.91428 -0.0426439 -1.22515e-19)
(0.90884 -0.789546 -1.21542e-19)
(1.73474 -0.539609 -1.86386e-20)
(1.14974 0.873531 0)
(0.446537 -0.426063 0)
(0.642533 0.559341 -1.86553e-19)
(1.12966 0.301594 -4.38292e-19)
(2.16051 -0.257373 7.61036e-23)
(0.877859 0.189292 1.50844e-19)
(-0.0907838 -0.183195 -1.71762e-19)
(1.48216 -0.338827 1.808e-20)
(-0.101442 -0.240517 0)
(-0.080303 -0.0416104 0)
(-0.0796697 -0.109552 0)
(1.298 -0.696775 -1.42608e-19)
(-0.295954 0.476362 -2.18342e-19)
(-0.178419 0.300794 0)
(1.34073 1.01498 -3.74038e-20)
(1.14055 0.166172 -4.60386e-19)
(2.59964 0.433005 -1.07041e-19)
(1.12528 0.961616 9.04235e-20)
(-0.238828 0.43299 1.3713e-19)
(1.19151 -0.0912236 0)
(-0.0884544 -0.0943423 -1.82509e-19)
(-0.321638 0.438384 2.56377e-19)
(0.781908 0.0683185 2.00959e-19)
(1.59267 0.984298 -7.58035e-21)
(1.94364 0.947528 -3.77684e-20)
(-0.154932 0.424874 -1.1215e-21)
(0.715816 -0.652595 -4.62924e-20)
(1.168 -0.0361843 0)
(1.73918 -0.0123739 0)
(0.97637 0.045755 0)
(-0.819412 -0.34238 -3.75312e-19)
(-0.098409 -0.154649 5.88873e-20)
(1.09058 0.881241 0)
(0.993571 0.0120763 5.74564e-19)
(0.805909 0.643478 -2.41377e-19)
(-1.17367 -0.639568 -1.97266e-19)
(0.867238 0.0480301 -4.54101e-20)
(0.686389 -0.624219 -2.65393e-19)
(1.43685 0.740084 -3.52918e-20)
(0.530686 -0.407604 -3.30204e-19)
(1.13436 0.00364285 -5.13527e-19)
(0.793369 0.046396 5.16267e-20)
(1.47761 -0.177624 1.09736e-19)
(1.59428 -0.0562456 -6.15135e-20)
(-0.00324665 0.00463928 2.27794e-22)
(1.11553 0.499756 -2.8828e-19)
(1.38591 0.648869 7.64953e-20)
(-0.21371 -0.0217642 0)
(-0.0700732 -0.238988 6.49127e-20)
(-0.00200957 0.0481931 8.38699e-20)
(-0.174903 -0.114504 -6.56527e-20)
(0.513803 0.377685 0)
(1.38949 -0.106041 0)
(-0.0303344 0.0388512 -1.36242e-19)
(-0.095275 -0.0974681 -2.95358e-20)
(1.05233 -0.0271355 2.03595e-19)
(-0.349264 0.303346 -3.928e-20)
(1.32436 0.00266188 -3.31331e-19)
(-0.0387508 0.35538 0)
(0.801449 -0.709409 -3.7805e-19)
(1.42728 -0.0746377 8.80909e-20)
(-0.193462 -0.227311 7.6192e-20)
(0.735431 0.203784 3.5324e-19)
(0.636413 0.193656 1.13707e-19)
(0.475586 -0.447626 2.33324e-19)
(0.0172511 0.0114295 -6.99082e-20)
(1.79399 0.881877 0)
(0.430083 0.402907 -2.0388e-19)
(1.03014 -0.011684 -3.24205e-19)
(-0.386144 -0.0135048 1.66894e-19)
(1.47306 0.503564 -1.31026e-19)
(-0.0279516 -0.0100354 -2.561e-20)
(0.659488 -0.601557 -1.07171e-19)
(0.837913 0.221368 -2.22149e-19)
(1.00894 0.456101 2.45848e-20)
(1.13027 -0.122154 4.10227e-20)
(0.588433 -0.182695 -3.34235e-19)
(1.93404 -0.325615 -1.06018e-20)
(1.73839 -0.0321224 0)
(2.11656 0.35534 -5.6346e-20)
(2.19165 -0.105215 8.18394e-21)
(0.434173 -0.117007 3.33828e-20)
(0.999262 0.374821 -1.83892e-19)
(1.41485 -0.391922 -4.65827e-20)
(0.452649 0.429777 -2.64774e-19)
(-0.344673 -0.031397 1.97679e-19)
(1.67429 -0.181502 0)
(0.943686 0.00729866 0)
(0.839872 -0.742213 7.76307e-20)
(-0.167536 -0.0920142 -1.64179e-19)
(-0.44002 0.0638582 -1.7014e-19)
(-0.00469812 0.00408288 -1.08597e-19)
(-0.332162 0.16346 -1.35915e-19)
(-0.148558 -0.239851 0)
(-0.073723 -0.0448925 1.92009e-20)
(0.214432 0.396457 -9.9612e-20)
(-0.252896 0.278336 -3.2594e-19)
(0.789927 -0.0749807 0)
(1.65719 -0.256786 8.13861e-20)
(0.00106761 0.0167511 0)
(0.992675 0.0244994 4.13397e-19)
(-0.0816534 -0.255207 1.34951e-20)
(0.507341 -0.379088 4.42736e-19)
(-0.363297 -0.127089 1.98499e-19)
(-0.914624 -0.229101 0)
(0.13076 0.26351 1.15307e-19)
(0.999667 0.0268763 -1.24675e-20)
(-0.112174 -0.0672537 0)
(1.00477 -0.00795324 -6.40452e-20)
(0.827352 -0.695708 -3.52299e-19)
(1.18532 -0.370246 0)
(0.914997 -0.242143 2.39061e-19)
(-0.0474165 0.162352 2.06355e-19)
(-0.0278381 -0.0197931 0)
(-0.102715 -0.196199 -2.62117e-21)
(0.694654 -0.601724 -4.97409e-19)
(0.936516 -0.0230872 -3.06167e-19)
(-0.171867 -0.0790925 1.90916e-19)
(-0.0588017 -0.0353004 7.72437e-20)
(-0.111779 -0.239174 0)
(0.991278 0.506494 0)
(-0.155542 -0.262049 8.02079e-20)
(1.46926 -0.312408 -9.67072e-20)
(1.11921 0.935473 2.00533e-20)
(1.09236 0.231453 -1.35967e-19)
(1.12023 0.00862122 -2.60739e-19)
(1.01525 -0.0620543 -9.71453e-20)
(-0.1502 -0.105266 -1.77225e-19)
(1.91439 0.0869663 3.84675e-19)
(0.70384 0.0390332 2.2964e-19)
(1.96513 -0.151402 7.94664e-20)
(1.02243 -0.134741 0)
(0.109056 -0.0182467 3.11934e-19)
(1.14202 0.0277233 -5.60064e-19)
(1.80737 0.644524 1.35019e-20)
(0.71099 -0.417936 -1.837e-19)
(-0.0826705 -0.0596856 1.05269e-19)
(0.765888 -0.669849 4.59443e-19)
(1.27783 0.211278 8.1841e-20)
(1.00757 -0.00768826 2.83536e-19)
(-0.104677 -0.173571 -7.18039e-20)
(1.0322 0.0269967 0)
(2.10102 0.0923757 -2.32689e-19)
(-0.0451985 -0.027638 0)
(1.01465 0.0160925 -1.68485e-19)
(-0.928745 -0.290904 -4.70303e-19)
(1.76466 0.313081 3.89779e-20)
(-0.0541052 0.0419225 1.10906e-19)
(1.65585 0.035408 -3.13751e-21)
(1.01573 -0.0159089 5.87113e-20)
(1.27618 -0.0813207 0)
(1.40018 -0.58718 -2.19032e-19)
(1.02912 0.0469983 -1.72889e-19)
(1.49576 0.822978 -6.45104e-20)
(1.31283 -0.05658 0)
(0.572092 0.25579 -1.60073e-20)
(-0.0353358 0.0451008 0)
(1.27827 0.0422563 0)
(-0.0824494 -0.14288 0)
(1.27988 0.473146 0)
(1.98947 0.284426 5.1305e-20)
(0.779739 0.653359 4.2319e-19)
(0.276771 -0.277686 -2.76278e-19)
(-0.0944461 -0.0779859 -1.81909e-19)
(-0.0263731 -0.0109141 0)
(2.2989 -0.188157 8.7153e-20)
(1.40643 0.545583 0)
(1.5131 0.302822 0)
(-0.116932 -0.103346 7.9461e-20)
(0.846366 0.748632 1.36889e-19)
(1.60384 -0.027983 0)
(0.000634293 -0.0135603 4.57534e-20)
(0.929931 0.253365 2.05647e-19)
(1.90509 -0.0929062 -5.53566e-20)
(1.29153 0.966103 4.90787e-20)
(0.885503 -0.796234 -5.75036e-20)
(1.6468 -0.0445825 -3.09229e-20)
(0.832524 0.752619 1.40749e-19)
(1.2271 0.964806 0)
(2.11599 -0.0703355 1.31613e-19)
(0.727271 -0.431491 0)
(1.51452 -0.359845 4.51944e-20)
(1.07446 0.131317 1.95726e-19)
(1.00569 -0.00285526 0)
(-0.536989 -0.532592 3.97208e-19)
(0.873226 -0.139744 5.42824e-20)
(0.599797 -0.366229 0)
(0.641449 -0.338733 2.3866e-19)
(1.2842 0.585513 -3.62491e-20)
(0.504751 0.47817 2.91934e-19)
(-0.283655 0.327813 3.82153e-20)
(0.245732 0.0038226 1.02563e-19)
(0.734149 0.0636508 0)
(1.28152 -0.868343 -1.47687e-19)
(1.0369 -0.0423034 4.51686e-19)
(1.57683 0.357985 1.45625e-19)
(-0.00707676 -0.0311431 3.90417e-20)
(-0.428818 -0.138046 0)
(1.19853 -0.225769 -1.38003e-19)
(-0.0242389 -0.0159599 -8.83419e-20)
(-0.396533 -0.661023 -3.14489e-20)
(-0.144374 0.0601881 -8.08073e-22)
(-0.219388 0.107911 3.06269e-19)
(1.28437 -0.360493 -1.67779e-20)
(2.243 -0.16695 1.37667e-19)
(1.23641 0.485409 -3.16352e-19)
(0.900469 -0.0683615 0)
(1.872 -0.0640323 2.1476e-19)
(1.77362 0.0672856 2.95412e-20)
(0.876803 -0.734483 1.76384e-19)
(1.11461 -0.937271 -8.2729e-20)
(0.508257 0.473315 1.96388e-19)
(0.943286 -0.330189 0)
(1.8342 0.601124 2.69867e-20)
(-0.0296523 -0.0178711 -1.80076e-19)
(0.924442 0.807976 0)
(1.46319 0.829582 0)
(0.276624 -0.275519 -3.50496e-21)
(0.361457 0.360431 0)
(-0.496945 -0.161573 -2.07734e-19)
(-0.351168 0.408868 -1.14585e-19)
(1.68668 -0.408979 0)
(1.30384 0.0844667 2.07028e-19)
(-0.365543 -0.0228715 1.42847e-19)
(0.508215 -0.481016 -5.42223e-19)
(1.89247 -0.0775057 -2.05481e-20)
(0.583947 -0.527811 0)
(1.06841 0.139863 0)
(1.33581 -0.224349 0)
(1.14571 0.248243 -2.56831e-19)
(1.3886 0.112073 3.65946e-19)
(-0.800973 -0.154872 0)
(0.864039 -0.054424 0)
(1.9659 -0.0791774 1.04163e-21)
(-0.157873 0.305608 1.03613e-19)
(2.31011 -0.0648062 -2.42477e-19)
(1.0342 -0.48455 8.87371e-20)
(1.89502 0.0388515 -2.66169e-19)
(-0.451871 0.00607713 -1.13552e-19)
(1.99027 0.0491975 -1.82505e-19)
(1.01422 -0.0127217 4.67539e-19)
(1.57908 0.629614 0)
(-0.364734 0.407133 3.08628e-20)
(0.966432 -0.797197 2.28613e-19)
(0.854656 0.0163816 5.30772e-20)
(0.602661 -0.390195 0)
(1.83348 -0.507635 -5.7443e-21)
(1.17557 -0.178471 1.84974e-19)
(1.64368 -0.256853 0)
(0.581771 -0.539352 5.52279e-19)
(1.2873 0.159377 -1.72138e-20)
(2.45193 -0.122674 3.90776e-19)
(-0.203842 0.385354 -2.14008e-19)
(1.3834 0.649181 1.62768e-19)
(1.18778 0.43308 3.97235e-21)
(0.935383 0.408679 2.41534e-19)
(1.58597 -0.253661 -1.36818e-19)
(-0.147943 -0.113487 3.80396e-22)
(0.380747 -0.116805 0)
(-0.137913 -0.0987057 1.73569e-19)
(1.05029 -0.912041 0)
(1.02624 -0.623348 2.70104e-20)
(0.810369 -0.296229 -2.56414e-19)
(1.46806 0.28211 -4.91952e-20)
(-0.214496 -0.175544 -1.93834e-19)
(1.02607 0.516857 1.87541e-19)
(-0.76136 -0.450742 4.14523e-19)
(0.704418 -0.0401327 0)
(1.8162 -0.0111786 0)
(2.03911 0.0178132 9.05242e-21)
(0.770804 -0.0123086 0)
(1.32519 -0.200243 -1.90335e-19)
(-0.504138 0.00766446 3.03374e-19)
(1.98668 0.517092 7.59076e-21)
(1.05408 -0.0315196 0)
(0.521536 -0.300472 1.19157e-19)
(1.00819 0.0265994 2.21645e-19)
(0.417842 -0.191947 -3.80363e-19)
(-0.269592 0.0335964 0)
(1.07556 -0.453867 5.9764e-19)
(1.73667 -0.0394734 -3.93957e-22)
(1.06726 -0.469871 -2.59786e-19)
(2.38008 0.217598 1.72116e-19)
(1.33785 0.827888 0)
(0.884499 0.0237312 0)
(-0.0390732 -0.0700894 -1.02433e-19)
(-0.0336544 0.0429381 1.53333e-19)
(0.981742 0.398096 -2.23957e-19)
(-0.0223786 -0.16843 -5.07164e-20)
(0.680813 0.456017 2.56134e-19)
(0.787015 0.304137 0)
(0.513469 -0.477098 0)
(0.130972 0.0472505 2.75702e-21)
(1.19313 -0.483102 -1.25863e-19)
(0.686286 0.0235412 6.06872e-21)
(0.723337 -0.10898 1.31214e-19)
(-0.120667 0.213589 -2.7428e-19)
(1.20698 0.0204924 2.20401e-19)
(0.696315 0.650112 0)
(1.32106 0.729096 0)
(1.67396 0.270549 0)
(-0.138023 -0.210755 -8.00946e-20)
(1.32361 0.597697 2.08213e-19)
(1.97759 -0.00864835 2.0043e-20)
(0.9606 -0.0186284 0)
(2.32078 -0.347847 0)
(2.09538 -0.0671006 -2.95039e-19)
(0.674197 -0.084355 4.53639e-19)
(1.0051 0.00631434 -2.21365e-19)
(1.54218 0.502978 0)
(-0.317276 0.128375 0)
(1.28785 0.340636 3.15177e-19)
(1.06217 0.560354 -1.39854e-19)
(1.07915 0.0322152 0)
(1.29055 -0.29432 0)
(2.08568 0.700778 -3.00633e-19)
(-0.155112 0.480554 -3.95778e-21)
(0.994405 0.0154262 0)
(0.74464 0.517906 -3.53794e-20)
(0.898808 -0.791514 0)
(1.00213 0.0178765 5.15707e-20)
(-0.570686 -0.0403963 -6.55171e-21)
(0.879219 -0.291889 3.53775e-19)
(0.288405 -0.343073 -3.24522e-20)
(2.04668 -0.144967 8.14547e-20)
(1.94428 0.138723 1.18688e-19)
(0.776587 -0.023332 0)
(1.00172 0.0128425 0)
(-0.291107 -0.170396 0)
(0.699793 0.670594 -2.0094e-19)
(-0.094966 0.153296 1.84826e-19)
(1.20317 0.374087 -5.05268e-19)
(-0.406603 0.161306 0)
(0.86927 0.682033 1.78427e-19)
(0.981564 -0.304807 0)
(1.00547 0.00113343 1.29448e-19)
(0.088634 -0.523887 4.67352e-20)
(1.07075 0.433645 2.77344e-19)
(1.4814 0.126708 0)
(2.22501 0.107042 -7.48496e-20)
(0.818101 -0.0753892 -4.04946e-19)
(-0.571253 -0.171289 -2.83595e-19)
(0.934484 -0.17476 0)
(0.902149 0.276092 1.88943e-19)
(1.81424 -0.234766 0)
(0.813288 0.562562 3.84612e-19)
(-0.573274 0.00274058 1.24724e-19)
(-0.127242 0.222937 0)
(0.623964 0.594507 -7.49544e-20)
(0.99115 -0.6103 -1.88242e-19)
(0.448363 -0.185701 -1.34866e-19)
(1.01969 -0.00601658 0)
(-0.295487 -0.0815892 -1.55869e-19)
(0.606749 -0.535693 9.38912e-20)
(0.932173 0.322836 0)
(1.64598 -0.204508 9.68431e-20)
(1.02669 0.875984 2.60449e-20)
(0.697062 -0.155235 -4.04738e-21)
(0.0468719 0.0555401 -1.10929e-19)
(0.202807 0.0707176 -5.9691e-19)
(-0.0516647 -0.0205702 4.69766e-21)
(0.850486 0.396886 2.63649e-19)
(-0.321265 0.45703 -5.31035e-21)
(1.3671 -0.622173 3.17434e-21)
(1.02064 0.019988 -3.86271e-19)
(-0.190153 -0.211362 0)
(1.03898 0.0459673 -4.51411e-19)
(1.99581 -0.238303 1.13764e-19)
(0.928463 0.727834 3.00196e-19)
(1.11946 -0.0581721 1.83067e-19)
(0.999929 -0.0141698 1.78723e-19)
(1.58523 0.335689 4.47102e-20)
(0.00412649 -0.00611626 -5.75883e-23)
(1.67503 -0.837234 1.43176e-20)
(1.10213 -0.121051 -9.71593e-20)
(0.752462 0.0442376 1.12419e-19)
(0.88728 -0.262799 1.02034e-19)
(1.6883 0.251914 0)
(1.00432 0.772348 0)
(0.637791 -0.445526 -5.57046e-20)
(2.11313 0.209575 -2.25618e-20)
(-0.428057 -0.0833538 1.06931e-19)
(0.997093 -0.509356 -6.20176e-19)
(0.584605 -0.497708 4.45729e-19)
(1.42918 0.156166 -1.38843e-19)
(-0.0848771 -0.132415 6.3236e-21)
(1.48038 -0.366255 0)
(0.76266 0.159601 -7.31631e-21)
(1.56234 -0.23104 -8.45918e-20)
(1.08341 0.798579 0)
(0.791223 -0.306301 0)
(-0.000586096 0.0605898 0)
(-0.0118326 0.00306628 -3.06409e-20)
(-0.12354 0.179713 0)
(1.55626 0.0896476 5.11287e-19)
(1.25669 0.194567 7.05399e-21)
(-1.06011 -0.479804 1.89949e-19)
(2.1052 0.908381 2.61218e-20)
(1.9144 0.477369 -6.39534e-20)
(2.04877 -0.308526 -1.04643e-20)
(-0.187514 0.0243983 -2.1516e-19)
(-0.113555 -0.224982 1.95275e-21)
(1.67576 0.176262 0)
(0.68458 -0.0346138 0)
(1.00117 0.00177583 2.05005e-22)
(-0.150748 -0.213096 0)
(1.44867 -0.00662465 1.2229e-20)
(0.684108 -0.0309184 0)
(1.04087 0.0145149 1.47126e-19)
(0.989538 0.016874 -5.03985e-20)
(1.29586 -0.0168503 1.2544e-19)
(1.07337 -0.0128803 -1.03267e-21)
(0.929465 -0.165203 -6.13266e-20)
(1.01819 -0.0200732 4.16424e-19)
(0.639393 -0.575371 2.13912e-19)
(-0.911255 -0.492298 -2.41316e-19)
(1.36744 0.655044 7.90018e-21)
(-0.0414167 0.0642768 0)
(1.17165 0.831716 0)
(1.02175 0.00754833 0)
(0.966833 -0.742028 -1.34433e-19)
(0.999123 -0.856487 8.90604e-20)
(1.06028 0.448704 4.11565e-21)
(-0.368101 -0.239319 -6.16954e-19)
(0.706946 -0.0900241 1.30276e-20)
(0.552546 -0.334 -7.08629e-19)
(1.75555 0.527572 -7.32068e-20)
(0.193762 -0.00730001 -7.74774e-20)
(1.9722 -0.281033 1.59516e-20)
(0.877869 0.139463 -2.46813e-21)
(-0.000669417 -0.0102838 -6.64725e-20)
(1.15394 0.584852 2.13017e-19)
(-0.237871 -0.151671 0)
(0.00979731 -0.260286 1.27736e-19)
(-0.103782 -0.0658497 -9.96054e-23)
(1.02913 -0.0426472 3.70258e-19)
(1.0208 0.0110268 -9.5796e-21)
(1.1126 -0.00796384 -1.02387e-19)
(1.4451 0.259055 8.79971e-21)
(1.69264 0.333327 6.59469e-20)
(0.371871 -0.345257 -3.55691e-19)
(0.705108 0.380201 -8.18797e-21)
(1.02859 0.0125269 -2.74504e-19)
(1.47481 0.530707 -8.13574e-21)
(1.32418 0.384373 0)
(1.15247 0.623403 -3.99345e-19)
(1.00285 -0.00219005 1.05652e-19)
(0.713524 0.642403 2.73518e-19)
(1.2153 -0.357481 -2.87827e-21)
(1.07965 -0.0032845 -3.35854e-20)
(1.13724 0.019094 9.5391e-22)
(2.30506 -0.0295069 1.48044e-20)
(0.813889 0.238672 0)
(1.04406 -0.0391807 0)
(1.04777 -0.034017 6.48368e-19)
(1.00273 -0.00203873 0)
(-0.0520412 -0.0272105 0)
(0.925354 -0.551758 0)
(1.00085 0.000324063 -6.14547e-19)
(1.11712 -0.652392 1.12497e-19)
(1.0213 0.000598361 1.29562e-20)
(1.39779 0.995646 -2.99683e-20)
(1.58797 1.0454 1.08728e-20)
(0.685243 -0.169773 -2.31303e-20)
(1.38724 -0.254024 1.7269e-19)
(2.01823 0.191323 0)
(-0.0111079 0.411854 0)
(1.83355 -0.189638 1.96883e-19)
(0.963588 -0.273545 0)
(0.999695 -0.00450795 -1.89779e-19)
(1.01094 -0.000798659 3.6898e-19)
(1.49476 0.145187 -7.6748e-20)
(0.015444 -0.116679 1.37897e-19)
(0.979821 0.00123193 2.00632e-19)
(0.163971 0.060592 -1.2447e-20)
(0.6996 -0.122748 3.57325e-20)
(1.53534 0.300788 -7.68818e-23)
(0.924181 0.0188963 -2.03582e-19)
(1.00365 0.00450319 2.38924e-19)
(1.00005 -0.000179312 1.41031e-20)
(0.79084 -0.012787 0)
(0.730986 -0.0263648 0)
(0.727124 -0.0267559 8.12456e-22)
(0.704276 -0.0290748 0)
(1.47353 -0.105889 0)
(1.10527 -0.176015 0)
(0.585441 -0.147051 -5.6333e-20)
(0.40474 -0.104373 3.21579e-20)
(1.47254 -0.431645 0)
(1.30527 -0.154693 3.74555e-20)
(1.59721 0.18084 0)
(0.0227316 0.18269 0)
(0.145961 0.0508131 0)
(0.456095 0.138981 -5.08141e-21)
(1.28469 0.245117 1.97476e-20)
(0.774214 0.0239161 0)
(0.786308 0.0201574 0)
(0.963325 0.0215282 -2.50673e-19)
(0.815787 0.00796347 4.65957e-19)
(1.00794 -0.00132387 0)
(1.00013 -0.000365564 4.41345e-19)
(1.00029 -0.00057877 -2.81122e-22)
(0.784105 0.022576 3.98175e-19)
(0.99764 -0.00549327 -2.30348e-19)
(-0.0604364 0.176325 0)
(0.806124 -0.155639 -3.57553e-20)
(1.00067 -0.000890342 -2.22814e-19)
(0.999992 0.0015358 -3.82814e-19)
(1.18372 0.162956 0)
(0.998851 0.00177058 0)
(0.999692 0.000563842 0)
(1.69127 -0.480983 -2.02141e-20)
(0.0843764 0.138962 4.53882e-20)
(0.97723 0.505931 0)
(-0.351597 0.313652 1.85351e-19)
(-0.393368 -0.382172 -3.9289e-19)
(1.02115 -0.00963863 -2.97447e-19)
(-0.0914765 -0.148508 -5.68514e-20)
(1.01733 0.010126 -2.39892e-19)
(1.13267 -0.202336 -1.37182e-19)
(0.768003 -0.43584 3.49346e-19)
(-0.013895 0.000242096 -4.3704e-20)
(1.02778 0.0173194 0)
(1.07036 -0.00849643 -6.45794e-20)
(0.841715 0.0276143 0)
(-0.0905214 0.138596 2.70477e-19)
(0.747032 -0.16639 0)
(-0.126032 -0.179282 -1.5355e-19)
(0.431806 0.130063 1.68692e-20)
(1.72424 0.713321 -1.58413e-20)
(-0.0658704 0.0127486 0)
(1.05205 -0.037005 2.00552e-19)
(0.487512 -0.0165303 3.90309e-21)
(0.930774 0.016289 3.1294e-19)
(1.0132 -0.00398922 -2.02417e-19)
(1.74141 0.89799 3.48459e-20)
(0.556069 0.525434 0)
(0.484224 0.453037 2.13224e-19)
(2.17542 -0.400084 -8.04913e-22)
(1.18099 0.137865 2.13382e-19)
(1.04897 -0.680685 0)
(1.02427 0.00946112 0)
(0.99994 -0.0165321 -4.65578e-19)
(1.01782 0.01909 -4.55514e-19)
(-0.0836286 -0.0493257 0)
(1.27057 0.859071 -1.41321e-19)
(1.4441 -0.458074 3.06468e-21)
(1.01621 0.00962058 1.75116e-19)
(1.01153 0.0159512 -2.19695e-19)
(-0.154188 -0.131988 -1.58153e-20)
(0.575336 -0.10874 -1.04663e-19)
(1.01996 -0.00961472 7.46233e-19)
(1.51754 -0.437955 0)
(1.93709 0.678451 -4.28045e-20)
(1.01664 -0.00675351 -2.32612e-19)
(2.04566 0.00156367 -7.25212e-20)
(1.069 0.0140821 -5.35103e-22)
(1.01003 -0.00811335 4.64367e-20)
(1.92348 -0.229197 -8.07534e-20)
(1.01521 0.00854991 2.25992e-19)
(1.05783 0.625671 6.65793e-21)
(1.01818 0.0101424 0)
(0.951413 0.178484 5.41584e-20)
(-1.12474 -0.433291 3.5702e-21)
(0.99694 0.023257 2.2449e-19)
(1.03878 0.0216065 -5.54608e-22)
(1.14532 -0.341974 -1.56789e-20)
(1.29718 0.334782 4.53312e-19)
(0.993498 0.0195217 1.54668e-19)
(1.01807 -0.0101505 5.13604e-22)
(1.81557 0.250641 -2.57842e-20)
(1.85863 0.990939 -1.08271e-19)
(0.742745 -0.665713 7.3393e-20)
(0.415044 -0.264728 -3.40509e-19)
(1.00836 -0.00789158 0)
(1.01841 0.00632143 5.61215e-20)
(1.01154 -0.00599455 1.1816e-19)
(0.895402 0.483027 5.26987e-21)
(1.01449 0.0112474 -2.35294e-19)
(1.02311 -0.0143479 2.70628e-19)
(1.00864 -0.0048192 -2.20839e-19)
(1.01384 0.0101606 -5.31507e-22)
(1.01327 0.00703265 -3.89084e-22)
(1.02384 0.0188467 2.2546e-19)
(0.91366 0.119221 5.59186e-19)
(1.97821 0.526591 0)
(0.359908 -0.652936 1.24041e-19)
(1.01034 0.00106855 0)
(1.02392 -0.0109979 -6.52334e-20)
(1.59675 0.463575 -9.26559e-20)
(1.98329 -0.130312 0)
(2.02431 -0.0497415 -9.10376e-20)
(1.48535 0.17336 -9.75693e-20)
(0.784052 -0.017919 0)
(1.64669 -0.273677 0)
(0.451594 0.157521 -4.79016e-19)
(1.18271 0.155257 -3.88277e-20)
(1.01757 0.00189469 -2.36895e-19)
(1.08155 -0.536801 -7.44372e-20)
(1.02585 -0.238835 -5.40692e-20)
(1.06816 0.748258 0)
(1.51289 -0.369307 0)
(2.26951 0.304164 0)
(0.0744691 0.202135 1.04226e-19)
(0.963244 0.357832 9.26124e-20)
(-0.600428 -0.202802 0)
(-0.121063 0.136773 -2.31366e-19)
(1.76656 1.00796 -5.11854e-20)
(1.00737 0.000824262 -4.63108e-19)
(0.673375 0.264393 5.37591e-20)
(1.02152 0.0161654 3.0696e-19)
(0.705771 -0.0436861 0)
(-0.11665 -0.0717154 -1.32867e-20)
(0.650647 0.482902 -3.61488e-19)
(1.85854 0.474005 2.66604e-19)
(0.0922178 0.209699 0)
(0.75243 0.0741206 9.52244e-20)
(0.551465 0.52959 5.46214e-20)
(1.23538 0.923924 -3.82339e-20)
(-0.0546449 -0.0397706 6.60094e-20)
(1.02459 0.0228968 0)
(1.03382 0.502516 3.02343e-20)
(1.01171 0.00235203 1.73772e-19)
(2.34462 0.0238315 0)
(1.01161 0.0115792 2.91587e-19)
(0.0240645 -0.222377 -5.85075e-20)
(1.01882 0.0176116 -1.80534e-19)
(1.50212 0.815652 0)
(2.29678 -0.137261 4.26091e-22)
(1.00896 0.00717726 -1.21021e-19)
(0.996039 -0.00971602 3.18949e-19)
(1.11813 0.110373 -3.59979e-21)
(1.12051 0.728289 -9.9259e-21)
(-0.133513 -0.0937509 1.76304e-19)
(2.12758 0.271567 1.89881e-19)
(0.170413 0.384907 8.45415e-21)
(0.800276 0.0146284 -4.37489e-19)
(0.826433 0.0305379 0)
(0.0497332 0.0840228 4.42076e-20)
(1.02451 -0.00566849 -3.50355e-20)
(0.972654 0.0464488 0)
(1.05548 0.00659188 -2.21948e-19)
(-0.385248 0.361489 1.91801e-20)
(-0.633589 -0.0811153 1.17067e-19)
(2.07624 -0.547158 0)
(-0.743384 -0.0329823 -5.40886e-19)
(1.462 -0.329533 0)
(1.04261 -0.0153724 6.51378e-20)
(0.977364 0.235214 1.85631e-21)
(1.01187 0.005366 1.88173e-19)
(-0.45539 0.048359 2.82233e-19)
(1.02017 0.00790804 0)
(0.99457 0.00370747 -4.50393e-19)
(1.00811 0.0106975 2.39097e-19)
(0.932982 -0.281421 0)
(0.505293 0.0734167 -1.00603e-20)