/*--------------------------------*- C++ -*----------------------------------*\
| =========                 |                                                 |
| \\      /  F ield         | OpenFOAM: The Open Source CFD Toolbox           |
|  \\    /   O peration     | Version:  2306                                  |
|   \\  /    A nd           | Website:  www.openfoam.com                      |
|    \\/     M anipulation  |                                                 |
\*---------------------------------------------------------------------------*/
FoamFile
{
    version     2.0;
    format      ascii;
    arch        "LSB;label=32;scalar=64";
    class       surfaceScalarField;
    location    "18.8";
    object      phi;
}
// * * * * * * * * * * * * * * * * * * * * * * * * * * * * * * * * * * * * * //

dimensions      [0 3 -1 0 0 0 0];

oriented        oriented;

internalField   nonuniform List<scalar> 
3181
(
-1.04981
0.408353
0.64146
-0.392161
0.369799
0.022362
0.528304
-0.362347
-0.165956
0.124217
-0.204826
0.0806088
-0.06176
0.0737949
-0.0120349
0.731687
0.787815
-1.5195
0.15071
-0.144269
-0.00644144
0.0758405
0.00150999
-0.0773504
0.591307
-0.769489
0.178181
-0.0746485
0.139605
-0.0649562
-0.0103292
-0.0502876
0.0606168
0.118228
0.0521835
-0.170412
-0.00593849
-0.0625781
0.0685165
-1.09657
0.150112
0.946453
-0.332309
0.704621
-0.372312
-1.12065
0.636185
0.484468
0.0847642
-0.93279
0.848026
-0.288422
0.232289
0.0561326
-0.898824
-0.441613
0.00436725
0.0437109
-0.0480782
0.0325914
-0.0831101
0.0505186
-0.0642891
0.0560176
0.00827148
1.06411
-1.039
-0.02511
0.021511
0.0370069
-0.058518
-0.95587
0.325416
0.630454
-0.109145
0.233361
0.308468
-0.241856
-0.0666115
0.0301527
0.0632332
-0.0933859
-0.40531
0.333568
0.0717423
-0.0324592
-0.0144309
0.0142907
0.00014019
-0.035758
-0.920112
0.05469
-0.0464361
-0.00825394
0.167347
1.49562
-1.66296
-0.0520008
0.0528493
-0.000848422
0.177189
0.271945
-0.449134
1.68242
-1.51507
0.0700778
-0.0374863
1.52109
-0.791309
-0.729779
-0.372318
1.104
-0.126454
0.120515
-0.0640492
-0.00023991
-0.4124
0.0800908
-0.130454
0.0664048
-0.628814
0.129298
0.499516
-0.151609
0.0769606
-0.170538
0.174876
-0.00433748
-0.274455
-0.0770401
0.351495
0.192472
1.30548
-1.49795
0.0645365
0.146281
-0.210817
-0.0100636
-0.0986447
0.104648
-0.00600327
0.523364
0.181257
-0.0960141
0.136935
-0.0409208
0.086743
-0.032053
-0.173735
0.20052
-0.0267851
0.165684
0.0559866
-0.22167
0.110705
-0.116704
0.0059993
1.24285
0.278242
-0.86029
-0.189522
0.0338309
-1.73568
1.70185
0.54587
0.229152
-0.775022
-0.440623
-0.203044
0.643666
-0.84163
0.469312
-0.270413
0.816282
-0.327409
-0.10258
0.429989
-0.20486
-0.20045
-0.192355
0.16475
0.0276049
0.129517
0.285771
-0.415288
-0.173681
0.764989
-0.0153001
0.0911405
-2.07991
2.11375
0.191564
0.116903
-0.18233
-0.111262
0.293592
-0.268869
0.352102
-0.0832328
-0.082566
0.0907152
-0.00814917
-1.88744
-0.918648
0.00989024
0.908758
-0.0542448
0.00224397
-1.05274
0.7882
0.264539
0.455775
-0.266282
-0.189492
-0.797575
-0.0440546
1.10511
-0.954995
-0.711035
1.14688
-0.200429
1.06935
0.16361
-0.174834
0.0112234
1.52522
-0.73741
0.839103
-0.839103
-0.00755468
-0.000525585
0.00808027
-0.215919
-0.0529582
0.268877
0.0890737
-0.0623329
-0.0267408
-0.451439
0.837023
-0.385584
-0.0145361
-0.241309
0.255846
-1.08314
0.044142
0.34217
0.055537
-0.397707
0.136142
-0.850132
1.07928
0.0720901
0.0689969
-0.141087
-0.0174426
-0.156293
-0.299208
0.0174489
0.281759
-0.185633
-0.113575
0.118968
-0.9691
0.334707
-0.786146
0.923636
-0.838872
-0.0132842
0.166366
-0.153082
0.0806301
0.0513083
-0.131938
-1.40588
-0.0965841
1.50247
-0.249706
0.413771
-0.164065
-1.11767
0.626602
0.491063
-0.465609
-0.587129
0.136764
-0.0722271
-0.154822
0.149182
0.00564047
-0.0769867
-0.0119787
0.0889654
-0.542798
-0.226691
-0.114089
0.0466603
0.0674284
-1.14064
-0.235982
1.37662
1.74648
-0.441004
-0.0132182
0.00566352
0.0424222
0.149142
-0.198049
0.375238
0.0225098
0.202696
-0.225206
0.136388
0.0674029
-0.203791
0.271908
-0.0189404
-0.252968
-0.594471
-0.526183
-1.18351
0.0428718
-0.0451989
0.117289
-0.108342
0.186661
-0.0783187
-0.0165134
0.0252544
0.125456
-0.0572287
0.0722362
-0.0150075
-0.0972255
-0.0223178
0.119543
0.0753719
-0.0753719
-0.187121
0.212375
0.270142
0.168791
0.106524
0.0939958
-1.27975
1.10607
-1.56314
0.119866
1.44327
0.029168
-0.0248292
-0.00433882
-0.0262611
-0.0506929
0.076954
0.544199
-0.024793
-0.519406
-0.0386097
0.0399318
-0.00132217
-0.202674
0.0155529
0.161033
0.67599
-0.369974
0.531007
-0.168193
-1.23769
-0.0896673
0.0279074
0.489974
-0.308343
-0.18163
0.106774
-0.0913657
-0.0154079
0.0482416
-0.322697
0.0237914
-0.94244
0.049657
-0.157999
-0.291474
-0.404449
0.0675962
1.37555
-0.925282
-0.450273
1.07731
0.298244
0.066871
0.284624
0.0290845
8.34925e-05
-0.0894513
0.153619
-0.0641673
-0.254618
-0.583534
0.838152
-0.360968
0.6264
0.878194
-1.31981
0.139739
0.0386978
-0.0559712
0.0172734
-1.78788
0.43412
1.35376
-0.280976
-1.50691
-0.302963
0.645133
-0.908999
-0.018165
0.0045725
-0.263795
0.259223
1.44942
-1.56226
0.112846
-0.0964017
0.00673432
0.568895
-0.823514
0.137875
-0.408391
0.270516
-0.293832
-0.116461
0.410293
0.178437
-1.00738
-0.0757537
-0.00775432
-0.0403239
-0.550899
0.347856
-0.243506
0.0183408
0.225166
-0.0283699
-0.0680318
0.0384375
-0.0384375
-0.117532
0.128793
-0.0112607
-0.300401
-1.26273
0.0918955
0.0293954
-0.121291
-0.141917
0.0195162
0.122401
-0.219159
0.0268045
1.49595
-0.44182
-1.05413
-0.196334
0.452944
-0.25661
0.00864749
-0.00827046
-0.00037703
-0.532001
-0.585664
-0.183559
-0.00472303
0.188282
-0.175799
0.305316
-0.100187
0.0985125
0.00167442
0.0742897
0.0119581
-0.0862477
-0.133866
0.170649
-0.0367827
-0.86149
1.12024
-0.258749
-0.221191
-0.0516565
0.272848
-0.697385
0.662125
0.0352601
-0.00326688
0.0402738
0.0275791
-0.0277388
0.000159625
-0.00624941
-0.0522686
0.994102
0.752381
0.175862
-0.886791
0.710929
0.0123351
2.03063
-2.04297
0.387394
0.505649
0.333454
0.0599483
0.201469
-0.065081
-0.0703916
-0.0282531
0.240634
0.154267
-0.0736371
0.73651
-0.411094
0.0611176
0.207759
0.0467131
-0.161722
0.115008
-0.791399
-0.144888
0.936287
-0.0425905
0.0425905
-0.0597203
-0.264414
0.536359
0.0132314
-0.234422
0.120727
0.111562
0.0324751
-0.077674
0.133587
-0.143916
-0.345422
0.330886
0.0396062
0.0643838
-0.10399
0.387016
-0.334832
0.971407
-0.579771
-0.391636
-0.208997
0.275868
0.18697
-0.495313
-0.210178
0.61853
0.167642
-0.0339504
0.0339504
-0.300732
0.399728
-0.0989965
0.388314
0.0254571
-0.0288802
0.0343604
-0.00548019
-0.141821
-0.0689496
-0.0451391
-0.0488389
0.182426
-0.178001
0.238446
-0.0604446
0.126361
0.0279064
-0.392943
0.151086
0.187582
-0.0612211
-0.045263
-0.0549238
-0.077578
0.0695316
0.00804635
0.149448
-0.106006
-0.0434418
-0.0133731
0.392829
-0.379456
-0.131817
0.116517
0.102981
-0.107261
0.00427966
0.0234684
0.588462
0.382945
-0.0927676
-0.010313
0.103081
-0.0868422
-0.00133451
0.0881767
-0.0896254
0.0974127
-0.720168
0.622755
-0.0345584
-1.52051
-0.465757
1.98627
0.512276
1.19814
-1.71041
0.0839199
-0.252892
0.233952
0.275639
0.248915
-0.524554
-0.206824
0.253537
0.146591
-0.895584
0.748993
0.0328389
-0.119681
-0.0163364
0.00858211
-0.992198
0.445126
0.547071
0.925282
-0.806314
-1.71552
1.61894
-1.44942
1.56928
0.0405745
-0.0814953
0.00821077
0.0193684
0.0135626
0.806198
-0.659608
0.124211
-0.0745537
0.412944
0.733938
-0.11318
-1.77686
1.7892
-0.675239
-0.604509
-0.240842
-0.387972
-0.0113012
-0.167762
0.216004
-0.579254
-0.378688
0.182354
0.778362
-0.234163
-0.909461
-0.806061
0.744758
0.170542
-0.137703
0.288878
0.0385526
-0.0385526
0.670049
0.149229
-0.819278
-0.225862
0.895911
0.467052
-1.12069
0.65364
0.202932
-0.0341408
0.00775536
0.00490449
-0.0126599
-1.73568
-1.0498
0.608792
1.05198
0.443966
-0.0348705
-0.135668
-0.238334
0.761697
-0.195147
-0.0483597
-0.0031156
-0.0794504
-0.0520208
0.103329
0.374953
-0.245655
-0.843432
-0.282242
-0.112349
-0.0639801
0.176329
-0.630562
1.13621
-0.153105
0.140089
0.0130158
0.0320096
-0.00292508
-0.126449
0.0684474
0.0580012
0.0086434
0.421345
0.076779
0.0299945
0.0142192
0.00714751
-0.0213667
-0.0160822
-0.167477
-0.72002
0.367269
0.35275
0.656541
-1.69774
1.04119
0.136709
-0.157618
0.0209083
-0.00577284
0.142536
0.176148
-1.01525
-0.120259
-0.00618937
-0.10705
0.0348226
0.142454
-0.340503
-1.65187
0.689158
0.962713
0.0293535
0.0939941
0.055454
-0.791399
-0.239814
-0.621676
0.136253
-0.0678059
0.0432989
-0.63857
-0.0588152
0.0603868
0.127195
0.588238
0.0463072
-0.461595
0.124149
0.343826
-0.288289
-0.119662
0.0224363
0.224641
0.836948
-1.06159
0.102905
-0.715488
0.612583
-0.956767
0.81188
-1.49228
0.196054
1.29623
-0.0111443
0.0119113
-0.000767058
0.167369
-0.461201
0.206999
-0.121421
-0.0855773
0.0514699
-0.0528044
-0.00112171
-0.111227
-0.00415297
0.0217457
-0.0279951
0.0210401
0.0746773
-0.0957174
0.979328
0.000308183
-0.000108436
-0.000199748
0.111749
0.00476773
0.860826
0.046879
-0.0401447
-0.403538
-0.646257
0.179434
0.0234976
0.00788394
0.0861101
-1.29623
1.01525
0.183071
-0.212162
0.029091
-0.248888
0.0740544
0.118982
-0.107758
-0.0014866
0.0922018
-0.0370997
-1.54183
-0.110041
-0.0406713
0.0617114
0.739737
-0.255268
-0.231424
0.0895065
0.340703
0.0110116
-0.0398919
-0.00773937
0.0831112
0.146898
0.205204
0.15622
-0.32932
0.1731
0.111297
0.564694
-0.0428825
-0.108727
0.942624
-0.263929
-0.678695
-1.49228
-0.473562
1.1301
1.68242
-0.0997199
0.345492
-0.245772
0.357417
-0.0709003
-0.286516
-0.0240959
-0.773479
-0.0710252
0.0717087
-0.000683558
-0.0194772
-0.149486
0.168963
0.490206
-0.95647
0.466264
0.0416674
0.656625
-0.698293
-0.0446132
-0.110209
-0.00741194
-0.0853557
0.18199
-0.482722
-0.0120952
0.000950924
0.123956
0.0155746
-0.13953
0.0478044
-0.137256
0.00349182
0.0285177
0.0468088
0.119557
-0.0241961
-0.00354269
0.193812
-0.435121
-0.390122
1.58826
0.0288037
0.0137868
-0.9894
-0.0179843
0.152497
-0.073629
-0.0460329
-0.104412
0.242287
0.76805
-1.02721
0.259157
0.144241
0.0351932
-0.940613
-0.0143819
-0.016365
-0.648863
0.746275
-0.0181423
0.185784
-0.115629
-1.00506
0.182149
-0.446922
0.264773
-0.00590459
0.2086
0.00332754
-0.00355657
0.000229031
-0.0288619
-0.105004
-0.0213703
-0.134922
0.746265
-0.64336
-0.127093
0.0805432
-0.1053
0.30899
-0.15277
0.118903
1.21907
-0.337817
-0.881256
-0.11926
0.137601
-0.506333
-0.213687
-0.560877
0.61366
-0.596021
-0.0176392
-0.0886029
-0.0384902
-1.77686
0.542012
-0.542012
-1.86785
1.86785
0.806198
0.0574971
-0.25686
0.199362
-0.897066
-0.0923341
0.623767
-0.363786
-0.259982
0.166555
-0.244873
-0.0106978
-0.00252042
-0.887989
-0.0811102
-0.933001
0.212833
0.0280784
-0.0920584
0.696715
-0.110161
-0.586554
1.2313
0.451123
-0.00143085
0.0047584
-0.965723
0.400604
-0.980375
-0.0737496
-0.599331
0.673081
-0.0731026
-0.864396
-0.697866
0.218101
-0.812572
-0.936287
1.38883
-0.452545
-0.138143
0.280646
-0.142504
-0.0257123
0.722427
-0.105308
-1.0328
1.0328
-0.873454
0.487765
0.385688
0.000473138
-0.000164954
0.101695
-0.435396
0.814692
-0.0264922
-0.0835295
-0.035437
0.119795
0.00497195
0.00367554
1.89703
-1.70098
-0.328485
0.402775
-0.629011
1.00387
-0.37486
-0.0534555
-0.0668037
0.12256
-0.0551569
0.356029
0.00599247
-0.0685705
0.35509
0.0377385
0.0422512
-0.244922
0.20267
0.140543
0.034333
0.0962987
0.178961
1.74158
0.372163
0.236017
0.55883
-0.794847
-1.13375
1.56787
0.207004
-0.140599
0.0769328
-0.766487
0.689555
0.293514
0.133734
-0.479156
-0.0743233
0.135563
-0.0612393
0.135025
-0.209348
-0.445179
-0.105721
-0.070738
0.0737858
-0.00304775
-0.00145895
-0.0227371
-0.0165736
-0.0154794
0.659608
-0.612583
-0.0470251
-0.293268
0.306499
0.878616
0.606208
-0.248791
-0.0338217
0.0632171
-0.374147
-0.0342439
0.177412
-0.586276
0.408863
-0.00344574
-0.000110836
0.197453
-0.00485606
-0.192597
0.00501448
-0.0109733
0.00595886
-0.0233832
0.0156386
0.00774457
-1.36724
0.629829
-0.133277
-1.38723
-0.196264
-0.806314
1.56928
1.61894
-0.19479
-0.174249
0.122593
-0.062525
0.0681562
-0.00563115
-0.219127
0.981982
-0.762854
0.547504
0.0762636
0.000639849
-0.00408559
0.119767
-0.494353
0.035437
-0.0453734
0.00470217
-0.589181
0.215034
-0.044318
0.0767931
-0.22732
0.614336
1.07731
-0.070902
-0.0621112
0.00140905
0.0607022
2.00113
-0.382187
-0.0617137
-0.0549907
-0.967421
0.161107
0.380019
-0.201582
-0.476371
-0.126428
0.602799
0.815897
-0.362979
-0.452918
-0.0269
0.79495
-1.7892
0.0535157
-0.0076588
-0.0248748
0.0325336
0.196704
1.83393
-0.169923
0.177678
0.14676
2.22847
-0.659189
-0.679964
0.0565722
0.623392
0.38072
0.0102394
-0.346635
0.540029
0.818872
0.454509
0.0770548
-0.0216008
-0.736299
0.19932
0.536979
1.24869
0.0516156
-0.0373964
-0.0498515
-0.357185
0.103385
-0.310208
0.774802
0.444271
-0.119637
0.0310342
0.29343
-0.39315
-0.0217189
0.018452
0.111679
-0.148551
0.0368724
-0.301257
0.315743
-0.0144857
0.426072
-0.763889
-1.39293
0.0822318
1.3107
0.0958595
-0.200031
0.104171
0.268673
0.0403168
-0.531964
0.29215
-0.656374
0.656374
1.70185
1.2313
-0.715488
0.336916
0.481956
-0.451327
0.352331
0.908875
-0.361372
0.00824353
-0.874783
0.866539
0.134868
0.00473633
0.0265699
-0.6053
0.073336
0.10125
-0.166778
-0.122907
0.289684
0.209573
-0.516426
0.349648
-1.09171
-0.283716
-0.648131
-0.0632897
-0.000181751
7.3317e-05
-0.225935
0.113631
0.0626982
0.0345812
-0.142873
0.108292
-0.47269
-0.400764
-0.00574956
0.0689828
-0.827066
0.552112
0.274954
-0.570512
0.388881
-0.0888446
0.153228
0.236234
-0.00302715
-0.0133093
-0.837591
0.395771
0.0338906
0.0690908
-0.154334
0.0490332
0.198405
0.00859378
-0.425409
1.52991
0.451607
-0.0464699
0.866961
-0.790028
0.782125
-0.441422
-0.609182
0.173786
0.152212
-0.792921
0.764696
0.0282243
1.17024
-0.395439
-0.198102
-0.130383
-0.0835214
0.0211885
0.954927
-0.840556
-0.114371
-0.179344
0.105707
0.0278641
0.121317
0.879173
0.412132
-0.668736
0.256604
-0.326421
-0.0522669
-0.0311671
-0.795899
0.120864
1.3816
1.20986
0.021436
0.168417
0.554366
-0.722783
0.0583544
0.0494911
-0.00567449
0.00264734
-0.508983
-0.100199
0.119305
-0.147675
-0.184275
0.135436
-0.537096
0.280486
-0.992349
-0.475987
-0.288101
-0.567449
1.52896
-0.08569
-0.284035
-0.433219
-0.155961
0.187135
0.298331
0.0567592
1.32932
-0.839116
-0.186627
0.125406
-0.314108
-0.389489
0.703598
-0.0110818
0.00342301
0.0482248
-0.0597787
-0.241479
-0.122185
0.697129
-0.419094
-0.278034
0.0844655
0.135988
-0.0978965
-0.0380918
0.242673
0.0556577
-0.250178
-1.46024
-0.0949144
0.138213
0.841353
-0.429221
0.0131731
0.0750036
-0.0205744
0.0206149
-4.0504e-05
0.0104822
-0.0353114
-0.239373
0.0776519
-0.0565431
-0.558896
0.420754
0.0171651
0.0996961
-0.00383653
-0.693695
1.67427
-1.23
0.0157278
-0.190228
0.174501
-0.138363
-0.540106
0.67847
0.0766784
-0.715248
-1.13487
-0.25806
-0.0669265
-0.000986864
0.0679134
-0.246716
-0.61366
-0.177739
-0.144272
-0.736299
-0.227973
0.162892
-0.278534
-1.14989
-0.467304
0.384848
0.0824559
0.265408
0.116062
0.486563
0.169936
-0.656499
0.10871
0.0618313
0.787569
0.444646
-1.23222
-0.222083
0.486454
1.08142
-0.238553
0.178108
-0.663767
1.15022
-0.0167672
0.0342161
-0.0276843
0.0412469
-0.0148826
1.13112
-1.17759
0.726882
0.0890147
-1.41676
-0.125069
0.235846
0.673029
0.920978
0.0216468
-0.0183687
-1.20986
-0.648131
-0.713114
0.723004
-0.0546376
-0.909461
0.656625
0.607902
-0.93289
0.67753
-0.0060089
-0.786912
-0.313188
0.635967
-0.772584
0.136617
0.0816749
0.0543134
-0.392138
-0.226091
1.23707
-1.01098
0.000130838
-0.000312589
-0.260169
0.211809
0.712645
0.224433
-0.20888
-0.181989
0.679911
-0.915892
0.117489
0.0818734
0.322028
0.889073
-1.2111
-0.936724
1.13604
0.816233
-0.264121
0.0775456
0.310888
-0.536979
-0.0088339
0.214029
-0.0525202
0.0805324
0.0719645
0.00358536
-0.0300551
0.0264697
-1.02574
-0.0358478
0.317416
-0.807641
-0.735569
1.67891
-0.943339
0.369951
0.63392
-0.0502725
0.0537899
-0.00351742
-0.0922076
0.772118
-0.716012
0.742714
0.564877
-1.30045
0.310581
-0.0965513
-0.585127
-0.407222
-1.01997
1.342
-0.0588172
-0.880792
-1.87166
-0.171302
0.310888
0.0495487
-0.857189
0.832112
-0.646539
-0.185573
-0.982319
0.397192
0.00846377
0.113936
-0.000649633
-0.113287
-0.971405
0.564183
-0.21748
0.910009
-0.92439
0.189818
-0.2059
-0.0946727
0.237126
1.16403
0.407386
-0.129584
-1.43518
0.55392
1.24831
-0.793802
-0.55311
-0.517839
1.07095
0.44689
0.0166773
-0.0117728
-0.73414
0.698293
0.0455015
-0.137709
-0.333454
0.0837728
0.249681
1.03997
0.638934
0.779682
-0.812141
-0.492716
-0.449724
-0.471563
-0.499842
0.803171
-0.803171
0.684592
-0.684592
-0.73414
-0.0397182
0.0397182
-0.0837728
-0.593875
-0.417845
-0.523522
-0.0404019
0.0404019
0.0455015
-0.137709
0.779682
0.767999
-0.767999
0.812141
0.759414
-0.759414
0.507284
0.528437
0.482161
0.00509964
-0.500158
-0.550276
1.07871
-0.630654
-1.53612
0.516152
0.365481
0.450752
-0.173179
-0.00693467
0.0538137
-0.88551
0.0940629
0.791447
-0.132729
0.121428
-0.995826
0.584732
0.937807
-0.600891
-0.12492
0.0075725
-0.0101032
-0.807722
-0.079069
-0.547071
-0.00352557
0.0121077
0.584544
-0.154065
0.0862589
0.172574
0.00205479
-0.0100445
0.00798968
-0.81289
0.0669941
0.745896
0.723752
0.440275
-0.53297
0.410567
0.122403
0.916876
-0.741902
-0.174974
0.0796291
0.295609
-0.0137037
-0.0570343
-0.056466
-0.0145592
0.748551
-1.37911
-0.83935
0.0982634
-0.740177
0.796033
-0.0558555
0.122886
-0.899767
0.776881
-0.802031
0.90402
-0.101989
-0.0669843
0.0774665
0.0197558
-0.283551
0.415033
0.926963
-0.0956504
-0.789859
0.916401
-0.0925075
-0.823894
0.0791609
-0.132616
1.08923
0.821226
-1.10447
0.45508
-0.378816
0.104442
-0.894301
1.51507
0.352775
-0.791049
0.00413756
1.01839
-0.895505
1.22693
0.99128
-0.72199
-0.26929
-0.879065
-0.116761
-0.40889
0.0294342
-0.483696
0.742853
-0.785984
0.785984
-0.601236
-0.0865501
-0.864529
0.122626
-0.932165
0.858415
0.0741492
-0.195571
-0.0581587
0.0611351
0.0111011
0.189472
0.828918
0.81747
0.771675
0.138734
-0.910409
-0.550427
1.00118
-0.781629
-0.107539
0.889168
0.174903
-0.890914
-0.675056
0.889849
-0.785407
-0.10692
0.458041
-0.0264615
-0.431579
0.00629484
1.35535
-1.36164
0.2479
-0.403646
0.155745
-0.88855
-0.829405
0.0892273
0.522709
0.259416
-1.95116
1.13741
-0.572074
0.572074
-0.863565
-0.571611
-0.125465
0.198801
-0.991362
1.07359
0.78231
-0.205629
1.17249
-0.542666
0.905581
-1.09741
0.191827
-0.0990533
-1.59868
0.19105
0.440852
-0.530277
-0.0913989
0.163059
0.29973
-0.220101
0.779879
-0.881868
0.592107
0.409072
-0.151931
0.736663
0.577305
-0.577305
-0.0690202
0.0660952
0.108526
-0.0739448
1.21229
0.143063
0.243794
0.000324367
0.00416632
-0.00449069
-0.666467
0.695142
-0.0286747
0.308995
-1.03098
0.108671
-0.894078
-1.07561
1.42006
-0.34445
0.194163
0.876373
-1.19741
1.50641
-0.755343
0.600617
-0.659432
-0.655432
0.149099
-0.125404
0.0274092
0.0849132
-0.419304
0.2939
0.00523119
-0.533412
0.0714131
0.72462
0.694325
-0.0937078
0.076095
0.784731
0.10543
0.270678
-0.376108
-0.747328
0.534377
0.561562
-0.960927
0.740026
0.220901
-0.68481
-0.127762
1.05264
-0.280693
-0.202028
-0.0379577
0.486112
0.513888
-0.770251
-0.111618
-0.510129
-0.294661
-0.421988
-0.275146
0.401715
0.598285
-0.133698
0.138465
-0.862758
-0.0696405
-0.589792
-0.153645
-0.249835
0.40348
-0.0330117
-0.00408795
0.111042
0.0713839
-0.128524
-0.11085
0.759612
-0.642118
0.718213
0.115512
-0.534817
-0.220942
-0.00491286
0.225855
-0.743947
-0.195031
0.938978
-0.243868
0.232372
-0.0246124
-0.0791657
0.0111339
0.0122475
0.703907
-0.131833
0.126144
0.11009
-0.736034
0.0695674
1.01195
-0.239511
-0.543889
0.152253
-0.331476
-0.287666
1.0216
-0.00631833
0.319401
-0.172641
-0.00818697
-0.045777
-0.109624
0.0129239
0.999023
0.261615
-0.34821
0.0865947
0.848839
-0.0256213
0.000232816
0.0253885
0.12677
-0.0114582
-0.000636959
0.21857
-0.106891
0.147312
-1.13867
0.598836
-0.337221
0.00849423
0.291174
-0.353123
-0.95132
1.26993
-0.318614
-0.781683
0.838638
-0.0569552
0.507437
0.233138
-0.249905
-0.0675351
1.22521
-0.453465
-0.0795051
0.277656
0.456324
0.1967
-0.653023
0.412754
0.0417121
0.65343
-0.573389
0.560799
0.0125897
1.33322
-1.14609
-0.026873
0.0340394
-0.00716643
0.696908
-0.00900557
-0.0829248
0.0192222
1.36626
0.742118
-0.234681
0.0710062
-0.0757654
-0.124265
0.116225
0.046543
-0.162768
0.012689
-0.00910362
1.16565
-0.721
0.171409
0.223366
-0.0259583
-0.0918567
0.220952
0.097619
0.00569035
0.0785903
0.768321
0.322248
-0.134261
-0.187987
0.556819
0.229484
-0.786303
0.643608
0.123342
-0.0625267
0.0101598
0.0523669
-0.670183
-0.0157796
-1.08163
-0.00331204
0.74807
0.71616
0.155635
0.41348
-0.805618
0.81851
0.12785
-0.00894654
-0.878327
0.102983
-0.272323
-0.130409
-0.171502
0.692032
0.0762892
0.0132324
0.459111
-0.225973
-0.252271
0.161895
0.0293573
-0.112467
0.422087
-0.0570798
0.483369
-0.0725902
0.166402
0.0841923
0.472627
-0.153575
0.0555726
-0.0510282
-0.109848
0.0169384
-0.000624658
-0.0163138
-1.50148
0.355396
-0.0114145
0.869771
-0.227547
-0.616356
0.638742
-0.0223856
0.451557
0.761599
0.495865
-0.27001
0.0777971
-0.17247
0.632034
0.129565
0.523798
0.612412
-0.265144
0.720223
0.172832
0.82619
-0.603846
0.349411
0.254435
0.158644
-0.0710525
0.0414459
0.0626985
-0.0466442
1.15716
0.738165
0.0803452
0.619668
0.218484
-0.872297
-0.0809201
-0.673784
0.677921
-0.0234123
-0.585368
0.431722
0.874782
0.673746
0.136835
0.00612553
-0.163835
-0.315321
1.0941
0.580173
0.316079
0.0192244
0.820606
0.00558426
0.69396
0.68266
-0.0770214
0.550596
-0.740727
0.930329
-0.189602
-0.412159
-0.191688
-0.0422808
-0.191481
-0.205835
0.764805
0.0103786
-0.00323112
0.627717
0.171886
-0.0196326
0.604105
-0.132388
0.240859
0.748601
0.236591
-0.985192
0.277012
-0.923551
0.199843
-1.42984
-0.181109
0.770956
-0.589846
-0.665471
-0.109152
0.0299859
-0.0547925
-1.12856
0.0237066
-0.0442809
0.780678
0.125204
-0.328289
0.203085
-0.0310345
-0.579254
0.10622
0.213181
-1.4607
-0.00160468
0.00365947
0.0813977
-0.0534719
-0.591387
0.0179983
0.567482
0.3073
1.11034
0.875922
-0.247128
-0.385371
0.632499
0.0359399
-0.617598
0.617598
-0.236407
-0.90962
1.14603
0.029854
-0.149114
0.685145
-0.117663
-0.220864
-0.389504
0.187475
0.655749
0.787178
-0.0454544
0.172666
-0.10507
-0.46759
0.483927
0.0768717
0.055143
0.0149348
-1.57725
-0.0287394
-0.18563
0.69399
0.30601
-0.0287394
0.69399
-0.00846899
-0.142476
-0.00846899
-0.696009
0.696009
0.303991
-0.0143505
0.199814
-0.075661
0.191524
0.108396
-0.463246
0.640435
-0.0363301
0.659287
-0.504035
-0.155251
-0.0587842
0.0584939
0.000290313
-0.0114909
0.0118153
-0.0528636
0.0188961
-0.0749039
-0.435351
-0.351483
0.125547
0.0444289
0.832962
-0.278596
-0.553029
0.397068
-0.00153735
-0.141092
-0.00946717
0.681416
0.0666536
0.418885
-0.0199438
-0.00142287
0.013559
0.0848641
0.564359
-0.474991
-0.0893674
2.07579
0.546728
-0.303616
0.89266
0.0111334
-0.0618264
0.105274
0.193379
0.135292
1.12206
-0.373463
0.0136279
-0.0769176
0.673973
-0.434026
0.0224445
-0.0224445
0.0197785
-0.0197785
-0.0145277
0.0145277
0.0288037
0.3656
0.458628
-0.0314505
-0.721194
0.48703
0.189729
0.0288405
-0.0820607
-0.482608
0.759693
0.111293
-0.796104
-1.09903
0.0939707
0.104258
0.0185229
-0.00288433
-0.0202737
0.0202737
0.188082
-0.0192868
0.0192868
0.701157
0.0897414
-0.0141223
-0.00582156
0.00670769
-0.0688189
-0.0227409
0.0227409
-0.0101928
0.0101928
-0.0219059
0.0219059
-0.0146094
0.0146094
0.117273
-0.295825
-0.0830839
0.220855
-0.013523
0.013523
-0.372671
0.514186
-0.141515
0.50364
-0.222994
-0.461331
-0.0916982
0.559317
-0.112001
0.0742855
0.564456
0.565958
-0.00676181
0.00676181
0.16898
0.0243404
-0.0243404
-0.0121719
0.0121719
0.755702
-1.15454
0.0364843
-0.206729
0.201873
0.00342594
-0.00342594
0.0123667
-0.0123667
0.0180627
-0.0180627
0.0235568
-0.0235568
-0.0230878
0.0230878
0.0345501
-0.0345501
0.479812
-0.0312951
0.0312951
-0.00278898
0.00278898
0.0236939
-0.0236939
-0.00551483
0.00551483
0.00808399
-0.00808399
-0.0626086
-0.025024
0.025024
0.346652
0.0122694
-0.0388298
0.0388298
0.0053552
-0.0053552
0.0136628
-0.0136628
0.0329695
-0.0329695
0.0259492
-0.0259492
0.0040506
-0.0040506
-0.00227131
0.00227131
-0.546567
-0.220523
-0.0088979
0.0088979
-0.00202193
0.00202193
-0.0375289
0.0375289
-0.028194
0.028194
0.000427083
-0.000427083
-0.410736
0.646582
0.257769
-0.0315257
0.0315257
-0.0418456
-0.01315
0.01315
-0.00140746
0.00140746
0.03766
-0.03766
-0.207108
0.198161
0.00331451
-0.00331451
-0.0233596
0.0233596
-0.504603
0.0449897
-0.119504
-0.0316607
0.0316607
-0.44787
0.0344608
0.0193291
-0.0391246
-1.37764
-0.0360942
0.0360942
-0.196376
0.139296
-0.0410388
-0.00103042
0.00103042
0.00496312
0.0455555
0.262525
-0.324484
-0.284594
0.609079
0.198865
-0.00440677
0.00440677
-0.204883
0.433729
-0.228846
0.776825
-0.401654
-0.375172
-0.457384
-0.660382
0.0476698
0.349398
-0.281522
-0.465805
-0.573498
0.00844622
0.19055
-1.19167
0.0150764
-0.0150764
-0.000620379
0.000620379
0.0303238
-0.0303238
0.0263846
-0.0263846
0.000255829
-0.000255829
-0.000509541
0.000509541
-0.00651733
-0.259765
0.178614
-0.303534
-0.000109691
0.000109691
-0.0452807
0.0452807
-0.039622
0.039622
0.190174
0.0301397
-0.220313
-0.00279524
0.320952
-0.548499
-0.000130457
0.000130457
-0.00831885
0.00831885
-0.090976
0.120993
-0.0733231
-0.000738573
0.000738573
0.101683
0.0140508
0.999416
-0.484834
-0.0760164
0.560851
-0.630242
0.0892398
-0.572936
-0.0388392
0.0388392
-0.681648
0.278842
0.0486311
-0.0486311
-0.640136
0.380154
0.266091
0.123083
0.000354139
-0.000354139
-0.823537
0.00028082
-0.00028082
0.313357
0.40907
0.0485778
-0.052516
0.052516
-0.00100628
0.00100628
-0.0416106
0.0416106
-0.0540863
0.0540863
0.000480567
-0.000480567
-0.0597268
0.0597268
0.00034396
-0.00034396
-0.0448547
0.0448547
-0.00339473
-0.0453763
0.0453763
0.00265219
-0.00265219
0.0473116
-0.0473116
-0.00037923
0.00037923
0.0479854
-0.0479854
-0.148754
-0.00224844
0.00224844
-0.00414455
0.00414455
-0.0557822
0.0831112
-0.0101034
0.0101034
0.00511092
-0.00511092
-0.0581749
0.0581749
0.293329
-0.017848
0.017848
-0.057153
0.057153
-0.00752688
0.00752688
-0.0658547
0.0658547
-0.0133095
0.0133095
-0.0787646
0.0787646
-0.0211771
0.0211771
-0.0940253
0.0940253
-0.690251
0.315154
-0.528492
0.506106
-0.864396
0.150799
-0.568153
0.396651
-0.0372145
0.12168
0.00352484
-0.00352484
0.280436
-0.726138
0.0419685
-0.0270337
-1.13268
1.58381
1.18609
0.253805
-0.0532986
-0.0278255
-0.397105
-0.57581
-0.0513928
0.390223
-1.22543
-0.0184813
0.0184813
-0.760068
0.0209052
-0.0209052
-0.00146236
0.00146236
0.309488
-0.387816
-0.0021266
0.0021266
0.0192415
0.0147089
0.594982
0.221691
-0.0112581
-0.00985538
-0.00851332
-0.0931337
0.49064
-0.397506
0.17851
0.0125397
0.0124505
0.925485
-0.0179545
0.0569917
-0.407349
0.436784
-0.483366
-1.01802
-0.219671
-0.0697465
0.0177256
-0.242326
-0.16132
0.0604471
-0.00340489
-0.0125153
0.782814
-0.556917
-0.0351876
0.0645449
-0.0350776
0.0514084
0.148406
0.427127
0.234998
-0.164614
0.212091
0.0155218
-0.00356372
-1.30506
0.0199172
-0.066143
-0.262146
-0.0192235
-1.46312
-0.0709697
0.261963
-0.35122
0.388958
0.299946
-0.867395
0.0502762
-0.029537
-0.103079
-0.344832
0.467236
-0.0830831
-0.0288597
0.111943
-0.0267416
0.0267416
0.176955
-0.425746
-0.0996283
0.119144
-0.0772112
0.053799
-0.0658714
-0.0067439
0.0726153
-0.0349951
-0.150684
0.114408
-0.0732612
-0.288977
-0.363748
0.652725
0.0140513
0.0576574
0.15246
-0.0263157
-0.126246
0.065451
-0.1536
0.305812
-0.00148912
0.0268776
-0.0294326
0.181892
0.00323017
0.255993
0.000930721
-0.000930721
-0.304528
0.998489
0.0863573
-0.167277
-0.0502495
-0.0228531
0.841889
0.664518
-0.0126484
-0.0257891
-0.531841
0.00334941
0.150789
0.0855637
-0.673483
0.312111
-0.0558481
0.387842
-0.676819
0.224973
0.515053
-0.087971
0.087971
-0.000649632
-1.28274
0.556942
0.725799
-0.208152
0.153359
0.166401
-0.191403
-0.572486
-0.129541
-0.0313847
0.0395955
0.929782
0.235242
-0.0984069
-0.0688557
-0.597725
-0.702721
-0.0769094
-0.264813
0.804841
0.584612
-0.26366
-0.261176
0.55235
-0.0389126
0.384405
-0.268014
0.101841
-0.468785
0.32727
0.122866
-0.122866
0.11262
-0.119555
0.00693455
0.00853003
0.00111753
0.0206149
-0.341038
-0.329144
0.231771
-0.186615
-0.0451568
0.548276
-1.07133
0.249265
-0.895523
0.697523
-0.124029
-0.179504
-0.0431596
-0.0790252
-0.481132
0.0457809
-0.282511
0.00467749
-0.0192235
0.37388
-0.00524541
-0.000864835
0.00108633
0.0128695
-0.0110513
-0.0018182
-0.107676
-0.0170249
-0.164374
0.181399
-0.131025
-0.33776
0.0192415
0.347164
0.00137766
-0.370532
0.0824307
0.00243452
0.148089
-0.179539
-0.0117778
0.0117778
-0.000915149
0.00217384
-0.00946596
0.0013511
-0.0791092
0.000815874
-0.00118194
0.236267
0.00601993
-0.00105271
0.00105271
0.1154
0.51696
0.00129492
-0.289471
0.456063
1.1182
-0.475857
0.341065
-0.437585
-0.233224
0.133596
0.235088
-0.233878
-0.0209673
0.0158043
-0.00355678
-0.00387913
-0.179272
-0.379496
0.866527
0.421204
-0.427721
0.214293
-0.00158061
0.194364
-0.000200687
0.000783357
0.000845563
0.0149587
0.185526
0.00130083
-0.000197177
0.716432
-0.650981
-0.244985
0.110174
0.943106
0.000614472
0.0010432
-0.0410388
-0.00571149
0.817879
-0.430418
0.507289
-0.480291
0.904295
-0.417621
0.582275
-0.185624
0.691813
0.00110805
0.00332911
0.0151938
-0.116259
0.139754
-0.243795
0.00957906
0.000639149
0.0631599
-0.0481393
-0.0150206
0.00109227
0.0486422
0.012286
-0.0609282
-0.0893666
0.00411989
4.64264e-05
0.00159948
0.468183
-0.427068
-0.00534399
0.000296627
1.2014
-0.644457
0.389948
-0.0057704
0.000410046
0.203848
-0.0324397
-0.0393178
-0.1206
-0.0185218
-0.00352779
0.115882
0.0454084
-0.0015393
0.417661
0.000808947
-0.00320504
0.00320504
0.00306158
-0.012917
0.00014614
-0.321829
-0.00365381
0.0711836
-0.107162
0.0319329
0.0109788
-0.0654237
0.000240148
0.00189612
0.473453
9.83094e-05
-0.00358072
-0.0387001
-0.00198854
0.000503636
0.0792748
0.164519
-0.710718
0.484647
-0.864143
-0.040327
-0.00026771
-0.600777
0.0678124
0.0952463
0.601714
-0.0152471
0.0140414
-0.00388485
-0.00131949
-0.552083
-0.0032441
-0.000136607
-0.0447686
0.937284
-0.524529
-0.00245694
-0.00072319
-0.0056589
-0.00186921
0.0680222
-0.0224444
0.0224444
-0.0290687
0.0312425
-0.00241595
-0.00767981
0.0319193
-0.0327842
-0.160678
0.0896255
-0.00578261
-0.0129099
0.0434863
-0.0159475
0.0606881
-0.0429625
-0.625619
0.569764
0.0204764
-0.00158609
0.325098
-0.158696
-0.0717744
-0.690227
-0.0782372
-0.121908
-0.0925085
0.09052
0.682346
0.000531639
0.0118648
-0.0108215
0.257785
0.0554757
-0.144508
0.0890327