/*--------------------------------*- C++ -*----------------------------------*\
| =========                 |                                                 |
| \\      /  F ield         | OpenFOAM: The Open Source CFD Toolbox           |
|  \\    /   O peration     | Version:  2306                                  |
|   \\  /    A nd           | Website:  www.openfoam.com                      |
|    \\/     M anipulation  |                                                 |
\*---------------------------------------------------------------------------*/
FoamFile
{
    version     2.0;
    format      ascii;
    arch        "LSB;label=32;scalar=64";
    class       volScalarField;
    location    "32";
    object      p;
}
// * * * * * * * * * * * * * * * * * * * * * * * * * * * * * * * * * * * * * //

dimensions      [0 2 -2 0 0 0 0];

internalField   nonuniform List<scalar> 
2186
(
0.774884
-0.419678
-0.0992691
1.07797
-0.798528
0.047391
0.657514
-1.04333
-1.0716
1.34313
1.11681
-1.04202
-1.02597
1.04909
-0.655984
1.063
1.08097
-0.868814
0.145485
-0.737026
1.45893
-0.733421
1.05932
-1.1236
1.05112
1.05147
1.27486
0.895352
0.669308
1.05004
-0.719971
1.05122
-0.681868
-0.951374
-1.05637
0.200282
-0.946096
1.45052
-0.526461
-0.0148746
-1.03231
-0.700579
-0.775084
-0.851044
0.967136
1.32647
0.308812
0.488794
-1.24374
-0.771034
-0.723891
0.966855
-0.770024
1.38925
-0.745225
0.948398
-0.828703
0.977203
-0.571274
0.816505
-1.12478
0.711043
0.631346
-0.0415952
0.650787
0.427857
0.743351
1.34616
1.24209
-1.12871
-1.04899
-1.16517
1.30861
1.0053
1.2382
1.16928
-1.18208
1.07624
-1.06449
-0.622286
-0.820578
-0.169705
1.0458
0.696672
1.03718
1.0464
1.35886
0.143411
-0.44193
-1.07321
0.950965
-0.738949
0.947686
1.19795
1.06025
0.50072
-0.22994
0.662763
-0.790782
0.992472
-1.05748
-0.983045
0.714191
0.971711
1.08282
-0.706836
1.2869
-0.812605
0.936227
-1.54892
-0.616323
-0.769184
0.515045
1.39029
-1.05284
-0.934252
-0.637566
-1.3806
-1.07347
1.30813
0.0664575
-0.772834
0.927696
-0.93543
1.06737
-0.626033
-0.782936
1.16092
-0.893872
0.636907
1.41897
1.25959
0.193563
0.628438
-0.884157
-0.752734
0.917524
-1.11822
-0.495588
-1.06224
0.872689
-0.282483
-1.03869
0.683575
0.933732
0.976333
-0.768562
-0.805322
0.590168
-0.786603
-0.76713
0.554805
1.07916
1.20215
1.05376
0.500081
1.3585
0.522137
0.43155
0.388025
-1.06482
-1.23753
1.04313
0.995176
0.237082
0.160065
-0.980964
-1.04174
-0.849391
-0.877309
0.443016
0.998795
1.08195
1.12355
0.50709
-0.185247
-0.817682
1.04431
-1.29305
0.932344
-1.0354
1.06608
-0.733855
0.623872
0.608607
-0.829476
-0.871564
1.20929
-0.416709
-1.00052
-0.912175
1.31593
-0.98305
0.988751
-1.06449
-1.53779
0.170917
1.23706
1.14552
-0.731091
-1.12731
-1.38099
0.0287061
1.07903
-1.06151
-0.782494
-1.07642
-1.41341
1.01299
-0.976424
0.493633
-0.346803
1.37625
0.900566
0.9949
0.953221
1.25945
1.05566
0.895222
1.17479
0.339245
-0.904794
-0.720382
0.188989
0.141568
-0.856272
-0.791536
1.11456
1.1671
-1.10632
-0.992785
-1.46727
0.334194
0.636413
0.788014
0.89624
1.13457
-1.06009
0.886041
-1.05672
-0.786171
-0.924125
1.07556
0.80437
1.22802
1.22782
1.18801
1.16683
-1.05926
0.818736
1.17994
-1.05468
1.06261
0.8508
-1.33806
-1.06029
-1.05842
1.22972
1.08309
-1.0195
-1.21539
-1.43115
0.95741
-0.93722
0.824568
1.14455
0.881429
-1.0677
-0.720814
1.02437
0.703192
-0.749143
-0.385883
1.41274
-0.781233
-1.05274
0.86345
1.20561
1.0387
-0.802514
-0.902566
-0.976173
0.985173
-1.04824
0.520696
1.02135
1.03681
-0.278388
-0.595807
1.02998
-1.10797
0.936854
1.21635
1.07817
1.07514
-1.64703
-0.732312
-1.13836
-1.07349
-1.4067
-1.05361
0.343058
-0.656342
0.686078
1.19067
1.28395
0.990814
-0.826468
1.20896
-1.17975
-0.416728
-1.14353
-1.06644
-0.993695
0.315084
-0.767455
-0.751467
0.251025
0.997968
-0.318624
0.464391
-0.760441
-0.467846
-0.974057
-0.774063
1.27588
0.0738906
-0.670422
-0.737853
0.780731
0.637878
-0.283143
0.503689
-1.01853
-1.01793
0.738008
1.07696
1.15212
-1.39234
1.20839
0.888262
0.459681
1.27137
1.05953
0.975566
0.333547
-0.95107
-1.06244
0.944907
-0.820276
-1.07387
-1.18858
-0.884476
-1.07648
1.4397
-1.51184
-0.726014
-1.06634
1.05857
-0.821945
-1.35969
-0.707044
0.750322
-0.710811
-1.27098
1.32162
1.38173
1.14401
-1.03812
-0.543492
1.45547
1.06219
-0.911009
0.533107
-1.05767
0.125434
1.24825
1.06055
0.89642
1.34232
-0.62105
-1.01743
-0.369132
-0.862625
-1.47118
-0.718851
-0.167915
1.38733
-0.835629
-1.255
1.05173
0.562213
-1.06284
-1.08223
-1.0611
-0.81079
-1.19358
-1.06507
-0.707657
-0.784439
1.23433
-1.293
-0.916234
1.06807
-1.23789
1.29111
-1.21703
-1.3776
-0.666893
1.05067
-1.02541
1.08137
0.845187
-1.68517
1.06873
-0.745881
-1.07058
-1.13097
1.02242
0.980762
-1.07287
-1.0596
-1.14999
1.06044
-1.30146
-1.53753
0.591846
1.01921
0.90616
0.710935
-1.07689
-0.828969
0.901784
-0.965541
0.820814
-1.71318
1.07443
0.0521743
1.15302
-1.07288
0.850397
0.777709
1.08868
-1.15198
1.05908
-0.78711
-1.0701
1.05408
-1.40326
0.23515
-0.901954
-0.0387625
1.06427
0.041069
0.250819
1.06687
0.328008
-0.236721
0.0041258
-0.725328
0.191675
-1.03109
0.783373
-0.526052
1.15099
1.15301
-1.06591
-1.06647
-1.05162
-0.720117
0.514784
-0.972888
0.91406
-0.115015
-1.01881
1.17056
-1.084
0.456746
0.257023
-0.799845
0.876945
0.429273
-1.25423
-1.02387
-0.870854
-0.69214
1.07239
-1.60989
1.14459
1.25648
1.24375
0.731459
1.24683
-0.789115
-0.653693
0.928362
0.174623
1.05244
-0.739176
-0.996114
-1.37693
0.798575
-1.06662
-1.62227
-0.743085
-0.778632
0.127442
-1.08719
0.815452
0.784629
-0.50363
-0.907233
0.741426
0.0235173
1.21696
-1.63243
-0.0869273
-1.06729
0.840608
-0.561154
1.19512
1.46968
-1.33233
-0.784575
-0.96258
0.38855
-1.05043
1.05056
-0.929376
1.00325
0.835168
-1.12
0.944865
0.906693
-1.40938
0.903901
-1.01439
-0.739369
-1.07084
-1.0313
-0.934978
-0.989044
-0.615674
1.05369
0.301979
-0.773635
0.571011
1.20202
1.24127
-0.439222
0.758017
-1.20685
0.770051
-0.345583
-1.08099
-0.751693
0.580454
0.892137
1.1391
-1.51212
-1.08393
-1.47312
-1.07436
-0.176395
0.722188
-1.77609
-0.112622
-1.09149
1.02245
-1.07349
1.01991
-1.11121
-0.727965
0.988674
0.65762
-1.11203
-0.0837071
1.02897
1.32743
1.07649
-0.696749
-0.856495
0.798605
-1.09148
0.78558
-0.430866
0.529641
1.02668
-0.987504
-0.723405
1.09819
-1.20235
1.31922
-0.0726242
0.87718
-0.389176
0.611042
-0.998991
1.28236
-0.731021
-0.96556
1.04321
0.605709
0.581245
-1.11081
-0.727738
-0.960665
0.851727
-0.631286
-0.743751
-0.471252
1.07256
0.480126
-0.799055
0.826509
0.975169
1.04765
-1.68699
-0.650673
-0.74793
1.06829
1.2554
0.465741
1.064
-0.788365
1.0793
-0.446261
-0.92174
-0.669413
0.959068
1.01235
-1.35496
0.933974
-0.729165
0.887286
-0.827408
1.08313
0.969089
1.07381
-1.73173
1.0035
-0.876989
-0.579738
1.2152
-1.37267
-0.972657
1.19032
-1.26705
1.18699
-1.25923
-0.738424
1.12658
0.77665
1.40078
1.05363
-0.904625
1.10106
1.16204
-1.41148
0.721374
-0.636414
-1.02016
1.54882
-1.06375
1.21377
-0.76882
0.266055
1.0541
-1.13374
1.0531
-1.39557
1.00781
0.988438
1.06543
-0.258477
-0.97519
-0.698601
0.56821
0.668564
1.09494
-0.396391
0.912636
-1.53752
-0.266015
-1.16212
0.835573
1.16892
-0.638811
-1.109
-0.419466
1.30259
-0.701571
0.8199
-0.779492
-1.21179
-1.05196
-0.74836
-0.535999
0.879792
-1.32954
-0.329463
-0.216904
-0.656832
-0.759536
-1.16888
-0.417073
1.0345
1.07485
-1.10735
-0.511003
1.04634
0.97318
1.07355
-1.07276
1.04535
1.08925
1.04576
1.07572
-1.39233
-0.354541
-0.722449
0.705541
1.05188
0.697858
0.10943
-0.366491
-1.52889
-0.193004
1.29269
-0.373016
-0.578346
-0.78599
-0.27351
-1.03139
0.870997
-1.09064
-1.28998
-1.0658
1.0614
1.05506
1.07121
-0.17945
0.438991
1.26561
-0.18675
1.04828
-0.402046
-0.170292
0.8472
1.07571
1.1754
-0.17958
1.04228
1.0394
-0.89404
-0.26268
1.07143
1.08252
1.0776
-1.06693
-1.11504
1.07691
0.595142
1.05594
0.302702
-0.0266185
-0.263786
-1.50269
-0.475129
-0.724703
-1.3952
-1.32128
1.08391
1.08865
0.833887
-1.08185
1.06147
-0.0628284
-0.28193
-0.10528
1.0509
1.08025
1.07776
1.09278
1.07097
1.06503
1.05692
-0.544054
-0.320113
-0.149859
-0.205871
0.0551908
0.0397975
-0.0729756
0.0201215
0.015082
-0.160311
-0.307491
1.04475
1.06714
1.06145
1.08577
1.08451
1.07742
1.08194
1.05574
1.06896
0.0860562
-0.257946
1.07901
1.07676
-0.016944
1.07879
1.0785
-0.182655
-0.539141
-0.330319
-0.815156
-1.22673
1.06172
-1.06378
1.05661
0.62979
1.09837
-1.06406
1.05517
1.01248
0.993471
-0.72209
-1.15399
-1.03803
-0.216478
0.056566
-0.724813
1.07644
-0.313204
1.14932
1.0659
-0.0754077
1.26333
1.40843
-0.419071
0.954682
0.655091
1.05932
1.07691
1.06565
-1.06229
0.57513
-0.130331
1.06425
1.07123
-0.998043
-0.293922
1.06648
-0.0180614
-0.23009
1.06488
-1.00714
1.05073
1.07823
-1.05852
1.068
-0.95379
1.05958
1.15253
-1.43352
1.07231
1.08053
-0.0827649
0.777495
1.059
1.06796
0.262082
-0.638356
0.710505
1.39085
1.07454
1.06146
1.0685
-0.58774
1.06267
1.04412
1.07095
1.06394
1.06698
1.06051
1.17745
-0.216221
-1.80412
1.06374
1.06061
0.388522
-1.00139
-1.19953
-0.335765
0.951112
-1.43517
-0.641497
-0.0646421
1.06082
0.724985
0.123881
-0.733797
-0.352912
-0.400612
-0.641086
-0.859633
-1.07107
-0.795325
-0.231964
1.06723
-0.426829
1.05508
0.994312
-1.06281
1.33219
-0.15116
-0.717202
0.767298
1.22451
0.550459
-1.07112
1.06368
-1.00431
1.06622
-0.694249
1.06583
-1.26634
1.05887
-0.969427
-1.13753
1.0687
1.08265
1.02822
-0.898323
-1.07293
-0.535711
-0.687287
1.07811
0.979898
-0.772924
1.06122
1.10257
1.05658
-0.816843
-1.32447
-0.766107
-1.42537
0.296199
1.06783
-0.0299142
1.06109
-1.17899
1.06184
1.10042
1.06953
-0.016481
0.0115792
1.09442
-1.08419
1.07132
1.0759
-0.0394988
-1.03452
1.03853
1.22571
1.0563
1.05755
-0.736661
-1.09028
1.0231
0.387495
1.07054
0.848529
-0.841569
-1.04656
0.930037
1.29414
1.06376
0.314516
-0.313025
-0.876397
-1.51071
-0.975455
1.0384
-1.04586
1.05186
-0.984346
-1.06445
-0.790988
0.561176
-1.11553
-0.00511823
-1.54967
1.05786
-1.0681
1.01069
-1.06026
-0.231928
-1.09299
-0.066834
-1.48156
1.04013
-0.691677
-0.988171
-1.44105
-0.696385
1.04321
-1.39063
0.0658732
-1.30083
1.17213
-0.128328
-1.06097
1.13091
1.04119
1.02923
0.465912
-1.0296
1.06904
1.09904
-0.712769
-0.765865
1.05677
0.796193
1.33849
1.08022
-1.39937
-1.60277
-0.766116
-1.10183
-0.864356
-1.06816
-0.327376
-1.15956
0.800987
-0.0722067
1.06429
1.28931
1.05976
-1.07341
-1.13591
1.05986
-1.72373
-1.64078
1.03125
-0.367921
-0.834145
-1.24781
-0.288227
1.02542
0.998857
-0.623156
0.860441
0.783491
-1.41348
1.03697
-1.37108
0.903325
-0.7086
1.0112
-1.51205
0.400907
1.06032
1.19076
-1.24668
-1.21969
0.918612
1.43699
1.08141
1.11774
-1.46682
1.2771
-1.05813
-1.51905
-0.923559
0.450406
-1.32416
1.17483
1.19022
-1.05718
-0.802267
1.05996
-0.62061
0.862778
1.09126
1.04373
-1.18614
1.06204
0.049955
1.08585
0.042439
-1.02953
-0.0237603
1.06455
-0.269316
-0.35335
-0.156068
1.04128
-1.07507
1.28209
0.229446
1.41049
1.08834
-0.600839
1.03214
-0.747183
1.04622
1.04192
-1.25178
-0.865097
1.22061
1.05484
1.31673
1.02765
0.0392983
1.03442
1.03904
0.958899
1.07005
-1.10316
-0.812349
-1.55686
1.14416
-1.11687
-1.74735
-0.73398
-1.04062
-0.406508
-0.541948
0.97394
-0.542434
1.00172
1.05259
-0.770382
-1.23968
-0.64557
-1.3253
-0.647889
-0.747339
1.07014
-1.4837
1.07915
1.27274
1.11674
-0.0611207
1.0859
1.00952
-1.31406
1.00333
1.0516
-0.85306
1.04995
1.04708
-0.0813967
-0.740453
1.51578
-1.46738
-0.989171
-1.0569
0.20226
1.02971
-0.940887
-0.337377
-0.723377
1.20865
-1.76604
0.962989
1.08347
1.03324
-1.23541
1.01056
-1.42863
1.07648
1.09064
-0.297526
1.07955
0.62187
1.03894
0.711176
-1.22572
-0.00333115
-0.148325
-0.248486
1.32442
-0.0283989
1.10112
1.47172
-0.556787
-0.0690648
1.12419
-0.102714
1.12099
0.013003
0.0188238
1.12528
1.12989
0.402738
-1.36416
0.87625
-0.63974
-0.755325
-0.564452
1.08732
1.04358
1.47022
-1.07116
-1.76171
0.739819
-1.03255
1.15107
1.08694
1.03366
1.05713
1.00649
-1.45853
-1.06578
-1.17405
0.916364
1.00412
-1.39779
-0.75629
-1.06319
1.0744
1.0833
-0.939275
-1.19344
1.10075
-1.59139
0.353179
0.888365
1.03212
-0.338544
-1.07385
-0.080594
-0.971472
-0.720266
-1.73707
-1.52701
1.41487
1.4539
-0.824692
-0.932178
1.07532
1.0513
-0.844366
-0.122157
-0.428016
0.772199
1.16576
-1.44518
1.07111
-1.57741
-1.07618
-0.644611
-0.949577
-0.814176
1.03017
-0.958077
-1.5395
1.44463
-0.97938
1.07177
1.31719
-0.759589
1.06637
1.28665
-0.798255
1.34068
-0.999127
-1.10502
1.11552
-0.646957
1.03404
1.07212
-1.01438
1.10728
0.108505
-1.52531
1.10977
1.05332
-1.00583
-1.21573
1.03036
1.06452
-1.04383
-1.34964
1.37857
-1.02683
0.996293
-0.946951
0.982172
-1.05362
-1.43855
-1.06094
-0.80537
1.19788
1.08041
1.32677
1.30606
1.08793
1.12837
1.17011
-1.06351
1.23659
1.1728
-0.779063
-1.03778
-0.866351
1.4171
-1.48472
-1.10441
-0.43387
1.04953
-0.786119
-0.83546
1.12927
1.04179
-1.05735
-0.760641
-1.08489
-0.183465
-1.35263
-0.791503
-1.0651
1.00475
0.906184
-0.74119
-0.317545
-0.968502
0.958252
-1.02837
-0.815147
-1.06658
0.961629
-1.45875
-0.766872
1.36947
0.935403
0.376631
1.22966
-0.945151
0.999471
1.08094
1.17313
1.24295
-0.247381
0.806298
1.1164
0.236128
-1.06733
1.49458
1.00332
0.936954
1.10831
-0.773186
-1.71112
0.879874
0.912709
1.01506
-1.53517
-1.34992
1.04487
-1.06358
0.84538
-0.256823
1.50184
-1.06837
0.858235
0.741646
-0.727151
-1.06948
-0.694489
1.08879
-0.730951
-1.06749
0.701555
0.746051
-1.05056
1.13906
0.854577
-0.735456
-0.83994
1.04211
-1.66847
-1.07032
-1.09569
-0.721974
-0.958316
1.06695
1.06115
-1.47924
0.615303
1.06638
1.4211
0.251679
0.431112
0.169265
0.899034
-0.52284
-0.725191
-1.5467
-0.423554
-0.723521
1.06662
-0.732387
0.324714
-1.07078
0.680876
0.56255
-0.723804
0.635275
-1.56448
0.485207
-0.724138
0.608887
-0.726339
0.37276
-1.07291
0.528123
-0.724848
0.828617
-1.44569
-0.728243
-0.736948
-1.06591
1.07928
0.0527291
-0.764011
-1.07935
0.195575
0.271775
-0.728183
-1.06531
-0.804579
-0.167422
-1.0928
0.0369075
-1.12621
-0.164357
-0.879965
-0.348171
0.982025
-0.293004
-1.49877
1.06214
0.08714
-0.576853
0.437313
1.02292
-0.919242
-1.4347
-1.07571
-1.16274
0.921093
1.4982
-0.793582
-0.222863
-0.0206798
-0.967983
-0.20874
-0.431325
1.05794
-0.839023
1.00172
-0.910142
1.56516
0.445097
1.46709
-0.754123
1.22391
-0.397048
1.03829
-1.02559
-1.0741
1.10159
1.04859
-1.17357
-1.06906
-0.730492
1.06898
-0.591657
1.05536
-0.729258
-1.08311
-1.05914
1.3781
1.12352
1.1405
1.10041
1.07648
-0.195402
-0.640204
1.30504
-1.80751
-0.928338
1.50045
-0.754974
0.997442
0.984688
1.43528
1.48121
-0.740573
-1.44157
1.09341
0.197399
-0.529107
-0.693667
-0.562262
-1.39912
-0.762961
0.55172
-1.03198
1.23533
-1.09084
1.15016
1.222
1.12806
-0.821304
-1.05526
-0.989622
1.14881
-0.936204
1.2752
-0.586644
-0.931847
1.3353
1.34608
-1.07115
0.234596
0.995231
-1.05967
-0.885844
0.665846
1.36901
1.27001
-0.797824
0.970121
0.959273
-1.06691
1.28054
0.424191
-0.747517
-1.45468
-0.333633
-0.149704
1.21588
-0.893717
0.402392
-0.829246
-0.62739
-0.859922
-1.07092
1.06814
-1.05978
1.11147
0.0517194
0.0473327
0.697906
0.226518
-1.06403
-0.472508
-1.29738
-0.388962
-0.614205
-0.81232
1.04512
-1.55353
-1.80864
1.10529
-1.06117
-0.779382
1.07561
-1.09454
1.07941
-0.304133
-1.06477
-0.414738
0.802907
-0.957555
-1.59582
0.909324
-1.07256
1.12654
-0.660184
-0.949975
-0.946048
-1.07149
1.53865
-1.31508
1.16252
-0.809971
1.01423
1.2625
0.728403
1.06785
1.26063
0.00736845
-1.25957
1.019
1.12498
1.40919
-0.96834
1.12594
0.793826
-0.990225
0.794557
1.24261
-0.442792
1.4358
0.28229
-0.831289
0.842982
-1.00668
-0.731545
0.987836
-0.333477
1.11379
1.07893
1.05053
-0.821751
1.01056
1.35921
-0.846539
-0.187748
-1.37048
-1.05966
-0.956877
-1.06864
1.3937
0.751436
-0.803497
0.923234
-1.02111
-0.90929
1.3078
1.32421
-0.984916
-1.17123
-1.07236
-1.06836
1.0153
-0.795627
0.0290064
-0.701661
-0.296528
1.12337
-1.04165
1.47835
1.12182
0.901109
1.1048
1.39775
-0.963845
-1.03384
1.05446
1.17865
-0.847464
1.06093
-1.33909
-1.06231
-1.0478
1.18868
1.21697
-1.05945
-0.79199
0.541225
-0.138218
-0.642583
1.05872
1.07102
-1.09034
1.10944
1.15036
-1.30221
-0.782868
-0.812027
-1.06477
-1.05341
1.35321
-1.43794
1.02626
-0.789552
1.34798
0.969121
0.979606
1.04663
-1.58943
-0.854627
-1.06634
0.652003
-0.763839
0.932071
0.265038
-0.411308
0.969992
1.02317
1.10405
1.08555
-0.0455829
1.10022
0.0613771
0.395245
0.903285
-0.434164
-0.776326
-0.819174
-0.567964
1.07386
0.983498
1.07308
-1.634
-0.901816
-1.06721
-0.674402
1.07488
1.37933
1.08779
-0.770219
-0.869486
-0.997901
-0.419251
-1.07058
-1.07316
-0.0783883
1.07169
-0.839498
-0.737856
-0.519869
-0.150706
0.836582
-1.58122
-1.06888
-1.15163
1.03872
1.49282
-0.494142
1.15675
1.55743
0.777805
1.29232
-0.781327
-0.870735
1.44066
-1.06926
0.281905
-0.757352
-1.05284
-0.728166
-0.728426
1.01367
0.730913
1.29094
1.25438
-0.0380464
0.781597
0.173902
-0.295881
-1.06982
1.16942
0.838159
1.08209
1.09887
0.0197912
-0.126981
1.09142
-1.0939
-1.07385
-0.732407
-0.738108
0.584455
-0.724955
1.01331
0.663995
-1.06809
1.26523
-0.772376
-0.202195
1.03839
-0.872429
-0.942922
-1.75676
0.715592
-0.743934
-0.697672
1.02194
1.09033
-0.499999
-0.0175385
-1.73051
-1.07048
-1.67621
-0.788169
-0.274533
0.591216
-0.981966
-0.723825
1.35745
0.383038
0.482588
-0.723514
-1.05142
1.06331
1.06573
0.646828
0.522077
-0.723625
-0.954931
-0.892255
0.571841
0.424964
-0.724381
0.933902
0.267864
-0.724814
1.52694
-0.729998
-1.73097
-1.05365
-0.675289
0.849152
-0.746249
-0.79798
-1.08291
-0.0399266
-0.780909
0.125767
-0.824947
-0.209405
1.2709
-0.835327
-0.234541
-1.10941
-0.0505166
1.43051
1.44133
1.32582
1.0706
1.3037
-0.59479
1.05959
-0.775391
1.06322
-1.0768
-1.07674
1.29837
-1.13469
0.464041
-0.830481
1.45163
0.0837839
1.38496
0.713719
0.874853
-0.750631
-0.763696
-1.0746
-0.662399
1.37243
1.28504
1.06036
0.627302
1.0575
0.875414
0.921261
-0.722669
-1.07034
0.378683
-0.133764
0.896908
1.07531
-0.0803841
-0.756082
-0.722395
-1.40282
-1.07458
-1.20288
1.38393
1.09329
1.06987
0.0256128
-0.102096
1.08785
-0.660368
-1.07021
-1.66666
-0.986743
0.885953
-0.739734
-0.722792
-0.384491
1.0835
-1.53904
-1.05515
1.05809
0.600183
0.726942
1.06058
-1.07189
0.970927
1.2293
0.843963
-1.07167
1.04775
0.329896
0.570956
-0.923512
-0.730576
1.51769
0.210988
-0.697229
-0.0380407
1.00607
1.05863
-0.946248
-1.16707
-0.24337
-0.591789
-1.00459
-0.801991
-0.666884
1.05691
-0.812902
1.06892
1.32247
1.11472
1.07683
1.17959
1.23757
1.06348
-1.09701
-0.753104
-0.292813
-1.15274
-1.0046
-0.724351
1.23426
1.14621
-1.02157
0.997391
-0.848492
-1.3224
-0.728102
-0.252981
0.525365
-1.27306
1.05544
1.00522
-0.703682
-0.476476
1.40202
-1.529
-1.85831
-1.16862
-0.806879
-0.699742
1.09501
0.874108
1.12539
-1.05469
-0.659221
-1.03932
-0.241056
-1.01552
-1.32573
-0.911269
-1.64099
1.00965
-0.882152
1.50082
-0.967322
-0.683476
-1.10414
-0.723614
0.959589
-1.1197
-1.01269
-1.06279
-0.438085
1.28682
1.25917
-1.67789
-0.815471
0.922463
-1.0917
-1.01356
1.14005
-0.75214
-1.1844
-0.60139
0.851936
-0.53202
-1.00761
1.05747
0.155825
-0.664075
1.07475
-0.856942
-1.02854
-0.833268
-0.798484
-0.167584
-1.00587
1.40264
-1.06731
0.110466
-1.07654
0.892371
-0.625735
-0.904037
0.753005
0.769555
1.11378
1.00557
1.26285
-0.740265
0.868155
0.538811
-0.887746
1.02196
-0.258927
-0.61666
-1.65332
1.21532
1.20243
-0.594456
-0.883017
-1.01165
1.10993
-0.852296
0.209696
-1.32083
-0.728705
1.368
1.10784
-0.757565
-0.817127
-0.761069
-0.744769
0.98484
-0.779784
1.07528
0.344843
0.810772
0.934405
-0.7131
-0.878202
1.03698
-0.725687
-0.493098
1.34144
-1.06475
-0.744084
0.919601
-0.869292
-0.80584
-0.284178
-0.953479
1.41128
-0.748423
0.0863738
-0.760781
1.34151
-0.769514
-0.821734
0.748354
-1.26608
-1.07656
1.38703
0.77736
1.02456
-0.80398
1.32195
-0.200904
-0.945987
-0.796401
-0.795665
-0.772793
1.35295
0.682635
-1.05358
-0.767287
-0.992766
1.21277
-0.836583
1.31607
-1.07576
0.815717
-0.733711
0.483563
0.646668
0.613192
0.534248
0.144013
-0.8288
1.10266
-0.792601
-0.569811
-1.19897
0.238118
1.35954
-0.410938
-0.809214
-0.77628
-0.736708
0.379756
-0.963855
-0.731162
0.849525
0.140824
-0.751517
1.42921
-1.00015
-1.08969
1.41317
-0.741746
0.268308
-0.842255
-0.725789
-0.728334
1.40225
-0.721982
1.32497
-0.726699
-0.861975
1.25921
-0.339294
-0.829165
0.672962
-0.958796
0.137185
-0.522193
-0.733624
0.817876
-1.10454
-0.735657
-0.725712
-0.727713
-1.08061
0.859524
-0.0321198
-0.572671
-0.754322
1.35572
-0.974051
-0.809932
-0.711912
-0.235997
-0.852238
-0.717327
-0.748065
-0.199732
1.33617
-0.774507
-1.06914
-0.830892
-0.863631
-0.111793
-1.08573
1.4456
1.38116
0.525705
-0.890812
-1.07792
0.442792
-1.07501
1.46129
0.325232
1.09418
0.802819
1.3216
0.210073
-0.86334
-0.91611
0.0600666
-0.790657
0.060707
-0.178303
-0.728799
1.354
-0.406945
0.336183
-0.528834
-1.05721
-0.889161
)
;

boundaryField
{
    frontback
    {
        type            empty;
    }
    Top
    {
        type            zeroGradient;
    }
    outlet
    {
        type            fixedValue;
        value           uniform 0;
    }
    bottom
    {
        type            zeroGradient;
    }
    Inlet
    {
        type            zeroGradient;
    }
    rectangle
    {
        type            zeroGradient;
    }
}


// ************************************************************************* //
