/*--------------------------------*- C++ -*----------------------------------*\
| =========                 |                                                 |
| \\      /  F ield         | OpenFOAM: The Open Source CFD Toolbox           |
|  \\    /   O peration     | Version:  2306                                  |
|   \\  /    A nd           | Website:  www.openfoam.com                      |
|    \\/     M anipulation  |                                                 |
\*---------------------------------------------------------------------------*/
FoamFile
{
    version     2.0;
    format      ascii;
    arch        "LSB;label=32;scalar=64";
    class       surfaceScalarField;
    location    "32";
    object      phi;
}
// * * * * * * * * * * * * * * * * * * * * * * * * * * * * * * * * * * * * * //

dimensions      [0 3 -1 0 0 0 0];

oriented        oriented;

internalField   nonuniform List<scalar> 
3181
(
-1.04628
0.40613
0.640153
-0.396912
0.372902
0.0240096
0.53216
-0.36575
-0.16641
0.124208
-0.205174
0.0809657
-0.0101083
0.0243364
-0.0142281
0.916694
0.691927
-1.60862
0.152091
-0.145605
-0.00648531
0.0413681
0.00601105
-0.0473791
0.587014
-0.783984
0.19697
-0.0750507
0.139939
-0.0648888
-0.0102634
-0.0501439
0.0604073
0.131897
0.0472967
-0.179194
-0.0173875
-0.0288505
0.046238
-1.1032
0.150262
0.952941
-0.33246
0.711576
-0.379117
-1.12107
0.636161
0.484908
0.0852707
-0.931212
0.845941
-0.181687
0.182002
-0.00031495
-0.396478
-0.573112
0.0144232
0.0252063
-0.0396295
0.0330065
-0.0835481
0.0505416
-0.0585214
0.0572766
0.00124487
1.06987
-1.04363
-0.0262414
0.0324226
0.0330693
-0.0654918
-0.958314
0.326141
0.632174
-0.109781
0.233988
0.309126
-0.242395
-0.0667313
0.0303945
0.0639482
-0.0943427
-0.405936
0.334192
0.0717434
-0.0333354
-0.0244853
0.0237562
0.000729076
-0.0355942
-0.92272
0.00597715
-0.0432009
0.0372238
0.109813
1.28873
-1.39854
-0.0495635
0.0513244
-0.00176084
0.177547
0.272063
-0.44961
1.4833
-1.37349
0.0702732
-0.0372667
1.50261
-0.795404
-0.707204
-0.534776
1.45147
-0.0685619
0.0511743
-0.0518007
-0.00672075
-0.417977
0.0855176
-0.119888
0.0680876
-0.628469
0.128699
0.49977
-0.151772
0.0767211
-0.172491
0.176898
-0.00440671
-0.275533
-0.0781649
0.353698
0.345935
1.10017
-1.4461
0.0254087
0.133796
-0.159205
-0.0100621
-0.098208
0.104155
-0.00594672
0.521462
0.190114
-0.0960838
0.137566
-0.0414825
0.094682
-0.0887048
-0.174506
0.201414
-0.0269083
0.166646
0.0585104
-0.225156
0.111657
-0.117723
0.00606624
1.20704
0.295572
-0.856479
-0.189805
-0.0742753
-1.76754
1.84181
0.546198
0.22862
-0.774818
-0.441122
-0.202953
0.644075
-1.58518
1.0504
-0.268331
0.814529
-0.328808
-0.104598
0.433406
-0.204927
-0.201009
-0.192761
0.16543
0.0273313
0.129369
0.286342
-0.415711
-0.229045
0.816059
-0.0227069
0.064075
-2.22404
2.14976
0.191694
0.117432
-0.18233
-0.112271
0.294601
-0.269982
0.353156
-0.0831735
-0.0831754
0.0914462
-0.00827082
-1.8781
-0.919466
0.00929626
0.91017
-0.0475353
-0.00202824
-1.06317
0.777634
0.285535
0.370731
-0.171056
-0.199675
-1.55501
-0.0301741
1.1021
-0.951834
-0.709453
1.15409
-0.201149
1.0665
0.164382
-0.175113
0.0107305
1.04133
-0.3494
1.40819
-1.40819
-0.00760073
-0.00195441
0.00955514
-0.216313
-0.0535873
0.2699
0.0217052
-0.0300028
0.00829758
-0.454392
0.840206
-0.385815
-0.0151351
-0.241424
0.25656
-1.08761
0.0439887
0.34207
0.0555102
-0.39758
0.135248
-0.854374
1.08299
0.0153562
0.0799703
-0.0953265
-0.0176753
-0.15683
-0.361793
0.00582405
0.355969
-0.110919
-0.250875
0.117836
-0.97221
0.330991
-0.785383
0.925852
-0.840581
0.0471792
0.0490281
-0.0962073
0.0811461
0.0512783
-0.132424
-1.37387
-0.122062
1.49593
-0.249913
0.415626
-0.165713
-1.12988
0.60407
0.525814
-0.463806
-0.599363
0.0699441
-0.0445354
-0.156334
0.150589
0.00574528
-0.0770469
-0.0122418
0.0892887
-0.570384
-0.2136
-0.0363294
0.0204891
0.0158403
-1.38392
-0.304263
1.68818
1.68074
-0.580567
-0.0195483
0.0119475
0.0421098
0.149584
-0.198026
0.375573
-0.00539448
0.176915
-0.17152
0.136493
0.0673161
-0.203809
0.127984
0.114857
-0.242841
-0.595579
-0.52549
-1.30475
-0.0791692
-0.0308154
0.0461716
-0.108284
0.187132
-0.0788483
-0.0537033
0.0253416
0.126749
-0.0575327
0.0724344
-0.0149017
-0.09759
-0.0223947
0.119985
0.0766989
-0.0766989
-0.188298
0.21364
0.259813
0.128401
0.106823
0.0945914
-1.28151
1.05246
-1.53855
0.106004
1.43255
0.0357953
-0.0317381
-0.0040572
-0.0261984
-0.0503714
0.0765698
0.543403
-0.0201793
-0.523223
-0.0345249
0.0348338
-0.000308825
-0.203677
0.0153792
0.162051
0.678155
-0.368931
0.530982
-0.13455
-1.23932
-0.0588932
0.0487849
0.492688
-0.30853
-0.184159
0.019772
-0.0161641
-0.00360787
0.0489123
-0.324445
0.0239187
-0.943384
0.0499478
-0.158231
-0.29211
-0.406973
0.0682984
1.36946
-0.92144
-0.448017
1.06794
0.301522
0.0678775
0.28582
0.0329642
0.00283113
-0.000888699
0.115522
-0.114633
-0.254956
-0.583295
0.838251
-0.362183
0.64485
0.0281553
-0.601268
0.16432
0.0332013
-0.0381555
0.00495422
-2.19167
0.274822
1.91685
-0.213494
-1.97817
-0.30339
0.64546
-0.907293
-0.0180417
0.00454618
-0.26409
0.259544
1.43315
-1.5512
0.118049
-0.0373727
-0.0215205
0.56754
-0.822496
0.144553
-0.310184
0.16563
-0.29278
-0.11653
0.40931
0.197521
-1.01116
-0.0764538
0.0120478
-0.0516773
-0.550545
0.347592
-0.243592
0.0184076
0.225185
0.0266155
-0.0639881
0.00487977
-0.00487977
-0.11753
0.128806
-0.0112752
-0.285694
-1.25286
0.0304466
0.0240413
-0.0544879
-0.0438106
-0.015314
0.0591246
-0.21961
0.0268495
1.41602
-0.428433
-0.987591
-0.195598
0.454037
-0.258439
0.0176643
-0.0173042
-0.000360056
-0.421816
-0.708068
-0.183471
-0.00463452
0.188106
-0.176482
0.305851
-0.0997785
0.0981147
0.00166378
0.0755118
0.0116259
-0.0871377
-0.103174
0.105923
-0.00274921
-0.982261
1.01255
-0.0302928
-0.223307
-0.0518192
0.275127
-0.697436
0.662652
0.0347838
-0.00790935
0.0409786
-0.00242061
0.00315446
-0.000733853
-0.0205766
-0.0449153
1.14504
0.535693
0.174546
-0.883402
0.708856
0.0417355
1.99629
-2.03803
0.38809
0.562179
0.846015
0.0605194
0.201551
-0.065058
-0.0700354
-0.0281727
0.241013
0.154754
-0.0736079
0.737258
-0.411118
0.0615605
0.20834
0.0474684
-0.162473
0.115004
-0.782561
-0.136306
0.918866
-0.012663
0.012663
0.0039783
-0.264881
0.536944
0.0125491
-0.235857
0.134762
0.0472395
0.00071747
-0.0315329
0.133741
-0.144004
-0.346658
0.331523
0.0207409
0.0728008
-0.0935417
0.391973
-0.344676
0.420681
-0.543749
0.123068
-0.210122
0.278
0.188898
-0.497428
-0.207807
0.613937
0.168383
-0.0345292
0.0345292
-0.0411647
0.257149
-0.215984
0.389279
0.0263468
-0.03205
0.035838
-0.00378802
-0.0792344
-0.00928956
-0.0270398
-0.0488027
0.182543
-0.178078
0.238536
-0.060458
0.126949
0.0278051
-0.393411
0.151016
0.188105
-0.0611559
-0.0451388
-0.0546396
-0.0475599
0.0536717
-0.0061118
0.1507
-0.106812
-0.0438884
-0.0132971
0.39168
-0.378383
-0.0804634
0.0577565
0.102561
-0.10681
0.00424894
0.0234737
0.184207
0.236474
-0.0669184
0.000992996
0.0659254
-0.0574438
0.0296445
0.0277992
-0.0897254
0.0981529
-0.720485
0.622332
-0.0381153
-1.49281
-0.38511
1.87792
0.24981
1.45961
-1.70943
0.0847483
-0.187496
0.302353
0.27449
0.249228
-0.523718
-0.205971
0.25344
0.145213
-0.891027
0.745814
0.00688556
-0.0643293
-0.00657627
0.0186241
-0.992743
0.44559
0.547153
0.92144
-0.803604
-1.66401
1.54195
-1.43315
1.53915
0.0405145
-0.0819969
0.00222217
-0.00464278
0.016515
0.806901
-0.661688
0.124644
-0.0746963
0.416294
0.737797
-0.0465416
-1.71438
1.75611
-0.691529
-0.589977
-0.239769
-0.388699
-0.029289
-0.168595
0.217507
-0.57645
-0.37937
0.183772
0.783731
-0.240329
-0.876844
-0.787166
0.742086
0.105163
-0.098277
0.288324
0.0391576
-0.0391576
0.671173
0.148079
-0.819252
-0.224625
0.895797
0.787117
-1.19579
0.408673
0.139779
-0.0113772
0.00655073
0.00670003
-0.0132508
-1.76754
-1.04893
0.468359
1.02499
0.391035
-0.035344
-0.137147
-0.2475
0.768962
-0.195212
-0.0483805
-0.00312549
-0.0800499
-0.0520903
0.103369
0.374164
-0.245465
-0.826079
-0.283279
-0.0886029
-0.0150072
0.10361
-1.17794
1.74011
-0.130519
0.0766317
0.0538868
0.0411115
-0.00814729
-0.0436002
0.00652343
0.0370768
0.00983922
0.423567
0.017856
0.00191598
-0.00351132
-0.00262746
0.00613878
-0.0161977
-0.167274
-0.720018
0.368566
0.351452
1.10265
-1.69106
0.588408
0.136479
-0.157382
0.0209036
0.000591386
0.0693527
0.0388372
-1.44703
-0.055179
0.0115788
-0.0495003
0.00496494
0.142631
-0.340656
-1.48529
1.0603
0.424983
0.0256835
0.0946881
0.0560121
-0.782561
-0.218558
-0.763703
0.0682177
-0.0616942
0.0433239
-0.638863
-0.058573
0.0603372
0.127768
0.590738
0.0464284
-0.462139
0.124986
0.344261
-0.288751
-0.119931
0.0223413
0.223286
0.835217
-1.0585
0.103725
-0.717601
0.613876
-0.951823
0.815518
-1.75065
0.0901251
1.66053
-0.0174065
0.0179914
-0.000584854
0.166747
-0.459527
0.206569
-0.121102
-0.0854673
0.0523223
-0.0226778
-0.0635391
-0.0250639
-0.00778318
0.0158431
-0.0364196
0.0209497
0.0750756
-0.0960253
1.03693
0.00329159
-0.00359834
0.000306748
0.0739937
-0.0162373
0.859448
0.0105244
-0.0320449
-0.483886
-0.56504
0.08822
0.0515587
0.00783186
0.0868562
-1.66053
1.44703
0.126226
-0.196381
0.0701552
-0.249527
0.0744145
0.119264
-0.108533
-0.00150289
0.0929491
-0.0285139
-0.88452
-0.600767
-0.0407178
0.0616675
0.739597
-0.254689
-0.114185
0.070374
0.340685
0.00194288
-0.0339928
-0.00795357
0.0846525
0.147363
0.205793
0.155414
-0.327883
0.172468
0.110665
0.56749
-0.0426172
-0.109155
0.931984
-0.253195
-0.678789
-1.75065
-0.160652
1.2633
1.4833
-0.137221
0.301533
-0.164311
0.365161
-0.0765879
-0.288573
-0.269158
-1.28585
-0.0709442
0.0716416
-0.000697366
-0.0887399
-0.102489
0.191229
0.444397
-0.985646
0.541249
0.0408683
0.658212
-0.69908
-0.0450448
-0.111289
-0.0152331
-0.0516854
0.32963
-0.370794
-0.0160093
-0.00139719
0.125498
-0.0236707
-0.101827
0.0926962
-0.0935849
0.00708008
0.0340314
-0.0704912
0.119519
0.00310322
5.12353e-05
0.194372
-0.435796
-0.169732
1.62935
0.0119024
0.000760545
-0.993233
-0.0179282
0.0519828
-0.0738707
-0.0460606
-0.0390896
0.183643
0.730845
-0.725373
-0.00547194
0.0862259
0.00199401
-0.936698
-0.0151357
-0.0174146
-0.648522
0.746675
-0.018174
0.186557
-0.46304
-0.73275
0.183581
-0.447556
0.263975
-0.00138518
0.1783
0.00977987
-0.0102279
0.000448072
-0.0515679
-0.0516058
-0.0214138
-0.135417
0.746747
-0.643022
-0.0795624
0.0556146
-0.0378224
0.308505
-0.153091
0.011593
1.20477
-0.208825
-0.995949
-0.119045
0.137452
-0.504335
-0.215683
-0.560036
0.615785
-0.599094
-0.0166909
-0.063807
-0.0157554
-1.71438
0.542222
-0.542222
-1.71639
1.71639
0.806901
-0.297063
-0.0176826
0.314745
-0.899844
-0.0933891
0.625612
-0.364041
-0.261571
0.166394
-0.245243
-0.0134196
-0.0061287
-0.890631
-0.0815792
-0.932948
0.212464
0.0316219
-0.0466291
0.697045
-0.110768
-0.586278
1.11348
0.369824
-0.00125771
0.0110376
-0.96294
0.121304
-0.665053
-0.0835616
-0.600019
0.683581
-0.0170727
-0.859478
-0.691722
0.217503
-0.813082
-0.918866
1.356
-0.437138
-0.140931
0.283274
-0.142342
-0.0244665
0.721512
-0.105349
-0.994219
0.994219
-1.48616
1.12166
0.364499
-0.000667475
0.00395907
0.0301024
-0.434963
0.821327
-0.0436933
-0.0836668
-0.0360321
0.0678819
0.00843025
0.00923405
2.1479
-2.05778
-0.330284
0.405796
-0.634977
1.00755
-0.372575
-0.0459766
-0.00920241
0.122262
-0.0549455
0.361786
0.00712025
-0.0359708
0.353453
0.0382262
0.0423181
-0.244978
0.20266
0.142012
0.034886
0.0960632
0.178797
1.98005
0.169707
0.515461
0.292301
-0.807762
-1.32987
1.60469
0.223978
-0.15589
0.0772622
-0.767294
0.690032
0.218399
0.133181
-0.47984
-0.0747632
0.13589
-0.0611268
0.134839
-0.209602
-0.444797
-0.105748
-0.0704449
0.0734681
-0.00302314
0.0031787
-7.54707e-05
-0.0694541
-0.0192508
0.661688
-0.613876
-0.0478122
-0.29566
0.308209
0.876086
0.619696
-0.254536
-0.0121744
0.0362157
-0.152341
-0.157843
0.17438
-0.585689
0.411308
-0.00949087
-0.000737081
-0.212906
0.152639
0.0602668
0.00718446
-0.0129053
0.00572082
-0.0242957
0.0167252
0.00757047
-0.625289
0.275889
-0.166785
-1.32602
-0.195568
-0.803604
1.53915
1.54195
-0.195846
-0.176201
0.124382
-0.0621929
0.0677484
-0.00555552
0.0298639
0.89118
-0.921044
0.548081
0.0775308
0.000958333
-0.0104492
0.119537
-0.244444
0.0360321
-0.0453484
0.00463063
-0.454063
0.301722
-0.00855736
0.00927483
-0.23827
0.630243
1.06794
0.142133
-0.0627729
0.00142155
0.0613513
1.88318
-0.34123
-0.0621743
-0.0555486
-0.965234
0.16163
0.415474
-0.217952
-0.475044
-0.128797
0.60384
0.817303
-0.363514
-0.453789
0.230452
0.500394
-1.75611
-0.0114242
0.00653698
-0.00902332
0.00248634
0.106768
1.88953
-0.175293
0.181844
0.0143085
2.16863
-0.629476
-0.68015
0.0556978
0.624452
0.380579
-0.00332873
-0.346982
0.536231
0.814534
0.299478
0.0779161
-0.021904
-1.1866
-0.0955958
1.2822
1.13176
0.000725746
-0.00423707
-0.0499878
-0.356971
0.103201
-0.309172
0.949623
0.255151
-0.0711682
0.00736127
0.267799
-0.405021
-0.0245633
0.016654
0.11294
-0.150662
0.0377214
-0.303014
0.317183
-0.0141692
0.469376
-0.678201
-1.42815
0.804251
0.623895
0.0513872
-0.13389
0.0825027
0.26861
0.039895
-0.708227
0.489669
-0.65836
0.65836
1.84181
1.11348
-0.717601
0.329786
0.484747
-0.358709
0.142725
0.9136
-0.365518
0.00789058
-0.871186
0.863295
0.134998
0.00494197
0.0260084
-0.305444
-0.402783
0.0460225
-0.168878
-0.122436
0.291315
0.0911602
-0.518106
0.349228
-1.0811
-0.284205
-0.65047
-0.0174111
-0.00397171
0.000373375
-0.224682
0.0396654
0.0639447
0.034391
-0.143499
0.109108
-1.27263
-0.213529
-0.00585546
0.0698037
0.120295
0.342501
-0.462796
-0.572824
0.388665
-0.121011
0.193811
0.236482
0.00714007
-0.0137163
-0.777571
0.349138
0.0338163
0.0687448
-0.107311
0.0694882
0.198198
0.00837069
-0.423012
1.95568
0.454255
-0.013143
0.867293
-0.790031
0.78264
-0.441954
-0.607926
0.172962
0.15208
-0.791412
0.763619
0.027793
1.16188
-0.212259
-0.199595
-0.130689
-0.0166759
-0.0133269
0.952742
-0.838398
-0.114344
-0.180132
0.106524
0.0279587
0.12263
0.876288
-0.1906
-0.633313
0.823913
-0.327624
-0.0517461
0.750419
-0.630124
0.158059
1.33787
1.34725
-0.233773
0.170448
0.5539
-0.724347
-0.030751
0.0492092
0.00251988
0.00462019
-0.508477
-0.0994482
0.091652
-0.0650365
-0.18477
0.135968
-0.537871
0.279432
-0.991919
0.0121813
-0.287059
-0.517759
1.50015
-0.0676043
-0.28478
-0.0915271
-0.362535
0.0834179
0.296918
0.0565353
1.32554
-0.881141
-0.187406
0.12625
-0.389302
-0.0238165
0.413118
0.00500798
0.001529
0.0479707
-0.060729
-0.242285
-0.122422
0.697877
-0.418896
-0.278981
0.199864
0.136617
-0.0983316
-0.0382858
0.241184
0.0557341
-0.0134344
-1.69599
-0.0947099
0.138034
0.391685
-0.582285
-0.0271085
0.0549077
-0.0206838
0.020886
-0.000202242
0.00270265
-0.0344408
-0.24003
0.077557
-0.0111992
-0.562868
0.421936
0.0177269
0.0987245
-0.0473374
-0.694063
1.53515
-1.28
0.0156225
-0.190646
0.175023
-0.138898
-0.540552
0.67945
0.077564
-0.716427
-0.483939
-0.944207
-0.0328204
0.00132209
0.0314983
-0.251331
-0.615785
-0.166776
-0.144043
-1.1866
-0.228389
0.163331
-0.200725
-1.13481
-0.356131
0.24003
0.116101
0.266842
0.116373
0.446599
0.200345
-0.646944
0.0529232
0.0522393
0.949083
0.255484
-1.20457
-0.222678
0.41281
1.19188
-0.238937
0.178479
-0.58913
1.00194
0.289419
-0.283595
-0.0212718
0.0377868
-0.0193113
0.846584
-0.859727
0.729001
0.0883023
-1.34465
0.460128
0.241264
0.672336
0.924716
0.00726777
-0.0171112
-1.34725
-0.65047
-0.713199
0.722495
-0.00858609
-0.876844
0.658212
0.607848
-0.931787
0.705108
-0.00602588
-0.785386
-0.314375
0.637466
-0.774215
0.136749
0.0821666
0.0544509
-0.0743147
0.0328765
1.94028
-1.97316
-0.00367223
-0.000299486
-0.26052
0.21214
0.71503
0.225336
-0.209957
-0.184155
1.49454
-1.7988
0.328338
-0.0135932
0.220867
0.215833
-0.436699
-1.60863
1.51303
-0.114219
0.456721
0.0986375
1.31507
-1.2822
-0.00114112
0.213742
-0.0412194
0.0822333
-0.0302504
0.00556233
-0.0392368
0.0336745
-1.02244
-0.0360681
0.318363
-0.804933
-1.30325
1.35593
-0.0526801
0.371058
0.636493
-0.0507568
0.054349
-0.00359228
-0.272737
1.76728
-0.718517
1.69584
0.0441451
-1.34739
0.310675
-0.0969333
-0.585274
-0.406645
-0.933605
1.15447
-0.0588767
-0.877212
-1.84936
-0.188672
1.31507
0.0498183
-0.854751
0.830567
-0.645205
-0.185362
-0.9818
0.396526
0.0155103
0.116783
-0.000177997
-0.116605
-0.971595
0.564951
-0.218074
0.911928
-0.927064
0.189747
-0.205945
-0.0944687
0.237099
-0.246963
0.240837
-0.0446486
-1.45367
0.457726
1.30926
-1.00979
-0.553232
-0.518016
1.07125
0.446768
0.0174275
-0.0107275
-0.735148
0.69908
0.93937
-1.21211
-0.846015
0.641557
0.204458
1.54555
-0.189625
0.777599
-0.810934
-0.49326
-0.450125
-0.471411
-0.500184
0.803535
-0.803535
0.68533
-0.68533
-0.735148
-0.611383
0.611383
-0.641557
-0.73263
-1.07773
0.515729
-0.756226
0.756226
0.93937
-1.21211
0.777599
0.766946
-0.766946
0.810934
0.758866
-0.758866
0.50674
0.528589
0.481984
0.183144
-0.499816
-0.549875
1.07846
-1.10662
-1.71414
0.780539
-0.0630781
-0.0511411
-0.102966
-0.0080277
0.0185521
-0.886061
0.0953232
0.790738
-0.0822786
0.0529896
-0.996495
0.585377
0.927032
-0.597246
-0.125716
0.0139342
-0.0107923
-0.804418
-0.0789839
-0.547153
0.000953327
0.0176708
0.720134
-0.0804029
0.0187087
0.172903
-0.00410835
-0.00712162
0.01123
-0.810792
0.0671573
0.743634
-0.156298
-0.0906654
-0.532973
0.411461
0.121512
0.916595
-0.741401
-0.175195
0.0800098
0.295563
-0.0136433
-0.0568016
-0.0564748
-0.0144694
0.765061
-1.943
-0.838557
0.099109
-0.740489
0.796088
-0.0555987
0.122827
-0.899875
0.777049
-0.802697
0.905385
-0.102688
-0.0552529
0.0579555
0.0197932
-0.283883
0.438517
0.715954
-0.0958586
-0.790202
0.917041
-0.092717
-0.824324
0.0122654
-0.0582419
-0.219376
0.820737
-1.1701
0.456026
-0.378495
0.103383
-0.893585
1.37349
0.342902
-0.789763
0.00437697
1.01758
-0.894754
1.21052
0.304481
-0.0589078
-0.245573
-0.879022
-0.117473
-0.40886
0.0304772
-0.513757
0.508285
-0.784874
0.784874
-0.601856
-0.0866517
-0.863955
0.122555
-0.938015
0.854454
0.0743188
-0.19542
-0.058749
0.0611911
0.0112434
0.189521
0.828059
0.818733
0.77103
0.140365
-0.911395
-0.362357
0.311216
-0.781964
-0.10785
0.889814
0.173758
-0.892276
-0.674434
0.888021
-0.784639
-0.108331
0.459762
-0.0262604
-0.433501
-0.260081
0.993488
-0.733406
-0.0563924
-0.0587088
0.115101
-0.890294
-0.83057
0.0900806
0.521593
0.261047
-2.07121
0.586502
-0.573891
0.573891
-0.940429
-0.513246
-0.251708
-0.151075
-0.173545
0.977796
0.780171
-0.206113
0.161279
0.11461
-0.349843
-0.194434
0.544277
-0.406136
-1.28492
0.0157348
-0.0578765
-0.793893
0.0301901
0.189844
0.300017
-0.220007
0.780345
-0.883033
0.7183
-0.407084
-0.152201
0.737578
0.579376
-0.579376
-0.059895
0.0517477
0.108802
-0.0744108
0.432868
0.56062
0.180294
0.0032035
0.0077653
-0.0109688
-0.666937
0.694296
-0.0273589
0.250643
-0.309551
0.109949
-0.894588
-1.06233
1.3951
-0.332769
0.121899
0.875494
-0.890091
1.14073
-0.754223
0.600832
-0.659405
-0.655024
0.150689
-0.659394
0.0277906
0.114123
0.110113
-0.769507
0.00548582
0.211148
0.0713041
0.724784
0.694221
-0.0933894
0.0763008
0.783147
1.02827
-0.19206
-0.836209
-0.480829
0.530692
0.414659
-0.958975
0.734257
0.224719
-0.685708
-0.127374
1.16581
-0.440974
0.07018
-0.0398321
0.48618
0.51382
-0.769963
-0.11307
-0.71884
-0.821133
-0.0591819
-0.618197
0.400553
0.599447
-0.0912913
0.075054
-0.86268
-0.0699184
-0.589486
-0.158743
-0.249769
0.408513
-0.0260889
-0.00242501
0.111212
0.0713317
-0.128509
-0.111521
0.758021
-0.64166
0.717961
-0.886138
0.996251
-0.142132
-0.598042
0.740174
-0.747062
-0.193368
0.94043
-0.245466
0.233415
-0.0250747
-0.0450032
-0.0189849
0.013562
0.70522
-0.13133
0.125978
0.110503
-0.735769
0.0688326
0.334795
-0.558359
0.129775
-0.00670654
-0.944968
-0.288022
1.02582
-0.0066163
0.165162
-0.150853
-0.0144731
-0.00537867
-0.0666551
0.313266
0.0215286
0.264873
-0.0214666
-0.243406
0.848102
-0.0319137
-0.00308387
0.0349975
0.126834
-0.015856
-0.000153283
0.221657
-0.108717
0.439989
-0.613534
0.487843
-0.22297
0.00774217
0.294463
-0.619509
-0.947774
1.23557
-0.287798
-0.778479
0.83674
-0.0582605
0.518033
0.36943
-0.080011
-0.0679883
0.746134
-0.454639
-0.0783332
0.278757
0.458461
0.191566
-0.650027
0.41229
0.0420437
0.652252
-0.573512
0.560336
0.013176
1.07628
-0.992861
0.00486051
-0.00477802
-8.24889e-05
0.695901
-0.00928826
-0.0829798
0.0197755
1.31475
0.471354
0.046679
0.0184474
-0.0355805
-0.0983093
0.086501
-0.0153522
-0.0711488
0.022031
-0.0164687
0.675139
-0.419655
0.116868
0.224126
-0.0262795
-0.0919747
0.221777
0.0979372
0.00322726
0.0592938
0.767205
-0.203075
0.305897
-0.102822
0.544984
0.143726
-0.68871
0.643371
0.117374
-0.0193044
-0.0102399
0.0295443
-0.464791
-0.464257
0.269822
-0.00260852
0.744695
0.714342
0.216552
0.163671
-0.237986
0.81713
0.114292
-0.102699
-0.876802
0.0500652
-0.273896
0.293446
-0.174778
0.691221
0.0759846
0.0131088
0.586186
-0.216756
-0.0544091
0.162999
0.0291592
-0.112707
0.422726
-0.0570025
0.441061
-0.0731514
0.166703
-0.086821
0.631805
-0.154562
0.1023
-0.0506785
-0.110404
0.0196441
-0.000100804
-0.0195432
-1.28234
0.289482
-0.0109853
0.870676
-0.229782
-0.615716
0.637161
-0.0214443
0.488352
0.760053
0.6551
0.0850741
0.0777971
-0.172266
0.6309
0.129153
1.08139
0.658724
-0.264712
0.720738
0.512839
-0.49131
-0.604657
0.350715
0.253942
0.43213
-0.0710233
0.042143
0.0628337
-0.0464027
1.13943
0.736327
0.0808026
0.618325
0.219926
-0.869469
-0.0808827
-0.673292
0.677669
-0.0236228
-0.590678
0.431934
0.873076
0.672944
0.107147
0.0451104
-0.163358
-0.316482
1.04151
0.493648
-0.0996802
-0.01123
-0.617068
0.125758
0.677302
1.01088
-0.0769753
-0.531994
-0.743077
0.932111
-0.189034
-0.413387
-0.19127
0.00125264
-0.169587
-0.191657
0.742171
-0.0044322
0.00180474
0.627786
0.382355
-0.389061
0.603025
-0.132881
0.239582
0.74536
0.245389
-0.990749
0.277544
-0.922749
0.0999085
-1.37991
-0.17983
0.771075
-0.591245
-0.66627
-0.0357178
-0.00928541
-0.0546782
-1.43926
0.0237065
-0.0443903
0.850713
0.0947337
-0.179781
0.0850477
-0.0521763
-0.57645
0.0194509
0.145711
-1.13954
-0.00762329
0.00351494
-0.0530012
-0.0533656
-0.590056
0.0165444
0.567458
0.305618
0.955731
0.922186
-0.247132
-0.38526
0.632393
-0.286761
-0.618173
0.618173
-0.225326
-0.917725
1.14305
0.0298222
-0.148867
0.684976
-0.117518
-0.223596
-0.236144
0.306324
-0.0999311
1.13962
0.238439
0.173499
-0.1052
-1.08949
0.483832
0.0765043
0.0555108
0.0147624
-1.51869
-0.481164
-0.35949
0.693286
0.306714
-0.481164
0.693286
-0.444142
-0.0583857
-0.444142
-0.696292
0.696292
0.303708
-0.014517
0.0840416
-0.0756061
0.204727
0.0579755
-0.464306
0.640755
-0.0377294
0.660519
-0.505146
-0.155373
-0.0590137
0.0586676
0.000346055
-0.0176894
0.0208929
0.252896
0.0191671
-0.0681376
-0.43512
-0.350086
0.125405
0.0446694
0.832056
-0.278156
-0.46801
0.105475
-0.00520542
-0.140922
-0.00870769
0.678779
0.0659157
-0.0502871
0.00645316
-0.000314378
0.00036174
0.0858454
0.565396
-0.476923
-0.088473
1.78238
0.547365
-0.565861
0.892651
0.0110488
-0.0614203
0.105148
-0.345327
0.0881969
1.11655
-0.371189
0.0111027
-0.0285138
0.412983
-0.272415
0.0228161
-0.0228161
0.0195529
-0.0195529
-0.00182043
0.00182043
0.0119024
0.365265
0.458596
0.0214645
-0.726504
0.486175
0.191839
0.0298181
-0.0820413
-0.48418
0.809048
0.111117
-0.796824
-1.11399
0.381241
0.0360207
0.0191021
-0.00237688
-0.0103396
0.0103396
0.295802
-0.0116617
0.0116617
0.700685
0.090519
0.00532768
0.00112548
0.00681116
-0.069584
-0.0231624
0.0231624
0.000848015
-0.000848015
-0.021625
0.021625
-0.0102948
0.0102948
0.0899075
-0.294352
-0.0835881
0.221363
-0.0108213
0.0108213
-0.374125
0.514278
-0.140153
0.506957
-0.223684
-0.111276
-0.356734
0.560541
-0.070767
0.0739646
0.563196
0.566047
-0.00838699
0.00838699
-0.130298
0.0240481
-0.0240481
-0.0111208
0.0111208
0.752744
-0.969261
0.0339098
-0.326802
0.479441
0.0060989
-0.0060989
-0.000232194
0.000232194
0.0178387
-0.0178387
0.0239877
-0.0239877
-0.022797
0.022797
0.0341794
-0.0341794
0.482208
-0.0309475
0.0309475
-0.00594561
0.00594561
0.0233942
-0.0233942
0.00210416
-0.00210416
0.00869581
-0.00869581
-0.0510701
-0.0247455
0.0247455
0.578298
0.0383017
-0.0384283
0.0384283
-0.00137031
0.00137031
0.00363647
-0.00363647
0.0326113
-0.0326113
0.0264196
-0.0264196
0.0061997
-0.0061997
0.00281742
-0.00281742
0.104766
-0.366443
0.00142154
-0.00142154
-0.00536076
0.00536076
-0.0371377
0.0371377
-0.0286942
0.0286942
-0.00213976
0.00213976
-0.409999
0.651263
0.267361
-0.031191
0.031191
-0.02723
-0.00054597
0.00054597
-0.00482181
0.00482181
0.0382885
-0.0382885
-0.144975
0.0422758
-0.00278975
0.00278975
-0.0237751
0.0237751
-0.500515
0.0452883
-0.0122963
-0.0322223
0.0322223
-0.448138
0.0347616
0.0195875
-0.540947
-0.803701
-0.03577
0.03577
-0.197092
0.140089
-0.0418129
-0.00446176
0.00446176
0.00483116
0.0457105
0.263462
-0.325255
-0.28369
0.608945
0.197796
0.00253197
-0.00253197
-0.0838782
0.144007
-0.0601292
0.777367
-0.399681
-0.377686
-0.456419
-0.662274
-0.208682
0.314157
-0.397009
-0.0838194
-0.573913
-0.00193949
0.191678
-0.330945
0.0149222
-0.0149222
-0.00324661
0.00324661
0.0300288
-0.0300288
0.02685
-0.02685
0.000482383
-0.000482383
-0.00250952
0.00250952
0.00996396
-0.18102
0.178412
-0.304127
-0.0010743
0.0010743
-0.0460171
0.0460171
-0.039292
0.039292
0.11
0.0336984
-0.143698
-0.00197144
0.319169
-0.548952
0.00169151
-0.00169151
-0.00592694
0.00592694
-0.0918283
0.0893921
-0.298075
-0.0029576
0.0029576
0.0723048
0.0170355
0.996644
-0.48366
-0.077646
0.561306
-0.632296
-0.00153678
-0.51222
-0.0395318
0.0395318
-0.681461
0.281225
0.0483467
-0.0483467
-0.641625
0.380055
0.26736
0.121571
-0.000234637
0.000234637
-0.824688
-0.000608012
0.000608012
0.312067
0.409444
0.0144535
-0.0522429
0.0522429
-0.00302639
0.00302639
-0.0412884
0.0412884
-0.0549914
0.0549914
-0.00091476
0.00091476
-0.0607367
0.0607367
-0.00123434
0.00123434
-0.0445381
0.0445381
-0.0027189
-0.0462196
0.0462196
0.00466299
-0.00466299
0.0470086
-0.0470086
-0.00172898
0.00172898
0.048754
-0.048754
-0.175726
-0.00311177
0.00311177
-0.00452017
0.00452017
-0.0527407
0.0846525
-0.010241
0.010241
0.0048089
-0.0048089
-0.0579173
0.0579173
0.292632
-0.0178115
0.0178115
-0.058373
0.058373
-0.00737117
0.00737117
-0.0656205
0.0656205
-0.0134288
0.0134288
-0.0785386
0.0785386
-0.0211453
0.0211453
-0.0960944
0.0960944
-0.687868
0.156314
-0.527234
0.50579
-0.859478
0.0126866
-0.571429
0.396651
0.086012
0.113852
0.00365374
-0.00365374
0.20094
-0.724936
0.0419292
-0.0271668
-1.01796
1.38779
0.205187
0.257188
-0.0217177
-0.0182597
-0.399296
-0.575488
-0.0382894
0.391559
-1.17626
-0.0183414
0.0183414
-0.760257
0.0212321
-0.0212321
0.00273056
-0.00273056
0.310738
-0.329378
-0.00270857
0.00270857
0.0196084
0.0149207
0.597512
0.0227293
-0.0207733
-0.0113304
-0.00578087
-0.0936043
0.489375
-0.39577
0.0232415
-0.0075067
0.0113991
0.902803
0.00113659
0.0568966
-0.406648
0.437125
-0.484294
-1.00689
-0.232428
-0.0697406
0.0176502
-0.0843921
0.0256833
0.0212496
-0.00341918
0.00177143
0.780258
-0.557586
-0.0355128
0.064672
-0.0353072
0.0567233
0.0273183
0.426821
0.235832
-0.168741
0.215849
0.0172426
-0.00561678
-0.92299
0.00054966
-0.0718088
-0.107973
-0.0195701
-1.29863
-0.0708412
0.262328
-0.34973
0.387957
0.273459
-0.791218
0.0432477
0.00923464
-0.0674766
-0.345456
0.466968
-0.0469112
0.0106689
0.0362422
-0.0264174
0.0264174
0.173425
-0.427961
-0.0677908
0.0524768
-0.0773946
0.0537718
-0.066133
-0.00670415
0.0728372
-0.0399611
-0.150909
0.0744191
-0.000774748
-0.291994
-0.361124
0.653118
0.0141522
0.0574894
0.152813
-0.0268344
-0.102905
0.0648756
-0.154047
0.306127
0.00605128
0.0289463
-0.02914
0.181953
0.00328544
0.256258
-0.00255389
0.00255389
-0.67779
1.35509
0.0870571
-0.16794
-0.0271654
0.0100927
0.870555
0.27018
0.00910161
-0.0139814
-0.531993
0.0047586
0.164862
0.0873945
-0.672687
0.307168
-0.0575413
0.384867
-0.676862
0.215838
0.518419
-0.0877424
0.0877424
-0.000177997
-0.812678
-0.0783446
0.891023
-0.208731
0.154053
-0.0194117
-0.0596153
-0.618586
-0.0767237
0.00159715
0.000625021
0.930215
0.24646
-0.139313
-0.0686421
-1.14156
-0.205826
-0.0536249
-0.270669
0.806901
0.584719
-0.26555
-0.284344
0.578807
-0.0212504
0.322783
-0.26952
0.0690185
-0.468305
0.328153
0.125912
-0.125912
0.0376765
-0.0636768
0.0260002
0.00156284
0.00747336
0.020886
-0.0482166
-0.416574
0.232159
-0.187481
-0.0446785
0.548511
-1.06291
0.314347
-0.879387
0.697177
-0.123714
-0.180413
-0.0430677
-0.0793539
-0.48186
0.04674
-0.28305
0.00136682
-0.0195701
0.374336
-0.00519266
0.00181604
-0.000526474
0.0143137
-0.00898968
-0.00532399
-0.105933
-0.0170922
-0.164172
0.181264
-0.129958
-0.338348
0.0196084
0.345623
0.00127445
-0.369314
0.0822551
0.00242313
0.112382
-0.0909178
-0.0118813
0.0118813
-0.000959027
0.000615817
-0.00959437
-0.000299504
-0.0164965
0.000825318
-0.00117195
0.169076
0.0145667
-0.0025573
0.0025573
0.0693803
0.517404
0.000573531
-0.294569
0.490262
1.12479
-0.475413
0.339426
-0.437554
-0.118746
0.0509553
0.234136
-0.234118
0.00317468
0.0173261
-0.00376419
-0.00719644
-0.182764
-0.384972
0.871148
0.336845
-0.326881
0.129131
-0.00156807
0.107588
0.0143106
0.000778165
0.0015769
0.0157493
0.0271416
0.00129055
-0.000212615
0.713803
-0.648928
-0.243909
0.122707
0.764412
0.00053895
2.76719e-05
-0.0418129
-0.0058027
0.817528
-0.430747
0.507252
-1.18062
0.906161
-0.676583
0.586078
-0.189427
0.692143
0.000427811
0.00333381
0.0157683
-0.117223
0.140185
-0.105129
0.00930773
-0.00206864
0.0632423
-0.0483644
-0.014878
0.000257778
0.00388868
0.0264397
-0.0303284
-0.0899708
0.00823439
-0.00046909
0.00210569
0.468466
-0.425989
0.00229047
-0.000448251
0.996887
-1.07523
0.392436
-0.00574114
0.00121515
0.170921
-0.0540526
-0.0395592
-0.119985
-0.0185436
-0.00352199
0.116577
0.010872
-0.00158399
0.417337
-8.68546e-05
-0.00462281
0.00462281
-0.00224029
-0.00909009
-0.00059192
-0.32345
-0.00362039
0.0708287
-0.107243
0.312084
0.130219
-0.0655797
-0.000617213
0.0014084
0.470354
-0.000717021
-0.00177824
0.00303088
-0.00199648
-0.000414124
0.103295
0.0769991
-0.710286
0.480933
-0.865905
0.115075
-6.87898e-05
-0.661569
0.085823
0.104021
0.600478
-0.0154596
-0.0127215
-0.00389617
-0.00133812
-0.552308
-0.00324968
-0.000319579
-0.0201549
0.95347
-0.541179
-0.0024705
-0.00049464
-0.00567437
-0.00138279
0.0675092
-0.0228387
0.0228387
-0.00146007
0.00207588
-0.00256227
-0.00770319
0.0131123
-0.0112963
-0.161406
0.0903828
-0.00605758
-0.0129181
0.0437659
-0.0159688
0.060422
-0.0427718
-0.624152
0.568554
-0.00421496
-0.00115516
0.352912
-0.186209
-0.0723261
-0.689942