/*--------------------------------*- C++ -*----------------------------------*\
| =========                 |                                                 |
| \\      /  F ield         | OpenFOAM: The Open Source CFD Toolbox           |
|  \\    /   O peration     | Version:  2306                                  |
|   \\  /    A nd           | Website:  www.openfoam.com                      |
|    \\/     M anipulation  |                                                 |
\*---------------------------------------------------------------------------*/
FoamFile
{
    version     2.0;
    format      ascii;
    arch        "LSB;label=32;scalar=64";
    class       volVectorField;
    location    "32";
    object      U;
}
// * * * * * * * * * * * * * * * * * * * * * * * * * * * * * * * * * * * * * //

dimensions      [0 1 -1 0 0 0 0];

internalField   nonuniform List<vector> 
2186
(
(1.32298 -0.0666794 1.875e-19)
(1.65634 -0.965764 -1.13917e-19)
(1.49692 -0.941317 -4.21798e-22)
(0.765191 -0.606952 -1.28123e-19)
(-0.078287 0.235842 -1.63805e-19)
(1.41109 -0.151317 0)
(0.749695 -0.692861 0)
(-0.229697 -0.276768 1.24858e-19)
(1.49259 -0.197712 2.06917e-19)
(0.573236 -0.341065 -2.52162e-21)
(0.658974 0.593565 0)
(0.857644 -0.28473 -1.54291e-19)
(-0.251142 -0.26306 -4.93491e-20)
(1.21164 0.0217734 -3.33378e-19)
(1.84614 -0.70365 -1.19946e-19)
(1.01197 -0.00462383 1.5875e-19)
(0.979339 0.0117965 0)
(-0.306086 0.390045 0)
(0.952413 0.223506 0)
(-0.125744 0.172947 -5.90593e-20)
(0.481291 0.0540134 -1.0633e-19)
(-0.157349 0.196282 8.18507e-20)
(1.19739 0.0255507 2.75845e-19)
(-0.206966 -0.0696028 6.26938e-21)
(1.03492 0.00475389 -2.16971e-19)
(0.816478 -0.581667 0)
(0.764698 -0.0527718 1.31691e-19)
(0.636056 -0.615481 -1.44289e-19)
(1.18846 0.697887 0)
(0.966481 0.0231499 -2.96236e-19)
(-0.0645511 0.082444 0)
(1.02733 -0.014176 1.02588e-20)
(-0.208338 0.0211709 0)
(2.05465 0.177045 1.90912e-19)
(-0.123115 -0.191844 1.59233e-21)
(1.50992 0.761808 7.34313e-20)
(1.83818 0.0839695 1.3648e-19)
(0.50438 0.102992 -3.17427e-19)
(1.854 0.247558 -2.30741e-19)
(1.47611 -0.00549576 3.84851e-21)
(-0.278697 -0.260926 0)
(-0.102836 0.142692 0)
(1.93285 -0.903957 1.03214e-19)
(-0.379015 0.0980599 0)
(1.09551 0.271236 1.4395e-19)
(0.615104 -0.322229 2.55459e-19)
(0.953528 -0.812613 0)
(1.21992 -0.812252 8.31361e-20)
(2.18002 0.0532921 0)
(-0.124859 0.426266 1.46013e-19)
(-0.0633433 0.109485 8.72484e-20)
(0.611774 0.564527 7.61374e-20)
(2.12566 -0.778887 1.30385e-19)
(0.583135 0.242965 -2.56178e-19)
(-0.314397 -0.165258 3.19119e-20)
(0.79081 -0.675183 0)
(1.71628 -0.997456 1.95737e-20)
(0.605554 -0.565002 0)
(2.21487 0.227542 6.71234e-20)
(1.15567 -0.177175 -3.0384e-19)
(2.15295 -0.0933273 1.85276e-19)
(1.32712 0.298605 -1.69186e-19)
(1.32435 0.526123 0)
(1.75537 -0.0460406 -4.21734e-21)
(1.34665 0.38458 -1.04068e-19)
(1.28432 -0.755844 -1.10306e-19)
(1.14847 0.648769 5.01954e-20)
(0.677783 0.046156 -5.12205e-19)
(0.8173 0.0373554 0)
(2.30561 -0.175764 -7.76986e-20)
(-0.235755 -0.298061 -1.47319e-19)
(2.54295 0.052153 -1.98502e-19)
(0.729568 -0.0636128 -2.2448e-19)
(0.90031 -0.540575 0)
(0.819259 0.16002 -8.35898e-20)
(0.572208 -0.533518 -2.62805e-19)
(2.38377 0.0259876 0)
(1.00718 0.0081294 3.25954e-19)
(-0.118033 -0.230182 0)
(1.97072 0.343969 0)
(0.59571 0.31235 6.64991e-20)
(1.49509 -0.0877453 -2.50952e-20)
(1.02363 0.00431561 3.60116e-20)
(1.29533 0.405821 2.61445e-20)
(0.97421 0.0219378 3.77069e-19)
(1.0428 0.0253068 -8.96245e-21)
(0.660843 0.149221 -3.07687e-19)
(1.10913 -0.0503119 6.01445e-21)
(1.36033 -0.236042 0)
(-0.0722481 -0.0670457 1.13352e-19)
(0.888274 -0.646818 -1.39526e-19)
(-0.10346 0.0476595 -9.29959e-22)
(1.12833 -0.0827196 2.16253e-19)
(0.831417 -0.204742 0)
(0.974961 0.0225272 3.6145e-20)
(1.34071 0.634293 0)
(1.6676 -0.978959 0)
(1.2865 0.218903 0)
(-0.114992 0.37457 0)
(0.819321 -0.691986 2.50665e-19)
(0.535017 0.335156 -2.26046e-19)
(0.559897 0.37457 1.34986e-19)
(1.54952 0.190835 0)
(1.1604 -0.107518 -1.97689e-19)
(1.12425 0.0228353 1.61327e-19)
(-0.17806 0.201708 1.06061e-19)
(0.617586 0.481933 0)
(2.26717 -0.172998 -1.42689e-19)
(0.990068 -0.499674 7.01309e-20)
(-1.17739 0.335169 2.1518e-19)
(1.70671 0.308606 1.09338e-19)
(-0.0765247 0.313296 -2.31362e-19)
(0.84549 -0.768784 0)
(0.548053 0.319392 1.55954e-19)
(1.76555 -0.216495 -6.07402e-19)
(-0.202759 -0.0786592 -4.64713e-19)
(1.65152 0.373406 2.05887e-19)
(1.79598 0.0630681 0)
(-0.0962172 -0.0933037 -3.38885e-19)
(0.7159 -0.0994179 7.07424e-20)
(1.53063 0.865395 0)
(-0.0918503 0.464958 -1.91284e-19)
(0.864938 0.742389 -2.56226e-19)
(-0.475325 0.382252 2.7967e-19)
(1.02827 -0.0265105 0)
(1.60521 0.295984 -2.59415e-19)
(-0.0627181 0.264955 0)
(0.722097 -0.520293 -9.39117e-20)
(-0.361012 0.368852 -1.5147e-19)
(0.817472 -0.746625 0)
(0.456714 -0.31328 3.73576e-19)
(0.566723 -0.483488 2.47895e-19)
(0.42932 -0.388902 0)
(1.01557 -0.807775 -9.81076e-20)
(0.442879 0.244079 0)
(-0.0816201 0.483849 -1.14488e-19)
(0.839902 -0.724195 1.18073e-19)
(2.41814 -0.234205 3.29288e-19)
(2.15143 0.191904 0)
(-0.142084 -0.191611 0)
(0.66614 0.618609 -3.1955e-19)
(1.83115 -0.641301 2.37545e-20)
(-0.170203 -0.193018 0)
(1.01531 -0.833542 -1.08984e-20)
(1.1623 -0.101802 0)
(1.09357 -0.130275 3.43347e-19)
(2.09075 -0.147664 -1.41921e-19)
(-0.108288 0.303961 0)
(1.2535 -0.57102 -4.28595e-20)
(-0.30377 0.179246 -3.98126e-20)
(-0.0157706 0.0763272 0)
(1.12628 -0.840123 1.29863e-20)
(1.0071 0.00411159 -5.4452e-19)
(0.676152 -0.506752 -9.28161e-21)
(0.843287 -0.540788 0)
(1.23365 -0.753451 -7.07676e-20)
(0.644548 0.209735 2.40071e-19)
(1.19988 0.119712 0)
(1.47281 0.0809116 -2.39488e-19)
(1.2317 -0.882401 -1.33471e-19)
(-0.134397 -0.182721 -1.22861e-19)
(-0.347529 -0.177479 -1.96728e-19)
(1.06481 0.00247601 2.06139e-19)
(0.943975 -0.485973 -8.8188e-20)
(0.804225 0.0396624 -5.56775e-21)
(0.34632 0.321361 -3.84692e-20)
(0.765754 -0.124931 1.37582e-19)
(-0.116294 -0.087435 -3.10919e-19)
(2.02807 -0.331964 0)
(2.57689 -0.436846 1.56612e-19)
(1.42039 0.636554 1.29798e-19)
(0.835899 -0.63935 -1.82856e-19)
(0.995647 0.00798577 1.11566e-20)
(0.747513 -0.556373 2.58142e-19)
(1.27838 0.785112 1.18513e-19)
(1.8004 0.0728471 1.22537e-20)
(-0.135784 0.297527 0)
(1.07986 0.0502212 -2.14204e-19)
(-0.618589 -0.0443268 -2.38231e-19)
(1.05185 0.476305 7.42967e-20)
(0.133622 -0.137934 1.87876e-19)
(1.16455 0.0262926 -3.8566e-20)
(-0.211431 0.0277182 -1.43092e-19)
(1.27102 0.570954 -7.24596e-20)
(1.1126 0.867003 0)
(-0.172383 0.314076 -8.98709e-20)
(-0.0610894 -0.0116884 0)
(0.63346 0.542084 -2.57896e-19)
(2.0627 0.182892 -1.62942e-20)
(-0.260641 -0.208145 1.62298e-19)
(-0.353528 0.167913 -5.5252e-19)
(0.722719 0.0478252 2.24984e-19)
(1.91772 0.170775 -3.84166e-20)
(1.00378 -0.3642 -2.6106e-20)
(-0.0884309 -0.102716 0)
(-1.11806 0.515444 3.57952e-19)
(1.29784 0.950708 -1.82513e-20)
(0.835954 0.0533366 -1.23311e-19)
(0.537736 0.504149 1.79571e-19)
(0.435649 0.193868 0)
(-0.180359 -0.314997 -2.41498e-19)
(-0.986231 0.772869 3.04096e-19)
(1.33537 -0.985932 1.26535e-22)
(0.993404 -0.0437611 -1.6869e-19)
(-0.167241 -0.168737 6.24339e-21)
(0.027031 -0.0183049 1.37664e-19)
(-0.235813 -0.211675 -2.1882e-19)
(1.89664 0.0208282 0)
(1.12322 0.0417223 -2.88303e-19)
(2.44448 0.168147 2.0186e-19)
(1.3081 -0.638708 7.19454e-20)
(1.03579 -0.0982381 2.4232e-20)
(0.57717 0.298382 0)
(0.921291 0.731402 -1.51723e-20)
(0.664169 0.610524 1.71353e-19)
(0.924961 -0.587448 1.26356e-19)
(0.665303 0.47819 0)
(1.02427 -0.00195515 7.2448e-21)
(0.911078 -0.688881 1.79629e-19)
(0.821634 0.402476 -4.21862e-19)
(1.23 -0.11064 0)
(-0.0788395 -0.057887 -3.26699e-19)
(-0.125637 0.058337 -8.97713e-20)
(1.55848 0.708275 0)
(1.38959 -0.965558 -1.08307e-22)
(-0.279706 0.413194 0)
(-0.0455926 0.177139 1.02786e-19)
(0.715517 0.632476 -9.09737e-20)
(0.863587 -0.237643 0)
(-0.202835 -0.17324 0)
(1.66492 -0.470703 0)
(-0.83892 0.471536 4.81063e-19)
(1.2494 -0.910589 8.77088e-20)
(1.20888 -0.625228 4.75904e-20)
(1.07329 -0.178657 -1.36176e-19)
(0.90836 -0.718899 -1.40848e-19)
(0.19612 -0.20046 0)
(-0.673892 0.367108 0)
(1.03016 -0.531587 1.45646e-19)
(-0.16783 -0.221357 0)
(-0.106635 0.437549 0)
(-0.200193 -0.0533203 3.99572e-19)
(0.771531 0.650566 7.89228e-20)
(0.989571 0.774892 0)
(0.676571 0.531189 -7.86273e-20)
(0.83536 -0.0634935 -2.01223e-19)
(0.725548 0.54061 -2.10286e-19)
(0.572417 0.531348 -1.54676e-19)
(-0.212894 -0.317779 4.62885e-22)
(0.745782 -0.669172 0)
(0.892338 0.157325 -2.94143e-19)
(-0.268497 -0.307648 6.58885e-20)
(0.584425 0.541671 3.48893e-19)
(0.933996 0.777489 0)
(-0.229608 0.220613 3.31447e-19)
(-0.116452 -0.242964 3.77019e-19)
(-0.0857081 -0.0942845 -1.96105e-19)
(0.64358 0.547973 -1.36666e-20)
(0.969217 -0.00879003 5.28233e-20)
(-0.284313 -0.219533 0)
(2.2007 0.0113723 -3.23445e-19)
(2.03045 -0.239894 -4.82424e-19)
(0.678464 -0.628877 -6.38677e-20)
(-0.241345 0.43562 9.28e-21)
(1.17212 0.447381 1.6764e-19)
(0.869362 0.393977 0)
(1.07217 -0.183227 1.64724e-19)
(0.012643 -0.285416 -1.5292e-21)
(-0.121289 0.0244687 3.32075e-19)
(0.925238 0.0172402 -4.64493e-20)
(1.10155 0.141759 0)
(1.86366 -0.00343634 -3.31036e-19)
(1.8537 0.0870595 0)
(0.534469 0.221499 -4.20821e-19)
(0.0311318 -0.0171508 0)
(-0.226552 -0.294809 2.89448e-19)
(0.711605 0.104814 0)
(0.646096 -0.5407 -1.59415e-19)
(1.14625 0.0164478 1.84594e-19)
(-0.131588 0.369924 3.58142e-20)
(2.15246 -0.0396665 9.42064e-21)
(2.16171 -0.23081 -1.55707e-19)
(1.09823 0.219333 -2.00301e-19)
(-0.277246 -0.286659 -1.25403e-19)
(1.10818 -0.878033 0)
(0.817083 0.0178099 -1.34399e-19)
(0.949952 -0.397533 -2.51101e-19)
(1.7583 -0.588562 -1.03273e-20)
(1.77435 -0.00678371 3.07505e-19)
(1.0715 -0.0092524 3.44677e-19)
(0.0240752 -0.29377 -1.80065e-19)
(1.01993 -0.457957 -1.06378e-19)
(0.206539 -0.199 2.25627e-19)
(1.00783 -0.00875444 0)
(1.00474 -0.00750282 0)
(1.25093 -0.0961396 2.11212e-19)
(-0.0582115 0.403997 -8.05033e-20)
(0.187465 -0.118414 -1.63284e-19)
(2.0505 0.0457197 -9.17997e-21)
(1.17631 0.137413 0)
(1.77278 0.166806 -1.28046e-19)
(0.976028 -0.849692 -5.34657e-20)
(1.8394 -0.575617 -9.84757e-20)
(1.08026 0.817268 0)
(0.493865 -0.476329 0)
(0.584626 0.495197 -1.63573e-19)
(1.08122 0.269401 -3.70497e-19)
(2.27008 -0.234848 4.97797e-22)
(0.856192 0.141733 1.2612e-19)
(-0.0748455 -0.289854 -5.0864e-19)
(1.64204 -0.370156 -5.27661e-20)
(-0.36746 -0.169262 0)
(-0.142475 -0.200052 0)
(-0.28759 -0.132677 0)
(1.37618 -0.744637 -4.91908e-20)
(-0.021363 0.0774427 -1.9508e-19)
(0.0118822 -0.0345692 0)
(1.25936 0.952444 -3.13195e-20)
(1.09795 0.141427 -3.83449e-19)
(1.97654 -0.00365087 -3.24891e-20)
(1.05289 0.898864 7.72235e-20)
(-0.0858717 0.259598 1.17978e-19)
(1.28088 -0.175679 0)
(-0.274752 -0.0872799 -3.34505e-19)
(-0.0535628 0.223129 2.26125e-19)
(0.77592 0.0102511 1.65301e-19)
(1.50108 0.92707 -2.6334e-21)
(1.37478 -0.116833 -1.3662e-19)
(-0.123733 0.0294114 -1.38015e-21)
(0.773259 -0.70563 -3.00744e-20)
(1.10303 -0.0222453 0)
(1.6923 -0.0537566 0)
(1.06747 0.0523051 0)
(-1.19048 0.416801 -2.19489e-19)
(-0.313406 -0.130594 1.18768e-19)
(1.02171 0.823348 0)
(1.00205 -0.0111448 4.53335e-19)
(0.746841 0.583094 -2.10977e-19)
(-1.13982 0.440698 -1.9834e-19)
(0.861125 0.000697306 -3.69341e-20)
(0.740517 -0.67655 -1.82438e-19)
(1.35865 0.694545 -2.97897e-20)
(0.58782 -0.479802 -2.58627e-19)
(1.1241 -0.000298527 -4.11253e-19)
(0.818122 0.0372135 3.91464e-20)
(1.55554 -0.175994 3.97719e-20)
(1.88382 -0.117101 -1.37588e-19)
(-0.101975 -0.118136 -3.54422e-22)
(1.05911 0.452622 -2.46735e-19)
(1.29159 0.599321 6.86768e-20)
(-0.148069 -0.172288 0)
(-0.15302 -0.206429 1.87277e-19)
(-0.0989529 -0.053242 1.37942e-19)
(-0.163727 -0.158727 -1.57096e-19)
(0.456582 0.281637 0)
(1.53791 -0.2707 0)
(-0.0250298 0.0192074 -1.20657e-19)
(-0.237337 -0.333267 -6.80847e-20)
(1.04438 -0.0320172 1.62923e-19)
(-0.106078 0.236792 -4.28177e-20)
(1.39432 0.124609 -4.01686e-19)
(-0.140132 0.365161 0)
(0.862015 -0.764536 -2.42066e-19)
(1.61508 -0.136545 2.23474e-19)
(-0.463734 -0.169374 1.59909e-19)
(0.711575 0.134497 2.99776e-19)
(0.616789 0.105478 9.71308e-20)
(0.52355 -0.49654 1.76357e-19)
(-0.187273 -0.220118 -1.52043e-19)
(1.40445 -0.338071 0)
(0.373386 0.31339 -1.79272e-19)
(1.02777 -0.01759 -2.59086e-19)
(-0.375069 0.174134 2.18415e-19)
(1.39197 0.470685 -1.11045e-19)
(-0.180828 -0.251816 -5.92916e-20)
(0.714012 -0.651782 -1.62343e-20)
(0.805274 0.166723 -1.88354e-19)
(0.959201 0.408569 2.10521e-20)
(1.16829 -0.148836 2.94529e-20)
(0.622342 -0.259474 -2.67986e-19)
(2.05866 -0.356172 -2.10156e-19)
(2.02116 -0.029009 0)
(1.86371 -0.0789648 -3.70933e-20)
(1.57472 0.0719691 -1.23565e-20)
(0.821873 -0.171173 1.4199e-19)
(0.919639 0.354003 -1.71395e-19)
(1.80757 -0.14431 4.00163e-20)
(0.399911 0.365281 -2.32615e-19)
(-0.0790287 0.449412 1.57715e-19)
(2.13487 -0.103165 0)
(0.935199 0.00573287 0)
(0.903272 -0.799505 4.44821e-20)
(-0.107184 -0.279756 -4.13107e-19)
(-0.518809 0.408493 -1.87278e-19)
(-0.122211 -0.148721 -2.58761e-19)
(-0.178457 0.448852 -1.23219e-19)
(-0.395425 -0.178327 0)
(-0.135819 -0.179699 4.68668e-20)
(-0.202422 0.221751 -8.16983e-20)
(0.0248214 -0.0127752 -3.13729e-19)
(0.814231 -0.132224 0)
(1.86279 -0.346532 2.13373e-19)
(-0.112405 -0.0979148 0)
(0.995561 0.0237327 3.27389e-19)
(-0.238295 -0.222777 1.97413e-20)
(0.563518 -0.451946 3.46598e-19)
(-0.581613 -0.123616 3.94757e-19)
(-0.961353 0.211857 0)
(0.0160555 0.319173 8.05517e-20)
(1.00545 0.0209431 -9.83178e-21)
(-0.052407 -0.147151 0)
(1.00498 -0.0095932 -5.11869e-20)
(0.888726 -0.751689 -2.36134e-19)
(1.38086 0.0261825 0)
(0.952013 -0.289186 1.79481e-19)
(0.0144354 0.47612 1.59657e-19)
(-0.0641429 -0.0677248 0)
(-0.230878 -0.268426 -6.78018e-21)
(0.751923 -0.658152 -3.6312e-19)
(0.967128 -0.0263032 -2.31848e-19)
(-0.0923782 -0.296345 5.00036e-19)
(-0.198154 -0.294393 1.80463e-19)
(-0.369658 -0.174461 0)
(0.940537 0.457643 0)
(-0.361646 -0.229439 2.0743e-19)
(1.91932 0.0943299 -2.07934e-19)
(1.04923 0.874404 1.72978e-20)
(1.06116 0.203193 -1.12301e-19)
(1.1438 0.00645613 -1.89082e-19)
(1.06437 -0.0742933 -6.45498e-20)
(-0.0919175 -0.328909 -4.53536e-19)
(1.89328 0.11578 3.959e-19)
(0.670145 0.0328583 1.8866e-19)
(1.75653 -0.0132637 1.51047e-19)
(1.06306 -0.160625 0)
(-0.668473 0.363788 4.01187e-19)
(1.14454 0.0248452 -4.43703e-19)
(1.71823 0.60827 9.20842e-21)
(0.764871 -0.479294 -1.40789e-19)
(-0.0959196 -0.0925412 2.53341e-19)
(0.82499 -0.724526 3.12285e-19)
(1.22233 0.192043 6.81393e-20)
(1.00661 -0.00840901 2.26813e-19)
(0.00716208 -0.327738 -1.94091e-19)
(1.01976 0.0122103 0)
(1.64747 0.0529497 -2.24767e-19)
(-0.0826204 -0.0839727 0)
(1.01393 0.0118839 -1.32984e-19)
(-0.726287 0.202931 -5.36362e-19)
(1.71731 0.303337 3.35416e-20)
(-0.157895 -0.0327513 1.74184e-19)
(1.58885 0.0149884 -1.56033e-21)
(1.0134 -0.0196841 4.70213e-20)
(1.30824 -0.0855368 0)
(1.47999 -0.623657 -8.25943e-20)
(1.01914 0.0284532 -1.39665e-19)
(1.41293 0.773652 -5.30365e-20)
(1.32049 -0.0278496 0)
(1.45599 0.560195 2.69949e-21)
(-0.0348315 0.0237066 0)
(1.39198 0.0484464 0)
(-0.313447 -0.185712 0)
(1.22364 0.436516 0)
(1.82432 0.270947 4.0007e-20)
(0.720503 0.595789 3.69793e-19)
(0.305539 -0.307577 -2.08728e-19)
(-0.222054 -0.335411 -4.24095e-19)
(-0.0930482 -0.109955 0)
(2.58723 -0.252248 1.8628e-19)
(1.31108 0.514074 0)
(1.43942 0.289175 0)
(-0.284866 -0.0607005 1.46497e-19)
(0.786955 0.694842 1.19165e-19)
(1.71943 -0.0181391 0)
(-0.236885 -0.244642 9.47269e-20)
(0.898055 0.203393 1.72677e-19)
(2.22882 -0.217394 -1.35135e-19)
(1.21448 0.907189 4.19725e-20)
(0.953491 -0.857966 -1.95549e-20)
(1.85762 -0.0824224 -9.62783e-20)
(0.773032 0.698224 1.22404e-19)
(1.15187 0.904956 0)
(2.41494 -0.0186274 2.20354e-19)
(0.896063 0.873472 0)
(1.61068 -0.483349 1.33201e-19)
(1.02523 0.0962111 1.82365e-19)
(1.00526 -0.00637783 0)
(-0.0187545 0.961264 3.78368e-19)
(0.902351 -0.189855 4.19999e-20)
(0.652155 -0.434544 0)
(0.69042 -0.407569 1.87315e-19)
(1.21662 0.544669 -3.11292e-20)
(0.458129 0.431273 2.56146e-19)
(0.0213195 0.00787446 3.74788e-20)
(-0.010735 -0.103498 8.66689e-20)
(0.766319 0.0609532 0)
(1.35952 -0.925918 -2.73292e-20)
(1.03063 -0.0454827 3.62028e-19)
(1.49095 0.34041 1.35813e-19)
(-0.240885 -0.213816 8.11971e-20)
(-0.650116 -0.0138337 0)
(1.2526 -0.247455 -9.28384e-20)
(-0.0665352 -0.0709278 -2.16032e-19)
(-0.191209 0.423981 -4.48001e-20)
(-0.131441 0.0577144 -8.00003e-22)
(-0.197707 0.0971136 2.73976e-19)
(0.261697 -0.132817 -1.65523e-20)
(2.40432 0.00487227 4.33152e-19)
(1.1712 0.450116 -2.7033e-19)
(0.847226 -0.0555863 0)
(1.86751 -0.111387 1.90335e-19)
(1.89126 0.0765915 1.36246e-19)
(0.940364 -0.790662 1.13331e-19)
(1.19288 -1.0053 -1.00463e-20)
(0.462659 0.428925 1.71972e-19)
(1.64914 0.667976 0)
(1.72808 0.568393 2.58703e-20)
(-0.0792722 -0.0927205 -4.39606e-19)
(0.862971 0.752309 0)
(1.69055 0.0157056 0)
(0.307109 -0.306815 -4.00796e-21)
(0.306064 0.274324 0)
(-0.878994 0.224335 -3.41802e-19)
(-0.00308982 0.07425 -1.07154e-19)
(1.78014 -0.438577 0)
(1.22801 0.0877727 1.75763e-19)
(-0.520626 0.479022 1.56071e-19)
(0.555885 -0.528477 -3.97771e-19)
(1.86457 -0.0409748 -5.58967e-20)
(0.635379 -0.577443 0)
(1.01701 0.122417 0)
(1.38751 -0.267936 0)
(1.10713 0.21829 -2.13625e-19)
(1.33799 0.103931 3.02321e-19)
(-1.00703 0.386358 0)
(0.891687 -0.0605809 0)
(2.16612 -0.0744672 -1.14217e-20)
(-0.0445112 -0.0156522 9.27091e-20)
(2.36311 0.0913637 -2.63263e-19)
(1.1083 -0.53094 2.27728e-19)
(1.96818 0.0725612 -3.08798e-19)
(-0.522046 0.337702 -1.15524e-19)
(1.914 0.0900993 -1.62297e-19)
(1.01959 -0.0276721 3.68559e-19)
(1.49119 0.591657 0)
(-0.055397 0.223471 2.9033e-20)
(1.03496 -0.854853 1.32575e-19)
(0.860383 -0.0333194 4.31716e-20)
(0.657462 -0.457114 0)
(1.95497 -0.546098 1.10315e-20)
(1.23063 -0.200297 1.19403e-19)
(1.90962 -0.419417 0)
(0.630775 -0.586325 3.58621e-19)
(1.51594 0.0208374 -5.6008e-20)
(2.24654 0.102228 4.14728e-19)
(-0.0209177 -0.0113167 -1.93897e-19)
(1.30819 0.606085 1.39005e-19)
(1.13032 0.39583 3.39523e-21)
(0.890602 0.35573 2.06748e-19)
(1.93765 0.346483 -2.37094e-19)
(-0.0958494 -0.343026 -2.75657e-21)
(0.829674 -0.170528 0)
(-0.13836 -0.113406 4.15315e-19)
(1.12776 -0.980897 0)
(1.09361 -0.673795 1.74034e-20)
(0.983094 0.00331716 -6.70215e-19)
(1.00374 1.067 3.8878e-20)
(-0.447331 -0.0940851 -3.75794e-19)
(0.96987 0.468771 1.62018e-19)
(-0.291003 0.966639 2.42609e-19)
(0.689012 -0.0405156 0)
(2.09097 0.00963844 0)
(1.23975 0.00169816 9.76425e-21)
(0.786833 -0.00915378 0)
(1.37863 -0.210144 -1.22865e-19)
(-0.746383 0.310477 4.05749e-19)
(1.89835 0.496256 9.54665e-21)
(1.03936 -0.0348336 0)
(0.573555 -0.377409 9.17736e-20)
(1.00948 0.0263774 1.75754e-19)
(-0.183462 0.604494 -1.11737e-19)
(-0.205181 0.478009 0)
(1.13514 -0.491869 3.97152e-19)
(2.06143 -0.103411 -7.02661e-22)
(1.12546 -0.515022 -1.73138e-19)
(2.26789 0.265602 1.28916e-19)
(1.26456 0.774962 0)
(0.866822 0.0201958 0)
(-0.259478 -0.168851 -2.00693e-19)
(-0.0258141 0.0120338 1.35773e-19)
(0.935156 0.352252 -1.9112e-19)
(0.148029 -0.310436 -1.73859e-19)
(0.631113 0.384579 2.23503e-19)
(1.39535 0.579024 0)
(0.560031 -0.520823 0)
(-0.143007 -0.523118 -8.96269e-21)
(1.2595 -0.523135 -7.73618e-20)
(0.767218 -0.0702745 1.7177e-20)
(0.739796 -0.178541 1.05785e-19)
(-0.0706551 -0.00537032 -2.43233e-19)
(0.953485 0.199614 1.85772e-19)
(0.642107 0.598117 0)
(1.24771 0.682345 0)
(1.59674 0.257737 0)
(-0.419484 -0.137466 -1.7495e-19)
(1.22947 0.545852 1.86616e-19)
(2.00588 0.0722277 5.45332e-20)
(0.918807 -0.0115676 0)
(2.62144 -0.486702 0)
(2.11888 -0.0538974 -2.97273e-19)
(-0.0884472 0.390482 1.35535e-19)
(1.00526 0.00257807 -1.76053e-19)
(1.47651 0.4723 0)
(-0.104103 0.462321 0)
(1.22372 0.310149 2.66469e-19)
(1.00494 0.512919 -1.20442e-19)
(1.06723 0.0224177 0)
(1.87444 0.246533 0)
(1.95369 0.65874 -2.7493e-19)
(-0.100193 0.0875628 -1.90741e-22)
(0.996992 0.0118776 0)
(0.690874 0.451124 -3.07989e-20)
(0.966369 -0.851972 0)
(1.00122 0.0147474 4.07785e-20)
(0.336385 -0.750201 -2.68606e-19)
(0.922437 -0.339657 2.63524e-19)
(-0.170517 -0.473142 1.8829e-19)
(2.13108 -0.0870068 4.08326e-19)
(1.55946 -0.0027946 1.06729e-19)
(0.795546 -0.0240812 0)
(1.01946 0.00814835 0)
(-0.474789 -0.211155 0)
(0.646814 0.618948 -1.7522e-19)
(-0.0438852 -0.0122891 1.64272e-19)
(1.15362 0.340514 -4.2691e-19)
(-0.193597 0.338395 0)
(0.809245 0.623824 1.55563e-19)
(1.02781 -0.35007 0)
(1.00551 -0.00226487 1.03111e-19)
(-0.275504 0.222285 5.89445e-20)
(1.01781 0.391529 2.37406e-19)
(1.28878 0.250385 0)
(2.16215 0.146513 -6.41937e-20)
(0.831858 -0.130425 -3.23533e-19)
(-0.798874 0.292036 -4.56204e-19)
(0.800891 0.365932 0)
(0.868584 0.225179 1.60354e-19)
(2.08518 -0.0908032 0)
(0.757879 0.501497 3.35089e-19)
(-0.87784 0.328519 1.77281e-19)
(-0.0160902 -0.0299011 0)
(0.57314 0.544386 -6.54633e-20)
(1.05455 -0.662112 -1.22446e-19)
(0.498208 -0.280069 -1.09769e-19)
(1.02145 -0.0190873 0)
(-0.229502 0.502355 -1.42276e-19)
(0.661508 -0.591367 7.03976e-20)
(0.894201 0.272926 0)
(1.87571 -0.18413 2.40593e-19)
(0.960447 0.817548 2.26025e-20)
(0.191925 -0.848199 2.22141e-19)
(0.22277 -0.0436641 -3.18757e-19)
(0.243239 -0.0928205 -5.02076e-19)
(-0.158296 -0.225373 1.11872e-20)
(0.801437 0.338708 2.27322e-19)
(-0.0165009 0.106637 -4.78007e-21)
(1.44703 -0.666633 3.57964e-21)
(1.02493 0.00496465 -3.04469e-19)
(-0.43238 -0.147814 0)
(1.02905 0.02874 -3.63802e-19)
(2.09453 0.318085 1.97124e-19)
(0.867144 0.671108 2.61322e-19)
(1.14254 -0.0735563 1.38708e-19)
(1.00766 -0.0345619 1.40906e-19)
(0.980201 0.971666 -3.70777e-20)
(-0.189476 -0.173797 9.89919e-24)
(1.77753 -0.893957 1.60805e-20)
(1.14734 -0.134515 -5.98158e-20)
(0.822298 0.0536822 6.81327e-20)
(0.925299 -0.308751 7.83406e-20)
(1.37549 -0.0346816 0)
(0.940589 0.715772 0)
(0.213703 0.204507 -7.03165e-20)
(1.97232 0.182524 -1.86238e-20)
(-0.758163 0.0964702 1.55338e-19)
(1.05514 -0.558731 -4.25873e-19)
(0.639808 -0.556988 3.40611e-19)
(1.11872 0.180991 -9.23901e-20)
(0.16832 -0.280135 2.01581e-20)
(1.3641 -0.40725 0)
(0.749054 0.092126 -6.12423e-21)
(1.62228 -0.523289 -2.51598e-19)
(1.01752 0.743352 0)
(0.896317 -0.62058 0)
(0.46796 0.43886 0)
(-0.194354 -0.252329 -7.07242e-20)
(-0.0938614 0.182308 0)
(1.30837 0.218112 1.59763e-19)
(1.20875 0.176372 5.84694e-21)
(-1.01278 0.3451 2.01912e-19)
(1.54753 -0.0987635 3.17226e-20)
(1.79876 0.448425 -5.94867e-20)
(2.14787 -0.309657 -4.40333e-20)
(-0.170389 0.0277774 -1.92734e-19)
(-0.260583 -0.234988 5.05623e-21)
(1.46006 0.0160852 0)
(0.672743 -0.0354431 0)
(1.00063 -0.000411015 2.23206e-22)
(-0.420302 -0.130238 0)
(1.43683 0.0523842 -1.41041e-19)
(0.675115 -0.0318437 0)
(1.06049 0.00405164 1.1128e-19)
(0.98873 0.0144711 -3.99572e-20)
(1.08771 0.236645 1.14627e-19)
(1.05826 -0.0201111 -8.30415e-22)
(0.962122 -0.204307 -4.74488e-20)
(1.02789 -0.0363797 3.25726e-19)
(0.69541 -0.633572 1.57944e-19)
(-1.04348 0.335799 -2.55565e-19)
(1.79589 -0.105041 5.44099e-20)
(-0.0292439 0.00723825 0)
(1.10235 0.776737 0)
(1.0321 -0.0109897 0)
(1.03062 -0.797696 -8.23972e-20)
(1.07227 -0.918135 1.082e-20)
(2.09073 0.292508 -4.97953e-20)
(-0.579237 -0.0750636 -7.91604e-19)
(0.159407 -0.0260168 -2.68441e-20)
(0.607354 -0.410172 -5.60041e-19)
(1.88227 -0.150123 -7.34836e-20)
(-0.393413 -0.53155 2.31754e-19)
(2.11872 -0.308401 1.43571e-19)
(1.53833 0.0667554 -4.73684e-20)
(-0.245936 -0.262309 -1.44704e-19)
(1.09355 0.538133 1.83197e-19)
(-0.160692 -0.27421 0)
(-0.0284755 -0.245377 4.09161e-19)
(-0.139684 -0.174724 -2.20356e-22)
(1.02574 -0.0460689 2.96455e-19)
(1.0258 -0.00243237 -7.55824e-21)
(1.10512 -0.0115121 -8.18957e-20)
(1.20517 0.979339 -7.83829e-20)
(1.60308 0.314753 5.61034e-20)
(0.418569 -0.393496 -2.76322e-19)
(1.75453 0.370349 8.09019e-20)
(1.03803 -0.00195832 -2.1487e-19)
(2.19716 0.115388 -5.60411e-20)
(1.33485 0.910202 0)
(1.08919 0.576913 -3.4359e-19)
(1.00252 -0.00527831 8.4131e-20)
(0.655864 0.584547 2.39508e-19)
(1.26686 -0.388771 2.93065e-21)
(1.06139 -0.0128496 -2.71009e-20)
(1.12146 0.0130302 7.67079e-22)
(2.29711 0.126941 1.43236e-20)
(1.53976 0.0386424 0)
(1.04248 -0.041228 0)
(1.04884 -0.0353131 5.19059e-19)
(1.00255 -0.00327145 0)
(-0.115263 -0.141777 0)
(0.989508 -0.60283 0)
(1.00107 -0.00129622 -4.89196e-19)
(1.18712 -0.703418 6.25229e-20)
(1.02448 -0.00508654 1.02172e-20)
(1.31583 0.936501 -2.48492e-20)
(1.49662 0.983872 -4.0097e-22)
(-0.114022 -0.450212 4.55467e-20)
(1.50242 0.318509 1.86962e-19)
(1.34975 -0.00926657 0)
(-0.159591 0.218508 0)
(2.20985 0.103674 4.75215e-19)
(1.31593 -0.607738 0)
(0.99991 -0.00529136 -1.51891e-19)
(1.01066 -0.00118956 2.94988e-19)
(1.43804 0.138697 -6.38975e-20)
(0.00236733 -0.116057 3.21076e-19)
(0.97508 0.000486779 1.60644e-19)
(1.22577 0.160462 1.96273e-20)
(0.843352 -0.030597 -4.32487e-20)
(1.18042 1.00332 -6.45407e-22)
(0.932451 0.0171479 -1.60077e-19)
(1.00374 0.00351531 1.89958e-19)
(1.00025 -0.000708171 1.12301e-20)
(0.78888 -0.0134324 0)
(0.72599 -0.0272199 0)
(0.721279 -0.0276153 6.09684e-22)
(0.696799 -0.0298603 0)
(1.53041 -0.170299 0)
(0.939805 -0.137776 0)
(0.633179 -0.0100817 5.10027e-20)
(0.79091 0.0399708 -2.98236e-20)
(1.38244 0.0985371 0)
(1.11276 0.834331 3.18688e-20)
(1.03935 0.952308 0)
(0.805827 0.122838 0)
(1.11525 0.175962 0)
(1.44589 0.1462 1.26519e-20)
(1.48072 -0.0160716 1.0083e-19)
(0.778985 0.022922 0)
(0.786712 0.0200779 0)
(0.96975 0.0198204 -1.97552e-19)
(0.814309 0.00797524 3.70243e-19)
(1.00813 -0.00130828 0)
(1.00023 -0.000602761 3.51162e-19)
(1.00019 -0.000765102 -3.84764e-22)
(0.786399 0.0221337 3.13406e-19)
(0.995215 -0.00604078 -1.84393e-19)
(0.872429 0.202369 0)
(0.679652 -0.0596051 4.32796e-20)
(1.00066 -0.00164253 -1.7777e-19)
(0.999491 0.000594749 -3.04591e-19)
(0.920398 0.656173 0)
(0.999062 0.00149798 0)
(0.999697 8.48818e-05 0)
(1.67249 -0.341544 2.48023e-20)
(0.11423 0.152101 -4.94854e-20)
(1.85685 0.102865 0)
(-0.0766011 0.179586 1.98395e-19)
(-0.960201 0.405692 -3.67795e-19)
(1.01889 -0.0177596 -2.36647e-19)
(-0.313377 -0.254814 -1.24585e-19)
(1.01943 -7.45689e-05 -1.89914e-19)
(1.19026 -0.223803 -7.43767e-20)
(0.820787 -0.494277 2.61925e-19)
(-0.111065 -0.133516 -1.05426e-19)
(1.03226 0.0097897 0)
(1.04992 -0.0136541 -5.22436e-20)
(0.858454 0.019798 0)
(-0.0983763 0.032754 2.39924e-19)
(1.29377 -0.446896 0)
(-0.349284 -0.112328 -3.07315e-19)
(1.46363 0.112392 -3.09775e-20)
(1.62719 0.672564 -6.98469e-21)
(-0.0717341 0.0207777 0)
(1.05218 -0.0386628 1.60479e-19)
(-0.438603 -0.0980169 -6.32632e-21)
(0.927078 -0.0209133 2.52483e-19)
(1.01137 -0.00999078 -1.61426e-19)
(1.64453 0.845743 3.49623e-20)
(0.504935 0.47245 0)
(0.427241 0.375602 1.87474e-19)
(2.44804 -0.431103 -1.1865e-20)
(1.13663 0.121277 1.77469e-19)
(1.11578 -0.733663 0)
(1.0218 0.000966444 0)
(0.999516 -0.0190755 -3.72174e-19)
(1.01948 0.0140659 -3.60799e-19)
(-0.171976 -0.270269 0)
(1.1975 0.804354 -1.20988e-19)
(1.09354 -0.208477 -3.12026e-21)
(1.01597 0.00267714 1.39301e-19)
(1.01231 0.0122862 -1.74371e-19)
(-0.330068 -0.0616966 -3.00576e-20)
(-0.495554 -0.0548301 1.59045e-19)
(1.01747 -0.0162497 5.95003e-19)
(1.3723 -0.170265 0)
(1.82687 0.63497 -4.10315e-20)
(1.0152 -0.0132089 -1.85114e-19)
(1.97752 0.109868 -1.3798e-19)
(1.05912 0.00622188 -4.29291e-22)
(1.00908 -0.0107812 3.71074e-20)
(2.10044 -0.189318 -3.42403e-19)
(1.01655 0.00570641 1.79094e-19)
(0.176743 -0.226497 2.08338e-20)
(1.01867 0.00059635 0)
(0.926292 0.137824 4.50844e-20)
(-0.869759 0.354186 4.78174e-21)
(1.00125 0.0214413 1.77834e-19)
(1.04167 0.0203606 -6.40224e-22)
(0.891448 -0.403471 -1.09721e-21)
(1.24241 0.310534 3.81932e-19)
(0.997862 0.0143988 1.21994e-19)
(1.01638 -0.0154886 4.34488e-22)
(1.71741 0.249481 -2.21885e-20)
(1.73574 0.921047 -9.67788e-20)
(0.800569 -0.718731 4.66163e-20)
(0.470519 -0.353981 -2.72801e-19)
(1.00692 -0.0113339 0)
(1.02121 0.0018241 4.45128e-20)
(1.01087 -0.010191 9.41116e-20)
(0.276016 0.184262 1.80175e-20)
(1.01493 0.00387946 -1.86447e-19)
(1.03182 -0.0273614 2.12189e-19)
(1.00762 -0.00935102 -1.76033e-19)
(1.01386 0.00382621 -4.73231e-22)
(1.01296 0.000820836 -3.22706e-22)
(1.02635 0.0124977 1.78335e-19)
(0.897567 0.0718356 4.60791e-19)
(1.23741 0.00792701 0)
(0.309103 0.29014 2.17661e-19)
(1.01193 -0.00513939 0)
(1.02044 -0.0212761 -5.18736e-20)
(1.50857 0.43453 -7.7928e-20)
(1.65975 0.0602465 0)
(2.34879 -0.108011 -1.94583e-19)
(0.775815 0.159274 -2.36757e-20)
(0.749625 -0.017169 0)
(2.03025 -0.00307821 0)
(-0.733444 0.439999 -1.2331e-19)
(0.990259 0.86812 1.16946e-20)
(1.01754 -0.00624944 -1.8814e-19)
(1.14444 -0.58175 -4.85861e-20)
(-0.315473 -0.411643 8.99457e-21)
(0.198113 -0.366186 0)
(1.60735 -0.395677 0)
(1.71515 -0.040819 0)
(-0.159611 0.0925894 6.75105e-20)
(0.478367 0.340034 -2.91721e-19)
(-0.599915 0.768928 0)
(-0.00262948 0.497269 -1.84964e-19)
(1.66936 0.949141 -5.13742e-20)
(1.0082 -0.00437934 -3.67475e-19)
(0.436634 0.604328 -3.87159e-20)
(1.0218 0.00458731 2.43009e-19)
(0.682785 -0.0422602 0)
(-0.156929 -0.248909 -3.26458e-20)
(0.597416 0.410182 -3.15052e-19)
(1.15949 0.0318058 2.96375e-20)
(0.0750694 0.413419 0)
(0.808632 0.0774607 6.32928e-20)
(0.503375 0.480307 4.7902e-20)
(1.16261 0.86646 -3.27076e-20)
(-0.0793391 -0.0806993 1.60403e-19)
(1.01936 0.00881422 0)
(0.473979 -0.0433459 -1.84728e-19)
(1.01186 -0.00405065 1.38081e-19)
(2.2603 0.175473 0)
(1.01228 0.00618873 2.3135e-19)
(0.0253233 -0.297043 -1.95567e-19)
(1.01863 0.00859854 -1.43242e-19)
(1.34905 0.327336 0)
(2.59915 -0.082143 7.59943e-22)
(1.00904 0.00200107 -9.61466e-20)
(0.99531 -0.0364794 2.54e-19)
(1.08272 0.0905276 -2.17999e-21)
(0.13529 -0.798421 1.51227e-19)
(-0.125965 -0.126987 4.22442e-19)
(1.95917 0.235683 1.36703e-19)
(-0.234754 -0.771636 -1.65539e-19)
(0.799503 0.0147888 -3.46782e-19)
(0.801577 0.026257 0)
(-0.100145 -0.287138 -8.40858e-20)
(1.02034 -0.0185191 -2.78985e-20)
(0.972614 0.0180804 0)
(1.04924 -0.000190918 -1.77609e-19)
(0.114972 -0.81161 1.62732e-19)
(-0.901222 0.333993 2.09191e-19)
(2.20791 -0.58983 0)
(-0.843106 0.320221 -6.00489e-19)
(1.54597 -0.353085 0)
(1.03919 -0.0188197 5.20339e-20)
(1.20011 0.681101 -1.10043e-22)
(1.01454 -0.00414096 1.49108e-19)
(-0.776368 0.429117 3.37859e-19)
(1.01864 0.00067276 0)
(0.994023 0.00361773 -3.61185e-19)
(1.00873 0.00635593 1.89765e-19)
(1.54998 0.0136498 0)
(0.687444 0.277319 6.82071e-21)
(0.95627 -0.00124973 -1.62523e-19)