/*--------------------------------*- C++ -*----------------------------------*\
| =========                 |                                                 |
| \\      /  F ield         | OpenFOAM: The Open Source CFD Toolbox           |
|  \\    /   O peration     | Version:  2306                                  |
|   \\  /    A nd           | Website:  www.openfoam.com                      |
|    \\/     M anipulation  |                                                 |
\*---------------------------------------------------------------------------*/
FoamFile
{
    version     2.0;
    format      ascii;
    arch        "LSB;label=32;scalar=64";
    class       volVectorField;
    location    "24.9";
    object      U;
}
// * * * * * * * * * * * * * * * * * * * * * * * * * * * * * * * * * * * * * //

dimensions      [0 1 -1 0 0 0 0];

internalField   nonuniform List<vector> 
2186
(
(1.28595 -0.0659114 2.72136e-19)
(1.5614 -0.906623 1.95564e-20)
(1.41153 -0.884387 1.04914e-20)
(0.708644 -0.547175 -1.7351e-19)
(-0.388649 0.33524 -1.66643e-19)
(1.67624 -0.541186 0)
(0.6943 -0.640936 0)
(-0.0134275 -0.0154897 5.73978e-20)
(1.38231 -0.183027 5.78912e-20)
(0.526251 -0.263437 -2.06351e-21)
(0.714457 0.646597 0)
(0.807426 -0.264996 -6.36683e-20)
(-0.0167981 -0.0383139 -2.35877e-20)
(1.20152 0.0269867 -4.25408e-19)
(1.74238 -0.662968 7.87197e-21)
(1.01622 0.000554386 1.98495e-19)
(0.979722 0.0127997 0)
(-0.461942 -0.0201992 0)
(1.65397 -0.442185 0)
(-0.0757043 0.321681 -6.71748e-20)
(0.493536 0.158866 -1.24415e-19)
(-0.166426 0.225059 9.08692e-20)
(1.19039 0.0303468 3.50326e-19)
(-0.187746 -0.0435021 4.70463e-21)
(1.02842 0.0136356 -2.75833e-19)
(0.75916 -0.524315 0)
(0.759126 0.00778782 1.63123e-19)
(0.585783 -0.565486 -2.07417e-19)
(1.25896 0.748098 0)
(0.960418 0.0252042 -3.7618e-19)
(-0.0306213 0.113771 0)
(1.0219 -0.00538411 1.30397e-20)
(-0.0309432 0.288694 0)
(2.56024 -0.113022 1.81131e-19)
(-0.170668 -0.110587 7.76971e-22)
(1.59878 0.810322 8.7656e-20)
(2.0992 0.069874 1.19282e-19)
(0.524413 0.206163 -3.70112e-19)
(2.05014 0.220707 -3.17499e-19)
(1.35871 -0.4223 -1.78422e-20)
(-0.0446655 -0.0813316 0)
(-0.117573 0.205608 0)
(1.81449 -0.845471 4.16195e-20)
(-0.431597 0.250936 0)
(1.14112 0.303377 1.70106e-19)
(0.574415 -0.246431 3.18288e-19)
(0.885895 -0.7547 0)
(1.14643 -0.759993 1.53015e-19)
(2.34323 -0.161874 0)
(-0.295589 0.313186 1.77571e-19)
(-0.0216984 0.18197 9.93146e-20)
(0.662995 0.612133 8.71411e-20)
(2.00118 -0.729536 2.4176e-20)
(0.617392 0.327212 -2.97188e-19)
(-0.259733 0.0966396 3.54562e-20)
(0.732634 -0.620753 0)
(1.60627 -0.928027 1.71873e-20)
(0.556201 -0.517029 0)
(2.37569 0.201058 9.68738e-20)
(1.11078 -0.154255 -4.39907e-19)
(1.85801 -0.054018 1.31577e-19)
(1.40004 0.324049 -1.99974e-19)
(1.39095 0.564933 0)
(1.17659 -0.367352 1.95405e-20)
(1.40652 0.407537 -1.22506e-19)
(1.21112 -0.703204 -2.22872e-19)
(1.21643 0.695279 5.80206e-20)
(0.683856 0.114953 -6.1213e-19)
(0.824172 0.091699 0)
(1.90867 -0.191796 -1.8812e-20)
(-0.0399675 -0.0358411 -6.48926e-20)
(2.25583 -0.100679 -1.20546e-19)
(0.72223 0.0050166 -2.7153e-19)
(0.844921 -0.486915 0)
(0.841938 0.216369 -9.96856e-20)
(0.520504 -0.478965 -3.45614e-19)
(2.19807 -0.0984645 0)
(1.0067 0.0107784 4.09902e-19)
(-0.169762 -0.123517 0)
(2.10711 0.390778 0)
(0.489922 -0.0895862 8.4621e-20)
(1.16942 -0.351707 2.72258e-20)
(1.02354 0.00906965 4.58328e-20)
(1.36843 0.438203 3.07296e-20)
(0.965245 0.0264085 4.81317e-19)
(1.03479 0.0327629 -1.13919e-20)
(0.681941 0.224703 -3.62163e-19)
(1.56672 -0.445037 3.72077e-21)
(1.39742 -0.213851 0)
(-0.0681567 -0.0510756 4.66107e-20)
(0.829427 -0.591731 -1.99271e-19)
(-0.125917 0.428061 -1.88394e-21)
(1.09684 -0.0634027 2.89517e-19)
(0.801283 -0.149127 0)
(0.970729 0.0239355 4.57958e-20)
(1.41857 0.675207 0)
(1.56952 -0.919035 0)
(1.34739 0.236709 0)
(-0.371979 0.333381 0)
(0.7588 -0.632859 3.48133e-19)
(-0.360457 0.259387 -2.60662e-19)
(0.252284 0.143926 1.4263e-19)
(1.61686 0.198328 0)
(1.1332 -0.0917845 -2.64671e-19)
(1.12277 0.0243436 2.02836e-19)
(0.00694554 0.386455 1.3087e-19)
(0.675715 0.550251 0)
(2.09557 -0.190084 -3.40334e-20)
(0.936632 -0.448958 9.74966e-20)
(-1.07337 -0.444295 1.72333e-19)
(1.842 0.321319 1.20719e-19)
(-0.272821 0.379538 -2.66449e-19)
(0.785587 -0.713481 0)
(0.599394 0.401162 1.78464e-19)
(1.56158 -0.183138 -1.74022e-19)
(-0.0453706 -0.0283331 -2.66914e-19)
(1.25025 0.640602 1.37184e-20)
(1.80473 -0.110533 0)
(-0.0901935 -0.0638014 -1.39391e-19)
(0.701556 -0.0301066 8.63429e-20)
(1.62255 0.919211 0)
(-0.219115 0.184948 -2.4775e-19)
(0.928574 0.800303 -2.9353e-19)
(-0.443208 -0.0511781 2.6047e-19)
(1.03224 -0.021003 0)
(1.53437 0.708727 -1.72905e-20)
(-0.363867 0.377289 0)
(0.668323 -0.458991 -1.24356e-19)
(-0.432433 -0.0445591 -1.47196e-19)
(0.759007 -0.691892 0)
(0.405478 -0.217201 4.61128e-19)
(0.510101 -0.417961 3.19799e-19)
(0.395926 -0.358089 0)
(0.948357 -0.752414 -1.70252e-19)
(0.00971238 0.0589567 0)
(-0.185149 0.26571 -1.39142e-19)
(0.779028 -0.666605 1.69959e-19)
(2.2426 -0.242196 8.06532e-20)
(2.26516 0.159877 0)
(-0.0406697 -0.0200542 0)
(0.719666 0.668985 -3.66403e-19)
(1.72107 -0.600781 -3.36218e-20)
(0.0156457 0.0152261 0)
(0.949171 -0.77593 -1.80392e-20)
(1.12694 -0.090759 0)
(1.06889 -0.108874 4.58305e-19)
(2.00313 -0.167464 -2.04617e-20)
(-0.386093 0.315602 0)
(1.186 -0.531353 -7.24182e-20)
(-0.17633 0.365498 -4.42489e-20)
(-0.299251 0.457843 0)
(1.0591 -0.783673 1.14754e-20)
(1.00663 0.00508849 -6.84655e-19)
(0.620848 -0.442237 -1.21288e-20)
(0.787708 -0.482555 0)
(1.16208 -0.702248 -1.27473e-19)
(0.679304 0.284302 2.78718e-19)
(1.26547 0.135747 0)
(1.55163 0.072538 -2.7912e-19)
(1.16017 -0.825053 -3.06929e-19)
(-0.0470054 -0.0254436 -5.04989e-20)
(-0.0862481 -0.285055 -7.11402e-20)
(1.08155 0.0147306 2.55347e-19)
(0.889392 -0.434317 -1.22615e-19)
(1.60123 -0.481256 -3.44445e-21)
(1.19489 -0.243927 -5.48228e-20)
(0.716972 -0.117273 5.77415e-20)
(-0.146435 -0.0465818 -1.28342e-19)
(1.77838 -0.164576 0)
(2.30495 -0.284842 6.40582e-20)
(1.49708 0.67949 1.5237e-19)
(0.777993 -0.582601 -2.53893e-19)
(0.995452 0.00942745 1.40274e-20)
(0.689709 -0.497277 3.41946e-19)
(1.35547 0.835736 1.37874e-19)
(1.90877 0.0341932 1.49782e-20)
(-0.377071 0.250152 0)
(1.09434 0.0635986 -2.64347e-19)
(-0.328772 -0.185476 -1.20743e-19)
(1.11084 0.518178 8.61451e-20)
(0.108994 -0.116592 7.75561e-20)
(1.16031 0.0298823 -4.87436e-20)
(-0.177838 0.265046 -1.62611e-19)
(1.345 0.612062 -8.4496e-20)
(1.18535 0.925235 0)
(-0.369441 0.202962 -7.86404e-20)
(0.0116038 0.0722473 0)
(0.69084 0.598814 -2.94285e-19)
(2.13172 0.151993 -2.04573e-20)
(-0.0333074 -0.071939 8.23334e-20)
(-0.359048 -0.0258106 -4.1953e-19)
(0.7311 0.119291 2.6897e-19)
(2.08572 -0.0766061 -3.71915e-20)
(0.95569 -0.32158 -3.54373e-20)
(-0.0162923 -0.00802748 0)
(-1.17686 -0.688278 3.51484e-19)
(1.38342 1.01301 -2.34107e-20)
(0.848566 0.111089 -1.47861e-19)
(0.586168 0.551008 2.05175e-19)
(0.460643 0.200446 0)
(-0.117133 -0.179832 -9.39202e-20)
(-1.20141 -0.746679 2.96519e-19)
(1.25345 -0.92498 8.99138e-22)
(0.983946 -0.0133031 -2.14071e-19)
(-0.147232 -0.142763 5.75467e-21)
(-0.233099 0.266066 1.43136e-19)
(-0.258168 -0.161967 -9.41271e-20)
(1.84876 -0.154477 0)
(1.14734 0.050892 -3.54933e-19)
(2.32995 -0.00244757 1.84602e-19)
(1.23612 -0.594589 1.41996e-19)
(0.957365 -0.116175 -7.12111e-21)
(0.621965 0.381378 0)
(0.98538 0.786675 -1.73976e-20)
(0.717865 0.661795 1.95963e-19)
(0.867066 -0.533314 1.79445e-19)
(0.722243 0.542809 0)
(1.02036 0.00755981 9.17686e-21)
(0.850504 -0.633376 2.56464e-19)
(0.870419 0.45927 -4.88038e-19)
(1.18915 -0.0986544 0)
(0.00317877 0.0164464 -1.95255e-19)
(0.0197157 0.366299 -1.01413e-19)
(1.64608 0.752387 0)
(1.3048 -0.906321 -7.69377e-22)
(-0.425753 0.0177117 0)
(-0.386818 0.413736 1.06858e-19)
(0.773907 0.689253 -1.0402e-19)
(0.835749 -0.186294 0)
(-0.184152 -0.0305695 0)
(1.5563 -0.43937 0)
(-0.202453 -0.12902 4.05456e-19)
(1.17123 -0.853152 2.00572e-19)
(1.14114 -0.578144 8.04401e-20)
(1.02896 -0.15932 -2.03256e-19)
(0.844906 -0.663058 -2.04176e-19)
(0.177061 -0.180259 0)
(-0.467689 -0.0150397 0)
(0.971264 -0.485147 2.15886e-19)
(-0.0212704 -0.00722528 0)
(-0.346871 0.268148 0)
(-0.0707377 -0.0205175 2.30667e-19)
(0.830862 0.70691 9.02764e-20)
(1.05524 0.830509 0)
(0.734193 0.593818 -8.99205e-20)
(0.827557 -0.0081551 -2.46843e-19)
(0.782735 0.600551 -2.41121e-19)
(0.623401 0.581822 -1.76563e-19)
(-0.0706545 -0.0525543 2.77382e-22)
(0.691402 -0.619359 0)
(0.91597 0.205979 -3.50317e-19)
(-0.0685411 -0.0821376 2.88037e-20)
(0.634675 0.589447 3.98558e-19)
(0.99926 0.834674 0)
(-0.47559 -0.0277415 3.03837e-19)
(-0.167306 -0.100374 1.48492e-19)
(-0.155476 0.0295679 -7.18952e-20)
(0.701654 0.609378 -1.55896e-20)
(0.968884 -0.00676672 6.61531e-20)
(-0.0555438 -0.107617 0)
(2.1981 -0.18992 -1.05883e-19)
(1.74226 -0.261808 -1.95235e-19)
(0.624338 -0.576536 -9.07784e-20)
(-0.380568 -0.0102589 9.03729e-21)
(1.23475 0.485207 1.95687e-19)
(0.917183 0.447846 0)
(1.0233 -0.156441 2.27147e-19)
(-0.127094 -0.103177 -2.27748e-21)
(-0.11647 0.209474 3.76754e-19)
(0.910943 0.0208984 -5.98441e-20)
(1.15816 0.16355 0)
(1.84545 -0.0675234 -5.28028e-20)
(1.95402 0.0529625 0)
(0.567185 0.30979 -4.87353e-19)
(-0.258938 0.312289 0)
(-0.03558 -0.0250873 1.26771e-19)
(0.672329 0.0977522 0)
(0.589014 -0.476879 -2.091e-19)
(1.13345 0.0210225 2.36921e-19)
(-0.40319 0.267981 3.6529e-20)
(2.04058 -0.0672311 1.36828e-21)
(1.96979 -0.231006 -3.81619e-20)
(1.14398 0.249577 -2.38755e-19)
(-0.0710045 -0.10535 -5.65496e-20)
(1.03837 -0.820234 0)
(0.807062 0.0165806 -1.72279e-19)
(0.902521 -0.347782 -3.3462e-19)
(1.67327 -0.555746 5.44132e-21)
(1.65862 0.021776 2.148e-21)
(1.09573 -0.000908531 4.25191e-19)
(-0.105513 -0.0986208 -6.35505e-20)
(0.969053 -0.411412 -1.51162e-19)
(0.185586 -0.178176 2.93979e-19)
(1.00838 -0.00569218 0)
(1.00493 -0.00421639 0)
(0.131106 0.0218895 4.02637e-20)
(-0.143268 0.331664 -9.9467e-20)
(0.188365 -0.11327 -7.31241e-20)
(1.86261 0.0101197 4.64573e-21)
(0.921754 -0.0401079 0)
(1.90382 -0.042414 -1.21924e-19)
(0.908632 -0.789439 -1.21739e-19)
(1.73429 -0.540434 -1.82555e-20)
(1.14964 0.873404 0)
(0.446565 -0.426131 0)
(0.642393 0.559102 -1.86374e-19)
(1.12943 0.301322 -4.37538e-19)
(2.16294 -0.26013 7.63652e-23)
(0.87773 0.189016 1.50709e-19)
(-0.0893561 -0.194756 -1.7166e-19)
(1.4787 -0.345464 1.85228e-20)
(-0.102888 -0.254235 0)
(-0.0793232 -0.0436638 0)
(-0.0847077 -0.121127 0)
(1.29797 -0.697049 -1.42907e-19)
(-0.292874 0.477124 -2.18717e-19)
(-0.176471 0.29876 0)
(1.34077 1.01491 -3.7106e-20)
(1.14049 0.166078 -4.59684e-19)
(2.59527 0.442035 -1.05826e-19)
(1.1253 0.961603 8.99547e-20)
(-0.234851 0.432909 1.37393e-19)
(1.18795 -0.0934116 0)
(-0.0936152 -0.107122 -1.81441e-19)
(-0.318691 0.438541 2.5675e-19)
(0.781814 0.0680288 2.0085e-19)
(1.59276 0.984069 -6.82778e-21)
(1.95047 0.943577 -3.64922e-20)
(-0.152404 0.422563 -1.05662e-21)
(0.715728 -0.652553 -4.63183e-20)
(1.16752 -0.0366405 0)
(1.73704 -0.0124438 0)
(0.977464 0.0459418 0)
(-0.84477 -0.326114 -3.74807e-19)
(-0.102756 -0.166943 5.86726e-20)
(1.09048 0.881127 0)
(0.993667 0.0120408 5.74267e-19)
(0.805777 0.643251 -2.41073e-19)
(-1.20357 -0.606028 -1.98109e-19)
(0.867125 0.0477761 -4.53849e-20)
(0.686387 -0.624245 -2.65485e-19)
(1.43676 0.739856 -3.50751e-20)
(0.530839 -0.407891 -3.30129e-19)
(1.13445 0.00353813 -5.13115e-19)
(0.793442 0.046548 5.16107e-20)
(1.47863 -0.177787 1.09883e-19)
(1.597 -0.0562334 -6.15075e-20)
(-0.00330278 0.0039371 2.32275e-22)
(1.11536 0.499461 -2.87765e-19)
(1.3868 0.648924 7.70033e-20)
(-0.210176 -0.0305262 0)
(-0.0684791 -0.251392 6.48677e-20)
(-0.00683792 0.0393212 8.32597e-20)
(-0.175889 -0.112229 -6.50226e-20)
(0.513628 0.37726 0)
(1.36247 -0.136107 0)
(-0.0310273 0.0394859 -1.36881e-19)
(-0.0991783 -0.104502 -2.94482e-20)
(1.05234 -0.0271326 2.03435e-19)
(-0.350103 0.297572 -3.90477e-20)
(1.30377 0.0213769 -3.25702e-19)
(-0.0344112 0.353344 0)
(0.801417 -0.709421 -3.78279e-19)
(1.42687 -0.0761211 8.76938e-20)
(-0.190356 -0.252136 7.65612e-20)
(0.735384 0.203464 3.52993e-19)
(0.636338 0.193291 1.13639e-19)
(0.475597 -0.447679 2.33312e-19)
(0.0149101 0.00824061 -6.95849e-20)
(1.78485 0.877138 0)
(0.429913 0.402569 -2.03757e-19)
(1.03008 -0.0117136 -3.23959e-19)
(-0.393094 -0.033683 1.6616e-19)
(1.47289 0.50308 -1.30384e-19)
(-0.0297782 -0.0141264 -2.54707e-20)
(0.659157 -0.601299 -1.0751e-19)
(0.837829 0.221055 -2.21946e-19)
(1.00877 0.455783 2.45459e-20)
(1.13054 -0.122021 4.10217e-20)
(0.588518 -0.18302 -3.34136e-19)
(1.9343 -0.328006 -1.00971e-20)
(1.74634 -0.0343696 0)
(2.10553 0.364434 -5.54001e-20)
(2.19803 -0.102313 7.73727e-21)
(0.443097 -0.129371 3.41545e-20)
(1.00208 0.374967 -1.85107e-19)
(1.40599 -0.393142 -4.67237e-20)
(0.452552 0.42959 -2.6458e-19)
(-0.348181 -0.0413753 1.97556e-19)
(1.67151 -0.187604 0)
(0.943505 0.00723787 0)
(0.83976 -0.742143 7.77061e-20)
(-0.165275 -0.0995866 -1.62843e-19)
(-0.452311 0.0415966 -1.6892e-19)
(-0.00509195 0.00271636 -1.07978e-19)
(-0.32985 0.15477 -1.3592e-19)
(-0.149353 -0.259264 0)
(-0.0724091 -0.0457158 1.90516e-20)
(0.211989 0.393836 -9.98869e-20)
(-0.254258 0.2804 -3.25683e-19)
(0.789938 -0.0752507 0)
(1.64965 -0.258481 8.29998e-20)
(-0.0023374 0.0105437 0)
(0.992691 0.02445 4.13148e-19)
(-0.0801029 -0.272394 1.34424e-20)
(0.507483 -0.379367 4.42636e-19)
(-0.366441 -0.153906 1.99917e-19)
(-0.92328 -0.208293 0)
(0.131815 0.262902 1.15534e-19)
(0.999676 0.0267649 -1.24602e-20)
(-0.116295 -0.0667444 0)
(1.00478 -0.00796076 -6.40016e-20)
(0.827431 -0.695821 -3.52455e-19)
(1.17848 -0.374952 0)
(0.915209 -0.242376 2.39058e-19)
(-0.0458386 0.156863 2.06584e-19)
(-0.0266046 -0.0185825 0)
(-0.104554 -0.205917 -2.61558e-21)
(0.694752 -0.601874 -4.97455e-19)
(0.936635 -0.0232206 -3.06074e-19)
(-0.169798 -0.0875572 1.89537e-19)
(-0.061163 -0.0405503 7.68447e-20)
(-0.112836 -0.255009 0)
(0.991113 0.50619 0)
(-0.153736 -0.286615 8.11446e-20)
(1.47775 -0.315409 -9.99209e-20)
(1.11917 0.935407 1.9981e-20)
(1.09219 0.231349 -1.35789e-19)
(1.12057 0.00850536 -2.60746e-19)
(1.01543 -0.0626408 -9.71851e-20)
(-0.149814 -0.112902 -1.7621e-19)
(1.91108 0.0878712 3.8476e-19)
(0.703401 0.0387181 2.29235e-19)
(1.97396 -0.153546 8.11574e-20)
(1.0225 -0.134712 0)
(0.106579 0.00321804 3.21901e-19)
(1.14191 0.0277167 -5.59728e-19)
(1.80727 0.644099 1.29405e-20)
(0.711123 -0.418204 -1.83683e-19)
(-0.0820537 -0.0581585 1.04277e-19)
(0.765888 -0.669903 4.59622e-19)
(1.2777 0.211343 8.164e-20)
(1.0076 -0.00766602 2.83342e-19)
(-0.101997 -0.182466 -7.13837e-20)
(1.03209 0.0268656 0)
(2.09853 0.0959301 -2.34251e-19)
(-0.0437805 -0.0262807 0)
(1.01463 0.0160103 -1.68385e-19)
(-0.944004 -0.265912 -4.70796e-19)
(1.76317 0.311811 3.85805e-20)
(-0.06087 0.0293619 1.10111e-19)
(1.65467 0.0350081 -3.53411e-21)
(1.01572 -0.0159136 5.86662e-20)
(1.27737 -0.0812807 0)
(1.40019 -0.587501 -2.19453e-19)
(1.02899 0.0468513 -1.72736e-19)
(1.49572 0.82278 -6.38044e-20)
(1.31491 -0.0567604 0)
(0.580101 0.249895 -1.67664e-20)
(-0.0360904 0.0457778 0)
(1.27928 0.0420035 0)
(-0.087137 -0.153425 0)
(1.27952 0.472902 0)
(1.99019 0.282458 5.15692e-20)
(0.779612 0.653168 4.22652e-19)
(0.2767 -0.277619 -2.76264e-19)
(-0.0978296 -0.0847561 -1.81035e-19)
(-0.0252438 -0.0105907 0)
(2.29443 -0.19159 8.84246e-20)
(1.40791 0.545587 0)
(1.51259 0.302544 0)
(-0.122287 -0.117409 7.90204e-20)
(0.846341 0.748589 1.36605e-19)
(1.60503 -0.0288094 0)
(-0.00291552 -0.0188266 4.55356e-20)
(0.929805 0.253083 2.05449e-19)
(1.91129 -0.0965483 -5.50668e-20)
(1.29148 0.965981 4.88507e-20)
(0.885258 -0.796055 -5.76283e-20)
(1.65248 -0.0470399 -3.05212e-20)
(0.832526 0.752611 1.40434e-19)
(1.22709 0.964732 0)
(2.12751 -0.0637789 1.33825e-19)
(0.753971 -0.404697 0)
(1.51554 -0.360252 4.60984e-20)
(1.07824 0.131094 1.97505e-19)
(1.0057 -0.00297255 0)
(-0.51381 -0.504421 4.04188e-19)
(0.873273 -0.139915 5.42734e-20)
(0.599957 -0.366531 0)
(0.641575 -0.339021 2.38612e-19)
(1.28401 0.585269 -3.61515e-20)
(0.504758 0.478144 2.91638e-19)
(-0.284925 0.330053 3.81524e-20)
(0.246621 -0.000730784 1.03156e-19)
(0.734267 0.0637251 0)
(1.2814 -0.86848 -1.48106e-19)
(1.03685 -0.0422754 4.51309e-19)
(1.57814 0.358121 1.46585e-19)
(-0.0112056 -0.0380757 3.88984e-20)
(-0.431684 -0.158606 0)
(1.19857 -0.226168 -1.3806e-19)
(-0.0229815 -0.0149199 -8.76494e-20)
(-0.365679 -0.661291 -3.24001e-20)
(-0.144842 0.0609688 -8.26756e-22)
(-0.219679 0.108562 3.07876e-19)
(1.29603 -0.367778 -1.67057e-20)
(2.24951 -0.168448 1.41805e-19)
(1.23615 0.485027 -3.15584e-19)
(0.899898 -0.0681924 0)
(1.86896 -0.0633816 2.15211e-19)
(1.7776 0.0682403 3.03501e-20)
(0.87684 -0.734563 1.76489e-19)
(1.11426 -0.937131 -8.29973e-20)
(0.508285 0.473317 1.96161e-19)
(0.970768 -0.319459 0)
(1.83428 0.600547 2.75119e-20)
(-0.0283119 -0.0169487 -1.78685e-19)
(0.924399 0.807923 0)
(1.45687 0.819331 0)
(0.276563 -0.275479 -3.49811e-21)
(0.361323 0.360146 0)
(-0.497669 -0.180018 -2.08509e-19)
(-0.350941 0.410301 -1.14579e-19)
(1.68551 -0.409842 0)
(1.30231 0.0854957 2.05701e-19)
(-0.377484 -0.0463409 1.4182e-19)
(0.508188 -0.481006 -5.42261e-19)
(1.89973 -0.0796841 -2.10423e-20)
(0.58391 -0.527819 0)
(1.06805 0.139731 0)
(1.33383 -0.2246 0)
(1.14561 0.24818 -2.56401e-19)
(1.38815 0.111969 3.65286e-19)
(-0.806872 -0.149363 0)
(0.86456 -0.0547651 0)
(1.96406 -0.0800264 9.82967e-22)
(-0.15602 0.302236 1.04004e-19)
(2.30685 -0.0598955 -2.41549e-19)
(1.03266 -0.484471 8.78916e-20)
(1.89328 0.0418334 -2.667e-19)
(-0.464254 -0.0168891 -1.13078e-19)
(1.98676 0.0482908 -1.83032e-19)
(1.01416 -0.0128256 4.67274e-19)
(1.579 0.629225 0)
(-0.362956 0.406758 3.08594e-20)
(0.966413 -0.797244 2.28824e-19)
(0.854622 0.0161596 5.30477e-20)
(0.602807 -0.390492 0)
(1.83328 -0.509005 -5.81041e-21)
(1.17562 -0.178833 1.85075e-19)
(1.63952 -0.26227 0)
(0.581678 -0.539268 5.52589e-19)
(1.26877 0.15998 -1.7088e-20)
(2.44987 -0.118268 3.86351e-19)
(-0.201006 0.383421 -2.14565e-19)
(1.38325 0.648938 1.62156e-19)
(1.18755 0.432763 3.96441e-21)
(0.935235 0.408356 2.41243e-19)
(1.59506 -0.255771 -1.41136e-19)
(-0.148412 -0.120974 3.79088e-22)
(0.385497 -0.124858 0)
(-0.138597 -0.098429 1.71998e-19)
(1.04981 -0.91175 0)
(1.02627 -0.623542 2.70265e-20)
(0.824564 -0.303865 -2.66482e-19)
(1.45922 0.271984 -4.97131e-20)
(-0.218263 -0.196459 -1.93824e-19)
(1.02592 0.516544 1.8724e-19)
(-0.753067 -0.417192 4.1398e-19)
(0.704223 -0.0400679 0)
(1.82273 -0.00759935 0)
(2.03902 0.0231674 9.71852e-21)
(0.770933 -0.0123926 0)
(1.32558 -0.200617 -1.90439e-19)
(-0.512309 -0.0155573 3.02635e-19)
(1.98631 0.516698 8.45463e-21)
(1.05395 -0.0315229 0)
(0.521661 -0.300803 1.19141e-19)
(1.00816 0.0266554 2.21512e-19)
(0.431961 -0.161546 -3.82091e-19)
(-0.270935 0.0237052 0)
(1.07568 -0.4542 5.97938e-19)
(1.74191 -0.0425753 -4.00089e-22)
(1.06737 -0.470155 -2.59913e-19)
(2.3773 0.216435 1.72771e-19)
(1.33777 0.827746 0)
(0.884296 0.023652 0)
(-0.0438504 -0.0797213 -1.01927e-19)
(-0.0343586 0.0434622 1.54054e-19)
(0.98156 0.397775 -2.23648e-19)
(-0.0165057 -0.176991 -5.06053e-20)
(0.680691 0.455703 2.55923e-19)
(0.79366 0.298746 0)
(0.513365 -0.477012 0)
(0.144178 0.0431442 2.79806e-21)
(1.19321 -0.483412 -1.25953e-19)
(0.680033 0.0242035 5.95586e-21)
(0.723406 -0.109289 1.31169e-19)
(-0.119783 0.210605 -2.75464e-19)
(1.20677 0.0145727 2.18682e-19)
(0.69635 0.650132 0)
(1.32095 0.728909 0)
(1.67338 0.270425 0)
(-0.141249 -0.226797 -7.99464e-20)
(1.32441 0.597764 2.09393e-19)
(1.98285 -0.00861467 2.05247e-20)
(0.960178 -0.0184038 0)
(2.32162 -0.355352 0)
(2.09168 -0.0660342 -2.95031e-19)
(0.680356 -0.0588619 4.55181e-19)
(1.00507 0.00629765 -2.21225e-19)
(1.54159 0.502667 0)
(-0.316575 0.119961 0)
(1.28761 0.340268 3.14482e-19)
(1.06203 0.560082 -1.39595e-19)
(1.0791 0.0321414 0)
(1.30781 -0.294205 0)
(2.08651 0.700161 -3.02538e-19)
(-0.151615 0.480125 -3.89839e-21)
(0.994489 0.0153866 0)
(0.744523 0.517619 -3.53422e-20)
(0.898656 -0.791427 0)
(1.0021 0.0179209 5.15399e-20)
(-0.544989 -0.0527101 -4.96746e-21)
(0.879349 -0.292193 3.53792e-19)
(0.297816 -0.340042 -3.43731e-20)
(2.05066 -0.147728 8.3032e-20)
(1.93494 0.140429 1.18781e-19)
(0.776784 -0.0234998 0)
(1.00187 0.0127919 0)
(-0.2922 -0.198006 0)
(0.699858 0.670655 -2.00563e-19)
(-0.0946391 0.151781 1.85603e-19)
(1.20293 0.373843 -5.04187e-19)
(-0.410272 0.151264 0)
(0.869134 0.681826 1.78175e-19)
(0.98175 -0.305176 0)
(1.00547 0.00110967 1.29362e-19)
(0.111873 -0.52091 4.81322e-20)
(1.07054 0.433328 2.76845e-19)
(1.48346 0.123289 0)
(2.22081 0.104974 -7.48332e-20)
(0.818148 -0.0755874 -4.04796e-19)
(-0.577504 -0.187789 -2.85361e-19)
(0.948431 -0.163278 0)
(0.901971 0.275764 1.88755e-19)
(1.81637 -0.239475 0)
(0.813164 0.562297 3.84156e-19)
(-0.581142 -0.0179123 1.24737e-19)
(-0.126043 0.220609 0)
(0.623992 0.59452 -7.48524e-20)
(0.991211 -0.610498 -1.8835e-19)
(0.448488 -0.18608 -1.34815e-19)
(1.01964 -0.00611291 0)
(-0.299127 -0.0972597 -1.55289e-19)
(0.606828 -0.535834 9.38899e-20)
(0.932023 0.322507 0)
(1.6449 -0.21487 1.00292e-19)
(1.02664 0.875922 2.59792e-20)
(0.697466 -0.1667 -4.0176e-21)
(0.0463372 0.0485832 -1.08832e-19)
(0.202958 0.0701538 -5.96656e-19)
(-0.0520094 -0.0238553 4.67033e-21)
(0.850352 0.396539 2.63351e-19)
(-0.318693 0.458181 -5.31691e-21)
(1.36708 -0.622454 3.17651e-21)
(1.02052 0.0198082 -3.86049e-19)
(-0.192526 -0.231701 0)
(1.03894 0.0458789 -4.50997e-19)
(2.00415 -0.234162 1.17354e-19)
(0.928319 0.727655 2.99688e-19)
(1.1196 -0.0585275 1.83021e-19)
(0.999934 -0.0142563 1.78624e-19)
(1.56942 0.322928 4.51911e-20)
(0.000663803 -0.0111247 -3.73568e-23)
(1.67425 -0.83765 1.42877e-20)
(1.10283 -0.120974 -9.72358e-20)
(0.753097 0.0443382 1.12508e-19)
(0.887463 -0.26312 1.02024e-19)
(1.67302 0.253266 0)
(1.00418 0.772186 0)
(0.659528 -0.438836 -5.73682e-20)
(2.11262 0.208732 -2.27652e-20)
(-0.435336 -0.106815 1.07e-19)
(0.99711 -0.509545 -6.20414e-19)
(0.58472 -0.497907 4.45685e-19)
(1.43213 0.152666 -1.38728e-19)
(-0.0755828 -0.13921 6.29699e-21)
(1.47779 -0.373724 0)
(0.76262 0.159259 -7.31166e-21)
(1.56431 -0.238709 -8.60929e-20)
(1.08329 0.798422 0)
(0.810379 -0.311892 0)
(-0.0290794 0.0501431 0)
(-0.0142856 -0.000487739 -3.04872e-20)
(-0.121574 0.179756 0)
(1.57476 0.111545 5.13509e-19)
(1.25655 0.194596 7.04059e-21)
(-1.06103 -0.46319 1.90842e-19)
(2.10955 0.910178 2.57987e-20)
(1.91467 0.476354 -6.4896e-20)
(2.05057 -0.310681 -1.05281e-20)
(-0.187861 0.0252003 -2.16356e-19)
(-0.114918 -0.23807 1.94855e-21)
(1.66042 0.175254 0)
(0.684508 -0.034573 0)
(1.00119 0.0017999 2.04568e-22)
(-0.153226 -0.231102 0)
(1.45243 -0.00737258 1.18121e-20)
(0.684125 -0.0308843 0)
(1.04106 0.0145674 1.47075e-19)
(0.98953 0.0168234 -5.03682e-20)
(1.29575 -0.0254016 1.2406e-19)
(1.07335 -0.0129223 -1.03173e-21)
(0.92969 -0.165346 -6.13165e-20)
(1.0182 -0.0201101 4.16229e-19)
(0.639474 -0.575509 2.13923e-19)
(-0.894367 -0.450724 -2.42538e-19)
(1.35729 0.650482 8.7969e-21)
(-0.0421237 0.0645038 0)
(1.17155 0.831577 0)
(1.02178 0.00760519 0)
(0.966903 -0.742184 -1.34537e-19)
(0.998836 -0.856331 8.93494e-20)
(1.05579 0.439527 2.54095e-21)
(-0.349134 -0.225588 -6.36356e-19)
(0.720933 -0.102081 1.3261e-20)
(0.552666 -0.334298 -7.08453e-19)
(1.74251 0.531278 -7.18443e-20)
(0.200661 -0.0140837 -7.86322e-20)
(1.97263 -0.284178 1.57738e-20)
(0.859186 0.13964 -2.93936e-21)
(-0.00420113 -0.0152462 -6.61795e-20)
(1.15377 0.584601 2.12538e-19)
(-0.233782 -0.155459 0)
(0.0164847 -0.274376 1.28673e-19)
(-0.102106 -0.065791 -9.54661e-23)
(1.02911 -0.0426379 3.69965e-19)
(1.02084 0.0109388 -9.57402e-21)
(1.1127 -0.00798101 -1.02311e-19)
(1.44719 0.249583 9.28538e-21)
(1.69191 0.333169 6.55458e-20)
(0.371907 -0.345331 -3.55628e-19)
(0.704365 0.372157 -5.37582e-21)
(1.02861 0.0124237 -2.74373e-19)
(1.46421 0.525002 -9.0591e-21)
(1.3328 0.37561 0)
(1.15231 0.623181 -3.98423e-19)
(1.00283 -0.00208765 1.05585e-19)
(0.71344 0.642262 2.73201e-19)
(1.22286 -0.364614 -2.88337e-21)
(1.07964 -0.00325377 -3.35519e-20)
(1.13724 0.018954 9.53038e-22)
(2.30012 -0.0285773 1.46793e-20)
(0.797599 0.23466 0)
(1.04408 -0.0391195 0)
(1.04778 -0.0339908 6.47915e-19)
(1.00274 -0.00196666 0)
(-0.050696 -0.0271978 0)
(0.924053 -0.551245 0)
(1.00086 0.000401683 -6.14153e-19)
(1.11713 -0.652556 1.12615e-19)
(1.02123 0.00051072 1.29486e-20)
(1.39778 0.995487 -2.96967e-20)
(1.58804 1.04521 9.0061e-21)
(0.696548 -0.175091 -2.34227e-20)
(1.39821 -0.250964 1.77002e-19)
(2.01155 0.1981 0)
(-0.00767317 0.411278 0)
(1.8377 -0.193612 2.03992e-19)
(0.963028 -0.267459 0)
(0.999665 -0.0044999 -1.89653e-19)
(1.01094 -0.000789711 3.68735e-19)
(1.49422 0.14509 -7.65595e-20)
(0.0147925 -0.11695 1.36679e-19)
(0.979691 0.00116298 2.00476e-19)
(0.157724 0.0582901 -1.04182e-20)
(0.689461 -0.123068 3.60663e-20)
(1.54158 0.290401 -7.43194e-23)
(0.924149 0.0188899 -2.03469e-19)
(1.00366 0.00449932 2.38773e-19)
(1.00006 -0.000202175 1.4094e-20)
(0.790865 -0.0127707 0)
(0.730992 -0.0263493 0)
(0.727169 -0.026739 8.14855e-22)
(0.704306 -0.0290565 0)
(1.47634 -0.108448 0)
(1.09593 -0.176742 0)
(0.572848 -0.148731 -5.62422e-20)
(0.39428 -0.105065 3.22281e-20)
(1.4667 -0.429197 0)
(1.31293 -0.164598 3.69156e-20)
(1.59565 0.170093 0)
(0.0208616 0.180082 0)
(0.140325 0.0492388 0)
(0.44472 0.135244 -4.99592e-21)
(1.26675 0.243617 2.00786e-20)
(0.77432 0.0238802 0)
(0.786366 0.0201336 0)
(0.963307 0.0215213 -2.50529e-19)
(0.815838 0.00798403 4.65676e-19)
(1.00794 -0.00133359 0)
(1.00013 -0.000386344 4.41061e-19)
(1.00029 -0.000593704 -2.80772e-22)
(0.784169 0.0226012 3.97951e-19)
(0.997547 -0.00552925 -2.30172e-19)
(-0.0615411 0.173751 0)
(0.792737 -0.154223 -3.60893e-20)
(1.00066 -0.000915082 -2.22666e-19)
(0.999987 0.00154039 -3.82568e-19)
(1.19367 0.155048 0)
(0.998849 0.00177264 0)
(0.999685 0.000550346 0)
(1.69274 -0.4888 -2.02921e-20)
(0.089422 0.133161 4.51528e-20)
(0.971194 0.498799 0)
(-0.352767 0.310128 1.84342e-19)
(-0.406931 -0.368798 -3.99629e-19)
(1.02119 -0.00976127 -2.97243e-19)
(-0.0958699 -0.15747 -5.66736e-20)
(1.01738 0.00997039 -2.39742e-19)
(1.13272 -0.202661 -1.37305e-19)
(0.768112 -0.436092 3.49348e-19)
(-0.0137468 -0.000608419 -4.34234e-20)
(1.02774 0.0172993 0)
(1.07022 -0.00848708 -6.45073e-20)
(0.841839 0.0276727 0)
(-0.0912332 0.137761 2.71791e-19)
(0.738337 -0.17448 0)
(-0.130569 -0.193545 -1.5302e-19)
(0.419491 0.127468 1.49056e-20)
(1.72423 0.712957 -1.44499e-20)
(-0.0665853 0.0135369 0)
(1.05207 -0.0370325 2.00409e-19)
(0.507424 -0.029079 3.93291e-21)
(0.930712 0.0160963 3.12745e-19)
(1.01321 -0.00394557 -2.02274e-19)
(1.74151 0.897642 3.55665e-20)
(0.556036 0.525359 0)
(0.48408 0.452761 2.13086e-19)
(2.17517 -0.407913 -7.93617e-22)
(1.18097 0.137828 2.13024e-19)
(1.04902 -0.680853 0)
(1.02417 0.00950065 0)
(0.999899 -0.0165179 -4.65252e-19)
(1.01776 0.0191368 -4.55232e-19)
(-0.0844749 -0.0541291 0)
(1.27049 0.858925 -1.40729e-19)
(1.45122 -0.465349 3.07013e-21)
(1.01623 0.00961287 1.74996e-19)
(1.01155 0.0159331 -2.19559e-19)
(-0.159541 -0.147844 -1.5751e-20)
(0.59048 -0.113203 -1.05159e-19)
(1.02 -0.00970489 7.45708e-19)
(1.51563 -0.442555 0)
(1.93738 0.67767 -4.36376e-20)
(1.01662 -0.00678115 -2.32452e-19)
(2.05073 0.00298428 -7.39944e-20)
(1.06897 0.013916 -5.3465e-22)
(1.01004 -0.00810479 4.64046e-20)
(1.92615 -0.234086 -8.22203e-20)
(1.01518 0.00856705 2.25852e-19)
(1.05711 0.616356 6.48475e-21)
(1.01823 0.00997886 0)
(0.951343 0.178252 5.41034e-20)
(-1.12825 -0.428892 3.60026e-21)
(0.996908 0.0232585 2.24357e-19)
(1.03875 0.0215776 -5.52583e-22)
(1.15484 -0.349076 -1.57011e-20)
(1.29691 0.334641 4.5209e-19)
(0.993552 0.0195592 1.54578e-19)
(1.01809 -0.0101199 5.13296e-22)
(1.81455 0.250258 -2.55213e-20)
(1.85935 0.99095 -1.08771e-19)
(0.742657 -0.665666 7.34393e-20)
(0.415193 -0.265095 -3.40401e-19)
(1.00836 -0.00791088 0)
(1.01841 0.00632982 5.60859e-20)
(1.01155 -0.0059208 1.18079e-19)
(0.884194 0.473672 5.13426e-21)
(1.01443 0.0112846 -2.35147e-19)
(1.0231 -0.0144802 2.70484e-19)
(1.00862 -0.00477189 -2.20687e-19)
(1.01379 0.0101941 -5.3282e-22)
(1.01327 0.00711544 -3.9058e-22)
(1.02388 0.0187811 2.25321e-19)
(0.913607 0.118985 5.58751e-19)
(1.9758 0.542576 0)
(0.381604 -0.661941 1.29567e-19)
(1.01036 0.00107342 0)
(1.02391 -0.0110849 -6.51885e-20)
(1.59649 0.463053 -9.20581e-20)
(1.99168 -0.130498 0)
(2.03839 -0.0509203 -9.23659e-20)
(1.48408 0.190752 -9.74482e-20)
(0.78372 -0.017895 0)
(1.64994 -0.277745 0)
(0.454241 0.173147 -4.75016e-19)
(1.17513 0.145072 -3.87549e-20)
(1.01755 0.00194509 -2.36739e-19)
(1.08159 -0.536996 -7.44794e-20)
(1.04034 -0.246344 -5.38986e-20)
(1.07162 0.742595 0)
(1.51655 -0.376599 0)
(2.26553 0.314975 0)
(0.072014 0.19964 1.04472e-19)
(0.959347 0.352166 9.38993e-20)
(-0.591537 -0.194211 0)
(-0.118995 0.130369 -2.31212e-19)
(1.76671 1.00768 -5.22439e-20)
(1.0074 0.00081278 -4.62815e-19)
(0.671667 0.259642 5.34341e-20)
(1.02157 0.0161657 3.06768e-19)
(0.705505 -0.0436143 0)
(-0.115823 -0.075974 -1.31859e-20)
(0.650483 0.482568 -3.61177e-19)
(1.85748 0.483073 2.62825e-19)
(0.094236 0.204893 0)
(0.752608 0.0737334 9.52636e-20)
(0.551475 0.529567 5.45615e-20)
(1.2353 0.9238 -3.80563e-20)
(-0.0534225 -0.0382601 6.54275e-20)
(1.0246 0.0226759 0)
(1.03885 0.494934 3.10502e-20)
(1.01168 0.00234311 1.73659e-19)
(2.33963 0.0221777 0)
(1.01162 0.0115115 2.91402e-19)
(0.0296999 -0.235864 -5.89307e-20)
(1.01887 0.0175643 -1.80414e-19)
(1.4968 0.79746 0)
(2.29799 -0.132768 4.32723e-22)
(1.00902 0.00720031 -1.20943e-19)
(0.99612 -0.00989139 3.18751e-19)
(1.11812 0.110316 -3.61207e-21)
(1.12232 0.720978 -1.1986e-20)
(-0.134419 -0.0921288 1.74623e-19)
(2.1276 0.269263 1.9058e-19)
(0.170938 0.375418 1.08023e-20)
(0.800302 0.0146584 -4.37229e-19)
(0.826231 0.0304227 0)
(0.0492484 0.081124 4.47875e-20)
(1.02445 -0.00569677 -3.5011e-20)
(0.972828 0.0463194 0)
(1.05547 0.00653461 -2.21774e-19)
(-0.370131 0.364659 1.71645e-20)
(-0.642435 -0.0940743 1.18576e-19)
(2.0759 -0.549078 0)
(-0.761845 -0.0169348 -5.3673e-19)
(1.46229 -0.329803 0)
(1.04263 -0.0153859 6.50905e-20)
(0.985466 0.226962 1.873e-21)
(1.0118 0.00531359 1.88055e-19)
(-0.46893 0.0271923 2.80184e-19)
(1.02021 0.00783794 0)
(0.994559 0.00370283 -4.50088e-19)
(1.00808 0.0108034 2.38945e-19)
(0.924686 -0.27666 0)
(0.517229 0.0680572 -1.03177e-20)