/*--------------------------------*- C++ -*----------------------------------*\
| =========                 |                                                 |
| \\      /  F ield         | OpenFOAM: The Open Source CFD Toolbox           |
|  \\    /   O peration     | Version:  2306                                  |
|   \\  /    A nd           | Website:  www.openfoam.com                      |
|    \\/     M anipulation  |                                                 |
\*---------------------------------------------------------------------------*/
FoamFile
{
    version     2.0;
    format      ascii;
    arch        "LSB;label=32;scalar=64";
    class       volVectorField;
    location    "3.5";
    object      U;
}
// * * * * * * * * * * * * * * * * * * * * * * * * * * * * * * * * * * * * * //

dimensions      [0 1 -1 0 0 0 0];

internalField   nonuniform List<vector> 
2186
(
(1.17522 -0.123655 1.9913e-19)
(1.68774 -0.934792 -1.20706e-19)
(1.50576 -0.909332 -4.88751e-22)
(0.729109 -0.573068 -1.22548e-19)
(-0.580387 0.225154 -1.91811e-19)
(1.038 0.00612735 0)
(0.736068 -0.674478 0)
(-0.783969 -0.617915 1.53763e-19)
(2.17088 0.495867 2.54823e-19)
(0.540356 -0.319967 -2.28557e-21)
(0.670966 0.613973 0)
(1.10472 -0.265468 -1.53307e-19)
(-0.713271 -0.419868 -5.22672e-20)
(1.07256 -0.0490852 -3.19171e-19)
(1.8987 -0.632262 -1.2043e-19)
(1.01022 -0.0106858 1.49563e-19)
(1.00349 0.0420907 0)
(-0.146217 -0.405672 0)
(1.01738 -0.00337928 0)
(-0.216155 1.0169 -1.11656e-19)
(0.480734 0.0697392 -9.92244e-20)
(0.303832 0.374045 1.2123e-19)
(1.06492 -0.00643251 2.60686e-19)
(-0.187956 -0.388628 2.07054e-20)
(1.03074 0.0373771 -2.03338e-19)
(0.784345 -0.544698 0)
(0.75819 -0.0302816 1.24001e-19)
(0.613929 -0.587407 -1.39434e-19)
(1.2264 0.692472 0)
(0.953475 0.0358939 -2.79778e-19)
(-0.0652602 0.728839 0)
(1.02147 0.0190146 9.65734e-21)
(0.098144 0.684549 0)
(1.21861 0.088626 3.66643e-21)
(0.0501363 -0.965932 1.9379e-21)
(1.55247 0.73835 2.22296e-20)
(1.11515 0.00086665 4.66402e-21)
(0.509916 0.115073 -2.95343e-19)
(1.99105 -0.364492 -3.42422e-19)
(1.05324 -0.00440102 -1.79961e-21)
(-0.758593 -0.369012 0)
(0.271919 0.607426 0)
(2.03088 -0.836811 1.14016e-19)
(0.298841 0.585607 0)
(1.06351 0.267646 1.27149e-19)
(0.578831 -0.298337 2.41155e-19)
(0.953271 -0.803414 0)
(1.19849 -0.768418 8.18573e-20)
(1.11536 -0.116059 0)
(-0.564845 -0.174666 2.9106e-19)
(-0.145129 0.908762 1.65259e-19)
(0.619419 0.57436 6.38195e-20)
(2.20022 -0.654028 1.30269e-19)
(0.596943 0.24913 -2.36536e-19)
(0.306088 0.665085 7.30677e-20)
(0.761343 -0.637341 0)
(1.81587 -0.982129 2.266e-20)
(0.577803 -0.533596 0)
(2.00537 -0.26698 8.20964e-20)
(1.06906 -0.17153 -3.21725e-19)
(1.03072 0.00284092 2.83274e-21)
(1.33035 0.268478 -1.38089e-19)
(1.31365 0.526869 0)
(1.02376 0.0354214 1.97166e-21)
(1.32321 0.402858 -7.99017e-20)
(1.26631 -0.713085 -1.0927e-19)
(1.1768 0.638762 4.06474e-20)
(0.677459 0.0674798 -4.77226e-19)
(0.824729 0.0635705 0)
(2.03439 0.545925 -5.36371e-20)
(-0.822979 -0.56312 -2.1011e-19)
(1.12536 -0.0567349 9.0091e-22)
(0.715585 -0.0458696 -2.10225e-19)
(0.878229 -0.5051 0)
(0.816339 0.171999 -7.70188e-20)
(0.539103 -0.501232 -2.49819e-19)
(1.17783 -0.0880305 0)
(1.01887 -0.00205807 3.03723e-19)
(-0.125442 -0.975253 0)
(2.47186 0.0748199 0)
(1.17017 -1.00393 3.3833e-20)
(0.995033 -0.0253712 1.31924e-21)
(1.04693 0.0190101 3.39295e-20)
(1.30329 0.335765 2.05259e-20)
(0.953027 0.0341407 3.61717e-19)
(1.03484 -0.0108532 -8.43686e-21)
(0.67383 0.163572 -2.84355e-19)
(1.01993 0.00402578 -5.46543e-23)
(0.832234 -0.00292126 0)
(0.00954822 0.00929781 1.33251e-19)
(0.862328 -0.606852 -1.34475e-19)
(-0.647714 0.693278 5.50261e-21)
(1.04107 -0.0848434 2.09991e-19)
(0.792674 -0.198067 0)
(0.956696 -0.00573679 3.38052e-20)
(1.37578 0.613235 0)
(1.68252 -0.925981 0)
(1.30353 0.197145 0)
(-0.690169 0.16925 0)
(0.787522 -0.650603 2.40926e-19)
(0.885407 -0.525746 -6.9977e-21)
(0.922576 -0.66932 1.14717e-20)
(1.41163 0.123219 0)
(1.06002 -0.108278 -1.91993e-19)
(1.03489 0.0225331 1.50887e-19)
(0.0698702 0.0975668 3.73772e-19)
(0.635264 0.49233 0)
(1.79221 0.181497 -4.9232e-20)
(0.977675 -0.47562 6.71261e-20)
(0.893064 0.0344503 -1.32628e-20)
(2.03188 0.29328 1.71153e-19)
(-0.801871 0.0817917 -4.95882e-19)
(0.836672 -0.754581 0)
(0.564872 0.32291 1.43644e-19)
(2.2418 0.465123 -7.99954e-19)
(-0.340393 -0.128457 -2.97442e-19)
(1.0137 0.0251779 -3.57584e-21)
(1.05942 -0.122156 0)
(-0.0248238 -0.105398 -4.01409e-19)
(0.691186 -0.0850982 6.64854e-20)
(1.59712 0.863701 0)
(-0.0472856 -0.885672 -3.42565e-19)
(0.868925 0.753209 -2.17662e-19)
(0.141896 -0.465996 4.52797e-20)
(1.00955 -5.04414e-06 0)
(1.02682 -0.0348565 4.50524e-21)
(-0.741813 0.220778 0)
(0.684932 -0.493447 -8.94763e-20)
(-0.0744856 -0.389886 -4.19936e-20)
(0.804766 -0.727185 0)
(0.432899 -0.296631 3.52112e-19)
(0.533945 -0.461685 2.34859e-19)
(0.433632 -0.39105 0)
(0.998121 -0.779278 -9.59953e-20)
(0.98389 -0.825111 0)
(-0.541387 -0.329921 -2.27508e-19)
(0.811218 -0.685158 1.14102e-19)
(1.99223 0.333439 1.77229e-19)
(1.76742 -0.20826 0)
(-0.768337 -0.942153 0)
(0.673581 0.624834 -2.64505e-19)
(1.84098 -0.528842 2.31655e-20)
(-0.716988 -0.617973 0)
(0.995592 -0.800128 -1.06423e-20)
(1.0907 -0.0377484 0)
(1.05585 -0.107315 3.3683e-19)
(1.89577 0.108486 -7.09458e-20)
(-0.550138 0.231297 0)
(1.21721 -0.524972 -4.2044e-20)
(0.464022 0.857377 -9.12534e-20)
(-0.845229 0.623808 0)
(1.10602 -0.806035 1.23521e-20)
(1.01073 0.0239997 -5.07171e-19)
(0.638625 -0.483137 -8.82338e-21)
(0.809447 -0.508044 0)
(1.2128 -0.715224 -6.94135e-20)
(0.657812 0.217698 2.2159e-19)
(1.23885 0.15092 0)
(1.53952 -0.0166292 -1.39803e-19)
(1.21439 -0.850637 -1.31975e-19)
(-0.780098 -0.98319 -1.92012e-19)
(-0.26144 0.730034 -1.60294e-19)
(1.0796 0.0252283 1.89844e-19)
(0.933251 -0.453798 -8.44135e-20)
(1.05494 0.00146133 5.05987e-23)
(0.97092 -0.0175832 -3.12844e-21)
(0.842958 -0.122479 1.3494e-19)
(0.47964 -0.448442 -3.39849e-19)
(1.01768 0.0218025 0)
(1.05522 -0.00468207 -2.3955e-21)
(1.44023 0.617897 8.39947e-20)
(0.806293 -0.601039 -1.75717e-19)
(1.0043 0.0193511 1.04075e-20)
(0.709548 -0.526622 2.45943e-19)
(1.31797 0.76906 8.27002e-20)
(1.62484 -0.0603522 1.21529e-20)
(-0.481778 0.152209 0)
(1.00899 0.0782398 -1.97284e-19)
(0.228142 0.385588 -1.58219e-20)
(1.04953 0.468583 6.42283e-20)
(0.643862 -0.318229 2.0557e-19)
(1.03262 0.00778482 -3.60857e-20)
(-0.199781 0.976185 -3.15496e-19)
(1.30384 0.538795 -5.28545e-20)
(1.134 0.86353 0)
(-0.438183 0.0132202 -6.39912e-20)
(-0.11421 -0.0438681 0)
(0.651892 0.563661 -2.30631e-19)
(1.78556 -0.146604 -1.91422e-20)
(-0.57995 -0.269937 1.35066e-19)
(-0.217274 -0.0321244 -2.1462e-19)
(0.726619 0.0787922 2.09518e-19)
(1.26669 -0.34312 -2.17345e-21)
(0.986565 -0.34572 -2.49972e-20)
(-0.540282 -0.73035 0)
(0.905458 0.0338997 -1.90651e-20)
(1.35365 0.963025 1.85069e-20)
(0.829948 0.077112 -1.13954e-19)
(0.554348 0.524987 1.59489e-19)
(0.607265 0.180902 0)
(-0.441736 0.219196 -4.39727e-19)
(0.938761 -0.00202883 -1.37647e-20)
(1.3419 -0.96672 1.12994e-22)
(0.973887 -0.0476115 -1.61344e-19)
(-0.257197 -0.192283 -7.00194e-21)
(-0.609635 0.564603 2.05451e-19)
(0.0277095 -0.577313 -2.3066e-19)
(1.04891 -0.114533 0)
(1.07943 0.0619841 -2.66421e-19)
(1.28963 -0.195998 1.12946e-20)
(1.29111 -0.587662 7.12681e-20)
(1.03926 -0.00636996 -1.60645e-21)
(0.593783 0.303389 0)
(0.923885 0.736691 -1.27455e-20)
(0.671889 0.622493 1.46657e-19)
(0.905307 -0.552633 1.21444e-19)
(0.676883 0.485601 0)
(0.971911 0.0183811 6.8887e-21)
(0.886431 -0.649644 1.73103e-19)
(0.82506 0.404536 -3.79365e-19)
(1.28791 -0.0996814 0)
(-0.152557 -0.119029 -2.0661e-19)
(-0.049201 0.492834 -2.69402e-19)
(1.60354 0.685473 0)
(1.39094 -0.933105 -9.67175e-23)
(-0.157882 -0.479729 0)
(-0.651012 0.345156 1.34479e-19)
(0.725832 0.653861 -7.98415e-20)
(0.834719 -0.237315 0)
(0.71323 -0.65957 0)
(1.88932 -0.426375 0)
(0.87612 -0.102355 -2.97177e-20)
(1.2416 -0.879481 8.65291e-20)
(1.18617 -0.589815 4.66949e-20)
(1.04677 -0.071301 -1.35612e-19)
(0.881083 -0.678196 -1.36206e-19)
(0.181649 -0.185029 0)
(0.328007 -0.229725 0)
(1.0153 -0.50321 1.39805e-19)
(-0.843887 -0.826396 0)
(-0.698042 0.0156312 0)
(-0.309631 -0.0840887 2.54664e-19)
(0.776145 0.669393 6.92747e-20)
(0.997338 0.772489 0)
(0.687752 0.543197 -7.0623e-20)
(0.834346 -0.0438025 -1.88801e-19)
(0.731855 0.553627 -1.88114e-19)
(0.590184 0.554911 -1.37319e-19)
(-0.862596 -0.657701 2.40807e-21)
(0.725819 -0.643063 0)
(0.892796 0.162669 -2.6883e-19)
(-0.910404 -0.524994 9.65024e-20)
(0.597007 0.55893 3.04548e-19)
(0.938681 0.780779 0)
(0.863069 -0.104674 -2.39402e-20)
(-0.163868 -0.799708 8.43497e-19)
(0.527214 -0.292799 -4.87162e-19)
(0.661151 0.567846 -1.22843e-20)
(0.964968 -0.0257939 4.76773e-20)
(-0.693442 -0.176497 0)
(1.44037 0.255993 -4.82592e-20)
(0.962841 -0.0523556 1.0379e-20)
(0.650814 -0.595139 -6.16292e-20)
(0.243061 -0.617233 9.2972e-22)
(1.19049 0.414704 1.3845e-19)
(0.873501 0.3955 0)
(1.10673 -0.151739 1.62149e-19)
(0.257976 -0.0848663 -2.2686e-21)
(-0.509478 1.04859 7.31351e-19)
(1.02655 0.000275643 -4.36247e-20)
(1.1584 0.0975187 0)
(1.51426 0.127988 -1.02376e-19)
(1.52313 -0.0967151 0)
(0.547857 0.230584 -3.90559e-19)
(-0.679232 0.619176 0)
(-0.890548 -0.692065 4.17641e-19)
(0.86142 0.0162745 0)
(0.610421 -0.514289 -1.5153e-19)
(1.06016 -0.0143906 1.74987e-19)
(-0.657419 0.122331 3.67729e-20)
(1.22197 -0.0509112 -4.11141e-21)
(2.056 0.259859 -1.39889e-19)
(1.05984 0.230204 -1.78949e-19)
(-0.829312 -0.304805 -1.54169e-19)
(1.09424 -0.849259 0)
(0.814763 0.0264482 -1.27789e-19)
(0.949987 -0.375218 -2.39903e-19)
(1.75067 -0.547203 -9.30111e-21)
(1.55896 -0.00817855 1.1668e-19)
(1.04582 0.0075345 3.17546e-19)
(0.290104 0.448787 -4.08262e-19)
(1.01284 -0.440522 -1.02128e-19)
(0.191346 -0.184534 2.1402e-19)
(1.00075 -0.0352528 0)
(1.02935 0.00545333 0)
(1.03007 -0.0409651 -5.36962e-21)
(-0.132862 -0.0665418 -2.17839e-19)
(0.255702 -0.113901 -1.84542e-19)
(0.873155 -0.0638233 3.22191e-21)
(1.03648 -0.152777 0)
(1.24178 -0.343081 -8.43607e-21)
(0.974381 -0.838281 -5.22093e-20)
(1.8777 -0.561811 -9.8334e-20)
(1.09686 0.809383 0)
(0.463091 -0.4475 0)
(0.605014 0.511921 -1.48433e-19)
(1.05409 0.259564 -3.26691e-19)
(1.9795 0.119674 3.41244e-22)
(0.842002 0.154174 1.15783e-19)
(0.363117 0.994781 -8.51024e-19)
(1.05114 -0.0110257 2.78757e-21)
(-0.408164 0.585419 0)
(-0.663617 -1.05807 0)
(-0.490193 -0.043969 0)
(1.36606 -0.701013 -4.96173e-20)
(-0.80037 0.647024 -4.41481e-19)
(-0.760237 0.885032 0)
(1.30678 0.961032 -1.19998e-20)
(1.08334 0.122569 -3.38409e-19)
(1.02503 0.0187825 3.50802e-21)
(1.08359 0.909138 4.74473e-20)
(-0.801745 0.47131 2.74657e-19)
(1.03221 0.014802 0)
(-0.41802 -0.0307982 -2.23272e-19)
(-0.721783 0.379753 4.37595e-19)
(0.773416 0.0447547 1.54556e-19)
(1.56569 0.910172 4.93335e-20)
(1.02613 0.00200282 3.64022e-21)
(-0.611636 0.763779 1.95893e-20)
(0.753061 -0.679466 -2.92847e-20)
(1.30289 -0.0552592 0)
(1.55414 -0.00153629 0)
(1.16556 -0.00491646 0)
(0.978432 0.0233861 1.39903e-20)
(-0.60637 0.0492576 9.05914e-20)
(1.0326 0.821835 0)
(0.949032 0.0195503 4.30608e-19)
(0.751513 0.598 -1.87504e-19)
(0.935453 0.00704823 1.01109e-20)
(0.852931 0.0044959 -3.45822e-20)
(0.716969 -0.644364 -1.76541e-19)
(1.39289 0.677419 -1.64085e-20)
(0.554647 -0.458986 -2.44814e-19)
(1.04244 -0.000267501 -3.83637e-19)
(1.02455 0.0526014 3.8477e-20)
(1.48271 -0.152519 4.28033e-20)
(1.00493 0.00376493 1.5254e-21)
(-0.669818 -0.740316 1.22326e-21)
(1.05885 0.463793 -2.13506e-19)
(1.4829 0.633146 1.1169e-19)
(0.626986 -0.610195 0)
(-0.187176 0.796744 2.98232e-19)
(-0.193274 -0.119156 8.61431e-20)
(-0.151892 -0.511671 -1.80499e-19)
(0.474307 0.28996 0)
(0.987449 -0.0155765 0)
(-0.161905 0.259811 -2.2146e-19)
(-0.84948 -0.393722 -8.60549e-20)
(1.03846 0.00143277 1.52275e-19)
(-0.429226 0.222173 -3.6976e-20)
(1.01203 -0.182192 1.2586e-20)
(0.116572 -0.404552 0)
(0.843806 -0.73805 -2.35992e-19)
(1.00839 -0.00390932 -1.34724e-21)
(-0.0121697 0.629752 2.78812e-20)
(0.721102 0.153309 2.76862e-19)
(0.624523 0.120681 9.02556e-20)
(0.491968 -0.465405 1.67778e-19)
(-0.744986 -0.633103 -1.86562e-19)
(1.0392 -0.011459 0)
(0.3886 0.322763 -1.66262e-19)
(1.02284 0.0141058 -2.43967e-19)
(-0.195998 -0.0565712 8.92499e-20)
(1.40803 0.411057 -7.18596e-20)
(-0.85489 -0.834505 -9.04593e-20)
(0.727276 -0.657677 -1.38359e-20)
(0.803475 0.177029 -1.71833e-19)
(0.95066 0.428961 1.8468e-20)
(1.06461 -0.119792 2.98038e-20)
(0.588388 -0.237875 -2.53028e-19)
(2.05761 -0.0982779 -1.84972e-19)
(0.835387 -0.0160163 0)
(0.986132 0.00172068 2.50554e-21)
(0.885064 0.0392279 -2.88367e-21)
(1.38917 0.982417 6.62059e-20)
(1.35453 0.283623 -2.24396e-19)
(1.02622 0.00121241 -2.0299e-21)
(0.419339 0.378912 -2.14289e-19)
(0.0455331 -0.798031 1.50852e-19)
(1.68925 0.722093 0)
(1.0148 0.011922 0)
(0.892883 -0.781512 4.35851e-20)
(-0.375057 -0.636673 -9.22815e-19)
(0.455956 -0.329544 1.15498e-21)
(-0.745317 -0.831764 -4.02055e-19)
(-0.341058 -0.539767 -1.18423e-19)
(-0.176723 0.780562 0)
(-0.648242 -1.00006 7.46653e-20)
(0.888931 0.0301567 -2.87043e-19)
(-0.620996 0.510642 -4.57431e-19)
(0.781818 -0.13521 0)
(1.06364 -0.0207665 -4.61972e-21)
(-0.228534 -0.188774 0)
(0.96967 -0.0106781 3.09041e-19)
(-0.0303598 0.971238 1.21288e-21)
(0.53093 -0.43235 3.28084e-19)
(0.184082 0.299719 2.62204e-20)
(0.814001 -0.00713653 0)
(0.361163 -0.578228 2.83525e-19)
(1.01793 -0.00920113 -9.19326e-21)
(0.669318 -0.720732 0)
(1.03114 0.00158385 -4.7349e-20)
(0.864425 -0.715827 -2.29088e-19)
(0.999188 -0.0298912 0)
(0.94185 -0.28741 1.71638e-19)
(0.0563866 -0.661189 2.84886e-19)
(-0.251282 -0.36393 0)
(-0.72503 0.31471 -1.06233e-20)
(0.719491 -0.620277 -3.48142e-19)
(1.02202 -0.0409278 -2.25513e-19)
(-0.122355 -0.363528 1.22285e-18)
(-0.906712 -0.798198 2.93281e-19)
(-0.516453 0.560417 0)
(0.93558 0.472633 0)
(0.0469299 0.883566 7.40211e-20)
(1.21279 0.326195 -1.48192e-20)
(1.07185 0.87627 1.26791e-20)
(1.02828 0.177202 -1.01869e-19)
(1.09059 -0.0136641 -1.86148e-19)
(1.20116 0.0803118 -6.30459e-20)
(-0.581438 -0.267642 -1.04506e-18)
(1.10515 -0.0880293 5.90983e-20)
(0.906996 0.047387 1.68513e-19)
(1.12538 0.090067 1.91936e-20)
(1.18559 -0.209355 0)
(0.924925 0.112032 -2.24837e-20)
(1.00125 0.0237874 -4.19217e-19)
(1.74512 0.548831 -2.37847e-20)
(0.722067 -0.453618 -1.33931e-19)
(-0.043202 -0.175371 2.98981e-19)
(0.801949 -0.692434 3.02583e-19)
(1.20868 0.174106 5.78543e-20)
(0.995118 -0.00604689 2.10476e-19)
(-0.0382411 0.596805 -4.07514e-19)
(1.00291 0.0261449 0)
(1.04667 0.0456289 -3.26048e-21)
(-0.229045 -0.444343 0)
(1.05082 0.00726893 -1.24034e-19)
(0.886437 -0.0350016 3.44456e-20)
(1.6423 0.17738 1.2179e-20)
(-0.253803 -0.0879128 1.02483e-19)
(1.55786 0.02875 -1.36665e-20)
(1.06724 -0.00232557 4.33512e-20)
(1.3261 -0.112555 0)
(1.47347 -0.572878 -8.46857e-20)
(1.00722 0.0381868 -1.29915e-19)
(1.46047 0.768351 -8.4599e-21)
(1.31689 -0.0238635 0)
(1.01213 -0.0141149 1.84108e-21)
(-0.15201 0.301487 0)
(1.45651 0.0617669 0)
(-0.706575 -0.126202 0)
(1.21246 0.451943 0)
(2.12121 0.0192281 6.52919e-20)
(0.730486 0.617218 3.28361e-19)
(0.284656 -0.285351 -1.98633e-19)
(-0.93877 -0.613531 -6.88942e-19)
(-0.564812 -0.78094 0)
(1.06125 -0.00333617 -2.71384e-21)
(1.5927 0.474823 0)
(1.45733 0.255826 0)
(-0.383295 0.0663763 9.60674e-20)
(0.793146 0.701922 9.92761e-20)
(1.68074 0.061222 0)
(-0.637789 -0.457622 9.9489e-20)
(0.893755 0.220121 1.57784e-19)
(1.02385 -0.0476062 2.06851e-21)
(1.24805 0.903561 2.75345e-20)
(0.95484 -0.852586 -1.87786e-20)
(0.843473 -0.00131218 -9.18549e-23)
(0.780063 0.704852 1.0063e-19)
(1.1863 0.908002 0)
(1.11088 -0.0738242 -1.00015e-21)
(0.97721 0.092967 0)
(1.01674 -0.0276976 -4.05939e-21)
(1.13556 0.431953 2.87793e-19)
(0.998241 -0.0289036 0)
(0.941435 0.0950002 -2.07372e-20)
(0.869919 -0.194533 3.9951e-20)
(0.614305 -0.411551 0)
(0.648692 -0.383091 1.77504e-19)
(1.23621 0.528692 -2.51671e-20)
(0.480606 0.454103 2.31576e-19)
(-0.62128 0.505047 4.93894e-20)
(1.06979 0.455902 2.54545e-19)
(1.01526 0.0350729 0)
(1.35234 -0.893178 -2.68692e-20)
(1.03712 -0.0156825 3.38893e-19)
(1.61351 0.327613 1.77474e-19)
(-0.578396 -0.301047 8.17241e-20)
(0.375343 0.323803 0)
(1.16615 -0.246216 -8.95858e-20)
(-0.307887 -0.471661 -3.06782e-19)
(0.890596 0.272416 2.74769e-21)
(-0.109037 -0.0164811 1.33322e-21)
(-0.231716 0.0534923 4.14459e-19)
(1.05213 0.00187987 -1.09894e-22)
(1.54708 0.232445 6.47021e-20)
(1.18406 0.412074 -2.23274e-19)
(1.14229 -0.0735276 0)
(1.38644 0.025547 6.81242e-20)
(1.38687 0.0122151 3.63664e-20)
(0.919045 -0.758406 1.10456e-19)
(1.20719 -0.999597 -8.13621e-21)
(0.48317 0.451408 1.53935e-19)
(1.00363 0.13637 0)
(1.79123 0.523657 5.78684e-20)
(-0.389692 -0.633825 -6.33701e-19)
(0.870889 0.755271 0)
(1.04151 -0.0102088 0)
(0.28513 -0.284926 -3.56455e-21)
(0.317597 0.283767 0)
(0.419084 0.171284 1.23375e-20)
(-0.679161 0.450405 -1.66558e-19)
(1.85956 -0.438344 0)
(1.25702 0.0936717 1.01566e-19)
(0.425472 -0.508139 -2.88997e-23)
(0.526632 -0.495789 -3.80736e-19)
(1.32037 0.135086 -9.99198e-21)
(0.606146 -0.544305 0)
(1.10836 0.104033 0)
(1.47542 -0.412886 0)
(1.08299 0.247334 -1.88739e-19)
(1.20381 0.0733898 2.66829e-19)
(0.761813 -0.04038 0)
(1.00718 0.0579597 0)
(1.1176 -0.0492421 3.23079e-21)
(-0.678814 0.852558 2.18062e-19)
(1.23455 -0.163191 -1.38233e-20)
(1.23096 -0.551581 2.53986e-19)
(0.982702 -0.0558086 -2.29044e-20)
(0.176758 -0.318467 -1.54185e-20)
(1.34295 -0.132154 -5.36328e-20)
(0.983317 -0.0271183 3.49956e-19)
(1.52832 0.56169 0)
(-0.828535 0.353414 4.6547e-20)
(1.01904 -0.828262 1.29732e-19)
(0.865725 0.000480961 4.04223e-20)
(0.620138 -0.434962 0)
(1.96161 -0.370961 9.93259e-21)
(1.24937 -0.183964 1.13172e-19)
(1.00751 0.0124624 0)
(0.6149 -0.56642 3.493e-19)
(1.00514 0.0170692 2.89889e-21)
(1.21871 -0.213692 1.584e-20)
(-0.823715 0.800525 -4.57227e-19)
(1.33518 0.586155 1.01412e-19)
(1.14358 0.390128 2.8928e-21)
(0.893118 0.353622 1.85874e-19)
(1.13462 0.287064 -7.4412e-22)
(-0.560199 -0.087405 4.30275e-21)
(1.46992 0.983811 0)
(-0.148701 -0.0414064 4.59063e-19)
(1.15341 -0.9889 0)
(1.07026 -0.636152 1.68659e-20)
(1.07915 0.460119 -4.94131e-21)
(1.01884 0.0315374 -2.3971e-21)
(-0.261353 0.367339 -1.3675e-19)
(0.958075 0.483584 1.41661e-19)
(0.96001 0.0436011 -1.5449e-20)
(0.874138 -0.00628469 0)
(0.852891 -0.0105488 0)
(0.826201 -0.0074569 1.23701e-21)
(0.817523 -0.0308246 0)
(1.33683 -0.203413 -1.16459e-19)
(0.341116 -0.13512 -1.25999e-20)
(1.91542 0.399168 6.60199e-20)
(1.06692 0.0197361 0)
(0.540395 -0.357734 8.70497e-20)
(1.00335 0.0324234 1.66242e-19)
(0.985001 0.0459034 1.20586e-20)
(-0.0562227 -0.795145 0)
(1.11356 -0.467013 3.81824e-19)
(1.01252 -0.0113215 2.03685e-24)
(1.0802 -0.492233 -1.66385e-19)
(1.99543 -0.104937 1.75956e-19)
(1.30692 0.772588 0)
(0.990018 0.00719142 0)
(-0.521608 -0.158961 -1.66743e-19)
(-0.188445 0.344621 2.4977e-19)
(0.937072 0.357107 -1.69782e-19)
(0.626074 0.89679 -2.96172e-19)
(0.643081 0.386711 2.04671e-19)
(0.999549 0.00858011 0)
(0.539734 -0.497902 0)
(1.03665 -0.00572421 3.23973e-22)
(1.20446 -0.463606 -7.5667e-20)
(1.31951 -0.404602 3.27976e-20)
(0.712366 -0.168465 9.97261e-20)
(-0.533712 0.941324 -5.31094e-19)
(1.14143 -0.510144 1.26726e-20)
(0.652985 0.615332 0)
(1.28284 0.669598 0)
(1.50535 0.185665 0)
(-0.508888 0.489149 -1.41983e-19)
(1.40528 0.582538 2.93416e-19)
(1.32399 0.120265 9.76001e-21)
(1.08433 -0.00175054 0)
(1.02709 -0.0211805 0)
(1.36749 -0.0699829 -4.89974e-20)
(0.976659 0.080628 -1.41612e-20)
(0.999638 0.0149711 -1.64956e-19)
(1.45165 0.482508 0)
(-0.403349 -0.476126 0)
(1.21545 0.270696 2.29943e-19)
(0.996162 0.524589 -1.04115e-19)
(1.02311 0.00753533 0)
(1.07459 0.235274 0)
(2.11429 0.583713 -4.06213e-19)
(-0.615086 0.576657 -1.21144e-20)
(1.04118 0.0144241 0)
(0.698369 0.453071 -2.78228e-20)
(0.959393 -0.836135 0)
(1.04828 -0.00949873 3.81549e-20)
(1.02798 0.0171755 9.91478e-21)
(0.906011 -0.327286 2.52072e-19)
(1.00856 -0.0201061 -5.66741e-21)
(1.73587 0.224754 1.68884e-19)
(1.04093 -0.0045337 1.657e-22)
(0.813709 -0.0820889 0)
(0.980225 -0.0389638 0)
(0.170503 0.571202 0)
(0.654458 0.628449 -1.48195e-19)
(-0.564091 0.937093 3.56532e-19)
(1.13863 0.335535 -3.69561e-19)
(-0.463774 -0.0326413 0)
(0.808067 0.640034 1.36857e-19)
(1.02335 -0.329708 0)
(0.991562 0.00989755 9.56913e-20)
(0.951269 0.186245 -2.47053e-21)
(1.00812 0.398134 2.0528e-19)
(1.23728 -0.586909 0)
(1.71961 -0.207684 -3.32909e-20)
(0.806881 -0.123362 -3.056e-19)
(0.535999 0.148665 3.27742e-20)
(0.982953 0.12719 0)
(0.868987 0.23488 1.45803e-19)
(1.67429 0.443027 0)
(0.758633 0.507599 2.9993e-19)
(0.49628 -0.0572366 -1.37096e-20)
(-0.690941 0.932015 0)
(0.589673 0.567048 -5.76591e-20)
(1.03328 -0.626655 -1.18324e-19)
(0.471129 -0.260682 -1.03437e-19)
(1.00313 -0.0529294 0)
(0.179574 -0.768631 -4.33977e-20)
(0.627845 -0.557238 6.71176e-20)
(0.893825 0.276669 0)
(1.05333 -0.0316824 -5.31298e-21)
(0.974093 0.817585 1.82187e-20)
(0.995971 0.00782834 -9.49833e-21)
(1.36611 -0.0644502 -7.04804e-19)
(0.236405 -0.0759427 -4.72307e-19)
(-0.823748 -0.977587 1.83099e-20)
(0.806349 0.337817 2.04766e-19)
(-0.829091 0.527944 -9.16639e-21)
(1.43505 -0.613504 3.51878e-21)
(1.03916 0.00247267 -2.88686e-19)
(-0.264151 0.571251 0)
(0.99188 0.0332768 -3.35713e-19)
(1.1771 0.16426 6.18829e-22)
(0.863455 0.685162 2.2534e-19)
(1.02215 -0.0770995 1.34364e-19)
(0.987322 -0.00725868 1.33476e-19)
(1.01874 0.0286734 2.17348e-21)
(-0.441706 -0.310179 -1.1669e-21)
(1.83893 -0.85536 1.78815e-20)
(1.15111 -0.141931 -5.51949e-20)
(1.02915 0.0257691 6.39829e-20)
(0.91519 -0.304168 7.46218e-20)
(0.795562 -0.0325136 0)
(0.938938 0.723774 0)
(0.951287 0.223039 2.94402e-21)
(1.82412 0.0490969 -1.84735e-20)
(0.23099 0.0829854 2.01009e-21)
(1.03433 -0.532251 -4.09e-19)
(0.605021 -0.528107 3.23501e-19)
(1.89563 -0.687515 -9.70791e-20)
(1.20471 0.489282 4.16259e-20)
(1.0249 -0.0020323 0)
(0.753425 0.114577 -5.68603e-21)
(1.00413 -0.0165641 9.04136e-21)
(1.02417 0.743806 0)
(1.0377 -0.00771893 0)
(0.839692 -0.392597 0)
(-0.821836 -0.733147 -1.06859e-19)
(0.308427 0.206231 0)
(1.02768 0.0605702 -1.34552e-20)
(1.17286 0.18486 5.11513e-21)
(0.848615 -0.0180084 -1.38867e-20)
(1.03555 0.00679906 -1.50131e-21)
(1.88701 0.394627 -1.0915e-19)
(1.99847 -0.0972709 -2.71594e-20)
(-0.215639 -0.0469337 -2.92493e-19)
(-0.242216 0.875988 7.95367e-21)
(1.03113 0.0209387 0)
(0.807093 -0.0118706 0)
(0.990711 -0.0034083 7.12471e-22)
(-0.496428 0.394456 0)
(1.29767 0.034961 -5.66928e-20)
(0.770763 -0.00340033 0)
(1.07257 0.0453607 1.08113e-19)
(1.03771 0.0320229 -3.76496e-20)
(1.08007 -0.417896 -5.01914e-21)
(1.01693 0.0382787 -7.76036e-22)
(0.910355 -0.193384 -4.5136e-20)
(1.02881 -0.033344 3.08755e-19)
(0.661716 -0.59622 1.51002e-19)
(0.929531 -0.0335192 1.44703e-20)
(0.995299 0.00981511 -2.17196e-21)
(-0.247357 0.507274 0)
(1.12171 0.771548 0)
(1.02582 -0.0126313 0)
(1.01023 -0.760916 -8.04989e-20)
(1.07979 -0.912353 8.76083e-21)
(1.03389 -0.0424884 2.82254e-21)
(0.885953 0.127062 4.39401e-20)
(1.01876 -0.000577717 2.06401e-21)
(0.571713 -0.390607 -5.29451e-19)
(0.984294 0.0138493 3.95058e-21)
(1.01439 -0.00976829 -6.48544e-21)
(2.08947 0.0624666 1.15922e-19)
(1.00817 -0.00115365 2.99058e-21)
(-0.777327 -0.474996 -1.79397e-19)
(1.10845 0.539341 1.53925e-19)
(0.595512 -0.584208 0)
(0.401374 1.02194 3.97367e-19)
(-0.438707 -0.985075 1.3489e-20)
(1.0238 -0.00267901 2.76403e-19)
(1.03424 -0.00414586 -7.18681e-21)
(1.02834 -0.00880296 -7.61201e-20)
(1.0196 0.00601261 4.09674e-21)
(1.54661 0.253972 3.50593e-20)
(0.391267 -0.369531 -2.61578e-19)
(1.01722 0.0074101 -4.30903e-21)
(1.01948 -0.019725 -2.03629e-19)
(1.03516 0.0161052 2.23532e-21)
(1.03343 -0.0125092 0)
(1.10855 0.570212 -2.87075e-19)
(1.02849 0.0225497 7.66332e-20)
(0.673926 0.608798 2.1423e-19)
(1.03111 -0.00183551 -1.56031e-22)
(1.02164 -0.00479906 -2.52561e-20)
(1.00849 0.00267523 7.16844e-22)
(1.38636 -0.27851 1.39188e-21)
(0.777387 0.0237033 0)
(1.00247 -0.00770872 0)
(1.0663 -0.0391211 4.80996e-19)
(1.00904 -0.00248323 0)
(-0.555316 -0.948707 0)
(1.0789 -0.643707 0)
(1.01467 -0.0211238 -4.51819e-19)
(1.16453 -0.66158 6.13282e-20)
(1.00285 0.00182359 9.55373e-21)
(1.36158 0.930738 -7.30926e-21)
(1.55177 0.984323 -1.30112e-19)
(1.00917 0.00152793 -3.43166e-21)
(1.02558 0.18329 -4.61768e-21)
(0.826171 0.0130618 0)
(-0.340525 0.272216 0)
(1.27483 0.404594 1.90143e-20)
(1.00561 -0.0447081 0)
(0.998315 0.00529118 -1.40718e-19)
(1.01793 -0.0136238 2.73428e-19)
(1.29498 0.0974967 -5.42525e-20)
(0.029348 -0.075076 3.585e-19)
(1.01778 -0.0197112 1.50731e-19)
(1.00236 -0.0190786 -3.46355e-21)
(1.03101 -0.00493513 6.29481e-22)
(1.00649 0.013755 5.8738e-23)
(0.962877 -0.028343 -1.49937e-19)
(1.00472 0.00368982 1.76765e-19)
(0.993074 0.00338328 1.03817e-20)
(0.84493 -0.0417159 0)
(0.808552 0.0290417 0)
(0.808811 -0.00764614 2.19343e-23)
(0.786899 -0.00149286 0)
(0.841474 -0.0110823 0)
(0.76142 0.0567863 0)
(0.819539 -0.0357809 -3.83252e-21)
(0.991933 0.033388 1.44632e-21)
(1.0269 -0.00840225 0)
(1.01089 -0.00433973 1.87107e-21)
(1.02401 0.000241297 0)
(0.84319 0.0259662 0)
(0.793077 0.0095919 0)
(0.784553 0.0010805 8.91888e-22)
(0.791499 -0.00167387 -5.73615e-21)
(0.907571 0.0309114 0)
(0.819075 -0.00711603 0)
(1.0321 0.00795628 -1.85014e-19)
(0.862399 0.0111075 3.46193e-19)
(1.00361 8.39043e-05 0)
(1.01586 0.00471498 3.26758e-19)
(1.01497 0.00185909 -1.29751e-22)
(0.865869 0.0511109 2.93585e-19)
(1.02139 -0.00117399 -1.72412e-19)
(0.995258 -0.0142608 0)
(0.790896 -0.0146536 -6.30013e-22)
(0.968121 -0.00430414 -1.65093e-19)
(0.997182 0.0145273 -2.83423e-19)
(1.01818 0.00311109 0)
(0.999528 -0.00139981 0)
(1.02475 7.56612e-05 0)
(0.999397 -0.00821963 -3.04303e-21)
(1.01192 0.0058281 2.44788e-21)
(1.02848 -0.00475614 0)
(-0.454493 0.258506 1.80228e-19)
(0.948249 0.0534023 2.0318e-20)
(1.01504 0.00280027 -2.20799e-19)
(-0.89544 -0.20203 -1.33011e-19)
(0.995753 0.0157127 -1.7976e-19)
(1.29861 -0.183913 -7.26536e-20)
(0.785044 -0.465001 2.50193e-19)
(-0.709747 -0.854143 -1.65165e-19)
(1.03886 -0.0286976 0)
(1.03343 0.0107128 -4.8339e-20)
(1.0049 0.0140813 0)
(-0.307894 0.859869 4.56292e-19)
(1.00574 -0.021024 0)
(-0.587323 0.13788 -2.17028e-19)
(0.99428 0.000723248 2.27554e-21)
(1.67099 0.635688 7.78644e-20)
(-0.102347 0.261951 0)
(1.05008 0.00294551 1.5101e-19)
(1.01111 0.0219343 4.5407e-22)
(0.916734 -0.00817267 2.35716e-19)
(1.02846 -0.0194224 -1.48138e-19)
(1.70876 0.814167 8.58958e-20)
(0.528034 0.496132 0)
(0.446991 0.38761 1.73495e-19)
(0.995894 0.0447877 4.75813e-22)
(1.11131 0.119549 1.56789e-19)
(1.09128 -0.696192 0)
(1.01184 0.0121574 0)
(0.995269 0.024891 -3.46827e-19)
(1.03436 0.0360873 -3.3741e-19)
(-0.886256 -0.888859 0)
(1.23043 0.796693 -8.44187e-20)
(1.04687 -0.0203859 1.66119e-22)
(1.02873 -0.0112906 1.29941e-19)
(1.04447 -0.00844901 -1.6291e-19)
(-0.368845 0.106543 -1.81829e-20)
(1.02754 -0.00376366 -4.96363e-21)
(1.02731 0.0131005 5.53348e-19)
(1.03195 0.0119733 0)
(1.94103 0.606772 -9.1785e-20)
(1.01572 -0.0121195 -1.73591e-19)
(1.18214 0.0775494 -1.84752e-20)
(1.03816 -0.00822064 -4.01597e-22)
(0.996819 -0.0513441 3.4514e-20)
(1.79944 0.361359 -1.55775e-19)
(1.02432 -0.00125368 1.6799e-19)
(1.01953 -0.0129449 -3.01722e-22)
(0.968148 -0.00496753 0)
(0.923786 0.142016 4.12385e-20)
(0.77491 0.0775079 -3.70498e-22)
(1.04036 0.0283079 1.67463e-19)
(1.03993 0.0138674 4.06686e-22)
(1.00408 0.0018609 -8.48054e-22)
(1.21826 0.294493 3.15531e-19)
(1.02958 0.00681507 1.1389e-19)
(1.013 -0.0108249 9.69637e-22)
(1.66148 0.168262 -8.05455e-21)
(1.91331 0.949329 -1.44355e-19)
(0.784806 -0.696763 4.5474e-20)
(0.445563 -0.338026 -2.57451e-19)
(0.999571 0.0193676 0)
(1.01223 0.00171292 4.13142e-20)
(1.00184 0.00658091 8.93358e-20)
(1.00826 -0.0163736 -6.10949e-23)
(0.972958 0.0205463 -1.7271e-19)
(1.01888 -0.0409897 2.01498e-19)
(1.06684 -0.00566883 -1.65786e-19)
(0.998418 0.0310478 2.85308e-23)
(0.982305 -0.0133678 -9.7119e-22)
(1.03843 0.0286128 1.66417e-19)
(0.878308 0.0877918 4.27387e-19)
(1.03134 0.0328941 0)
(0.923381 0.421448 -1.19575e-20)
(1.04862 -0.000663366 0)
(1.01266 -0.0219447 -4.85564e-20)
(1.52094 0.341926 -4.69564e-20)
(0.930093 0.0570809 0)
(1.0779 -0.0207011 2.8348e-21)
(1.02863 0.0454211 2.54589e-21)
(0.942141 0.0117349 0)
(1.40038 0.443111 0)
(0.985295 0.0363648 1.18697e-20)
(1.02316 -0.0304381 -9.7028e-22)
(1.0119 -0.00445325 -1.76363e-19)
(1.11366 -0.549492 -4.68653e-20)
(1.00499 0.015036 -2.85997e-21)
(1.01744 -0.00541357 0)
(1.00322 -0.00928482 0)
(1.03631 0.0417827 0)
(0.810953 -0.452698 2.39532e-19)
(1.04021 0.0200296 4.61491e-21)
(0.97974 0.020486 0)
(0.263646 -1.0221 -1.76396e-19)
(1.73169 0.944243 -1.26186e-19)
(1.00431 -0.0123388 -3.42574e-19)
(1.02614 0.00681387 3.4199e-22)
(1.03721 -0.00781495 2.30025e-19)
(0.908856 -0.020699 0)
(-0.750214 -0.938804 -6.20578e-20)
(0.612395 0.413946 -2.87887e-19)
(1.07066 0.0299626 -6.62392e-21)
(0.398129 -1.01425 0)
(0.980302 0.147186 6.18694e-20)
(0.524824 0.504908 4.30481e-20)
(1.18953 0.858775 -2.14547e-20)
(-0.0924713 -0.25814 2.05283e-19)
(1.00696 0.0216949 0)
(1.02875 0.0163637 3.52538e-21)
(1.01627 -0.029419 1.29211e-19)
(1.6108 -0.277071 0)
(0.985861 0.00713385 2.15642e-19)
(0.560735 1.12249 -2.04264e-19)
(1.00975 -0.0104488 -1.3518e-19)
(1.02305 7.30622e-05 0)
(1.08011 -0.0287182 -2.20331e-24)
(1.01353 -0.00838093 -8.8732e-20)
(0.979812 -0.0562936 2.38773e-19)
(1.07627 0.100006 -2.98359e-21)
(1.01992 -0.00835545 -3.17403e-21)
(-0.0419141 -0.207421 4.8478e-19)
(2.25249 -0.312407 1.89749e-19)
(1.02624 0.00302543 3.57216e-21)
(0.830097 -0.023158 -3.26676e-19)
(0.947348 0.0205486 0)
(1.01986 0.00418805 3.59458e-21)
(1.02161 -0.0250683 -2.62151e-20)
(0.958536 0.0355565 0)
(1.02791 0.0008885 -1.66002e-19)
(0.999227 -0.00944352 -4.57135e-21)
(0.573231 0.0410009 -1.47771e-20)
(2.26506 -0.387837 0)
(0.788055 -0.107703 4.19586e-20)
(1.48291 -0.271325 0)
(0.98344 -0.0313184 4.87539e-20)
(1.0282 -0.0196463 -1.81517e-22)
(1.05357 -0.0134749 1.38121e-19)
(0.549318 -0.258423 -2.38046e-20)
(0.999543 0.00697212 0)
(1.01923 -0.00694822 -3.34034e-19)
(0.970048 0.0187603 1.76934e-19)
(1.02923 0.00217105 0)
(1.03318 0.00347997 2.68519e-22)
(1.0066 0.00420062 -1.52489e-19)
(-0.878625 -0.298328 6.86496e-19)