/*--------------------------------*- C++ -*----------------------------------*\
| =========                 |                                                 |
| \\      /  F ield         | OpenFOAM: The Open Source CFD Toolbox           |
|  \\    /   O peration     | Version:  2306                                  |
|   \\  /    A nd           | Website:  www.openfoam.com                      |
|    \\/     M anipulation  |                                                 |
\*---------------------------------------------------------------------------*/
FoamFile
{
    version     2.0;
    format      ascii;
    arch        "LSB;label=32;scalar=64";
    class       volScalarField;
    location    "10.6";
    object      p;
}
// * * * * * * * * * * * * * * * * * * * * * * * * * * * * * * * * * * * * * //

dimensions      [0 2 -2 0 0 0 0];

internalField   nonuniform List<scalar> 
2186
(
0.679803
-0.405566
-0.110604
0.983
-1.15032
0.00206321
0.591381
-1.03613
-1.06505
1.22545
0.903971
-0.996292
-1.05585
0.910251
-0.627124
0.909506
0.937131
-1.77382
0.000458
-1.06574
1.30111
-1.02417
0.917778
-1.07315
0.910101
0.95809
1.12862
0.813805
0.432157
0.907473
-1.0495
0.910194
-0.991906
-0.906868
-0.985833
-0.0678397
-0.737515
1.28713
-1.05909
-0.0013825
-1.08686
-1.0176
-0.734431
-1.1264
0.763944
1.207
0.269755
0.434642
-1.05207
-1.35809
-1.05598
0.744851
-0.732374
1.21239
-0.980511
0.862853
-0.781221
0.890204
-1.19314
0.712504
-0.526373
0.476127
0.390969
-0.00363503
0.409033
0.378196
0.511588
1.19031
1.08569
-1.11758
-1.04413
-0.605824
1.16435
0.913099
1.0675
1.06935
-0.841196
0.929748
-0.989518
-1.00692
-2.08847
-0.00387405
0.905079
0.461775
0.898976
0.903605
1.19069
0.00289481
-0.0982108
-0.994642
0.86436
-1.07178
0.82659
1.07334
0.916767
0.252567
-0.23115
0.429132
-1.29445
0.903955
-2.31891
-2.33402
0.500503
0.85644
0.939152
-1.11356
1.08869
-0.815426
0.846169
-1.07263
-0.944224
-1.26251
0.459534
1.20481
-1.00679
-0.944068
-0.0294976
-0.962282
-0.997766
1.16864
-0.206269
-1.61229
0.704044
-2.01437
0.914872
-0.0354346
-1.2228
1.05931
-1.83269
0.572635
1.29941
1.1537
0.16193
0.564838
-2.11249
-1.40464
0.83403
-1.08778
-0.824516
-1.00263
0.645607
-0.276937
-1.01283
0.615916
0.815904
0.862344
-0.749254
-1.18064
0.528285
-1.10679
-1.13462
0.49579
0.934192
1.09822
0.958733
0.445199
1.183
0.274806
0.168691
0.341521
-1.0061
-1.57085
0.879985
0.901673
0.000780567
0.00628162
-0.928893
-0.959894
-0.155151
-0.241576
0.19128
0.909165
0.93759
1.02539
0.260068
-0.550071
-1.13836
0.881106
-2.01278
0.7167
-0.954042
0.92174
-1.05317
0.384962
0.367465
-1.18703
-0.7613
1.00343
-0.784623
-1.05927
-1.29132
1.15774
-1.74047
0.88924
-1.00343
-0.914919
-0.0945247
1.07597
0.934895
-1.03555
-1.24518
-0.296653
0.00833506
0.941256
-0.996472
-1.12309
-1.00354
-0.73045
0.844204
-1.0569
0.439655
-0.095376
1.19295
0.675537
0.774721
0.86523
1.05982
0.913553
0.81268
0.977746
0.2898
-0.846592
-1.03495
-0.0808809
0.112977
-1.78608
-1.19658
0.902241
1.0455
-0.968015
-0.939591
-1.3256
0.291381
0.570731
0.699457
0.814162
1.03731
-2.0422
0.800779
-1.00596
-1.37129
-0.933771
0.861192
0.574152
1.02526
1.08522
0.983048
0.957694
-1.02956
0.741842
1.00596
-1.0773
0.84663
0.622927
-1.57676
-0.982721
-0.919172
1.02595
0.933455
-1.10003
-1.2573
-0.201402
0.87169
-2.11941
0.602535
0.945794
0.781984
-1.00402
-1.05219
0.888831
0.483356
-0.728672
-0.776122
1.23938
-1.12638
-1.02615
0.760533
1.10254
0.898534
-1.26426
-0.939227
-0.935364
0.788382
-1.10905
0.464583
0.886451
0.93448
-0.272395
-0.574259
0.863258
-1.08551
0.843693
1.11344
0.932886
0.926718
-0.13908
-1.34612
-1.05976
-0.64151
-1.14185
-1.61535
0.300584
-0.625658
0.449254
1.08919
1.0844
0.788819
-0.790588
1.04012
-1.32845
-0.0671878
-1.39339
-1.00654
-1.09914
0.273972
-1.13752
-1.08448
-0.00951167
0.807826
-0.302146
0.215717
-1.23841
-0.186345
-1.06515
-1.22166
1.12246
-0.197112
-0.0702471
-1.05084
0.706805
0.399642
-0.673299
0.441153
-0.0877876
-1.16318
0.503928
0.936596
0.943637
-0.467419
1.0568
0.806783
0.209571
1.16385
0.907104
0.852219
0.278868
-0.278416
-1.00699
0.731888
-1.14494
-0.95678
-1.42091
-0.806885
-1.0031
1.25769
-0.16679
-1.05249
-1.08992
0.903344
-1.09301
-1.48346
-1.3333
0.678308
-0.265312
-1.77667
1.15348
1.21633
1.04595
-1.01991
-0.0829347
1.2721
0.910014
-1.38427
0.286049
-1.01355
0.0987585
1.07262
0.857641
0.785468
1.21733
-0.584291
-0.286339
-0.351404
-0.639628
-1.69294
-1.00528
-0.0158138
1.19605
-1.86903
-1.38119
0.894866
0.503191
-0.989562
-2.13344
-1.00998
-1.61984
-1.5453
-1.00162
-1.10339
-1.11668
1.1025
-0.151813
-0.873535
0.921128
-1.54141
1.18196
-1.86063
-1.54518
-1.35992
0.908218
-0.956638
0.931397
0.766232
-0.262103
0.956345
-1.67347
-1.00206
-1.26291
0.931665
0.854733
-1.01895
-1.01564
-1.42368
0.855143
-1.78884
-1.79425
0.349634
0.833831
0.805106
0.641571
-1.04701
-0.971981
0.713028
-0.903881
0.733278
-1.25351
0.926665
-0.222326
1.05018
-0.998555
0.771294
0.568265
0.938473
-1.27157
0.901147
-0.483969
-1.00121
0.912859
-1.01019
-0.055294
-0.874922
-0.367808
0.915205
0.0194516
0.216131
0.908459
0.0691308
-0.21909
-0.00258679
-1.05312
0.156544
-1.15455
0.557346
-0.955938
0.941251
1.05464
-1.05389
-1.00483
-0.313832
-1.02651
0.249413
-1.09211
0.689178
-0.124429
-1.0441
0.990571
-0.24196
0.207288
0.221365
-0.269722
0.650125
0.178591
-0.505412
-0.956282
-0.0873235
-0.923793
0.923544
-1.0287
1.02144
1.14744
1.13327
0.500504
1.0434
-1.12497
-0.953052
0.812739
0.143694
0.897302
-0.997123
-1.03142
-2.17202
0.703986
-1.00242
-1.90983
-1.05587
-1.1018
0.0092235
-1.11634
0.591395
0.57359
-0.868197
-0.880073
0.669849
0.00433288
1.01081
-1.42422
-0.366787
-1.00305
0.611891
-0.0956366
1.09375
1.28783
-2.14507
-1.15975
-0.906976
0.0986236
-2.21139
0.958538
-0.882015
0.914361
0.627116
-1.0206
0.749895
0.710769
-1.59044
0.796374
-0.793365
-1.05921
-1.0809
-0.962396
-0.861212
-1.96825
-0.963422
0.912431
0.042361
-1.203
0.511433
1.05632
1.13432
-0.422465
0.671091
-0.0685752
0.696752
-0.280575
-1.31643
-1.07872
0.337213
0.676567
0.942916
-1.62592
-1.0663
-1.59035
-1.0079
-0.180625
0.651321
-1.98544
0.00352694
-1.46202
0.812436
-0.487155
0.855781
-0.381729
-0.383574
0.860909
0.586257
-2.00867
-0.360262
0.867218
1.2134
0.930594
-0.419014
-1.84718
0.719175
-0.323415
0.706228
-0.855248
0.283824
0.863747
-1.05223
-1.05251
0.900217
-1.33068
1.1288
-0.00703374
0.797097
0.0514515
0.546876
-0.822387
1.14801
-1.05507
-1.95834
0.82584
0.364339
0.338993
-1.38408
-1.05101
-0.907261
0.657648
-0.141859
-0.996795
-0.590581
0.923875
0.225057
-1.67
0.605895
0.761538
0.887672
-1.74601
-0.958418
-1.07497
0.921513
1.05761
0.413845
0.918404
0.11449
0.972454
0.0833013
-0.919522
-0.317809
0.840396
0.87845
-2.0002
0.710038
-1.06242
0.673783
-1.26559
0.869999
0.867159
0.925899
-1.47271
0.796796
-1.97551
-1.00001
1.07886
-2.20241
-1.06689
1.0077
-1.33667
0.983808
-2.01162
-1.07231
0.914662
0.701723
1.27991
0.906923
-2.11838
1.00541
0.973633
-0.329849
0.486132
0.0745143
-0.880099
1.4067
-1.01154
1.02059
-1.14922
0.229847
0.910001
-1.50532
0.894058
-1.33694
0.789911
0.866003
0.924997
0.00823463
-0.991961
-0.663397
0.511624
0.609507
0.983876
-0.309933
0.689011
-1.83937
-0.598197
-1.92091
0.75355
1.06854
-1.35556
-1.10076
-0.0262676
1.13932
-0.0412193
0.591093
-0.00551129
-2.37128
-1.02441
-1.03982
-0.453959
0.680716
-1.10814
-0.129178
-0.498039
-0.625123
-1.07635
-1.40596
-0.299571
0.873477
0.929199
-1.41379
-0.486484
0.888275
0.850635
0.926888
-2.07316
0.886684
0.971496
0.907955
0.981872
-0.652236
-0.167476
-1.05487
0.470057
0.914485
0.628815
0.0838375
-0.0545228
-1.34408
0.0178597
1.18184
-0.276684
0.0462817
-0.743596
-0.201129
-1.0338
0.650067
-0.955493
-1.60497
-1.00102
0.909174
0.910362
0.91741
0.00430589
0.162737
1.16026
-0.0316579
0.908811
-0.109222
0.000417799
0.623581
0.929404
0.96706
-0.00103796
0.880785
0.879283
-1.18225
-0.137005
0.919897
0.930672
0.930686
-1.00444
-1.04362
0.932074
0.533275
0.912222
0.0447797
-0.303647
0.0326473
-1.39759
-0.292298
-1.13955
-1.57434
-0.00635895
0.934873
0.939655
0.631277
-1.01065
0.907602
-0.0332848
-0.0367751
0.00120474
0.907981
0.934666
0.931454
0.942473
0.918628
0.912184
0.90202
-0.212132
-0.06833
-0.00300058
-0.0101166
4.93061e-06
0.00100604
-0.000217159
0.00364916
-0.0166512
-0.0596611
-0.239976
0.902484
0.922952
0.918524
0.940418
0.940165
0.930464
0.934573
0.912677
0.917475
-0.00904064
-0.0181322
0.931183
0.929761
-0.000192
0.932784
0.929894
-0.023019
0.0303487
-0.0855077
-1.07253
-0.766457
0.912631
-1.17356
0.912555
0.559082
0.998986
-1.00857
0.909702
0.84657
0.860791
-1.05061
0.0530635
-1.23617
-0.102463
-0.219998
-1.04469
0.922508
0.0230886
1.00121
0.918883
-0.355578
1.06123
1.21974
-0.0711714
0.763971
0.58897
0.907943
0.925646
0.921482
-1.00418
0.331988
0.0047241
0.915982
0.92414
-1.18594
0.0227895
0.916633
-0.000909064
-0.528686
0.916989
-0.913966
0.893399
0.929249
-1.0509
0.921415
0.0364358
0.913297
0.979784
-1.7052
0.926271
0.936267
0.01182
0.553267
0.915422
0.918639
-0.032498
-0.949883
0.640869
1.27438
0.923457
0.916544
0.919409
0.0229007
0.917762
0.903979
0.91959
0.916553
0.917223
0.915441
1.01442
-0.338791
-2.29695
0.919206
0.911789
0.124008
-0.853404
-0.357289
-0.300484
0.77647
-1.55836
-0.173461
0.00475347
0.914091
0.652034
0.0101317
0.0153953
-0.0439117
-0.335264
-1.22146
0.0230835
0.0409953
-1.93858
-0.519088
0.921157
0.0174471
0.909729
0.825189
-0.997139
1.14057
-0.208722
-1.53537
0.685701
1.01911
0.306066
-0.998676
0.910053
0.0285555
0.919836
-1.24612
0.91963
-1.47748
0.911156
0.00807759
-0.393744
0.922579
0.937929
0.845631
0.0466842
-0.995338
-1.02243
0.0796448
0.933205
0.808821
0.0545033
0.911151
0.953665
0.902968
0.161061
-2.1092
-0.724992
-1.64503
0.25254
0.916564
-0.000110667
0.91681
-2.09327
0.913069
0.951814
0.922563
0.000195864
0.000622012
0.950262
-1.15817
0.923435
0.929464
-0.0538801
-1.03073
0.821513
1.03667
0.909212
0.90312
0.127417
0.333953
0.884078
0.34109
0.924098
0.768929
-1.13272
-1.02006
0.751635
1.16365
0.913504
0.273813
-0.15057
0.0877135
-1.1717
0.0861652
0.897352
-0.908031
0.896584
-1.7963
-1.00541
-1.14266
0.30705
-1.12756
-0.050165
0.418291
0.911074
-1.00205
0.79219
-1.011
-0.232899
0.153228
0.00962316
0.309254
0.881018
0.0943
-0.845259
0.265523
-1.35501
0.90429
0.375776
0.00969363
-2.12146
0.981512
-0.109383
-1.00777
0.982205
0.900607
0.888918
0.411754
-0.961929
0.915553
0.941083
-0.840196
-1.09924
0.910249
0.720675
1.15264
0.926892
-0.579314
0.102238
-1.15689
-1.53023
-1.30146
-1.00275
0.0145915
-1.21012
0.724798
-0.0841769
0.921864
1.11545
0.906749
-1.00031
-1.23634
0.910374
-0.224118
0.172578
0.892493
-0.354737
-0.983617
-1.98659
0.0424906
0.855154
0.829081
-0.569124
0.752556
0.555142
-0.52002
0.898999
-1.90399
0.710486
-1.01546
0.902548
-0.675169
0.354725
0.912383
0.983103
-2.00526
-2.01386
0.733715
1.28439
0.931954
0.907546
0.00430835
1.17084
-0.891464
0.168587
-0.875977
0.399491
-1.75897
1.02164
1.08266
-1.01263
-0.90313
0.908215
-1.05452
0.774407
0.941888
0.872053
-1.93647
0.912827
-0.0007695
0.940784
0.000163335
0.22533
-0.300261
0.915164
-0.0405311
-0.658007
0.0577887
0.920326
0.374146
1.08878
0.194363
1.22585
0.874013
-1.20563
0.896967
-1.07203
0.880619
0.88141
0.103941
0.158589
1.02118
0.899785
1.12162
0.864004
0.0205164
0.864457
0.903085
0.764302
0.918905
-1.00948
-1.32613
-0.339076
1.01584
-1.11702
0.253379
-1.06022
-1.15721
0.0806781
-0.00982232
0.753278
0.142818
0.870649
0.927441
-1.11133
-1.29695
-1.18784
-1.40145
-1.37036
-1.0716
0.915738
-1.28632
0.929294
1.15726
0.969765
-0.366118
0.935329
0.843188
-1.27071
0.875419
0.891719
-1.12595
0.893197
0.832202
-0.0130426
-1.16562
1.37719
-1.03703
-1.55516
-1.20165
0.16963
0.892625
-1.66612
-0.348502
-1.04303
1.04488
0.246101
0.742874
0.925431
0.90028
-1.24241
0.886342
-1.71571
0.92288
0.938821
-0.59381
0.931518
0.381325
0.906519
0.636731
-2.22352
0.0024586
0.00236337
0.0312005
1.14447
-0.0108232
0.939955
1.3021
-0.368764
-0.00388525
0.979375
-0.000799291
0.976943
-0.00135056
0.00334897
0.974843
0.978762
0.355287
-1.7474
0.651004
-0.949322
-1.25793
-0.864068
0.934689
0.912967
1.34846
-1.00133
-0.00117106
0.668492
-1.25404
0.984007
0.890595
0.904654
0.902594
0.871104
-2.3212
-1.00383
-1.56398
0.708534
0.831823
-1.71691
-1.0799
-1.01361
0.927681
0.950253
-0.883681
-2.0379
0.94888
-0.414935
0.0766238
0.662167
0.814161
-0.283934
-1.30202
-0.390041
-1.01368
-0.955627
-2.09823
-0.657265
1.3013
1.26744
-1.01139
-0.909833
0.928921
0.904394
-1.33982
-0.128019
-0.413337
0.540961
1.00799
-1.56087
0.916639
-0.41523
-1.2738
-1.26928
-1.53558
-1.14208
0.901095
-0.968215
-1.67305
1.26919
-1.00061
0.922745
1.13267
-1.08401
0.973323
1.1804
-1.12037
1.14399
-1.02431
-1.30967
0.924323
0.103429
0.943071
0.921896
-1.03302
0.977261
0.0829501
-2.14434
0.955944
0.96119
-0.941457
-1.67731
0.85439
0.913334
-1.02532
-2.04106
1.18492
-1.03381
0.820308
-0.013897
0.859213
-0.979875
-1.88107
-1.01467
-1.09985
0.99014
0.951577
1.21822
1.10679
0.873129
0.97504
0.960944
-1.01193
1.03187
1.07296
-1.123
-1.03496
-1.20573
1.22696
-0.828281
-1.25766
0.0680254
0.832333
-1.13406
-0.936685
0.917094
0.950388
-1.01799
-1.09643
-1.1986
0.0135141
-2.05427
-1.12771
-1.00935
0.784887
0.823965
-1.07489
-0.609596
-0.909642
0.735576
-1.03358
-1.06738
-1.00759
0.875619
-2.09543
-1.10555
1.25853
0.81992
0.326419
1.12552
0.173242
0.910927
0.925698
1.0388
1.13875
-0.144565
0.575578
0.907642
0.202127
-1.00521
1.33958
0.884204
0.831462
0.981309
-1.11616
-2.28402
0.776572
0.701237
0.881559
-2.43941
-1.96122
0.9022
-1.00045
0.745623
-0.00598551
1.32091
-1.00398
0.630405
0.670453
-1.06071
-1.00226
-1.84314
0.987546
-1.06469
-1.00413
0.632664
0.512078
-1.53123
0.981012
0.763287
-1.06885
-0.798462
0.864067
-2.46429
-1.00039
-1.16389
-1.05081
-0.964716
0.889179
0.928669
-1.60539
0.55269
0.92131
1.25465
0.215754
0.180298
-0.098115
0.814377
-0.501445
-1.05747
-0.723271
-0.756066
-1.05476
0.90445
-1.05863
0.0681369
-0.998837
0.443381
0.504001
-1.05
0.570419
-1.92368
0.432357
-1.04564
0.367574
-1.05819
0.328008
-0.995391
0.282434
-1.04039
0.750926
-2.15702
-1.04061
-1.04711
-0.995628
0.932134
0.0318765
-1.07979
-1.00318
-0.0680425
-0.0122104
-1.05068
-1.00014
-1.12684
-0.172123
-1.01921
-0.235347
-1.0506
-0.447461
-1.20803
-0.339129
0.797999
-0.0311626
-2.34168
0.89275
-0.230464
-0.100983
0.388682
0.88649
-2.21641
-1.9377
-0.997484
-1.83036
0.813535
1.3278
-0.556935
-0.0587275
-0.0367629
-0.985797
-0.538532
-0.418545
0.88256
-1.01248
0.872896
-1.60482
1.39264
0.386702
1.34954
-1.08863
1.12064
-0.700734
0.939945
-1.03487
-0.993578
1.00636
0.914045
-2.34642
-1.00091
-1.05001
0.877034
-1.23953
0.898748
-1.40037
-1.09096
-1.01478
1.21856
0.947032
1.04202
0.925755
0.930555
0.00927497
-0.62391
1.1068
-2.40903
-0.90684
1.32238
-1.10178
0.824707
0.875739
1.28885
1.35131
-1.14567
-1.78464
0.953521
0.166993
-0.506584
-0.990005
-0.481986
-1.66498
-1.08983
0.492371
-1.69061
1.13176
-1.08543
0.945054
1.04063
0.94521
-1.83957
-0.965481
-1.21006
1.00579
-1.033
1.07355
-0.879188
-1.27292
1.1405
1.23418
-1.00183
-0.0272052
0.863952
-1.4857
-1.41035
0.594137
1.17619
1.14402
-1.46576
0.790262
0.742685
-0.999398
1.15729
0.172512
-1.08033
-0.42472
-0.0126553
-0.0281858
1.01852
-0.891464
0.149757
0.00823653
0.0442754
-0.783385
-0.98705
0.902261
-2.32973
0.930004
-0.228028
0.0254812
0.619254
0.190301
-0.991125
-0.771953
-1.21189
-0.195092
0.0106383
-1.58536
0.831399
-2.36994
-2.03092
0.916773
-1.33823
-1.13305
0.929227
-1.00773
0.86878
-0.00294556
-1.00417
-0.397273
0.715316
-0.838761
-1.9148
0.810753
-1.05157
0.99195
-0.625317
-1.16304
-0.943256
-0.998122
1.41403
-1.87924
1.04779
0.0131231
0.879835
1.09795
0.650836
0.945132
1.05896
-0.306447
-1.5586
0.889576
1.01934
1.2835
-0.986324
0.959648
0.564752
-1.01663
0.717562
1.13895
-0.739028
1.24725
0.0197609
-0.976861
0.763258
-1.03002
-1.04452
0.867474
-0.62436
0.976379
0.985485
0.867975
-1.04346
0.807163
1.1639
-1.48438
-0.477894
-1.85316
-1.39101
-1.12654
-1.00164
1.28144
0.678632
-1.11366
0.839716
-1.03603
-0.978776
1.20045
1.12619
-2.34139
-1.72843
-0.996122
-1.03017
0.896495
-1.12603
0.0107854
-1.02306
-0.609927
0.982101
-1.03364
1.29448
0.960073
0.799547
0.934872
1.20558
-1.31883
-1.03975
0.936589
1.06924
-0.79388
0.925814
-1.81378
-1.01476
-1.01624
0.980439
1.01068
-1.01813
-1.16362
0.48285
-0.142642
-1.68173
0.894247
0.855008
-1.72993
0.895919
0.939613
-1.49909
-1.12794
-1.08589
-1.01199
-1.01824
1.23903
-0.034375
0.807631
-1.13844
1.23828
0.788344
0.758217
0.847467
-2.16287
-0.69189
-1.00981
0.413445
-1.10369
0.847902
0.228824
-0.788222
0.764533
0.933113
0.954492
0.921657
0.00214448
0.956252
0.00397669
0.349918
0.703467
-0.741548
-1.12232
-1.14722
-0.865402
0.926129
0.896213
0.925999
-2.05409
-0.849413
-1.00784
-0.971952
0.921651
1.19016
0.935442
-1.11334
-0.910333
-1.45351
-0.712153
-0.998686
-0.997388
-0.361798
0.908554
-0.886056
-1.07296
0.00506756
-0.156769
0.607475
-0.946599
-1.00563
-1.20024
0.841541
1.34704
0.0129901
1.01928
1.39937
0.545485
1.11317
-1.14697
-0.0249769
1.32535
-1.00342
0.245581
-1.09449
-1.02434
-1.04314
-1.06347
0.899025
0.660619
1.09038
1.051
0.000981956
0.706892
-0.100274
0.00722312
-1.0011
1.02759
0.609251
0.932853
0.948378
0.00251372
-0.00224569
0.947491
-1.03812
-1.00422
-1.06807
-1.05277
0.522972
-1.05967
0.877738
0.597507
-1.00321
1.16023
-1.11212
-0.487702
0.89988
-0.849991
-1.01504
-2.27909
0.479957
-1.07933
-1.57996
0.803319
0.940289
-0.066082
-0.0344262
-2.53226
-0.99892
0.0960881
-1.96818
-0.267007
0.530874
-1.28167
-1.0566
1.16473
0.129605
0.234517
-1.053
-1.0302
0.917268
0.973019
0.407494
0.466514
-1.04806
-0.962816
-0.80816
0.328515
0.376174
-1.04296
0.747661
0.00817175
-1.03666
1.35061
-1.03938
-1.90429
-1.01986
-0.992663
0.770762
-1.05802
-1.11255
-1.00886
-0.0545186
-1.1002
-0.141686
-1.00309
-0.0233259
1.07949
-1.16052
-0.233771
-1.03536
-0.32761
1.24357
1.32113
1.12927
0.921529
1.10485
-0.882782
0.908383
-1.11405
0.969965
-0.998759
-0.96658
1.1907
-1.16407
0.409481
-2.12444
1.3204
-0.208946
1.25675
0.478067
0.667891
-1.08577
-1.0933
-0.994027
-1.45389
1.22499
1.09783
0.90536
0.557497
0.912459
0.795136
0.69675
-1.0461
-1.02731
0.0926165
0.0156575
0.670818
0.921442
-0.0928686
-1.08653
-1.03909
-1.67842
-0.994613
-1.29702
1.27096
0.94417
0.921566
0.00250748
0.000211776
0.945959
-0.557203
-1.00107
-2.29854
-1.01143
0.659289
-1.06792
-1.04988
-0.374032
0.914936
-2.16299
-1.01859
0.911978
0.538861
0.649533
0.909465
-0.996996
0.752306
1.10593
0.765941
-0.994257
0.906536
0.288539
0.327737
-1.11313
-1.06048
1.35513
0.172244
-1.47352
-0.0509866
0.79202
0.868958
-0.948777
-1.64805
-0.00805915
-1.14928
-0.94065
-1.12189
9.20671e-05
0.903894
-1.43847
0.897858
1.19605
1.01861
0.891961
0.980569
1.04407
0.913999
-1.65736
-0.71192
-0.582841
-1.07628
-0.934948
-1.0478
1.05051
0.942966
-1.02814
0.88055
-0.880299
0.236555
-1.04277
-0.255067
0.469238
-1.39202
0.901229
0.785863
-1.77849
-0.456759
1.24845
-1.97409
-0.0452832
-1.14974
-1.12747
-1.01712
0.957136
0.651371
1.01607
-1.36239
-0.490813
-0.977913
-0.534431
-1.02936
-1.34997
-1.6954
-2.45847
0.79424
-0.789944
1.37896
-1.29837
-0.64078
-1.03407
-1.04777
0.845459
-1.05939
-1.30054
-0.954911
-0.419451
1.08656
1.1414
-2.41896
-0.742456
0.702421
-1.01754
-0.911383
1.02436
-1.6827
-1.7791
-1.44961
0.626837
-0.50355
-1.02729
0.903693
-0.156044
-1.24901
0.914013
-0.921652
-1.79304
-1.52478
-1.12538
-0.165554
-1.02975
1.21501
-1.00315
0.0827804
-1.00023
0.668964
-0.937556
-1.01333
0.519514
0.680921
0.971564
0.878471
1.07992
-1.06229
0.766622
0.478733
-1.54953
0.830838
-0.54586
-1.00159
-2.34015
1.10003
1.08502
-1.07487
-0.982831
-1.3521
0.896727
-1.00314
-0.0945185
-1.39358
-1.05385
1.17946
0.902407
-1.0893
-1.05318
-1.09942
-1.07547
0.809393
-1.15929
0.866335
0.0882702
0.580382
0.714053
-1.02513
-1.05476
0.826217
-1.05143
0.000280484
1.19215
-1.0066
-1.06908
0.694763
-1.58704
-1.08951
-0.27486
-0.998934
1.26916
-0.690205
0.0574695
-1.09399
1.23141
-1.10157
-1.04103
0.514585
-1.29801
-0.9984
1.2541
0.545171
0.934144
-1.10647
1.12437
-0.213404
-0.890313
-1.12087
-1.13415
-1.1091
1.15814
0.445311
-1.01262
-1.10205
-1.01715
1.02521
-0.922877
1.20718
-0.999176
0.602279
-1.06552
0.235756
0.407489
0.372258
0.289122
0.115518
-0.977612
0.899382
-1.12391
-0.874838
-1.19879
0.203361
1.2477
-0.3916
-1.0955
-1.14799
-1.06868
0.126329
-1.29067
-1.06302
0.770933
0.112239
-1.07796
1.31289
-1.02326
-1.91938
1.27591
-1.07131
0.00865934
-0.927891
-1.04517
-1.06019
1.28718
-1.03888
1.19432
-1.05782
-1.05724
1.07296
-0.317745
-1.02099
0.435072
-0.990061
-0.129401
-0.493408
-1.06218
0.725944
-1.12981
-1.06293
-1.04733
-1.04612
-1.00725
0.760034
-0.307841
-0.550401
-1.08345
1.22129
-0.920854
-1.07549
-1.0228
-0.235657
-1.18214
-1.02669
-1.0794
-0.188666
1.14
-1.12326
-0.997675
-1.63522
-0.806947
-0.391255
-1.01282
1.30927
1.23807
0.280112
-1.13323
-1.0044
0.192847
-1.00559
1.31853
0.0687488
0.999548
0.57191
1.21147
-0.0528471
-1.19144
-1.16448
-0.210578
-1.12973
-0.210744
-0.181864
-1.05687
1.21466
-0.375985
0.0803631
-0.508377
-1.0042
-1.20784
)
;

boundaryField
{
    frontback
    {
        type            empty;
    }
    Top
    {
        type            zeroGradient;
    }
    outlet
    {
        type            fixedValue;
        value           uniform 0;
    }
    bottom
    {
        type            zeroGradient;
    }
    Inlet
    {
        type            zeroGradient;
    }
    rectangle
    {
        type            zeroGradient;
    }
}


// ************************************************************************* //
