/*--------------------------------*- C++ -*----------------------------------*\
| =========                 |                                                 |
| \\      /  F ield         | OpenFOAM: The Open Source CFD Toolbox           |
|  \\    /   O peration     | Version:  2306                                  |
|   \\  /    A nd           | Website:  www.openfoam.com                      |
|    \\/     M anipulation  |                                                 |
\*---------------------------------------------------------------------------*/
FoamFile
{
    version     2.0;
    format      ascii;
    arch        "LSB;label=32;scalar=64";
    class       volScalarField;
    location    "23";
    object      p;
}
// * * * * * * * * * * * * * * * * * * * * * * * * * * * * * * * * * * * * * //

dimensions      [0 2 -2 0 0 0 0];

internalField   nonuniform List<scalar> 
2186
(
1.09202
0.0845586
0.364988
1.39795
-0.808791
0.114141
1.03181
-0.536437
-0.408328
1.62054
1.22097
-0.458628
-0.552324
1.28046
-0.124881
1.27133
1.30394
-0.897761
0.0514609
-0.900012
1.65967
-0.876012
1.28746
-0.530333
1.27882
1.37422
1.50044
1.24138
0.71556
1.27997
-0.876765
1.27912
-0.83341
-1.06518
-0.456156
0.182672
-0.978306
1.6407
-0.70929
0.0520958
-0.555631
-0.844556
-0.226692
-1.01064
1.08414
1.60144
0.72838
0.882647
-0.952511
-0.925606
-0.885333
1.04962
-0.222566
1.55642
-0.885874
1.2868
-0.272313
1.31278
-0.761857
1.12244
-0.882273
0.777857
0.676903
0.0853232
0.705396
0.827719
0.800727
1.55374
1.44797
-0.425886
-0.529345
-0.940499
1.53855
1.32938
1.41642
1.47977
-0.946544
1.29782
-0.458152
-0.764813
-0.881791
0.113454
1.27518
0.757052
1.27144
1.27646
1.54214
0.125428
0.0435417
-0.470759
1.28647
-0.869936
1.22324
1.4624
1.28734
0.525506
0.250664
0.72488
-0.873536
1.32488
-0.876205
-0.782717
0.789087
1.24197
1.30627
-0.880525
1.41769
-0.272003
1.26481
-1.60821
-0.745912
-0.899727
0.907781
1.54215
-0.393122
-0.59316
-0.0792775
-1.13859
-0.472171
1.5468
0.0321296
-0.964746
1.00602
-0.894173
1.27713
-0.0662023
-0.863885
1.4683
-0.889163
1.01452
1.69093
1.5585
0.625559
1.00694
-0.869945
-0.942337
1.25991
-0.451777
-0.539368
-0.486281
0.943086
0.208912
-0.525746
1.05479
1.2185
1.2545
-0.206714
-0.81128
0.966415
-0.967597
-0.867153
0.94092
1.30102
1.50514
1.37299
0.892016
1.52862
0.560942
0.451204
0.794762
-0.486667
-0.627323
1.23118
1.31707
0.0600112
0.0829592
-0.390241
-0.444263
-0.333233
-0.367802
0.460682
1.32882
1.30439
1.43753
0.531143
-0.255966
-0.766184
1.23116
-0.87661
1.02352
-0.446056
1.29185
-0.889169
0.668034
0.643899
-0.761554
-0.583385
1.32673
-0.486248
-0.574982
-0.731637
1.51952
-0.793737
1.30155
-0.48196
-1.69306
0.148039
1.43398
1.25378
-0.885732
-0.513407
-1.55977
0.478339
1.31394
-0.470075
-0.840344
-0.469483
-1.22996
1.18895
-0.849367
0.883607
0.146791
1.53207
0.975433
1.08218
1.28584
1.38748
1.28084
1.23894
1.30471
0.744515
-0.589709
-0.867041
0.169418
0.578218
-0.920176
-0.847964
1.21916
1.43681
-0.456088
-0.413291
-1.22868
0.747913
1.00809
1.10369
1.24107
1.45039
-0.943364
1.22353
-0.498425
-0.91007
-0.600121
1.17524
0.866453
1.35062
1.46009
1.30593
1.27826
-0.509967
1.17367
1.35075
-0.532164
1.15929
0.918897
-1.12205
-0.455894
-0.414148
1.35085
1.29701
-0.569954
-0.730196
-0.895716
1.2955
-0.910253
0.903595
1.27079
1.17439
-0.440556
-0.876003
1.2661
0.780429
-0.265883
-0.467033
1.58602
-0.846048
-0.517676
1.15376
1.5102
1.27419
-0.843084
-0.82358
-0.350381
1.11223
-0.547231
0.91213
1.26074
1.34429
0.215139
-0.114497
1.20957
-0.457421
1.26025
1.52108
1.29372
1.29115
-1.06101
-0.93711
-0.533006
-0.860968
-1.35082
-0.732698
0.75711
-0.118962
0.731996
1.49816
1.41254
1.1097
-0.237528
1.38958
-0.501341
0.102841
-0.569599
-0.481664
-0.593431
0.729584
-0.870116
-0.870292
0.240163
1.13544
-0.668322
0.48133
-0.901444
-0.0276788
-0.599205
-0.886857
1.48852
0.0401031
-0.102114
-0.865715
1.14107
0.698672
-0.36967
0.884158
-1.50435
-0.593363
0.790577
1.30711
1.26353
-1.66237
1.42169
1.23446
0.4782
1.56728
1.26464
1.23478
0.735141
-0.543112
-0.492826
1.04161
-0.98658
-0.433915
-0.543972
-0.591325
-0.476961
1.59679
-0.897716
-0.882243
-0.523514
1.2647
-0.742369
-1.08985
-0.938116
1.1143
-0.270297
-0.752564
1.50542
1.57077
1.45817
-0.530778
-0.271457
1.60987
1.27175
-0.763971
0.56476
-0.504169
0.565282
1.41796
1.17746
1.18939
1.60748
-0.0739836
-0.655561
-0.499308
-0.939767
-0.630093
-0.861808
0.143329
1.52926
-0.954412
-0.584908
1.25307
0.949036
-0.461859
-0.942484
-0.496374
-0.925377
-0.633803
-0.477462
-0.882167
-0.826739
1.48638
-0.679018
-0.590238
1.29335
-0.577269
1.58383
-0.869553
-1.43848
-0.93362
1.2775
-0.439835
1.29583
1.19602
-1.4965
1.35669
-0.963301
-0.475781
-0.52787
1.35059
1.23868
-0.462252
-0.502709
-0.590722
1.17307
-0.704827
-1.16749
0.624439
1.16502
1.18923
1.04167
-0.476207
-0.771306
1.03067
-0.700908
1.12892
-1.91264
1.29879
0.0129681
1.45808
-0.472441
1.20111
0.867085
1.30246
-0.50393
1.25685
-0.940838
-0.473561
1.2806
-1.39794
0.223515
-0.599271
-0.0966901
1.27454
0.486971
0.673736
1.26438
0.327924
0.26044
-0.125746
-0.883021
0.617964
-0.576262
0.858743
-0.689714
1.26072
1.46664
-0.510751
-0.481775
-0.612015
-0.876456
0.545542
-0.611618
0.989863
0.34762
-0.561033
1.33023
-0.58621
0.472437
0.682222
-0.376277
0.947936
0.441705
-1.01153
-2.0268
-0.381483
-0.868498
1.28999
-2.00697
1.4118
1.55009
1.53506
0.79215
1.36884
-0.824562
-0.80494
1.20134
0.607215
1.25453
-0.870164
-0.570018
-0.999599
1.12464
-0.475682
-1.85404
-0.904735
-0.948131
0.180459
-0.596556
0.890736
0.880677
-0.566528
-0.459131
1.10577
0.474999
1.33405
-1.94567
-0.145066
-0.476608
0.906869
-0.117099
1.50283
1.62643
-1.03284
-0.841687
-0.386718
0.398434
-0.943448
1.37645
-0.519429
1.33518
0.944192
-0.498815
1.07024
1.03255
-1.30572
1.18513
-0.857708
-0.871985
-0.911271
-0.441885
-0.829251
-0.895392
-0.662034
1.28219
0.299801
-0.874603
0.95656
1.42722
1.53866
0.0737855
1.0879
-0.520624
1.13169
-0.168052
-0.914184
-0.867505
0.616118
0.984026
1.26991
-1.38334
-0.484795
-0.60322
-0.480719
0.298644
1.08653
-1.17258
0.209632
-0.680725
1.1257
-1.64897
1.20241
-0.838915
-0.814927
1.24313
1.00393
-0.942946
-0.141559
1.21804
1.61129
1.30062
-1.82831
-0.940404
1.14628
-0.795386
1.13232
-0.570336
0.55692
1.2143
-0.584709
-0.879085
1.22475
-0.494255
1.463
-0.19365
1.22606
0.171758
0.981845
-0.330103
1.53061
-0.877089
-0.876333
1.13708
0.643375
0.625974
-0.607739
-0.891389
-0.621431
0.971741
-0.163867
-0.734601
-1.83379
1.29124
0.505271
-0.943034
0.914203
1.07076
1.24108
-1.6132
-0.787145
-0.8704
1.29211
1.3862
0.86446
1.28892
0.0907446
1.37675
0.215017
-0.359181
-0.688209
1.22504
1.26048
-0.845885
1.01209
-0.878461
0.986963
-0.796137
1.18478
1.27879
1.29081
-2.02636
1.11248
-0.875493
-0.637726
1.45844
-1.1831
-1.97247
1.34589
-0.588932
1.30752
-1.07194
-0.875202
1.23227
1.13313
1.67092
1.27827
-0.940056
1.41987
1.30735
-0.982726
0.771131
-0.173571
-0.370041
1.77437
-0.492182
1.35111
-0.866237
0.686004
1.27929
-0.668255
1.24803
-1.32075
1.09878
1.24909
1.29661
0.230647
-0.576298
-0.160353
0.933901
1.00461
1.38346
-0.292657
0.990112
-1.86927
-0.337907
-0.924213
1.1791
1.47867
-0.884015
-0.43911
-0.108483
1.49578
-0.273696
0.884934
-0.367848
-0.91317
-0.516011
-0.890394
-1.82345
0.996514
-1.46056
-0.33131
-0.292553
-0.104234
-0.924114
-0.551394
-0.392465
1.22582
1.29545
-0.632967
-0.0130927
1.24482
1.23641
1.29721
-0.946482
1.24065
1.36586
1.28263
1.39794
-1.47607
-0.160205
-0.878945
0.755027
1.28798
1.06663
0.550808
-0.0732142
-2.00865
0.109815
1.58244
-0.212335
0.360548
-0.204531
-0.0881731
-0.541246
0.952096
-0.433751
-0.577376
-0.47241
1.26785
1.28169
1.27928
0.0163451
0.454675
1.56534
-0.0914932
1.28092
-0.109378
-0.0345458
0.921798
1.29302
1.2882
0.127702
1.2312
1.23319
-0.777177
-0.0423223
1.28045
1.29473
1.2942
-0.478401
-0.520928
1.29521
0.974765
1.28112
0.298727
-0.0747606
0.181315
-1.752
-0.565327
-0.883132
-1.02498
-0.551402
1.29909
1.30336
0.939818
-0.487369
1.26729
-0.0901801
0.207259
-0.000315292
1.28149
1.30166
1.29595
1.30523
1.28064
1.27232
1.26031
-0.117542
0.198696
0.119881
0.158907
0.0213729
0.0608147
0.0104348
-0.101137
-0.0909979
-0.0602017
-0.12065
1.27727
1.29402
1.28923
1.30975
1.30621
1.29651
1.2979
1.28475
1.27771
-0.119254
0.208883
1.29555
1.29642
-0.0165151
1.29919
1.29578
0.105146
0.295461
-0.0790554
-0.749754
-1.80479
1.27688
-0.55088
1.27854
0.9751
1.40964
-0.491037
1.2801
1.19143
1.24095
-0.879221
-0.415194
-0.602099
-0.0547577
0.0187971
-0.881477
1.28757
0.229514
1.36669
1.27926
-0.12743
1.3877
1.55448
0.0740146
1.08896
1.02789
1.27096
1.28994
1.28813
-0.488868
0.607454
0.152767
1.2791
1.29314
-0.62479
0.28528
1.27976
0.139563
-0.308355
1.28115
-0.824023
1.24999
1.29187
-0.445388
1.29073
0.284139
1.28023
1.32573
-1.47982
1.2982
1.30495
0.18745
0.858292
1.28396
1.28246
0.247035
-0.772897
1.07866
1.66867
1.28804
1.28505
1.28542
0.411302
1.28354
1.27754
1.28525
1.28187
1.28282
1.28402
1.36843
-1.19132
-1.53316
1.28545
1.27484
0.400844
-0.863374
-0.885443
-1.37671
1.10447
-0.852522
-1.51208
0.180804
1.27929
1.08417
0.223139
-0.0682102
-0.0353965
-0.909412
-0.900128
0.328344
-1.33508
-0.979107
-0.305295
1.28844
0.301015
1.27528
1.16514
-0.475955
1.47409
-0.963708
-0.965205
1.08565
1.34303
0.578361
-0.472205
1.26998
0.18144
1.28526
-0.720329
1.28651
-0.530172
1.27599
0.134658
-0.861658
1.28728
1.30428
1.18028
0.0807379
-0.471279
-0.737896
0.167923
1.30318
1.14432
0.214392
1.27323
1.31935
1.26154
0.227043
-1.16233
-0.211385
-1.29679
0.704778
1.27935
-0.0943061
1.2832
-0.991493
1.27552
1.31435
1.28991
-0.00892294
-0.0527725
1.31742
-0.525945
1.29226
1.29469
0.418462
-0.540884
1.13241
1.37036
1.27414
1.26355
-0.0128455
-0.368771
1.2628
0.795157
1.28991
1.19772
-0.738863
-0.523867
1.07686
1.54992
1.27347
0.730201
-1.45889
0.249372
-1.53472
-1.46157
1.27489
-0.872315
1.2532
-0.871241
-0.484031
-0.830762
0.601094
-0.46996
-1.08466
-0.673358
1.27422
-0.47201
1.10103
-0.499514
0.248451
-0.310496
0.215805
-0.940838
1.23561
0.177129
-0.341826
-0.497915
-0.842741
1.2769
-1.17389
0.194106
-1.08869
1.3133
-0.829723
-0.497544
1.34476
1.27465
1.26909
0.852458
-0.438672
1.27614
1.29676
-1.8606
-0.857421
1.27437
1.15327
1.49008
1.29202
-1.21692
-1.11765
-0.877734
-0.714357
-0.76708
-0.474408
0.00950332
-0.458688
1.15679
0.390631
1.29137
1.46235
1.26818
-0.47544
-0.505893
1.27518
-1.55536
-0.534194
1.26842
0.127702
-0.693092
-1.06235
-0.160093
1.19838
1.16635
-1.74045
1.15821
0.848422
-1.57951
1.27418
-0.718151
1.03148
-0.869513
1.30858
-1.68755
0.802713
1.27688
1.30511
-0.857769
-1.00711
1.05619
1.64833
1.29653
1.22512
-1.43659
1.57504
-0.383995
-0.49137
-0.354455
0.850566
-0.818824
1.38445
1.48693
-0.50708
-1.6895
1.26892
-0.668216
1.19558
1.30524
1.21575
-1.01265
1.27584
0.0173581
1.30831
-0.0533331
-0.65584
-0.0712468
1.27986
0.16941
-0.451098
-1.05358
1.30898
-0.908246
1.42058
0.655682
1.56357
1.18883
-0.730762
1.27356
-0.870177
1.2304
1.23846
-0.357716
-1.13876
1.348
1.25661
1.4528
1.2136
0.489402
1.21053
1.28093
1.08745
1.28153
-0.425535
-0.846213
-1.5265
1.40175
-1.43937
-0.773263
-0.875839
-1.65251
-0.662365
-0.0556466
1.05941
-0.515206
1.25339
1.31256
-0.85717
-0.52258
-0.71063
-0.707303
-0.849507
-0.867891
1.2728
-1.45714
1.29231
1.55513
1.33633
-0.12959
1.29864
1.18716
-1.11672
1.26309
1.24825
-0.720554
1.24968
1.14433
0.146394
-0.69646
1.75002
-1.57143
-0.792334
-0.568673
0.632506
1.26752
-0.829949
-1.20117
-0.878855
1.39961
-1.10438
1.04823
1.28059
1.28027
-0.861677
1.27601
-0.882132
1.28711
1.3027
-0.388456
1.29405
0.658404
1.28515
1.06617
-0.915714
0.104269
0.0875162
0.165811
1.48668
-0.131416
1.29256
1.65053
-0.871413
-0.0346634
1.34734
-0.0132318
1.34462
-0.0598046
-0.0820951
1.33836
1.34307
0.808741
-0.638119
0.94943
-0.83308
-0.906454
-0.685072
1.29614
1.29588
1.73567
-0.472896
-1.26479
1.10503
-0.621199
1.33444
1.21663
1.29304
1.26191
1.25309
-1.282
-0.47471
-0.674633
1.02465
1.16894
-1.11061
-0.86351
-0.49415
1.29649
1.32815
-1.29689
-0.995108
1.31129
-1.4797
0.358142
0.960918
1.12444
-0.349322
-0.595564
-0.150546
-0.587353
-0.85575
-1.38342
-1.65173
1.69659
1.60299
-0.727877
-0.58647
1.29506
1.27282
-0.800905
0.351534
0.0769949
0.831332
1.36548
-0.644458
1.28246
-1.5209
-0.577624
-0.777921
-0.79589
-0.988254
1.28234
-0.582443
-0.773638
1.61332
-0.57453
1.28403
1.47111
-0.859937
1.39026
1.58439
-0.807838
1.47419
-0.566519
-0.567768
1.25476
-0.194057
1.36191
1.28775
-0.557157
1.35803
0.547852
-1.49172
1.31464
1.37894
-0.423614
-0.737135
1.1946
1.27612
-0.525675
-1.02867
1.51687
-0.547287
1.15545
0.0139526
1.24981
-0.451222
-1.72817
-0.502541
-0.785956
1.31218
1.33273
1.61964
1.43545
1.18779
1.33425
1.28174
-0.496333
1.3566
1.4835
-0.847102
-0.537607
-0.736244
1.56072
-1.63133
-0.54643
0.262443
1.14398
-0.839831
-0.690876
1.23476
1.36898
-0.510146
-0.863363
-0.540633
0.328338
-0.954548
-0.824228
-0.490844
1.09305
1.25111
-0.873211
-0.413357
-0.394401
1.03957
-0.545409
-0.760079
-0.486206
1.2994
-0.803596
-0.859091
1.65711
1.20842
0.774984
1.53202
-0.216569
1.33227
1.28374
1.41992
1.54502
-0.475446
0.867367
1.22573
0.664126
-0.481406
1.69956
1.27491
1.24083
1.36673
-0.854527
-0.968191
1.18619
1.01383
1.26136
-1.27127
-1.27312
1.27504
-0.4805
1.1618
-0.289988
1.65916
-0.478091
0.926713
1.10698
-0.878915
-0.475052
-0.9276
1.39668
-0.87751
-0.471412
1.07136
0.798765
-0.756608
1.3377
1.18369
-0.875276
-0.643459
1.20272
-1.42484
-0.473391
-0.515579
-0.880067
-0.447473
1.22906
1.30747
-1.67994
0.99583
1.28893
1.60681
0.673735
0.44213
0.148369
1.23799
-0.00600661
-0.880255
-1.43286
-0.541272
-0.881322
1.25911
-0.874891
0.321914
-0.471563
0.724677
0.950333
-0.881485
1.01106
-1.67598
0.882555
-0.88174
0.643112
-0.881508
0.783205
-0.470738
0.551578
-0.882142
1.1826
-0.881768
-0.886214
-0.897184
-0.467306
1.29505
0.501697
-0.929202
-0.479425
0.175995
0.266687
-0.877437
-0.470059
-0.974104
0.306596
-0.494572
-0.00326612
-0.525045
-0.230639
-1.05526
0.147728
1.12677
0.162188
-1.04172
1.23865
0.0465522
-0.120645
0.833379
1.26646
-0.934595
-1.44799
-0.473868
-0.877215
1.21934
1.6748
-1.09284
-0.560959
0.434815
-0.579948
-0.290526
0.073499
1.22338
-0.698989
1.25609
-0.799956
1.7348
0.828935
1.7399
-0.867235
1.52789
-0.503022
1.35136
-0.492377
-0.470247
1.42128
1.28937
-0.854836
-0.472439
-0.891997
1.2067
-0.870127
1.25603
-0.823599
-0.500201
-0.504825
1.57839
1.2895
1.45389
1.26864
1.29937
-0.428634
-0.112869
1.43594
-1.31922
-0.588243
1.66324
-0.871066
1.1592
1.28093
1.65805
1.73216
-0.88517
-0.643478
1.32638
0.626328
-0.0117105
-0.847972
-1.43375
-1.90539
-0.86036
0.912464
-0.835565
1.53869
-1.01568
1.26633
1.38126
1.28181
-0.836717
-0.44443
-0.644549
1.37473
-0.624892
1.4007
-0.705602
-0.715085
1.47192
1.63303
-0.470024
0.22254
1.24657
-0.724271
-0.784616
1.02267
1.50862
1.53407
-0.908619
1.11996
1.0497
-0.471004
1.54941
0.437005
-0.870017
-1.17961
-0.13333
0.125509
1.34641
-0.61117
0.411235
0.101174
-0.106004
-0.605589
-0.451826
1.25227
-0.880485
1.26858
0.0119061
0.494943
1.04527
0.649863
-0.463563
-0.57852
-0.680254
-0.150953
0.201275
-0.850607
1.14382
-1.01898
-1.01395
1.24894
-0.64021
-0.84717
1.29476
-0.372342
1.18425
-0.0264508
-0.475614
0.0983043
1.13817
-0.320654
-0.765656
1.22655
-0.501357
1.36942
-0.12367
-0.665745
-0.586395
-0.47184
1.79615
-1.09371
1.44646
0.206158
1.26009
1.45288
1.07757
1.33519
1.38556
-0.0437572
-0.930803
1.27124
1.42486
1.67067
-0.578544
1.31005
0.857482
-0.571346
1.14631
1.54563
-0.543851
1.58174
0.278242
-0.70865
1.19119
-0.56179
-0.8898
1.25013
-0.417779
1.35032
1.40205
1.20402
-0.744438
1.12609
1.49496
-0.845581
-0.263894
-1.02689
-1.2443
-0.644305
-0.473502
1.6784
1.11326
-0.798386
1.26553
-0.552011
-0.625179
1.6032
1.45567
-0.919847
-0.796868
-0.470488
-0.492198
1.28875
-0.817396
0.481097
-0.853954
-0.397129
1.3533
-0.531929
1.63138
1.31349
1.21429
1.2813
1.53832
-0.716757
-0.543475
1.33116
1.47191
-0.620896
1.30131
-1.21171
-0.500287
-0.518024
1.30206
1.33417
-0.506859
-0.829017
0.920924
0.339391
-0.891663
1.24549
1.16824
-0.838557
1.21216
1.25892
-0.532747
-0.843447
-0.773428
-0.494485
-0.515966
1.63621
-0.750725
1.11753
-0.835297
1.63837
1.11758
1.06419
1.17106
-1.7468
-1.29379
-0.488886
0.694785
-0.862577
1.27335
0.689252
-0.54943
1.08238
1.35301
1.31743
1.27088
-0.0170107
1.3235
-0.0779791
0.796546
1.01742
-0.546169
-0.852411
-0.991115
-0.692394
1.29312
1.31878
1.29348
-0.790846
-0.337682
-0.484057
-0.821002
1.28515
1.5251
1.29939
-0.858089
-0.636535
-0.752509
-0.516706
-0.471627
-0.471832
-0.131382
1.25912
-0.668645
-0.874589
0.116481
0.322043
0.901792
-1.7841
-0.480009
-0.433754
1.16601
1.71476
0.255619
1.39602
1.75331
0.834753
1.45567
-0.844736
-0.0977066
1.7186
-0.476482
0.699819
-0.86636
-0.518339
-0.886658
-0.878505
1.29851
1.09806
1.41827
1.37692
0.0390599
1.14091
0.152757
0.0950238
-0.473483
1.39967
0.903893
1.29539
1.3116
-0.148593
0.0417312
1.31514
-0.862858
-0.475739
-0.876767
-0.89816
0.954467
-0.879822
1.25677
1.03801
-0.476822
1.56551
-0.85077
-0.271691
1.27295
-0.612978
-0.611189
-1.07016
0.764078
-0.872432
-0.951145
1.11307
1.30341
-0.175312
0.444881
-1.26426
-0.471601
-0.467259
-0.987891
0.222679
0.97582
-0.691936
-0.881086
1.49741
0.387745
0.500218
-0.881679
-0.524339
1.28331
1.39035
0.685987
0.91492
-0.881518
-0.585431
-0.288691
0.601068
0.828907
-0.881859
1.07197
0.257604
-0.882009
1.6915
-0.888378
-0.862959
-0.513269
-0.824981
1.20122
-0.90835
-0.798657
-0.484498
0.418757
-0.948494
0.0970532
-0.718931
-0.0670379
1.41233
-1.00726
0.248252
-0.510169
-0.102219
1.57924
1.71093
1.4595
1.28737
1.4336
-0.744989
1.26923
-0.847706
1.38652
-0.475299
-0.416524
1.59342
-0.504378
0.850199
-0.967845
1.70176
0.0441828
1.6428
0.762279
0.977866
-0.869219
-0.857685
-0.470472
-0.970787
1.5953
1.43384
1.26303
0.98514
1.27933
1.22402
0.99801
-0.878944
-0.483496
0.384071
0.297599
0.969621
1.28731
0.381936
-0.866052
-0.879381
-0.598385
-0.471292
-1.05855
1.6677
1.30648
1.28227
-0.162789
0.00477411
1.31135
-1.39512
-0.473271
-1.68944
-0.57483
0.957322
-0.872597
-0.880286
0.115382
1.26154
-0.824896
-0.511679
1.27741
0.983022
1.05524
1.27029
-0.470888
1.05862
1.49816
1.19704
-0.469544
1.27856
0.745917
0.60066
-0.665263
-0.877736
1.70816
0.633731
-0.847669
0.431035
1.10229
1.20057
-0.587206
-0.750285
-0.0924975
-0.866591
-0.418423
-0.795936
0.00122542
1.26353
-0.872517
1.24196
1.58543
1.43261
1.22816
1.30639
1.37483
1.27555
-0.796643
-0.206688
-0.375701
-0.550265
-0.358773
-0.881022
1.38874
1.26518
-0.55146
1.2789
-0.648303
-0.335979
-0.885737
-0.745153
0.902636
-0.503552
1.25816
1.09431
-0.982581
0.0362203
1.6126
-0.739342
-1.10719
-0.43645
-0.791665
-0.860334
1.33394
0.950825
1.41895
-0.66487
-1.12532
-0.455847
-0.316872
-0.556459
-1.01012
-0.840202
-1.06345
1.10404
-0.26648
1.76506
-1.15028
-0.130644
-0.509136
-0.881037
1.24757
-0.528607
-0.665803
-0.372661
0.0783537
1.41439
1.53773
-1.61609
-1.49115
1.00591
-0.493189
-0.371579
1.42117
-0.870016
-0.853356
-0.942726
0.924265
-0.00208047
-0.56162
1.26385
0.125518
-0.892167
1.26795
-0.65244
-0.877627
-0.878813
-0.975504
0.328453
-0.563656
1.55068
-0.478827
0.551596
-0.476595
0.969142
-0.823126
-0.642898
0.807108
1.10309
1.34022
1.26333
1.41897
-0.905763
1.17185
0.914226
-0.819278
1.15987
-0.334062
-0.85426
-0.938849
1.49865
1.48185
-0.819249
-0.649072
-0.693229
1.2132
-0.680154
0.192381
-0.500996
-0.883374
1.51486
1.22197
-0.863979
-0.748239
-0.865385
-0.870915
1.14009
-0.854955
1.18238
0.347148
0.872755
1.01769
-0.866864
-0.674133
1.13943
-0.883616
0.0238785
1.56077
-0.48756
-0.870605
0.995507
-0.851212
-0.775839
0.217982
-0.598093
1.64301
-0.175616
0.529084
-0.862123
1.63133
-0.852536
-0.734248
0.801745
-0.485158
-0.47484
1.63624
0.834717
1.35363
-0.789307
1.45402
-0.503055
-0.320129
-0.808981
-0.809082
-0.85066
1.48937
0.727004
-0.510828
-0.857544
-0.570461
1.36009
-0.679941
1.60864
-0.474717
0.907167
-0.875954
0.502025
0.686341
0.648605
0.559323
0.579494
-0.702855
1.22014
-0.816311
-0.68839
-0.455606
0.660698
1.64603
0.106124
-0.774299
-0.858168
-0.875153
0.38473
-1.13723
-0.876604
1.20141
0.576625
-0.865947
1.70581
-0.565482
-0.920423
1.65376
-0.871531
0.258408
-0.670841
-0.883117
-0.879164
1.68194
-0.883918
1.58011
-0.879437
-0.690081
1.40925
0.182853
-0.716249
0.716021
-0.589772
0.1107
0.00969346
-0.876337
1.14542
-0.486376
-0.874047
-0.882664
-0.885352
-0.483035
1.17756
-0.0801892
-0.044034
-0.865078
1.60322
-0.397666
-0.76379
-0.845901
0.247056
-1.02761
-0.871919
-0.869709
0.307115
1.4705
-0.849509
-0.473437
-0.908807
-0.258892
-0.168381
-0.488477
1.68668
1.61206
0.549906
-0.690747
-0.479724
0.456223
-0.481134
1.6901
0.323028
1.41499
0.863465
1.61203
0.192478
-1.03375
-0.686059
0.0241876
-0.814402
0.0240492
0.298105
-0.879221
1.59263
0.117471
0.33614
-0.0112324
-0.472887
-0.721346
)
;

boundaryField
{
    frontback
    {
        type            empty;
    }
    Top
    {
        type            zeroGradient;
    }
    outlet
    {
        type            fixedValue;
        value           uniform 0;
    }
    bottom
    {
        type            zeroGradient;
    }
    Inlet
    {
        type            zeroGradient;
    }
    rectangle
    {
        type            zeroGradient;
    }
}


// ************************************************************************* //
