/*--------------------------------*- C++ -*----------------------------------*\
| =========                 |                                                 |
| \\      /  F ield         | OpenFOAM: The Open Source CFD Toolbox           |
|  \\    /   O peration     | Version:  2306                                  |
|   \\  /    A nd           | Website:  www.openfoam.com                      |
|    \\/     M anipulation  |                                                 |
\*---------------------------------------------------------------------------*/
FoamFile
{
    version     2.0;
    format      ascii;
    arch        "LSB;label=32;scalar=64";
    class       surfaceScalarField;
    location    "23";
    object      phi;
}
// * * * * * * * * * * * * * * * * * * * * * * * * * * * * * * * * * * * * * //

dimensions      [0 3 -1 0 0 0 0];

oriented        oriented;

internalField   nonuniform List<scalar> 
3181
(
-1.01868
0.394847
0.623833
-0.376222
0.354343
0.0218786
0.506081
-0.347641
-0.15844
0.114415
-0.190864
0.0764483
-0.0635758
0.0710268
-0.00745104
0.531914
1.23674
-1.76865
0.142484
-0.136427
-0.00605666
0.0236909
0.00158043
-0.0252714
0.541368
-0.704231
0.162863
-0.0759625
0.129362
-0.0533994
-0.0106495
-0.0540144
0.0646639
0.115038
0.0480546
-0.163092
-0.00744228
-0.0169407
0.024383
-1.09693
0.153646
0.943284
-0.316876
0.674593
-0.357717
-1.12376
0.642251
0.481514
0.0835639
-0.930777
0.847213
-0.143094
0.0288458
0.114248
-1.4523
-0.152178
0.00382795
0.0587173
-0.0625452
0.0501103
-0.0941304
0.0440201
-0.0579211
0.0557019
0.00221915
1.06254
-1.03956
-0.0229873
0.0202799
0.0322928
-0.0525728
-0.956321
0.33004
0.626281
-0.105727
0.220143
0.302513
-0.254811
-0.0477016
0.0282652
0.0593844
-0.0876497
-0.425443
0.350916
0.0745264
-0.0343857
-0.0225327
0.0245597
-0.002027
-0.0407593
-0.915561
0.0533279
-0.048831
-0.00449688
0.298928
1.47964
-1.77857
-0.048222
0.0415997
0.00662232
0.186772
0.284098
-0.47087
1.9174
-1.61847
0.0764667
-0.0263564
1.59276
-0.864129
-0.728631
-0.761056
1.29297
-0.0526041
0.0451618
-0.0481255
-0.00979553
-0.394344
0.0774674
-0.145186
0.0970601
-0.64717
0.126378
0.520792
-0.139989
0.0640264
-0.16183
0.165804
-0.00397416
-0.261747
-0.0746496
0.336396
0.322296
1.10092
-1.42322
0.0506136
0.0608528
-0.111466
-0.0187047
-0.105133
0.111598
-0.00646532
0.499523
0.175071
-0.0947365
0.151467
-0.0567302
0.0864683
-0.0331405
-0.164033
0.188978
-0.0249442
0.157437
0.0539513
-0.211389
0.103771
-0.10945
0.00567889
1.21952
0.373244
-0.839498
-0.179182
-0.0629217
-1.63607
1.69899
0.564727
0.240575
-0.805303
-0.457842
-0.214178
0.67202
-1.14646
0.385404
-0.281418
0.846145
-0.312379
-0.100478
0.412858
-0.213361
-0.212082
-0.183859
0.171369
0.0124902
0.151359
0.277659
-0.429018
-0.134902
0.67627
-0.0149309
0.0386219
-2.07514
2.01222
0.173583
0.12893
-0.168837
-0.110073
0.27891
-0.267909
0.366616
-0.0987067
-0.0760964
0.0843917
-0.00829528
-1.75284
-0.919626
0.0107349
0.908891
-0.0360375
-0.0121845
-1.12845
0.814236
0.314213
0.178834
-0.216534
0.0376997
-0.911772
-0.234688
1.10149
-0.947844
-0.73926
1.14428
-0.200993
1.06073
0.178413
-0.171278
-0.0071353
1.7651
-0.528363
1.2641
-1.2641
-0.00794702
-0.000263568
0.00821059
-0.202424
-0.0526191
0.255043
0.0915204
-0.0668468
-0.0246736
-0.453965
0.821116
-0.367151
-0.0311896
-0.219879
0.251069
-1.0819
0.0423404
0.358499
0.0580101
-0.416509
0.129859
-0.881028
1.1216
0.069122
0.019651
-0.088773
-0.0177182
-0.146315
0.0456658
-0.170117
0.124451
-0.0732109
0.118877
0.123736
-1.00476
0.318222
-0.772187
0.923383
-0.839819
-0.00699087
0.120917
-0.113926
0.0902626
0.0543483
-0.144611
-1.35383
-0.0745851
1.42842
-0.232982
0.39612
-0.163137
-1.0322
0.42011
0.612095
-0.487366
-0.641083
0.107959
-0.0573453
-0.146762
0.141403
0.00535903
-0.0793716
-0.0183172
0.0976888
-0.504329
-0.199902
-0.039121
0.0132608
0.0258602
-1.05771
-0.357869
1.41558
1.63251
-0.53159
-0.0119476
0.00400058
0.0236901
0.149893
-0.207254
0.394026
0.0324083
0.0233908
-0.0557991
0.144877
0.0713225
-0.2162
0.254922
-0.247137
-0.00778494
-0.594139
-0.529626
-1.26731
0.209598
-0.035553
0.104675
-0.0978448
0.175456
-0.0776108
0.111828
0.0237914
0.118693
-0.0560077
0.0640481
-0.00804041
-0.0899668
-0.0194614
0.109428
0.0711167
-0.0711167
-0.178126
0.201917
0.105623
0.0932611
0.100032
0.0889456
-1.20152
1.06662
-1.53598
0.0754527
1.46052
0.0139545
-0.0123864
-0.00156806
-0.027878
-0.0541191
0.0819971
0.52179
-0.0230197
-0.498771
-0.011214
0.0114384
-0.000224373
-0.19229
0.0141639
0.165774
0.655342
-0.356276
0.52205
-0.173957
-1.17987
-0.0650945
0.00151876
0.470372
-0.292805
-0.177567
0.109545
-0.094022
-0.015523
0.0465331
-0.30828
0.0227684
-0.942394
0.0479041
-0.145749
-0.274564
-0.387029
0.0836766
1.42136
-0.957369
-0.463994
1.1028
0.318566
0.0643453
0.272051
0.0140089
-5.44605e-05
-0.141598
0.170727
-0.0291292
-0.249808
-0.596054
0.845862
-0.343055
0.312803
1.12554
-1.27771
0.135317
0.0315035
-0.0523828
0.0208793
-1.94279
0.246087
1.69671
-0.176999
-1.76579
-0.316883
0.675382
-0.908008
-0.015408
0.00518423
-0.277257
0.272073
1.45675
-1.59203
0.135285
-0.0785941
0.0134996
0.580814
-0.830622
-0.0814671
-0.203184
0.284651
-0.302666
-0.126353
0.429019
0.166821
-1.00843
-0.0734697
-0.00982147
-0.0527237
-0.577329
0.363152
-0.25644
0.0192604
0.237179
-0.0531028
-0.0254913
0.00496671
-0.00496671
-0.126076
0.138617
-0.0125409
-0.242645
-1.29333
0.0330782
0.0103462
-0.0434245
-0.143
0.0803561
0.0626439
-0.229958
0.0460985
1.39121
-0.316392
-1.07481
-0.178751
0.43332
-0.254569
0.00232038
-0.00222216
-9.82176e-05
-0.733229
-0.298976
-0.193786
-0.00482535
0.198611
-0.164393
0.315752
-0.107439
0.105684
0.00175487
0.0797995
0.0169919
-0.0967914
-0.104394
0.10497
-0.000575485
-0.537418
1.17972
-0.642305
-0.211448
-0.0491316
0.26058
-0.68362
0.661568
0.0220524
-0.00293205
0.0352249
0.0352202
-0.0360435
0.000823289
-0.00189531
-0.0506774
1.1032
0.529314
0.171654
-0.894637
0.722984
-0.00153666
1.89947
-1.89794
0.369894
0.552276
0.711826
0.0720951
0.212921
-0.0680435
-0.0752025
-0.0299304
0.226291
0.166159
-0.0758963
0.733941
-0.403901
0.0588039
0.196239
0.0569094
-0.1749
0.117991
-0.752769
-0.136977
0.889746
-0.00729594
0.00729594
-0.0558218
-0.278281
0.562379
0.0123385
-0.223786
-0.0554377
0.0842835
0.0365901
-0.0721431
0.143072
-0.153721
-0.34589
0.3147
0.0479295
0.0294058
-0.0773353
0.368916
-0.320862
0.616179
-0.445743
-0.170435
-0.199099
0.263444
0.180845
-0.47365
-0.200391
0.595238
0.158836
-0.0315588
0.0315588
-0.369099
0.24681
0.122289
0.368613
0.0275072
-0.0133032
0.0147873
-0.00148408
-0.0918154
-0.0249332
-0.0141878
-0.0509442
0.194016
-0.188346
0.251472
-0.0631262
0.137751
0.028408
-0.382846
0.128034
0.200769
-0.0630178
-0.0482286
-0.0592107
-0.0303682
0.0356994
-0.0053312
0.1412
-0.100371
-0.0408293
-0.0295884
0.410096
-0.380508
-0.0615047
0.0465738
0.110128
-0.114681
0.00455228
0.0245749
0.360757
0.255422
-0.069716
0.000617329
0.0690987
-0.0642077
0.0204211
0.0437866
-0.0976681
0.0967132
-0.720049
0.623335
-0.0195259
-1.42396
-0.508358
1.93231
0.349731
1.25224
-1.60197
0.0788268
-0.253023
0.00588542
0.290119
0.257456
-0.547575
-0.211067
0.267976
0.1326
-0.866902
0.734302
-0.00888136
-0.0553263
-0.02701
0.0171885
-0.983047
0.441059
0.541988
0.957369
-0.833633
-1.65396
1.57937
-1.45675
1.5322
0.03735
-0.0940801
0.00883598
0.0263842
0.00825367
0.775451
-0.642851
0.115359
-0.0674548
0.410879
0.733398
-0.0872543
-1.66328
1.66175
-0.631184
-0.570334
-0.242704
-0.404466
-0.0163429
-0.159448
0.205981
-0.572168
-0.358297
0.179545
0.74763
-0.22584
-0.874792
-0.779164
0.752468
0.0873851
-0.0962664
0.270182
0.0355473
-0.0355473
0.669191
0.150518
-0.819709
-0.226736
0.895926
0.342756
-0.693811
0.351055
0.115813
-0.022552
0.00674578
0.00593055
-0.0126763
-1.63607
-0.842531
0.31094
1.01539
0.375814
-0.0332536
-0.128576
-0.229017
0.72854
-0.205906
-0.0505337
-0.00273646
-0.07336
-0.0576297
0.111978
0.385575
-0.259197
-0.805141
-0.297498
-0.108848
-0.00140265
0.110251
-0.900418
1.45269
-0.137277
0.124198
0.0130793
0.018672
-0.00466307
-0.063323
0.0412321
0.0220909
0.00895872
0.403899
0.0749005
0.0346445
0.014937
0.0144795
-0.0294164
-0.0172665
-0.176519
-0.740113
0.383048
0.357065
0.834803
-2.02511
1.1903
0.144179
-0.166406
0.0222266
-0.00241438
0.110373
0.052859
-1.31696
-0.056466
-0.00685692
-0.0923948
0.0350495
0.150551
-0.357804
-1.8265
0.594808
1.23169
0.0356985
0.0888434
0.0523569
-0.752769
0.204831
-0.742249
0.0733186
-0.0320865
0.0455661
-0.640249
-0.0433718
0.0633327
0.137436
0.446493
0.0262085
-0.455226
0.117211
0.360753
-0.302743
-0.108431
0.0184642
0.220942
0.842316
-1.06326
0.105229
-0.705693
0.600464
-0.918417
0.78144
-1.5883
0.0943382
1.49396
-0.00336993
0.0036356
-0.00026567
0.179267
-0.481933
0.223075
-0.130686
-0.092389
0.0472822
-0.0268611
-0.0225107
-0.0863376
-0.00232923
0.0230549
-0.0249502
0.0199951
0.0880146
-0.10801
0.692487
0.0066726
-0.00674795
7.53511e-05
0.0595046
-0.0129309
0.863193
0.0484608
-0.0349613
-0.363203
-0.479328
0.105794
0.0100193
0.00723547
0.0816079
-1.49396
1.31696
0.208337
-0.107782
-0.100555
-0.263144
0.0918658
0.120437
-0.127572
-0.00125206
0.0856438
-0.00963356
-1.84397
0.0174721
-0.050731
0.0707262
0.741186
-0.259672
-0.121964
-0.0210359
0.355136
0.00203037
-0.0153336
-0.00735034
0.0784671
0.142615
0.224001
0.157447
-0.344156
0.186709
0.105197
0.550145
-0.0303729
-0.109616
0.902561
-0.251728
-0.650833
-1.5883
-0.551127
1.38593
1.9174
-0.0264595
0.238982
-0.212523
0.394947
-0.0770386
-0.317908
0.108567
-1.02034
-0.0791929
0.0804508
-0.00125785
0.130285
-0.151837
0.0215523
0.488275
-0.85783
0.369555
0.039308
0.663815
-0.703123
-0.042469
-0.104293
-0.022151
-0.047565
-0.0126773
-0.356422
-0.00370651
0.00033658
-0.0190481
0.0559768
-0.0369286
0.024238
-0.165836
0.00257849
0.0160935
0.0201577
0.100759
-0.0316387
-0.00440482
0.202595
-0.422474
-0.187369
1.43961
0.00458066
0.00271528
-0.989671
-0.0187564
0.148216
-0.0684086
-0.0400223
-0.194509
0.113042
0.562706
-0.808896
0.24619
0.0645303
0.0412635
-0.937754
-0.0100894
-0.00445332
-0.649438
0.746151
-0.0168399
0.175676
0.00607911
-0.699891
0.186801
-0.430472
0.243671
-0.0159976
0.0393884
0.000576473
-0.000820899
0.000244426
-0.0378604
-0.0665337
-0.0196612
-0.126654
0.735588
-0.630359
-0.0774773
0.0377298
-0.113039
0.323027
-0.165581
0.179208
1.13527
-0.468668
-0.666603
-0.126
0.14526
-0.510725
-0.229388
-0.54868
0.589172
-0.57506
-0.0141116
-0.0686281
-0.00884926
-1.66328
0.559087
-0.559087
-1.90252
1.90252
0.775451
0.0234842
-0.0744522
0.050968
-0.898177
-0.0914939
0.65435
-0.378936
-0.275414
0.151878
-0.229489
-0.0104375
-0.00151006
-0.916719
-0.088045
-0.933273
0.213225
0.041838
-0.0432406
0.696773
-0.101079
-0.595694
1.50334
0.414059
-0.00216178
0.00273825
-0.960742
0.388786
-0.834529
-0.0936715
-0.614409
0.708081
-0.0272625
-0.885169
-0.706865
0.22102
-0.815159
-0.889746
1.32671
-0.436959
-0.133999
0.270162
-0.136163
-0.034611
0.731384
-0.110117
-0.990477
0.990477
-0.83303
0.528101
0.304929
0.00168643
0.00498617
0.0537928
-0.449141
0.884407
-0.0701706
-0.0903884
-0.0328108
0.0541734
0.00153152
0.000788854
1.95316
-1.85882
-0.355622
0.435422
-0.657609
1.04608
-0.388475
-0.0101015
-0.0463645
0.130065
-0.0587425
0.336228
0.00221708
-0.0191578
0.358803
0.051293
0.0446209
-0.257736
0.213115
0.133361
0.0324433
0.102187
0.1888
1.83614
0.176079
-0.0951682
0.618578
-0.52341
-1.23194
1.47802
0.280359
-0.183299
0.0737487
-0.76574
0.691991
-0.071684
0.115894
-0.461784
-0.0742674
0.127285
-0.0530173
0.120815
-0.195082
-0.464449
-0.11288
-0.0765064
0.0798897
-0.00338336
-0.0037159
-0.0279227
0.00882287
-0.0419634
0.642851
-0.600464
-0.042387
-0.28101
0.293348
0.881624
0.670664
-0.275718
-0.00808236
0.0184286
-0.349699
0.146515
0.163397
-0.563061
0.399664
-0.00105346
0.00023256
0.419279
-0.182185
-0.237094
0.00884537
-0.0152393
0.00639394
-0.0278685
0.0199792
0.0078893
-1.3971
0.868739
-0.0801374
-1.34382
-0.206994
-0.833633
1.5322
1.57937
-0.185054
-0.165668
0.116536
-0.0673488
0.0734978
-0.00614894
-0.435084
0.928735
-0.493651
0.567949
0.0864005
-0.000401727
-0.000651734
0.126762
-0.672505
0.0328108
-0.0551923
0.0044613
-0.304288
-0.0454108
-0.0480736
0.0846637
-0.219534
0.588451
1.1028
-0.2657
-0.0578566
0.0010537
0.0568029
1.98266
-0.403287
-0.0580332
-0.0514166
-0.998055
0.164422
0.36606
-0.199239
-0.485402
-0.140343
0.625745
0.839588
-0.378239
-0.461349
0.0567451
0.50596
-1.66175
0.0256792
-0.00840024
-0.0361864
0.0445867
0.17231
1.72716
-0.161803
0.168549
0.239026
2.12713
-0.594925
-0.671511
0.0447827
0.626728
0.397102
0.0122803
-0.356637
0.518613
0.78723
0.20767
0.0725748
-0.0202179
-0.997783
0.265052
0.732731
1.1877
0.06086
-0.045923
-0.0533576
-0.368308
0.115258
-0.326325
0.529895
0.605376
-0.0613276
-0.00730048
0.274476
-0.300935
-0.0208832
0.0179511
0.106162
-0.141071
0.0349084
-0.288298
0.30094
-0.012642
0.234524
-0.703192
-1.28644
0.0685417
1.2179
0.126139
-0.159815
0.0336754
0.283806
0.0392209
-0.165829
0.37066
-0.668101
0.668101
1.69899
1.50334
-0.705693
0.317627
0.469603
-0.141967
0.264256
0.953658
-0.385709
0.0102752
-0.882582
0.872307
0.121426
0.00793603
0.0252057
-0.49997
0.334141
0.0748472
-0.164678
-0.11436
0.279038
0.110689
-0.494955
0.330277
-1.10677
-0.297559
-0.657825
-0.0213336
-0.00622785
-0.000520101
-0.228897
0.0433446
0.0669064
0.0324646
-0.154887
0.122422
-0.522377
-0.310654
-0.00535634
0.0647408
-0.440003
0.234652
0.205351
-0.547265
0.369698
-0.0971041
0.12651
0.226285
-0.00394543
-0.0230646
-0.815419
0.499027
0.0363556
0.0737728
-0.136716
0.0236772
0.214116
0.00895862
-0.438968
1.74956
0.463844
0.118608
0.865395
-0.791646
0.812807
-0.45767
-0.632821
0.18368
0.157453
-0.79771
0.775895
0.0218149
1.13354
-0.603642
-0.215946
-0.139677
-0.0829322
0.0160854
0.950632
-0.839614
-0.111018
-0.193539
0.117643
0.026371
0.115032
0.877162
0.106456
-0.122107
0.0156508
-0.316214
-0.0420825
-0.131868
-0.308135
0.0899195
1.3385
1.54891
-0.0455697
0.163705
0.548657
-0.712362
0.176869
0.0528557
-0.0129233
0.00897784
-0.524161
-0.10866
0.0470949
-0.100198
-0.196249
0.145305
-0.515772
0.261204
-0.992475
-0.509536
-0.295224
-0.709796
1.48984
-0.0293184
-0.29444
-0.358177
0.0538895
0.405326
0.312795
0.046008
1.2362
-0.747925
-0.20008
0.137062
-0.0838421
-0.309076
0.392918
-0.0184267
0.0100264
0.05167
-0.0596405
-0.228658
-0.109407
0.697301
-0.425306
-0.271995
-0.145952
0.126846
-0.0916556
-0.0351908
0.245837
0.0669583
-0.0880031
-1.51397
-0.100477
0.146043
0.413316
-0.30686
0.0063755
0.0374111
-0.0259952
0.013395
0.0126002
0.00273744
-0.0151239
-0.252311
0.0774106
-0.0589725
-0.536935
0.402937
0.0257901
0.0577175
0.0684219
-0.697133
1.67606
-1.07068
0.015759
-0.201695
0.185936
-0.144521
-0.529184
0.673705
0.066657
-0.706906
-1.02467
-0.26177
-0.0152954
-0.000209754
0.0155052
-0.236906
-0.589172
-0.163597
-0.129413
-0.997783
-0.241045
0.173002
-0.0902571
-1.15805
-0.20554
0.287794
-0.0822544
0.254253
0.107064
0.447674
0.308463
-0.756137
0.0399389
0.0474462
0.913249
0.323482
-1.23673
-0.217045
0.286969
1.19106
-0.251557
0.18843
-0.550364
0.837333
-0.328797
0.15868
-0.0082148
0.0164685
-0.0213367
1.27075
-1.15214
0.752297
0.0872917
-1.59077
-0.253195
0.261783
0.691875
0.878809
0.0237522
-0.0190231
-1.54891
-0.657825
-0.712736
0.723471
-0.0789989
-0.874792
0.663815
0.591067
-0.931108
0.623479
-0.00160635
-0.796104
-0.314579
0.637129
-0.763666
0.126538
0.0766407
0.0502057
-0.388036
-0.294904
1.42202
-1.12711
-0.00166907
-0.00455878
-0.273821
0.223287
0.703786
0.213523
-0.199359
-0.173018
0.614617
-0.972486
0.0984562
-0.0474882
0.295714
0.663422
-0.959136
-1.11525
1.38031
0.328647
-0.0939957
0.0736682
0.437827
-0.732731
-0.000888382
0.222026
-0.0300532
0.106565
0.0416517
0.00456614
-0.0210843
0.0165181
-1.02855
-0.0347103
0.308635
-0.807527
-0.75901
1.68068
-0.92167
0.382725
0.663359
-0.0460912
0.0492072
-0.00311597
-0.150368
0.764985
-0.718884
0.74951
0.530337
-1.28935
0.326241
-0.104215
-0.584176
-0.408299
-1.11151
1.40723
-0.054727
-0.884189
-1.77758
-0.120361
0.437827
0.0506667
-0.858194
0.831268
-0.646515
-0.184753
-0.982129
0.397953
0.00411001
0.107852
-0.000219003
-0.107633
-0.971285
0.562985
-0.206184
0.911887
-0.921976
0.199206
-0.216472
-0.0992476
0.249798
0.868773
0.639886
-0.103907
-1.29949
0.632886
0.836272
-0.628603
-0.552627
-0.518566
1.07119
0.447373
0.0179366
-0.0120061
-0.737834
0.703123
0.0644835
-0.214852
-0.711826
0.399522
0.312305
1.0277
0.65298
0.773161
-0.807547
-0.493416
-0.448979
-0.471979
-0.499305
0.80409
-0.80409
0.687167
-0.687167
-0.737834
-0.164834
0.164834
-0.399522
-1.0332
-0.285015
-0.518026
0.0761518
-0.0761518
0.0644835
-0.214852
0.773161
0.765207
-0.765207
0.807547
0.758757
-0.758757
0.506584
0.528021
0.481434
0.140635
-0.500695
-0.551021
1.07904
-0.667997
-1.71672
0.605208
0.210408
0.118239
-0.222976
-0.0067203
0.0551811
-0.885161
0.0902929
0.794868
-0.0763242
0.0599813
-0.993909
0.590008
0.898754
-0.581127
-0.122686
0.00206753
-0.00367461
-0.81758
-0.0770573
-0.541988
-0.00925468
0.0264432
0.285909
-0.106096
0.074009
0.183443
-0.0038028
-0.00817072
0.0119735
-0.812704
0.06783
0.744874
0.568681
0.300092
-0.527558
0.423466
0.104092
0.91623
-0.745007
-0.171223
0.0851372
0.308888
-0.0143099
-0.0621965
-0.0655085
-0.0136844
0.803471
-1.70389
-0.863641
0.0947567
-0.745937
0.795279
-0.0493425
0.120267
-0.900055
0.779788
-0.803371
0.902235
-0.0988637
-0.0391016
0.041839
0.0205566
-0.297814
0.310217
1.09701
-0.0914086
-0.793752
0.914389
-0.0893928
-0.824996
0.0797485
-0.0898501
0.779089
0.824821
-1.45843
0.481679
-0.395279
0.0988673
-0.892619
1.61847
0.284049
-0.794711
-0.00139278
1.01694
-0.896669
1.15654
0.820001
-0.845814
0.0258132
-0.882924
-0.110985
-0.424448
0.0439405
-0.354708
0.600898
-0.783963
0.783963
-0.621623
-0.0835796
-0.863843
0.118836
-0.981925
0.888254
0.0774939
-0.20818
-0.0548195
0.0522806
0.0117675
0.18596
0.830976
0.818655
0.773784
0.136251
-0.910034
-0.589107
0.707346
-0.783627
-0.102972
0.886599
0.164312
-0.883195
-0.677883
0.886424
-0.787557
-0.103321
0.461891
-0.0105711
-0.45132
-0.0854618
1.47761
-1.39215
0.459375
-0.464661
0.0052859
-0.886948
-0.828444
0.0825074
0.539258
0.273549
-1.94683
1.18529
-0.588512
0.588512
-0.727842
-0.571646
-0.0769238
0.411065
-0.859642
0.928184
0.783452
-0.194613
1.251
-0.38226
1.04166
-1.0415
-0.000162385
-0.197116
-1.82799
0.0846879
0.230893
-0.316395
-0.425854
0.00555466
0.316142
-0.231005
0.782276
-0.88114
0.489528
0.217819
-0.144422
0.73443
0.591043
-0.591043
-0.0450741
0.040411
0.116866
-0.0844009
1.31492
0.162691
0.0806519
-0.00121357
0.00350157
-0.002288
-0.673927
0.69239
-0.018463
0.119447
-0.965261
0.104672
-0.892229
-1.04435
1.31373
-0.26938
0.149909
0.873745
-1.44112
1.56057
-0.755978
0.609952
-0.653324
-0.67335
0.162625
0.0764004
0.0270554
0.155776
-0.175827
0.252227
0.0025315
-0.0681825
0.0642329
0.731046
0.689165
-0.0792127
0.071907
0.791286
-0.430325
-0.0521765
0.482502
-0.442019
0.509006
0.417502
-0.926727
0.712018
0.214709
-0.685032
-0.130127
1.05844
-0.114916
-0.241506
-0.0335764
0.4859
0.5141
-0.771723
-0.109417
-0.259773
-0.531699
-0.390442
-0.296426
0.401424
0.598576
-0.0816817
0.0687508
-0.861115
-0.0578152
-0.595509
-0.148607
-0.239332
0.387939
-0.00898243
-0.00065113
0.118378
0.0756376
-0.128517
-0.123794
0.76276
-0.647745
0.719652
0.567868
-0.743695
-0.137543
0.49063
-0.353088
-0.744716
-0.186
0.930716
-0.232352
0.22138
-0.02514
-0.0428179
0.0173266
0.00322356
0.724735
-0.136223
0.112558
0.113727
-0.735501
0.0615745
1.10837
0.184044
-0.672487
0.502052
0.0946697
-0.282622
1.01602
-0.0034249
0.183503
0.0555223
-0.00227662
-0.0517895
-0.0544285
-0.0189699
1.12734
0.390136
-0.631286
0.24115
0.845268
-0.0231405
0.00390738
0.0192331
0.134137
-0.00350658
-0.000199924
0.208302
-0.102139
0.0267145
-0.886357
0.820178
-0.430042
0.00598995
0.268956
-0.140656
-1.04076
1.28115
-0.240384
-0.778108
0.829829
-0.0517209
0.394325
-0.0583079
-0.270489
-0.0804885
1.29595
-0.465052
-0.0625066
0.271303
0.442285
0.183261
-0.625546
0.389211
0.0316762
0.660713
-0.572196
0.572529
-0.000333456
1.45117
-1.04585
-0.0346837
0.043043
-0.00835933
0.700846
-0.0093785
-0.0827915
0.0185642
1.27928
1.0463
-0.651971
0.0724861
-0.143068
-0.0167474
0.0177855
0.0797776
-0.0975631
0.00827443
-0.00370829
0.853955
-0.530473
0.106845
0.212001
-0.0245342
-0.0801773
0.234481
0.0934406
0.0061723
0.061729
0.765079
0.470166
-0.525418
0.0552513
-0.521298
0.516023
0.00527529
0.64383
0.115685
-0.0483447
0.00320259
0.0451421
-0.423992
0.161624
-1.20312
-0.0100973
0.762565
0.725515
0.299029
0.486122
-0.874157
0.808141
0.154667
0.0245409
-0.900317
0.109582
-0.272101
-0.186366
-0.167042
0.697332
0.0677469
0.0142871
0.226141
-0.284449
-0.25095
0.165647
0.015631
-0.109761
0.421755
-0.0588133
0.403991
-0.0655526
0.132885
-0.163802
-0.357496
-0.145791
-0.137062
-0.0317602
-0.108674
0.00499066
-0.00010361
-0.00488705
-1.56302
0.517176
-0.00445508
0.894918
-0.224772
-0.622541
0.653839
-0.0312972
0.33903
0.758906
0.0594508
-0.412538
0.0824867
-0.181734
0.639192
0.119715
0.708035
0.744659
-0.274743
0.756422
0.275922
0.851415
-0.589455
0.351195
0.23826
-0.370592
-0.0711169
0.0396576
0.0696975
-0.0500168
1.1902
0.735234
0.0729079
0.632639
0.213223
-0.878199
-0.0824372
-0.680547
0.679154
-0.0277454
-0.56287
0.414264
0.861771
0.670868
0.0848573
-0.0401594
-0.141821
-0.319963
0.923137
0.752921
0.757173
0.0215221
0.994609
-0.143194
0.587633
0.827951
-0.0820629
0.58207
-0.730737
0.921922
-0.191186
-0.414223
-0.175232
-0.0502067
-0.18156
-0.149434
0.820919
0.018902
-0.00442252
0.626102
0.21936
0.282692
0.613053
-0.131056
0.224113
0.763899
0.261283
-1.02518
0.276719
-0.923234
0.331514
-1.4022
-0.167636
0.756145
-0.588509
-0.675318
-0.0799783
0.0371604
-0.0563902
-1.34987
0.0101765
-0.0361717
0.5303
-0.0579609
-0.145551
0.203512
-0.0225315
-0.572168
0.179925
0.00357814
-1.58927
-0.0078721
0.00406931
0.105203
-0.0551087
-0.6011
0.0289043
0.567519
0.294252
1.163
0.76931
-0.232793
-0.388994
0.621786
0.14563
-0.619337
0.619337
-0.218918
-0.953158
1.17208
0.0316266
-0.157626
0.673689
-0.10617
-0.216989
-0.325919
0.0844124
0.643169
0.699872
-0.105182
0.186538
-0.102861
-0.381741
0.482702
0.0898276
0.0706598
0.00580693
-1.87356
0.0334003
-0.0519389
0.693575
0.306425
0.0334003
0.693575
0.166221
-0.0985721
0.166221
-0.696527
0.696527
0.303473
-0.0135439
0.196318
-0.0785549
0.238395
0.0878213
-0.490689
0.638055
-0.0250024
0.647016
-0.506053
-0.140963
-0.0490789
0.0456493
0.00342952
-0.01002
0.00880646
-0.420215
0.0177553
-0.026347
-0.435019
-0.367003
0.138106
0.0391052
0.821545
-0.272887
-0.372499
0.426388
-0.00499078
-0.0974138
-0.00336916
0.690662
0.0719033
0.401052
-0.0287376
-0.000678818
-0.00137183
0.0838949
0.552397
-0.478705
-0.0736913
2.23256
0.558842
0.0613304
0.921983
0.0119739
-0.066093
0.111993
0.270675
0.0976862
1.16292
-0.399016
0.00286158
-0.0241952
0.693899
-0.125036
0.0193878
-0.0193878
0.0228386
-0.0228386
-0.0168431
0.0168431
0.00458066
0.366306
0.462434
-0.0824122
-0.694116
0.468276
0.180746
0.0275552
-0.0853906
-0.48308
0.644031
0.11332
-0.798352
-0.934578
0.234688
0.0751547
0.0215222
-0.00154303
-0.00293102
0.00293102
0.0723845
-0.00272127
0.00272127
0.700849
0.103746
-0.0213184
-0.00741926
0.00622825
-0.0640848
-0.0208426
0.0208426
-0.0133802
0.0133802
-0.0239031
0.0239031
-0.00198542
0.00198542
0.088234
-0.300045
-0.0776944
0.218043
-0.00188147
0.00188147
-0.377165
0.500349
-0.123184
0.483604
-0.213443
-0.462994
0.0904951
0.558509
-0.197968
0.0838283
0.57001
0.565149
-0.000885695
0.000885695
0.130563
0.0267984
-0.0267984
-0.0017612
0.0017612
0.77449
-1.23153
0.0371464
-0.308355
0.12617
0.000253499
-0.000253499
0.0154229
-0.0154229
0.0194462
-0.0194462
0.0213621
-0.0213621
-0.0250854
0.0250854
0.0371415
-0.0371415
0.496002
-0.0337333
0.0337333
-5.35739e-05
5.35739e-05
0.0255952
-0.0255952
-0.0086515
0.0086515
0.00111007
-0.00111007
-0.000200656
-0.0280563
0.0280563
0.405265
0.0217003
-0.0416937
0.0416937
0.00782822
-0.00782822
0.0167238
-0.0167238
0.0354882
-0.0354882
0.0241552
-0.0241552
0.000357112
-0.000357112
-0.00501029
0.00501029
-0.396829
-0.195356
-0.012233
0.012233
0.000212097
-0.000212097
-0.040264
0.040264
-0.0263974
0.0263974
0.00283743
-0.00283743
-0.423695
0.685478
0.246016
-0.0337987
0.0337987
-0.00987081
-0.0157479
0.0157479
0.000421183
-0.000421183
0.0352203
-0.0352203
-0.212926
0.237467
0.0062688
-0.0062688
-0.0208569
0.0208569
-0.484442
0.0419734
0.498152
-0.0295414
0.0295414
-0.436261
0.0313865
0.0178207
0.0328943
-1.62367
-0.038722
0.038722
-0.209386
0.150573
-0.0386734
0.0005194
-0.0005194
-0.0111424
0.0551625
0.265511
-0.32199
-0.26648
0.588471
0.180386
-0.00749168
0.00749168
-0.11458
0.400065
-0.285486
0.753215
-0.382251
-0.370964
-0.476968
-0.657829
0.254773
0.171615
-0.137904
-0.304115
-0.57456
-0.00323504
0.190154
-1.18565
0.0183773
-0.0183773
0.000382283
-0.000382283
0.0325353
-0.0325353
0.0247346
-0.0247346
-0.00191273
0.00191273
0.000149723
-0.000149723
-0.143832
-0.0727022
0.16351
-0.286197
0.00221019
-0.00221019
-0.0424899
0.0424899
-0.0424736
0.0424736
0.168899
-0.0853147
-0.0835841
0.0129223
0.301873
-0.526645
-0.00250868
0.00250868
-0.0147882
0.0147882
-0.10334
0.239629
0.0151438
-9.47019e-05
9.47019e-05
0.0681753
0.0147641
0.935209
-0.488403
-0.0902578
0.578661
-0.619668
0.209899
-0.564607
-0.0364332
0.0364332
-0.675686
0.267736
0.0521505
-0.0521505
-0.670651
0.395236
0.253798
0.117437
-0.0018304
0.0018304
-0.860002
-0.0013103
0.0013103
0.322572
0.408812
0.0572206
-0.0563636
0.0563636
-0.000544951
0.000544951
-0.0446008
0.0446008
-0.0508324
0.0508324
-0.00138565
0.00138565
-0.0561914
0.0561914
-0.00155958
0.00155958
-0.0480643
0.0480643
-0.0109238
-0.0426476
0.0426476
0.00253645
-0.00253645
0.0507117
-0.0507117
-0.00211987
0.00211987
0.0449525
-0.0449525
-0.0360569
-0.00379776
0.00379776
-0.00541627
0.00541627
-0.0410283
0.0784671
-0.0118102
0.0118102
0.00541559
-0.00541559
-0.062504
0.062504
0.307574
-0.0196995
0.0196995
-0.0539329
0.0539329
-0.00758984
0.00758984
-0.0707717
0.0707717
-0.0128953
0.0128953
-0.0846765
0.0846765
-0.022942
0.022942
-0.0888413
0.0888413
-0.701016
0.31813
-0.541195
0.509898
-0.885169
0.0456755
-0.545431
0.378389
-0.0962694
-0.0496824
0.00382588
-0.00382588
0.0932848
-0.704241
0.0482722
-0.0424653
-1.34796
1.76202
1.32884
0.244272
-0.0124339
0.00486769
-0.380737
-0.591743
-0.031018
0.392738
-1.19518
-0.0252974
0.0252974
-0.735156
0.0168245
-0.0168245
-0.00404865
0.00404865
0.332728
-0.408611
-0.00227289
0.00227289
0.0179269
0.0136319
0.597616
0.243093
-0.00611265
-0.0124019
-0.00662123
-0.105584
0.507707
-0.402124
0.146517
-0.0618287
0.00383592
1.01177
0.00684775
0.043797
-0.410646
0.454586
-0.500904
-0.97857
-0.201304
-0.0765669
0.0189373
-0.119437
-0.345224
0.0159761
-0.00692012
-0.0104461
0.797418
-0.538581
-0.0444307
0.0600616
-0.0389024
0.0990008
0.0973175
0.416418
0.24515
-0.159934
0.202625
0.0236411
-0.00664921
-1.29024
0.0217246
0.091973
-0.237524
-0.0177266
-1.44705
-0.0723241
0.270009
-0.354336
0.405629
0.183408
-0.893204
0.0422376
-0.0551485
-0.0347016
-0.354081
0.458173
-0.0297797
-0.0307726
0.0605523
-0.0289786
0.0289786
0.174524
-0.450241
0.00912665
0.0712295
-0.0861616
0.0584163
-0.0602167
-0.00464719
0.0648639
-0.0297982
-0.158599
0.0258313
-0.118599
-0.283897
-0.344823
0.628719
0.0168607
0.06359
0.149467
-0.0369093
-0.0358386
0.0734742
-0.163905
0.321358
-0.00734817
0.0265813
-0.0190946
0.168561
0.00335731
0.268716
0.00346548
-0.00346548
-0.383244
0.970877
0.0964321
-0.178869
-0.0211399
-0.0061226
1.04281
0.517757
0.0110267
-0.0159934
-0.535796
-0.00539951
-0.0226073
0.100251
-0.70281
0.317101
-0.054293
0.369012
-0.652908
0.21507
0.496948
-0.0947021
0.0947021
-0.000219002
-1.27371
0.466857
0.806851
-0.220831
0.164441
0.282073
-0.280628
-0.422564
-0.105346
-0.037539
0.046375
0.929291
0.1764
-0.0915423
-0.0702587
-0.660223
-0.629124
-0.0508001
-0.255127
0.77374
0.561812
-0.259939
-0.253393
0.522349
-0.111197
0.35018
-0.265442
0.0610212
-0.457909
0.334724
0.116397
-0.116397
0.0849282
-0.0467833
-0.0381448
0.00164964
-0.00163108
0.013395
-0.222146
-0.201845
0.217552
-0.185288
-0.0322641
0.531581
-1.10588
0.235516
-0.714844
0.68699
-0.110727
-0.175469
-0.0296685
-0.0797386
-0.495624
0.0606044
-0.297473
0.00073585
-0.0177266
0.393636
-0.00521769
-0.000119378
0.00010395
0.0168578
-0.0106886
-0.00616918
-0.0984817
-0.0187931
-0.174059
0.192852
-0.115182
-0.342726
0.0179269
0.349273
0.00109519
-0.386617
0.0913929
0.00289536
0.0286432
-0.111055
-0.013015
0.013015
-0.00146912
0.00204277
-0.00882285
0.000120268
-0.0519125
0.000519481
-0.00118235
0.214716
-0.101674
-0.000832478
0.000832478
0.0596493
0.50377
0.00114712
-0.279852
0.552608
1.17694
-0.469264
0.323029
-0.440299
-0.118197
0.127324
0.217003
-0.219401
-0.00376149
0.003856
-0.000632444
-0.00111632
-0.175732
-0.365774
0.83405
0.312669
-0.456501
0.185258
-0.00165325
0.113522
0.0363872
0.000325012
0.000103863
0.00375214
0.0638846
0.00142971
-0.00050519
0.73467
-0.661196
-0.248511
0.216665
0.884596
0.000209084
0.00125851
-0.0386734
-0.00538624
0.817572
-0.432316
0.522144
-0.583638
0.905001
-0.394998
0.560003
-0.181614
0.713037
0.00115983
0.00324252
0.0182797
-0.117514
0.137645
-0.225777
0.00876358
0.00230446
0.0693009
-0.0560131
-0.0132878
0.00122288
0.022116
0.0103368
-0.0324528
-0.0970528
0.00321404
0.000287526
0.00170397
0.492331
-0.437716
-0.00193559
0.00032875
1.18344
-0.716584
0.374132
-0.00618673
-0.00013712
0.122547
-0.0157018
-0.047314
-0.101536
-0.0126972
-0.00375156
0.13162
0.0471247
-0.00256324
0.400069
0.000961637
-0.000253248
0.000253248
-0.00128488
-0.011117
0.000297459
-0.321579
-0.00389314
0.0758103
-0.107563
0.0900692
0.198234
-0.0651821
0.000298492
0.00161851
0.452987
8.23314e-05
-0.00339917
-0.0468075
-0.00212718
0.00062804
0.00152166
0.0791302
-0.71001
0.4661
-0.831874
-0.105595
-0.00045025
0.0691599
0.0119827
-0.00642803
0.578923
-0.0143992
0.0805408
-0.00421313
-0.00143878
-0.555972
-0.00346356
-0.000173934
-0.0107842
0.890598
-0.501386
-0.00264737
-0.000560289
-0.00614039
-0.00167789
0.0744395
-0.0210411
0.0210411
-0.0350761
0.0371189
-0.00217424
-0.00826776
0.0352087
-0.0353281
-0.172576
0.101459
-0.0053055
-0.0139048
0.0376089
-0.0181507
0.0660896
-0.0471524
-0.625014
0.575671
0.027544
-0.00158972
0.291445
-0.158559
-0.0650332
-0.666056