/*--------------------------------*- C++ -*----------------------------------*\
| =========                 |                                                 |
| \\      /  F ield         | OpenFOAM: The Open Source CFD Toolbox           |
|  \\    /   O peration     | Version:  2306                                  |
|   \\  /    A nd           | Website:  www.openfoam.com                      |
|    \\/     M anipulation  |                                                 |
\*---------------------------------------------------------------------------*/
FoamFile
{
    version     2.0;
    format      ascii;
    arch        "LSB;label=32;scalar=64";
    class       volVectorField;
    location    "23";
    object      U;
}
// * * * * * * * * * * * * * * * * * * * * * * * * * * * * * * * * * * * * * //

dimensions      [0 1 -1 0 0 0 0];

internalField   nonuniform List<vector> 
2186
(
(1.30004 -0.072071 2.60333e-19)
(1.56799 -0.919797 8.97153e-21)
(1.42065 -0.896725 9.45888e-21)
(0.720428 -0.560522 -1.66767e-19)
(-0.345139 0.306175 -1.69766e-19)
(1.59864 -0.562723 0)
(0.701508 -0.647973 0)
(-0.116183 -0.145824 6.50094e-20)
(1.33558 -0.259834 7.80035e-20)
(0.535493 -0.281416 -2.04977e-21)
(0.704956 0.637052 0)
(0.762315 -0.267548 -6.8673e-20)
(-0.143337 -0.171603 -2.69556e-20)
(1.20177 0.0254025 -4.07757e-19)
(1.74843 -0.679157 -2.47969e-21)
(1.01563 -0.00158784 1.89985e-19)
(0.980142 0.0132413 0)
(-0.513898 -0.222625 0)
(1.59399 -0.411029 0)
(-0.0902411 0.279134 -7.21067e-20)
(0.490916 0.135589 -1.20603e-19)
(-0.149647 0.206696 9.88517e-20)
(1.19029 0.0291424 3.35787e-19)
(-0.191173 -0.00655 4.78362e-21)
(1.03003 0.00982816 -2.6441e-19)
(0.771378 -0.53798 0)
(0.76041 -0.00584147 1.57147e-19)
(0.592684 -0.572362 -1.98798e-19)
(1.24567 0.737061 0)
(0.961562 0.024638 -3.60569e-19)
(-0.043813 0.103371 0)
(1.02238 -0.00831552 1.24975e-20)
(-0.1049 0.187224 0)
(2.73459 -0.0310907 2.39587e-19)
(-0.140556 -0.132044 2.30538e-21)
(1.58327 0.795345 7.11614e-20)
(2.10255 0.106964 1.44738e-19)
(0.520829 0.183042 -3.58616e-19)
(1.999 0.166234 -3.11939e-19)
(1.251 -0.361717 -9.2671e-21)
(-0.184549 -0.218273 0)
(-0.0869612 0.185136 0)
(1.81584 -0.863751 4.54982e-20)
(-0.422635 0.218421 0)
(1.13072 0.293835 1.61262e-19)
(0.582498 -0.264168 3.07125e-19)
(0.893157 -0.76226 0)
(1.15966 -0.772796 1.45088e-19)
(2.26614 0.0173248 0)
(-0.211106 0.274066 1.78705e-19)
(-0.0346607 0.159593 1.06576e-19)
(0.65587 0.605264 8.24108e-20)
(2.00843 -0.7572 3.22023e-20)
(0.611043 0.307807 -2.87513e-19)
(-0.285756 -0.0426195 3.86528e-20)
(0.743243 -0.631449 0)
(1.60332 -0.939889 1.6823e-20)
(0.56312 -0.523942 0)
(2.29276 0.172231 8.85967e-20)
(1.12119 -0.16191 -4.20869e-19)
(1.94163 -0.0981306 1.46915e-19)
(1.38491 0.316054 -1.85996e-19)
(1.37566 0.555999 0)
(1.03491 -0.361204 1.01489e-20)
(1.38921 0.401692 -1.12326e-19)
(1.22327 -0.715773 -2.10504e-19)
(1.2028 0.684235 5.41543e-20)
(0.68234 0.0990328 -5.91143e-19)
(0.823837 0.0782811 0)
(1.89516 -0.272955 -2.86423e-20)
(-0.149006 -0.188102 -7.32727e-20)
(2.27584 0.0566693 -1.60146e-19)
(0.723487 -0.0111126 -2.62129e-19)
(0.856695 -0.499495 0)
(0.83772 0.203046 -9.59284e-20)
(0.529239 -0.488952 -3.32547e-19)
(2.32417 -0.00557444 0)
(1.00681 0.00982354 3.93012e-19)
(-0.134552 -0.174382 0)
(2.09679 0.33011 0)
(0.511213 -0.151532 7.49217e-20)
(1.01999 -0.360503 1.92659e-20)
(1.02395 0.00832896 4.39323e-20)
(1.35469 0.428703 2.83783e-20)
(0.96589 0.0239202 4.61345e-19)
(1.03556 0.0305213 -1.09182e-20)
(0.678952 0.2068 -3.49745e-19)
(1.52222 -0.435579 2.99949e-21)
(1.30339 -0.283409 0)
(-0.0671563 -0.0380154 4.97742e-20)
(0.841729 -0.604343 -1.91121e-19)
(-0.104503 0.324391 -4.26733e-22)
(1.1014 -0.0674724 2.77808e-19)
(0.807512 -0.161824 0)
(0.971528 0.0232438 4.38947e-20)
(1.40328 0.663641 0)
(1.58074 -0.934678 0)
(1.33317 0.231963 0)
(-0.301019 0.294096 0)
(0.770959 -0.645246 3.3423e-19)
(-0.444565 0.177302 -1.93239e-19)
(0.178274 -0.0365904 1.177e-19)
(1.59583 0.194663 0)
(1.13788 -0.09664 -2.53967e-19)
(1.12102 0.0243274 1.94533e-19)
(-0.0175299 0.318752 1.32044e-19)
(0.663821 0.534778 0)
(2.16586 -0.221387 -6.01759e-20)
(0.946659 -0.459822 9.36382e-20)
(-1.10797 0.156031 2.363e-19)
(1.82394 0.283502 1.30872e-19)
(-0.180918 0.39332 -2.69833e-19)
(0.793088 -0.720922 0)
(0.588853 0.381626 1.72859e-19)
(1.53127 -0.255715 -2.24163e-19)
(-0.141578 -0.157484 -2.98059e-19)
(1.25875 0.475273 2.34864e-20)
(1.67672 0.0556568 0)
(-0.0884671 -0.0418757 -1.49152e-19)
(0.703908 -0.045631 8.33681e-20)
(1.60818 0.905629 0)
(-0.143497 0.115462 -2.42844e-19)
(0.916607 0.789155 -2.78352e-19)
(-0.522509 -0.326361 2.64838e-19)
(1.03144 -0.0222388 0)
(1.59393 0.532488 -2.95986e-20)
(-0.291708 0.369462 0)
(0.680022 -0.473718 -1.19647e-19)
(-0.528877 -0.298073 -1.48911e-19)
(0.767131 -0.699636 0)
(0.416119 -0.239639 4.45128e-19)
(0.520909 -0.432298 3.07931e-19)
(0.397814 -0.359969 0)
(0.959339 -0.763219 -1.61802e-19)
(0.110473 -0.0553005 0)
(-0.111963 0.242349 -1.40024e-19)
(0.790091 -0.677642 1.62919e-19)
(2.33457 -0.299739 1.33086e-19)
(2.22253 0.13338 0)
(-0.0483905 -0.0771445 0)
(0.711764 0.661721 -3.4537e-19)
(1.73402 -0.621766 -2.859e-20)
(-0.0498305 -0.0644886 0)
(0.961169 -0.787429 -1.71797e-20)
(1.13543 -0.0939645 0)
(1.0755 -0.116378 4.40292e-19)
(2.06016 -0.2069 -4.25184e-20)
(-0.347967 0.264437 0)
(1.19795 -0.541686 -6.89268e-20)
(-0.227151 0.28819 -4.82267e-20)
(-0.203729 0.413461 0)
(1.07058 -0.795497 1.13813e-20)
(1.00596 0.00527107 -6.56459e-19)
(0.632008 -0.456915 -1.16747e-20)
(0.799281 -0.496014 0)
(1.17489 -0.714561 -1.20951e-19)
(0.673897 0.267108 2.69571e-19)
(1.24788 0.135817 0)
(1.52811 0.0671116 -2.47348e-19)
(1.1715 -0.837042 -2.88436e-19)
(-0.0454117 -0.0717948 -5.60708e-20)
(-0.0992303 -0.515411 -9.56654e-20)
(1.07764 0.0120556 2.43841e-19)
(0.900392 -0.446301 -1.1776e-19)
(1.58452 -0.481968 -2.77674e-21)
(1.3549 -0.348191 -3.82862e-20)
(0.67154 -0.102409 6.10466e-20)
(-0.192858 -0.0430021 -1.33144e-19)
(1.8528 -0.296683 0)
(2.23485 -0.373991 7.62603e-20)
(1.48457 0.670396 1.3624e-19)
(0.790156 -0.595445 -2.43766e-19)
(0.995607 0.00937658 1.34503e-20)
(0.701552 -0.511135 3.28997e-19)
(1.34085 0.82273 1.24721e-19)
(1.85225 0.0519377 1.59943e-20)
(-0.359163 0.16181 0)
(1.09049 0.0577288 -2.52028e-19)
(-0.329823 -0.549281 -1.6657e-19)
(1.0984 0.508963 8.15799e-20)
(0.0428572 -0.0965028 8.0472e-20)
(1.15889 0.0296398 -4.67258e-20)
(-0.200037 0.173637 -1.73551e-19)
(1.33033 0.601356 -7.71543e-20)
(1.1718 0.913403 0)
(-0.361648 0.0742004 -8.03476e-20)
(-0.0398965 -0.00380961 0)
(0.680228 0.587126 -2.828e-19)
(2.05302 0.125009 -2.05417e-20)
(-0.15942 -0.191825 9.47639e-20)
(-0.448318 -0.295551 -4.49037e-19)
(0.730188 0.103459 2.59683e-19)
(1.96278 0.0361924 -2.86649e-20)
(0.965025 -0.331585 -3.40659e-20)
(-0.00797258 -0.012744 0)
(-1.10727 0.0408458 4.10353e-19)
(1.37189 1.00121 -1.29775e-20)
(0.847225 0.0966712 -1.42324e-19)
(0.57918 0.543919 1.96777e-19)
(0.495213 0.203194 0)
(-0.164392 -0.322842 -1.10913e-19)
(-0.936358 0.0512458 3.18411e-19)
(1.26267 -0.935358 8.24105e-22)
(0.984765 -0.0221924 -2.05281e-19)
(-0.1647 -0.129642 6.61291e-21)
(-0.182144 0.223871 1.45969e-19)
(-0.284034 -0.131205 -9.92882e-20)
(1.85549 -0.0594282 0)
(1.14231 0.0466169 -3.3779e-19)
(2.21092 0.0797356 1.7359e-19)
(1.24834 -0.607059 1.34246e-19)
(0.801796 -0.106792 -7.75502e-21)
(0.613654 0.362372 0)
(0.972534 0.77505 -1.64453e-20)
(0.709901 0.6539 1.86308e-19)
(0.879121 -0.545946 1.72172e-19)
(0.710412 0.527969 0)
(1.0208 0.00464692 8.79562e-21)
(0.862684 -0.645691 2.45992e-19)
(0.859809 0.446722 -4.68341e-19)
(1.20655 -0.103588 0)
(-0.034105 -0.0341808 -2.14135e-19)
(-0.00448063 0.244796 -1.06216e-19)
(1.63235 0.738819 0)
(1.3159 -0.919036 -7.05199e-22)
(-0.399507 -0.134745 0)
(-0.321523 0.408231 1.08988e-19)
(0.762602 0.677927 -9.94559e-20)
(0.841368 -0.199105 0)
(-0.18752 -0.0668643 0)
(1.52582 -0.454705 0)
(-0.679887 0.124449 4.33315e-19)
(1.1829 -0.865075 1.88486e-19)
(1.15322 -0.589857 7.65562e-20)
(1.03801 -0.166026 -1.94371e-19)
(0.857622 -0.675386 -1.95669e-19)
(0.17862 -0.182153 0)
(-0.678223 -0.367905 0)
(0.982892 -0.49671 2.06822e-19)
(-0.0648722 -0.0966698 0)
(-0.274216 0.220902 0)
(-0.155605 -0.161942 2.56735e-19)
(0.818711 0.69517 8.63079e-20)
(1.04213 0.818874 0)
(0.721995 0.57954 -8.64554e-20)
(0.828846 -0.0214149 -2.37879e-19)
(0.770785 0.587261 -2.31441e-19)
(0.615496 0.573695 -1.6936e-19)
(-0.150043 -0.218781 6.71707e-22)
(0.699591 -0.627421 0)
(0.91045 0.192841 -3.36105e-19)
(-0.193505 -0.239565 3.27897e-20)
(0.627806 0.582549 3.80734e-19)
(0.986389 0.823128 0)
(-0.82716 0.372539 2.96797e-19)
(-0.121573 -0.251407 1.6303e-19)
(-0.0785241 -0.157859 -7.8911e-20)
(0.69006 0.596209 -1.5001e-20)
(0.968584 -0.00715648 6.336e-20)
(-0.195832 -0.235674 0)
(2.33639 -0.198308 -1.85113e-19)
(1.84332 -0.27025 -2.99096e-19)
(0.6323 -0.584509 -8.7048e-20)
(-0.516939 -0.277458 8.65556e-21)
(1.2219 0.477109 1.83335e-19)
(0.907541 0.435707 0)
(1.03473 -0.163713 2.17688e-19)
(-0.0225036 -0.266349 -5.20992e-21)
(-0.115775 0.142752 4.01885e-19)
(0.915382 0.019312 -5.73739e-20)
(1.14468 0.157133 0)
(1.9402 -0.0899558 -1.19074e-19)
(1.88893 0.0594149 0)
(0.560332 0.29019 -4.72344e-19)
(-0.192712 0.258679 0)
(-0.130535 -0.173438 1.43208e-19)
(0.677294 0.102985 0)
(0.600615 -0.49119 -2.01241e-19)
(1.13488 0.0195835 2.27136e-19)
(-0.352351 0.203149 3.74878e-20)
(2.01626 -0.0625602 5.14671e-21)
(2.00342 -0.289945 -5.40807e-20)
(1.13352 0.241021 -2.26741e-19)
(-0.205299 -0.247706 -6.52e-20)
(1.04994 -0.831637 0)
(0.808469 0.0172961 -1.65162e-19)
(0.911911 -0.358713 -3.21951e-19)
(1.69076 -0.57146 4.0702e-21)
(1.70978 0.0306639 6.27292e-20)
(1.09164 -0.00220253 4.05255e-19)
(-0.0355603 -0.265852 -7.53805e-20)
(0.978884 -0.421672 -1.45053e-19)
(0.18771 -0.180385 2.82975e-19)
(1.00825 -0.00663199 0)
(1.00456 -0.00416186 0)
(0.404597 0.0176835 1.30154e-19)
(-0.0522837 0.324254 -9.91547e-20)
(0.172014 -0.117856 -7.72788e-20)
(1.94213 0.0710264 -2.05052e-21)
(0.951349 0.22741 0)
(1.7324 0.0369948 -1.10458e-19)
(0.916093 -0.797542 -1.14387e-19)
(1.74271 -0.558274 -2.43197e-20)
(1.13626 0.861465 0)
(0.454084 -0.434668 0)
(0.631004 0.545333 -1.79832e-19)
(1.11748 0.29214 -4.1477e-19)
(2.22321 -0.30097 1.39867e-22)
(0.872607 0.177082 1.44703e-19)
(-0.0773365 -0.342586 -2.19122e-19)
(1.39245 -0.439514 1.96101e-20)
(-0.1926 -0.414969 0)
(-0.0709119 -0.0980425 0)
(-0.213574 -0.262715 0)
(1.31053 -0.710606 -1.3336e-19)
(-0.198974 0.421426 -2.22229e-19)
(-0.111304 0.193791 0)
(1.32885 1.00313 -3.09225e-20)
(1.13193 0.158435 -4.36378e-19)
(2.4584 0.569428 -8.1411e-20)
(1.11398 0.951149 7.97008e-20)
(-0.149291 0.421821 1.38933e-19)
(1.08747 -0.128603 0)
(-0.205601 -0.264048 -2.07847e-19)
(-0.23099 0.439245 2.60579e-19)
(0.780147 0.0543537 1.93624e-19)
(1.58006 0.96939 7.26989e-21)
(1.97135 0.768757 -1.7398e-20)
(-0.124027 0.312258 -2.87227e-22)
(0.723732 -0.660486 -4.42628e-20)
(1.14672 -0.0360969 0)
(1.69513 -0.0361366 0)
(0.99882 0.0478399 0)
(-1.26266 0.102816 -3.31189e-19)
(-0.237324 -0.312746 6.90086e-20)
(1.07723 0.869404 0)
(0.995131 0.00585769 5.50891e-19)
(0.793567 0.629787 -2.31215e-19)
(-1.61443 0.123597 -2.3163e-19)
(0.865374 0.0359093 -4.36684e-20)
(0.695255 -0.632954 -2.54334e-19)
(1.42158 0.726656 -3.04745e-20)
(0.542143 -0.424035 -3.17989e-19)
(1.13485 0.00161903 -4.90877e-19)
(0.798583 0.0470093 4.94896e-20)
(1.50757 -0.187333 1.018e-19)
(1.64419 -0.104988 -7.2365e-20)
(-0.0145059 -0.0212195 1.75035e-22)
(1.10472 0.489811 -2.7279e-19)
(1.39312 0.64117 8.50855e-20)
(-0.126861 -0.213628 0)
(-0.0685987 -0.392799 8.21163e-20)
(-0.0608782 -0.057165 9.09149e-20)
(-0.191092 -0.0742442 -6.93293e-20)
(0.502068 0.355051 0)
(1.03407 -0.441578 0)
(-0.0340181 0.039296 -1.46581e-19)
(-0.199087 -0.268971 -3.4768e-20)
(1.05148 -0.0276207 1.94585e-19)
(-0.330781 0.226969 -3.92515e-20)
(1.04709 0.383405 -2.96206e-19)
(0.00697027 0.326428 0)
(0.810961 -0.718666 -3.6122e-19)
(1.39182 -0.118081 9.57784e-20)
(-0.187284 -0.58051 1.02035e-19)
(0.732159 0.188001 3.40776e-19)
(0.63313 0.173694 1.1001e-19)
(0.483022 -0.455788 2.24449e-19)
(-0.0597734 -0.0863946 -7.88863e-20)
(1.60532 0.716918 0)
(0.418565 0.383338 -1.98037e-19)
(1.02867 -0.0120613 -3.10067e-19)
(-0.472745 -0.309143 1.76976e-19)
(1.45774 0.49147 -1.16576e-19)
(-0.0817129 -0.127632 -2.85698e-20)
(0.662289 -0.60499 -9.88011e-20)
(0.832013 0.207466 -2.13436e-19)
(0.999159 0.445608 2.33559e-20)
(1.13578 -0.129558 3.92951e-20)
(0.595158 -0.200851 -3.22411e-19)
(1.95441 -0.369389 -3.06706e-20)
(1.88305 -0.0454171 0)
(1.8888 0.458012 -4.4141e-20)
(2.2386 -0.0139864 -2.8595e-21)
(0.605007 -0.285522 6.06549e-20)
(1.05469 0.368674 -2.03732e-19)
(1.2398 -0.38572 -3.49143e-20)
(0.44325 0.416934 -2.56489e-19)
(-0.331605 -0.120569 1.87867e-19)
(1.6808 -0.273414 0)
(0.939037 0.00578186 0)
(0.848327 -0.750489 7.38299e-20)
(-0.124329 -0.276655 -1.78535e-19)
(-0.641801 -0.28358 -1.64699e-19)
(-0.0249723 -0.0394785 -1.20808e-19)
(-0.27621 0.0404255 -1.37694e-19)
(-0.232627 -0.517823 0)
(-0.0576441 -0.0751859 2.09391e-20)
(0.10789 0.323898 -1.0095e-19)
(-0.203745 0.242497 -3.32113e-19)
(0.794007 -0.0890462 0)
(1.60445 -0.385103 1.24458e-19)
(-0.0506275 -0.0539765 0)
(0.993273 0.0244523 3.96101e-19)
(-0.0909769 -0.480226 1.49246e-20)
(0.518423 -0.395565 4.26334e-19)
(-0.468769 -0.582623 2.75471e-19)
(-1.12481 0.117307 0)
(0.133011 0.267517 1.1291e-19)
(1.00156 0.0261478 -1.19412e-20)
(-0.171249 -0.079033 0)
(1.00487 -0.00846981 -6.13169e-20)
(0.839066 -0.706713 -3.37263e-19)
(1.17744 -0.26381 0)
(0.922245 -0.253227 2.29894e-19)
(-0.0126781 0.0916964 2.02444e-19)
(-0.0094194 -0.00294978 0)
(-0.175014 -0.334222 -3.1782e-21)
(0.705695 -0.613007 -4.77763e-19)
(0.944146 -0.0266177 -2.93638e-19)
(-0.133905 -0.282652 2.14217e-19)
(-0.123708 -0.188841 8.62596e-20)
(-0.204695 -0.449189 0)
(0.981034 0.495711 0)
(-0.164928 -0.598305 1.1701e-19)
(1.63897 -0.30078 -1.6796e-19)
(1.10699 0.924125 1.82936e-20)
(1.08343 0.223655 -1.29229e-19)
(1.13038 0.0110033 -2.49884e-19)
(1.03221 -0.0642563 -9.2921e-20)
(-0.129247 -0.295987 -2.00051e-19)
(1.87503 0.0916323 3.74381e-19)
(0.691039 0.0332567 2.16404e-19)
(2.10592 -0.172179 1.1751e-19)
(1.03629 -0.148694 0)
(0.0436804 0.298096 4.98444e-19)
(1.1406 0.0264828 -5.36656e-19)
(1.79298 0.629725 2.73076e-21)
(0.722469 -0.43276 -1.76867e-19)
(-0.0721736 -0.0352531 1.11567e-19)
(0.775673 -0.679575 4.40091e-19)
(1.26558 0.206398 7.63809e-20)
(1.00744 -0.00782992 2.71477e-19)
(-0.0616332 -0.320733 -8.50949e-20)
(1.02834 0.023315 0)
(1.99695 0.142414 -2.53402e-19)
(-0.023643 -0.00867526 0)
(1.01444 0.0144922 -1.61363e-19)
(-1.29176 0.124743 -5.10703e-19)
(1.72577 0.290805 3.17707e-20)
(-0.138798 -0.112051 1.1831e-19)
(1.62754 0.0152936 -8.47568e-21)
(1.01471 -0.0169615 5.61523e-20)
(1.30408 -0.0832262 0)
(1.41395 -0.600771 -2.0538e-19)
(1.02627 0.0424769 -1.65128e-19)
(1.48142 0.810467 -4.97433e-20)
(1.36191 -0.0574429 0)
(0.714129 0.140772 -2.47304e-20)
(-0.0397094 0.0444895 0)
(1.31381 0.0384039 0)
(-0.235314 -0.287082 0)
(1.26535 0.46389 0)
(1.96042 0.236722 5.28377e-20)
(0.767662 0.640837 4.0525e-19)
(0.279759 -0.28083 -2.65748e-19)
(-0.181116 -0.260829 -2.05007e-19)
(-0.0125231 -0.0139287 0)
(2.25518 -0.252584 1.24233e-19)
(1.42755 0.53731 0)
(1.49271 0.298826 0)
(-0.230735 -0.301355 9.08846e-20)
(0.836281 0.739158 1.28962e-19)
(1.64828 -0.0398867 0)
(-0.113074 -0.130567 5.18844e-20)
(0.923995 0.24047 1.97133e-19)
(2.07724 -0.207506 -6.47147e-20)
(1.27803 0.953744 4.37681e-20)
(0.892143 -0.80316 -5.3748e-20)
(1.71863 -0.0964923 -2.83225e-20)
(0.822968 0.743753 1.32152e-19)
(1.21489 0.953386 0)
(2.36127 -0.0377984 1.77779e-19)
(0.947625 0.132584 0)
(1.52909 -0.430267 5.53813e-20)
(1.13784 0.111181 2.23423e-19)
(1.00562 -0.00290944 0)
(0.0207199 0.0924036 5.04798e-19)
(0.877799 -0.151733 5.22484e-20)
(0.611051 -0.382787 0)
(0.6516 -0.355139 2.29998e-19)
(1.27127 0.577012 -3.37011e-20)
(0.498032 0.47094 2.81154e-19)
(-0.231439 0.299331 3.87931e-20)
(0.236607 -0.077859 1.09822e-19)
(0.741491 0.0667593 0)
(1.29218 -0.880751 -1.36214e-19)
(1.0346 -0.0422936 4.31503e-19)
(1.59035 0.348299 1.61292e-19)
(-0.125278 -0.151871 4.47294e-20)
(-0.524646 -0.529422 0)
(1.20879 -0.235217 -1.32102e-19)
(-0.00610083 -0.00240301 -9.62707e-20)
(0.151552 -0.543028 -5.22855e-20)
(-0.151257 0.0709996 -9.95771e-22)
(-0.222472 0.118045 3.33178e-19)
(1.44045 -0.452859 -1.56248e-20)
(2.37881 -0.173964 2.47871e-19)
(1.22224 0.475142 -2.9566e-19)
(0.881636 -0.060439 0)
(1.81437 -0.0741859 2.08541e-19)
(1.85226 0.0846508 5.81318e-20)
(0.888149 -0.745135 1.68558e-19)
(1.121 -0.945757 -7.60029e-20)
(0.501979 0.466851 1.88546e-19)
(1.32677 -0.0312325 0)
(1.81616 0.580594 3.62983e-20)
(-0.0106478 -0.0080666 -1.96484e-19)
(0.913612 0.797917 0)
(1.38589 0.615217 0)
(0.279964 -0.2793 -3.45939e-21)
(0.350891 0.342439 0)
(-0.516901 -0.484067 -2.73366e-19)
(-0.281451 0.395911 -1.16652e-19)
(1.68077 -0.426178 0)
(1.26829 0.102785 1.80542e-19)
(-0.560283 -0.361726 1.37707e-19)
(0.515169 -0.487991 -5.20911e-19)
(2.01979 -0.109138 -3.37113e-20)
(0.591475 -0.535575 0)
(1.05542 0.132785 0)
(1.31378 -0.234705 0)
(1.13585 0.240674 -2.42741e-19)
(1.37228 0.110629 3.44758e-19)
(-0.90838 -0.0696971 0)
(0.875929 -0.0574924 0)
(1.98377 -0.0860303 -2.60926e-21)
(-0.114294 0.193281 1.09961e-19)
(2.30557 0.0299083 -2.2574e-19)
(1.01874 -0.490129 9.60402e-20)
(1.90924 0.080017 -2.72498e-19)
(-0.624995 -0.330264 -1.11328e-19)
(1.91733 0.0472844 -1.79027e-19)
(1.01527 -0.0156758 4.47823e-19)
(1.56301 0.615251 0)
(-0.27606 0.404618 3.14159e-20)
(0.97749 -0.807737 2.17488e-19)
(0.85605 0.00418279 5.10417e-20)
(0.613987 -0.40633 0)
(1.84723 -0.537004 -4.34667e-21)
(1.18706 -0.181489 1.76513e-19)
(1.68709 -0.371204 0)
(0.588197 -0.545543 5.28042e-19)
(0.936684 0.144042 -2.4564e-20)
(2.37005 0.0434999 3.25283e-19)
(-0.133893 0.268863 -2.23244e-19)
(1.37031 0.639386 1.48056e-19)
(1.1752 0.423519 3.74358e-21)
(0.927283 0.396786 2.31081e-19)
(1.74925 -0.236229 -2.20098e-19)
(-0.145448 -0.297171 -1.01434e-21)
(0.521258 -0.254604 0)
(-0.150806 -0.0941677 1.85121e-19)
(1.05418 -0.917917 0)
(1.03889 -0.635745 2.58217e-20)
(1.03252 -0.374223 -4.80438e-19)
(1.33852 0.0897269 -4.82767e-20)
(-0.31698 -0.485736 -2.38182e-19)
(1.01548 0.505941 1.78184e-19)
(-0.415356 0.23207 3.66035e-19)
(0.699471 -0.0388806 0)
(1.97552 0.0203715 0)
(1.9611 0.112471 2.09539e-20)
(0.775369 -0.0137208 0)
(1.34347 -0.20606 -1.81629e-19)
(-0.639253 -0.39072 3.42526e-19)
(1.96903 0.502141 2.22186e-20)
(1.04922 -0.0316717 0)
(0.531788 -0.318859 1.14699e-19)
(1.00809 0.0268039 2.12398e-19)
(0.456532 0.253705 -3.63761e-19)
(-0.27545 -0.104939 0)
(1.08807 -0.465271 5.72359e-19)
(1.84791 -0.107424 -5.22756e-22)
(1.07767 -0.479897 -2.48828e-19)
(2.31664 0.202469 1.70579e-19)
(1.32384 0.816201 0)
(0.877336 0.0216842 0)
(-0.164972 -0.204065 -1.17202e-19)
(-0.037154 0.0393866 1.64969e-19)
(0.971999 0.387295 -2.13499e-19)
(0.0850539 -0.298703 -6.75789e-20)
(0.670881 0.43966 2.47417e-19)
(0.906107 0.195423 0)
(0.519194 -0.48256 0)
(0.394198 -0.0678652 4.14195e-21)
(1.20408 -0.493917 -1.20052e-19)
(0.589108 0.026954 5.97168e-21)
(0.727203 -0.125186 1.26553e-19)
(-0.0974611 0.13092 -2.93001e-19)
(1.0913 -0.0740401 1.66119e-19)
(0.688435 0.642459 0)
(1.30655 0.717293 0)
(1.65198 0.26504 0)
(-0.262427 -0.428733 -9.62746e-20)
(1.32862 0.590126 2.28236e-19)
(2.06833 0.00159417 3.28758e-20)
(0.948 -0.0123545 0)
(2.25552 -0.467166 0)
(2.03709 -0.0558106 -2.85319e-19)
(0.644214 0.375279 4.26478e-19)
(1.00516 0.00637153 -2.11976e-19)
(1.5221 0.491621 0)
(-0.264653 0.010261 0)
(1.27415 0.331022 2.95613e-19)
(1.05129 0.550257 -1.32208e-19)
(1.07663 0.0285073 0)
(1.5627 -0.209582 0)
(2.08301 0.678201 -3.32805e-19)
(-0.106641 0.391886 -1.32293e-21)
(0.995713 0.0156496 0)
(0.733742 0.502681 -3.40129e-20)
(0.907189 -0.800005 0)
(1.00129 0.0171056 4.94063e-20)
(-0.115285 -0.274323 -1.69279e-20)
(0.887192 -0.303018 3.40291e-19)
(0.467363 -0.357422 -6.54467e-20)
(2.13327 -0.185836 1.53384e-19)
(1.70343 0.171535 1.1514e-19)
(0.784168 -0.0274772 0)
(1.0061 0.0122238 0)
(-0.336787 -0.59337 0)
(0.69264 0.663633 -1.90091e-19)
(-0.075774 0.0974325 1.97262e-19)
(1.1903 0.36425 -4.74449e-19)
(-0.40414 0.0225581 0)
(0.856484 0.668816 1.70342e-19)
(0.990466 -0.315637 0)
(1.00585 -0.00021644 1.23945e-19)
(0.435969 -0.289553 7.0316e-20)
(1.05911 0.423757 2.62393e-19)
(1.36426 0.118295 0)
(2.12991 0.0860488 -7.01897e-20)
(0.821502 -0.0881641 -3.89884e-19)
(-0.748328 -0.43991 -3.94032e-19)
(1.07315 0.0569876 0)
(0.894815 0.262586 1.81292e-19)
(1.88074 -0.293972 0)
(0.801752 0.548631 3.68801e-19)
(-0.741881 -0.338619 1.53478e-19)
(-0.0864009 0.137071 0)
(0.616654 0.587247 -7.16425e-20)
(1.00372 -0.622752 -1.80103e-19)
(0.458332 -0.207563 -1.30149e-19)
(1.01896 -0.0092999 0)
(-0.321274 -0.209984 -1.46088e-19)
(0.616751 -0.546587 9.02948e-20)
(0.925436 0.310356 0)
(1.62741 -0.326487 1.58928e-19)
(1.01492 0.865217 2.43055e-20)
(0.761028 -0.383962 4.57567e-21)
(0.0989807 -0.117001 -1.15633e-19)
(0.212815 0.0354571 -5.78367e-19)
(-0.0694322 -0.110867 5.22112e-21)
(0.840911 0.383211 2.52796e-19)
(-0.220354 0.433654 -5.401e-21)
(1.37948 -0.635384 3.22158e-21)
(1.02084 0.0168673 -3.69958e-19)
(-0.292507 -0.504218 0)
(1.03687 0.0405627 -4.30722e-19)
(2.16466 -0.113663 1.83002e-19)
(0.915183 0.715139 2.84955e-19)
(1.12448 -0.0640183 1.75702e-19)
(1.00185 -0.020364 1.71204e-19)
(1.3334 0.118774 4.39154e-20)
(-0.0752146 -0.0921476 1.17282e-22)
(1.67725 -0.853065 1.40889e-20)
(1.11669 -0.12548 -9.26693e-20)
(0.771088 0.0511178 1.07099e-19)
(0.895347 -0.274323 9.82388e-20)
(1.34514 0.25844 0)
(0.990795 0.759754 0)
(0.83928 -0.188714 -8.37925e-20)
(2.08474 0.17946 -2.43094e-20)
(-0.551148 -0.513748 1.27415e-19)
(1.00785 -0.520268 -5.94751e-19)
(0.595224 -0.510243 4.28958e-19)
(1.41807 0.102291 -1.23011e-19)
(0.0987081 -0.269645 7.9781e-21)
(1.48054 -0.484624 0)
(0.761216 0.143248 -7.05321e-21)
(1.58637 -0.416811 -9.97772e-20)
(1.06966 0.78608 0)
(1.12797 -0.41068 0)
(-0.299718 -0.0670304 0)
(-0.0893317 -0.117163 -3.43356e-20)
(-0.0781267 0.16947 0)
(1.8558 0.495059 5.0461e-19)
(1.24519 0.191217 6.63886e-21)
(-1.02082 -0.0786503 2.11568e-19)
(2.11173 0.807229 2.13632e-20)
(1.89428 0.449201 -7.91662e-20)
(2.09646 -0.345403 -1.61733e-20)
(-0.192169 0.0353812 -2.34906e-19)
(-0.187046 -0.399994 2.36797e-21)
(1.34787 0.159286 0)
(0.681987 -0.0336565 0)
(1.00126 0.000821095 1.64387e-22)
(-0.257957 -0.467111 0)
(1.52039 -0.0123799 -1.61892e-20)
(0.683028 -0.0307972 0)
(1.04889 0.0124398 1.41038e-19)
(0.989331 0.0161716 -4.82916e-20)
(1.0698 0.0189646 9.17148e-20)
(1.07174 -0.0141709 -9.85408e-22)
(0.937288 -0.175604 -5.90283e-20)
(1.01886 -0.023779 3.99151e-19)
(0.649678 -0.586552 2.05594e-19)
(-0.93759 0.132414 -2.82132e-19)
(1.23275 0.522602 1.93243e-20)
(-0.0432456 0.0510832 0)
(1.15786 0.819471 0)
(1.02287 0.00182593 0)
(0.978996 -0.754143 -1.28243e-19)
(1.00582 -0.863832 8.18266e-20)
(1.01643 0.323097 -1.46662e-20)
(0.0199345 -0.0360474 -9.79393e-19)
(0.984908 -0.315327 1.72689e-20)
(0.563166 -0.351648 -6.82923e-19)
(1.52736 0.498849 -5.8465e-20)
(0.366662 -0.128301 -9.84318e-20)
(1.99746 -0.336167 3.10366e-20)
(0.599503 0.103889 -1.70245e-20)
(-0.120451 -0.144041 -7.5161e-20)
(1.14237 0.575336 1.99774e-19)
(-0.14449 -0.235388 0)
(0.0904128 -0.444429 1.82368e-19)
(-0.0783388 -0.0758361 -1.26579e-23)
(1.0281 -0.04254 3.53986e-19)
(1.02058 0.007535 -9.17625e-21)
(1.11358 -0.00989441 -9.7948e-20)
(1.45677 0.0870206 1.98426e-20)
(1.66748 0.326505 5.75104e-20)
(0.379328 -0.35364 -3.42511e-19)
(0.7173 0.268095 2.66039e-20)
(1.03059 0.00939318 -2.63093e-19)
(1.32856 0.404012 -1.98968e-20)
(1.44457 0.214431 0)
(1.14005 0.613709 -3.74085e-19)
(1.00246 -0.00348529 1.01181e-19)
(0.702921 0.631067 2.62581e-19)
(1.34564 -0.467538 -2.67314e-21)
(1.07764 -0.00595827 -3.20089e-20)
(1.13594 0.016611 9.1025e-22)
(2.25216 0.0241926 1.25362e-20)
(0.582688 0.166078 0)
(1.04417 -0.0389953 0)
(1.04853 -0.0340519 6.20703e-19)
(1.00267 -0.00199973 0)
(-0.034748 -0.03771 0)
(0.91336 -0.551751 0)
(1.00058 0.000415301 -5.88481e-19)
(1.1296 -0.664783 1.06853e-19)
(1.02048 -0.000436157 1.24093e-20)
(1.38453 0.982308 -2.41433e-20)
(1.57491 1.03113 -2.5859e-20)
(0.92638 -0.273518 -2.96144e-20)
(1.52545 -0.152494 2.48699e-19)
(1.79532 0.265524 0)
(0.00965637 0.364676 0)
(1.95798 -0.237995 3.55398e-19)
(0.967707 -0.389911 0)
(0.999609 -0.00417375 -1.81762e-19)
(1.01076 -0.000704834 3.53359e-19)
(1.47519 0.143292 -7.16272e-20)
(0.00406797 -0.122919 1.46129e-19)
(0.976247 -0.000162592 1.91854e-19)
(0.112638 0.039271 1.35795e-20)
(0.515579 -0.118259 3.33392e-20)
(1.5865 0.109155 3.7915e-23)
(0.924594 0.0179859 -1.95004e-19)
(1.00341 0.00495538 2.28949e-19)
(1.00018 0.000610431 1.3505e-20)
(0.791216 -0.0124962 0)
(0.730835 -0.0260234 0)
(0.72684 -0.0266257 8.47456e-22)
(0.703646 -0.0284831 0)
(1.47258 -0.158977 0)
(0.907059 -0.17657 0)
(0.302813 -0.140656 -3.46377e-20)
(0.234824 -0.119252 2.33651e-20)
(1.34482 -0.335792 0)
(1.39935 -0.259484 2.44413e-20)
(1.55195 0.036555 0)
(-0.00211902 0.131571 0)
(0.0739103 0.0212194 0)
(0.310598 0.0863526 -2.93172e-21)
(0.972767 0.193975 4.0812e-20)
(0.777656 0.0236171 0)
(0.787845 0.0203812 0)
(0.963235 0.0215988 -2.40122e-19)
(0.816705 0.00822393 4.46608e-19)
(1.00765 -0.00147393 0)
(0.999973 -0.000485256 4.22676e-19)
(1.00014 -0.000634029 -2.79605e-22)
(0.786351 0.0223396 3.81405e-19)
(0.995466 -0.00662987 -2.20345e-19)
(-0.0326503 0.13549 0)
(0.554926 -0.121435 -3.33603e-20)
(1.00109 -6.60923e-05 -2.13349e-19)
(1.00019 0.00239534 -3.66621e-19)
(1.3226 0.0546177 0)
(0.998665 0.00196883 0)
(0.999462 0.000433852 0)
(1.69761 -0.587473 -1.76985e-20)
(0.277261 -0.00624195 4.12572e-20)
(0.923604 0.373088 0)
(-0.335219 0.265724 1.85495e-19)
(-0.487415 0.0186794 -4.95208e-19)
(1.02087 -0.0125062 -2.84588e-19)
(-0.23363 -0.291785 -6.67194e-20)
(1.01693 0.00806384 -2.2966e-19)
(1.14663 -0.206524 -1.29418e-19)
(0.779163 -0.449618 3.36067e-19)
(-0.0209254 -0.0284959 -4.84398e-20)
(1.02892 0.0158457 0)
(1.06395 -0.00973081 -6.14569e-20)
(0.846593 0.0272539 0)
(-0.0959149 0.103102 2.91335e-19)
(0.674713 -0.391503 0)
(-0.266888 -0.371116 -1.80599e-19)
(0.287076 0.0838992 -9.42846e-21)
(1.70729 0.69664 1.08217e-20)
(-0.0748859 0.0144285 0)
(1.05255 -0.0368793 1.9196e-19)
(0.833541 -0.238269 4.50653e-21)
(0.929319 0.00650796 3.00225e-19)
(1.0132 -0.00517398 -1.93648e-19)
(1.72787 0.880589 4.83507e-20)
(0.547863 0.516382 0)
(0.473208 0.436508 2.0694e-19)
(2.09471 -0.505998 -6.56164e-22)
(1.1732 0.134274 2.0167e-19)
(1.06172 -0.693041 0)
(1.0232 0.00790432 0)
(0.999466 -0.016763 -4.45671e-19)
(1.01765 0.0183782 -4.3627e-19)
(-0.111611 -0.182457 0)
(1.25667 0.84662 -1.27307e-19)
(1.54573 -0.547726 2.84637e-21)
(1.01666 0.00820112 1.67538e-19)
(1.01088 0.0159117 -2.10454e-19)
(-0.273311 -0.362756 -1.84458e-20)
(0.872304 -0.194975 -1.17402e-19)
(1.01984 -0.0123054 7.13947e-19)
(1.44547 -0.469704 0)
(1.9234 0.653209 -5.75739e-20)
(1.01683 -0.00885806 -2.22634e-19)
(2.11966 0.03494 -1.0627e-19)
(1.06675 0.0119475 -5.11075e-22)
(1.00989 -0.00809271 4.44535e-20)
(1.98705 -0.306034 -1.40684e-19)
(1.01477 0.00850496 2.16463e-19)
(0.965925 0.511919 3.34726e-21)
(1.01917 0.00749644 0)
(0.946313 0.166483 5.18037e-20)
(-1.06445 -0.304976 4.88185e-21)
(0.996763 0.0223496 2.1513e-19)
(1.03832 0.0213413 -5.50148e-22)
(1.29941 -0.437348 -1.52548e-20)
(1.28204 0.32819 4.21556e-19)
(0.995744 0.0175217 1.4814e-19)
(1.0181 -0.0116488 5.11583e-22)
(1.78057 0.245404 -2.10161e-20)
(1.85664 0.978827 -1.164e-19)
(0.75081 -0.673619 7.00927e-20)
(0.426065 -0.285465 -3.28312e-19)
(1.00832 -0.00857563 0)
(1.019 0.00451763 5.37499e-20)
(1.01142 -0.00646771 1.13077e-19)
(0.759936 0.269162 5.66398e-21)
(1.01377 0.00882065 -2.25323e-19)
(1.02395 -0.0169681 2.59261e-19)
(1.00929 -0.00490635 -2.11325e-19)
(1.01428 0.00908115 -5.21656e-22)
(1.01326 0.00576473 -3.80589e-22)
(1.02322 0.0172634 2.1591e-19)
(0.910819 0.107287 5.36429e-19)
(1.89766 0.718779 0)
(0.635787 -0.688205 2.2902e-19)
(1.01019 -6.08284e-05 0)
(1.02261 -0.0131884 -6.24165e-20)
(1.57994 0.451557 -7.98167e-20)
(2.0928 -0.112379 0)
(2.26771 -0.1185 -1.29769e-19)
(1.36064 0.420379 -8.66188e-20)
(0.771503 -0.0173464 0)
(1.73901 -0.311901 0)
(0.418817 0.391975 -3.7029e-19)
(1.16223 -0.0560225 -3.69879e-20)
(1.01788 -0.00107858 -2.26782e-19)
(1.09306 -0.547688 -7.12277e-20)
(1.22531 -0.358744 -4.74252e-20)
(1.18416 0.591448 0)
(1.54511 -0.495891 0)
(2.14054 0.465118 0)
(0.0215504 0.158521 1.01062e-19)
(0.855456 0.31338 1.19262e-19)
(-0.496342 0.00432137 0)
(-0.066495 0.0348038 -2.19801e-19)
(1.75427 0.991796 -7.10251e-20)
(1.00802 -0.000798063 -4.43509e-19)
(0.747842 0.133846 4.4965e-20)
(1.02055 0.0139172 2.93867e-19)
(0.696456 -0.0425422 0)
(-0.111609 -0.18312 -1.45127e-20)
(0.639286 0.465686 -3.48878e-19)
(1.83965 0.600647 1.90119e-19)
(0.103977 0.13528 0)
(0.766633 0.0711166 9.10907e-20)
(0.54446 0.522002 5.25129e-20)
(1.22179 0.911671 -3.40987e-20)
(-0.0350224 -0.0173012 7.08425e-20)
(1.02247 0.0185177 0)
(1.07567 0.396126 4.37865e-20)
(1.01108 0.00180716 1.66355e-19)
(2.26374 0.0449564 0)
(1.01095 0.0112541 2.79234e-19)
(0.105356 -0.402436 -8.47048e-20)
(1.0194 0.0142415 -1.72786e-19)
(1.39517 0.526237 0)
(2.31727 -0.117675 5.65385e-22)
(1.00864 0.00681809 -1.1592e-19)
(0.995442 -0.0161619 3.05635e-19)
(1.1117 0.104814 -3.59059e-21)
(1.1496 0.611663 -2.36235e-20)
(-0.14873 -0.0660463 1.86398e-19)
(2.0969 0.215504 1.86093e-19)
(0.211423 0.242789 2.50332e-20)
(0.801464 0.0150493 -4.19248e-19)
(0.818082 0.027249 0)
(0.0955606 0.0816052 5.60349e-20)
(1.02432 -0.0102603 -3.35197e-20)
(0.973433 0.0393432 0)
(1.05434 0.0031635 -2.12125e-19)
(-0.272922 0.202955 4.924e-21)
(-0.783774 -0.258981 1.82772e-19)
(2.08847 -0.584798 0)
(-0.936237 0.18948 -5.29027e-19)
(1.48118 -0.339479 0)
(1.04226 -0.0160483 6.23283e-20)
(1.10264 0.0925198 1.75346e-21)
(1.01296 0.00206379 1.80199e-19)
(-0.69492 -0.290019 2.8624e-19)
(1.01894 0.00756781 0)
(0.994008 0.00390034 -4.31429e-19)
(1.00819 0.0101397 2.28981e-19)
(0.799 -0.158116 0)
(0.697744 -0.00062504 -1.14587e-20)
(0.957531 -0.000990112 -1.95739e-19)
(-0.213112 -0.29508 2.19024e-19)