/*--------------------------------*- C++ -*----------------------------------*\
| =========                 |                                                 |
| \\      /  F ield         | OpenFOAM: The Open Source CFD Toolbox           |
|  \\    /   O peration     | Version:  2306                                  |
|   \\  /    A nd           | Website:  www.openfoam.com                      |
|    \\/     M anipulation  |                                                 |
\*---------------------------------------------------------------------------*/
FoamFile
{
    version     2.0;
    format      ascii;
    arch        "LSB;label=32;scalar=64";
    class       surfaceScalarField;
    location    "40.4";
    object      phi;
}
// * * * * * * * * * * * * * * * * * * * * * * * * * * * * * * * * * * * * * //

dimensions      [0 3 -1 0 0 0 0];

oriented        oriented;

internalField   nonuniform List<scalar> 
3181
(
-0.981076
0.372917
0.608159
-0.369459
0.344401
0.0250579
0.490238
-0.338839
-0.151399
0.104997
-0.177995
0.0729981
-0.0636009
0.102511
-0.0389098
1.1676
-0.177471
-0.990131
0.136809
-0.131057
-0.00575232
-0.0242158
0.000661853
0.0235539
0.469392
-0.723731
0.254339
-0.0776827
0.120507
-0.0428241
-0.0109232
-0.0568205
0.0677437
0.139328
0.0337959
-0.173124
-0.00770006
0.0266297
-0.0189296
-1.09617
0.157459
0.938715
-0.300798
0.65821
-0.357412
-1.12562
0.646341
0.479283
0.0833749
-0.92939
0.846015
-0.174404
0.252681
-0.0782774
-0.372553
-0.4859
0.0006154
0.0738903
-0.0745057
0.0663651
-0.103945
0.0375804
-0.0685439
0.0656906
0.0028533
1.05982
-1.04023
-0.0195954
0.0354124
0.0216385
-0.0570509
-0.957386
0.335823
0.621564
-0.10312
0.208117
0.296677
-0.266864
-0.0298124
0.0268265
0.0568608
-0.0836872
-0.443284
0.366394
0.07689
-0.0363492
-0.0225597
0.0257212
-0.00316151
-0.0471223
-0.910264
0.0791427
-0.066472
-0.0126707
0.375245
1.11954
-1.49479
-0.0583725
0.0403328
0.0180397
0.193559
0.296748
-0.490307
1.72501
-1.34976
0.0820087
-0.0156436
1.69348
-0.932228
-0.761254
-0.435588
1.60319
0.0267671
-0.0344671
-0.0573491
-0.0111948
-0.387149
0.0863506
-0.164448
0.107099
-0.665265
0.123775
0.54149
-0.129618
0.0519353
-0.156827
0.160549
-0.00372176
-0.250179
-0.0742643
0.324443
-0.277446
1.46904
-1.19159
0.0750053
0.218671
-0.293676
-0.0219443
-0.109933
0.116678
-0.0067454
0.470364
0.187846
-0.0924991
0.163852
-0.0713525
0.0905581
-0.0114154
-0.155808
0.179158
-0.02335
0.150551
0.0573037
-0.207854
0.0986235
-0.104109
0.00548529
1.29981
0.39367
-0.813918
-0.167158
0.263897
-0.98572
0.721823
0.585802
0.249485
-0.835287
-0.473733
-0.225143
0.698876
-1.87132
1.43574
-0.293844
0.879646
-0.298172
-0.101816
0.399988
-0.221007
-0.222278
-0.17514
0.176653
-0.00151282
0.172404
0.269041
-0.441445
-0.24913
0.718523
-0.00673485
-0.0174809
-1.54314
1.80703
0.156884
0.139793
-0.156248
-0.109456
0.265704
-0.264834
0.377908
-0.113074
-0.0707737
0.0794617
-0.00868807
-1.82058
-0.920483
0.0119191
0.908564
-0.0147998
-0.0435728
-1.19343
0.859803
0.333627
0.568507
-0.370676
-0.19783
-1.96672
0.0953933
1.09987
-0.942408
-0.767578
1.14061
-0.201894
1.05274
0.190587
-0.166564
-0.0240239
0.956755
-1.13423
1.54768
-1.54768
-0.00733451
-0.00216784
0.00950235
-0.189802
-0.052923
0.242725
0.103426
-0.0875004
-0.0159257
-0.457583
0.806581
-0.348997
-0.0473795
-0.200203
0.247582
-1.08106
0.0408263
0.373642
0.059289
-0.432931
0.12078
-0.906542
1.15603
0.0863555
0.1574
-0.243755
-0.0183153
-0.137492
-0.572845
0.354637
0.218208
-0.363201
-0.209644
0.125926
-1.03247
0.304302
-0.761885
0.924909
-0.841534
0.012484
0.130786
-0.14327
0.0990975
0.0568396
-0.155937
-1.22035
-0.119329
1.33968
-0.217798
0.380565
-0.162767
-0.520761
-0.393702
0.914463
-0.516975
-0.676455
0.158549
-0.0835434
-0.141516
0.136237
0.00527906
-0.0808542
-0.0245568
0.105411
-0.559211
-0.16452
0.0863775
-0.0227232
-0.0636543
-0.857152
-0.516324
1.37348
1.44717
0.0218679
-0.0189108
0.0115763
0.00624955
0.150635
-0.216175
0.409734
-0.0417157
0.271839
-0.230123
0.152146
0.0746316
-0.226778
-0.00233978
0.281956
-0.279616
-0.59231
-0.533314
-1.40546
0.548306
-0.0711104
0.157466
-0.0879186
0.16544
-0.0775218
-0.176744
0.0224793
0.11433
-0.0549932
0.0566841
-0.0016909
-0.0837344
-0.0167531
0.100487
0.0693789
-0.0693789
-0.17125
0.19373
0.205306
0.176955
0.0941446
0.0850131
-1.12884
0.879709
-1.5507
0.041806
1.5089
-0.000158707
-0.00331607
0.00347478
-0.0292075
-0.0564983
0.0857058
0.491847
-0.00998678
-0.481861
0.0159126
-0.016709
0.000796417
-0.183657
0.0124072
0.17228
0.634301
-0.341369
0.513649
-0.0985935
-1.12176
-0.19425
0.130649
0.453308
-0.276771
-0.176537
0.109055
-0.106015
-0.00304011
0.0460967
-0.296276
0.0223759
-0.942859
0.0467232
-0.134642
-0.259368
-0.372436
0.0980884
1.46615
-0.997309
-0.468838
1.13487
0.331277
0.0637929
0.26065
-0.00445569
0.00429698
0.0939536
0.0183703
-0.112324
-0.242625
-0.608877
0.851503
-0.327254
0.584202
0.316655
-0.802555
0.174741
0.0163901
-0.0169803
0.000590181
-0.837939
-0.235104
1.07304
0.291303
-1.12924
-0.327074
0.700717
-0.907014
-0.0125547
0.00609533
-0.289343
0.283248
1.51667
-1.65819
0.141521
-0.104494
-0.0897561
0.590972
-0.833597
0.385485
-0.363777
-0.0217075
-0.311387
-0.135197
0.446585
0.191131
-1.00988
-0.0711734
-0.0153474
-0.0591583
-0.601239
0.376097
-0.267662
0.0200349
0.247627
0.121007
-0.2255
-0.0830446
0.0830446
-0.133256
0.146814
-0.0135579
-0.220094
-1.33061
-0.043045
-0.00123569
0.0442806
0.0585693
-0.147192
0.0886224
-0.239229
0.064089
1.72942
-0.286468
-1.44295
-0.162519
0.415655
-0.253136
0.00194128
-0.00289094
0.000949666
-1.07181
0.551048
-0.201779
-0.00509108
0.20687
-0.1508
0.323204
-0.112759
0.110926
0.00183298
0.0836822
0.0153732
-0.0990554
-0.0217276
-0.0107774
0.032505
0.867668
0.286954
-1.15462
-0.205788
-0.0467842
0.252573
-0.671555
0.662785
0.00877013
-0.00820306
0.0298416
0.00795823
-0.00822659
0.000268361
-0.020026
-0.0370249
0.545514
0.901659
0.166836
-0.905236
0.7384
-0.194194
1.97116
-1.77696
0.351492
-0.0910536
1.63873
0.0829974
0.222882
-0.0707352
-0.0786449
-0.031288
0.212781
0.17657
-0.0774723
0.732488
-0.396666
0.0571822
0.185543
0.0657997
-0.186276
0.120476
-0.71029
-0.12182
0.832109
0.052533
-0.052533
-0.053988
-0.287875
0.584623
0.0098626
-0.215651
0.240284
0.0123976
0.0413446
-0.112455
0.151154
-0.162077
-0.348045
0.300665
0.0129109
0.036746
-0.0496569
0.360776
-0.32698
-0.271817
0.78521
-0.513393
-0.191136
0.254929
0.177322
-0.454093
-0.196714
0.569631
0.151327
-0.0301736
0.0301736
0.150227
0.134883
-0.28511
0.350289
0.0302761
0.00389556
-0.00712431
0.00322875
-0.136277
0.112217
-0.0258393
-0.0528274
0.203981
-0.197272
0.262847
-0.0655749
0.147848
0.0287214
-0.37281
0.105946
0.212287
-0.0644388
-0.0505671
-0.0621917
0.0168939
-0.00327546
-0.0136185
0.135271
-0.0962299
-0.0390414
-0.0460604
0.427696
-0.381636
0.015345
-0.0220798
0.115378
-0.120131
0.00475361
0.0256092
0.294624
-0.566441
-0.0458952
0.0349379
0.0109573
-0.0281497
0.0822723
-0.0541226
-0.104534
0.0956591
-0.719904
0.624245
-0.0162779
-1.24791
-0.357439
1.60535
0.392207
0.615714
-1.00792
0.0752735
0.0870517
0.194904
0.305031
0.26485
-0.569882
-0.215276
0.281076
0.124389
-0.842617
0.718228
-0.0706524
0.0425027
-0.0346642
0.0193168
-0.972212
0.439687
0.532524
0.997309
-0.871382
-1.47856
1.35923
-1.51667
1.55847
0.0338651
-0.105218
-0.00228676
0.010245
-0.000586993
0.745077
-0.620688
0.10761
-0.0608865
0.406928
0.73368
-0.113106
-1.53407
1.33988
-0.638331
-0.490508
-0.245401
-0.419864
-0.0191222
-0.152593
0.198689
-0.565283
-0.340049
0.17753
0.723495
-0.231647
-0.782861
-0.695701
0.757808
-0.0542777
-0.0163747
0.252887
0.0335492
-0.0335492
0.66815
0.151621
-0.819771
-0.227853
0.896002
-0.0184311
-0.510257
0.528688
0.197792
-0.020837
0.00289617
0.0113884
-0.0142846
-0.98572
-1.34159
1.36346
0.845234
0.884185
-0.0325733
-0.124253
-0.239471
0.709835
-0.215275
-0.0523865
-0.00235147
-0.0684222
-0.0624462
0.119286
0.396575
-0.2728
-0.736925
-0.310894
-0.0205912
0.0714361
-0.0508449
-1.25502
1.16396
-0.0380654
-0.00977854
0.0478439
0.0143872
-0.0188429
0.0619917
-0.0628601
0.000868356
0.011923
0.388065
0.0641263
0.0449285
0.00713163
0.0172178
-0.0243494
-0.0177754
-0.184004
-0.759221
0.397403
0.361819
1.1614
-2.19819
1.03679
0.150426
-0.173645
0.0232197
0.019596
0.138953
-0.560799
-0.986877
0.0204254
0.0415663
-0.137326
0.0537822
0.156171
-0.372346
-2.09454
0.528293
1.56625
0.0494382
0.0849795
0.0502918
-0.71029
1.05315
-0.18548
-0.0241592
-0.0387009
0.0475723
-0.642822
-0.0287333
0.0658308
0.146456
-0.784855
0.0061295
-0.447575
0.11184
0.374944
-0.315655
-0.0983202
0.0145859
0.216506
0.847659
-1.06417
0.108244
-0.691284
0.58304
-0.875863
0.754043
-0.544029
-0.151545
0.695574
0.00297452
-0.00388259
0.000908069
0.190775
-0.502163
0.231188
-0.134672
-0.0965157
0.0517345
0.0305378
-0.0683518
0.0477607
-0.0305116
0.0138068
-0.0338328
0.0187482
0.100546
-0.119294
0.373776
0.00620238
-0.00622785
2.54678e-05
-0.000113977
-0.0219658
0.862847
0.0460058
-0.135762
-0.0701776
-1.27142
0.167523
0.0302695
0.00649511
0.0784844
-0.695574
0.986877
-0.00704044
-0.212254
0.219295
-0.274218
0.107655
0.120861
-0.144885
-0.00102409
0.0804858
0.0165745
-2.04262
-0.0519184
-0.05961
0.0783582
0.743198
-0.263914
-0.137922
0.196491
0.371802
-0.00775771
0.0116533
-0.00740571
0.0767846
0.137243
0.240665
0.15901
-0.358682
0.199673
0.0956897
0.538611
-0.0187318
-0.110886
0.841407
-0.2098
-0.631607
-0.544029
-0.41116
1.57256
1.72501
-0.15741
0.112269
0.0451416
0.410085
-0.0811909
-0.328894
-0.789824
-1.17689
-0.0859169
0.0876373
-0.00172044
-0.245713
0.0834029
0.16231
0.327314
-0.820488
0.493174
0.0371819
0.67174
-0.708922
-0.0411369
-0.100379
-0.0519387
0.00604345
0.157239
-0.0070121
0.00529836
-0.00232384
0.235553
-0.0807755
-0.154777
0.0887158
0.00523776
0.0091082
0.005279
0.0222077
0.108578
-0.00882703
0.000600445
0.21118
-0.411383
-0.00512829
0.620843
-0.0265387
-0.0259942
-0.990056
-0.0198257
-0.0499816
-0.0639448
-0.0343754
0.120658
0.264827
-0.0863929
-0.415726
0.502119
0.109401
0.0581215
-0.936556
-0.00585219
-0.00406946
-0.64991
0.745569
-0.0156097
0.166936
0.401877
-0.912135
0.191879
-0.415782
0.223903
0.111717
0.160121
0.00511308
-0.00593995
0.000826865
-0.0379821
0.0162545
-0.018058
-0.119434
0.726552
-0.618308
-0.009436
-0.0110332
0.0506504
0.335997
-0.176988
-0.119364
0.793815
-0.160749
-0.633066
-0.131549
0.151584
-0.515872
-0.243349
-0.538316
0.559636
-0.548363
-0.0112732
-0.036274
0.026838
-1.53407
0.581908
-0.581908
-1.57857
1.57857
0.745077
-0.254475
0.534098
-0.279623
-0.900187
-0.0898695
0.678721
-0.394709
-0.284012
0.138153
-0.215675
-0.0130342
-0.00587658
-0.939236
-0.0932325
-0.933219
0.213315
0.0383705
0.0330656
0.696014
-0.0904049
-0.605609
1.54613
0.178885
-0.0043104
0.00942348
-0.956151
0.809428
-0.024218
-0.0959817
-0.646759
0.742741
0.0817051
-0.918568
-0.739619
0.224689
-0.816999
-0.832109
1.23234
-0.400232
-0.134919
0.26316
-0.128241
-0.0445306
0.740544
-0.115363
-0.899565
0.899565
-0.971183
0.130499
0.840685
0.00166018
0.0045422
-0.0404371
-0.462546
0.936161
-0.0763584
-0.0962465
-0.0311977
-0.0137324
-0.00139433
0.0033356
1.13437
-1.28592
-0.369604
0.453286
-0.687189
1.09173
-0.404543
-0.0628887
0.0833142
0.136039
-0.0614075
0.332777
-0.000613129
0.0272428
0.363411
0.0642856
0.0464413
-0.268677
0.222236
0.128922
0.0316265
0.106832
0.196867
1.2563
0.550734
-0.605336
0.332842
0.272493
-0.494836
0.259732
0.285168
-0.178068
0.072035
-0.764904
0.692869
-0.859811
0.0989676
-0.447012
-0.0747363
0.120056
-0.0453197
0.107529
-0.182265
-0.481997
-0.119243
-0.0807151
0.0842967
-0.00358151
-0.00273257
-0.00609446
0.0209685
-0.0323839
0.620688
-0.58304
-0.0376478
-0.272573
0.282436
0.884841
0.695043
-0.284959
0.0214616
-0.0226973
-0.0429047
-0.320872
0.148762
-0.540209
0.391447
-0.00619687
0.000256926
0.0317945
-0.249369
0.217575
0.00847876
-0.0154142
0.00693545
-0.0294314
0.0210141
0.00841729
-0.240673
-0.893553
-0.0911919
-1.15672
-0.217146
-0.871382
1.55847
1.35923
-0.177162
-0.160795
0.11401
-0.0707388
0.0771367
-0.00639794
-0.438407
0.421787
0.0166208
0.590798
0.087923
-0.00339515
-0.00280173
0.132441
-0.877164
0.0311977
-0.0637371
0.00412709
-0.470286
0.427381
-0.0319072
0.0732519
-0.23685
0.597626
1.13487
0.244291
-0.0548082
0.000711184
0.054097
1.66977
-0.310534
-0.055241
-0.0488679
-1.03644
0.165055
0.420495
-0.229364
-0.494079
-0.152002
0.646081
0.859994
-0.390704
-0.46929
-0.375141
0.288748
-1.33988
0.354158
-0.00470726
-0.0488952
0.0536025
0.504733
1.46642
-0.164795
0.167691
-0.144733
2.09787
-0.539397
-0.664299
0.0345837
0.629715
0.412842
0.0201403
-0.36668
0.484024
0.756921
0.126006
0.0696835
-0.0193917
-1.46502
0.284211
1.18081
1.34997
0.0648209
-0.0576893
-0.0568346
-0.379106
0.126415
-0.341691
0.317808
0.476007
0.00800992
-0.044284
0.10863
-0.266041
-0.0225179
0.0143149
0.103057
-0.137713
0.0346554
-0.277445
0.28767
-0.0102248
0.0749987
-0.235748
-0.38395
0.226444
0.157506
-0.0523761
-0.058114
0.11049
0.297577
0.0384203
0.744384
0.308763
-0.682363
0.682363
0.721823
1.54613
-0.691284
0.298263
0.458659
-0.293076
0.00796591
0.9895
-0.398702
0.0135753
-0.892566
0.878991
0.109265
0.0112422
0.0247219
0.391726
0.352658
-0.00542965
-0.164413
-0.105537
0.26995
0.177794
-0.47656
0.312147
-1.15232
-0.30956
-0.668788
0.045149
-0.0058609
-0.000366944
-0.232267
-0.0476289
-0.00321604
0.0300229
-0.164841
0.134818
-0.483322
-0.487861
-0.00515216
0.0620129
-0.158193
-0.713088
0.871281
-0.527909
0.351372
-0.158404
0.19515
0.21743
-0.00345258
-0.0312117
-1.14405
0.857583
0.03823
0.0771475
-0.00928919
0.0599396
0.223033
0.0081547
-0.45453
0.512243
0.563798
0.724568
0.864395
-0.79236
0.846905
-0.475103
-0.656661
0.194115
0.162379
-0.7997
0.784778
0.0149222
0.596828
-0.27902
-0.222175
-0.147429
-0.0823853
-0.00511515
0.94772
-0.838617
-0.109103
-0.205505
0.128033
0.0250204
0.111217
0.876546
0.232055
0.0624132
-0.294469
-0.307418
-0.0326319
-1.07632
0.91813
0.163362
1.17632
1.87618
-0.330057
0.15876
0.54715
-0.705909
-0.233962
0.0552708
-0.0143541
0.0109016
-0.53898
-0.117681
0.24032
-0.119313
-0.206756
0.153928
-0.496396
0.24326
-0.992756
0.0956906
-0.30249
-0.938745
1.52728
-0.0183838
-0.305437
-0.155596
-0.31469
0.69428
0.327509
0.0359016
1.07945
-0.752139
-0.211559
0.147121
-0.241312
0.00789767
0.233414
-0.0177418
0.0130346
0.0541053
-0.0606093
-0.216836
-0.0978173
0.697961
-0.432944
-0.265017
0.278307
0.119024
-0.0863669
-0.0326571
0.249501
0.0780076
-0.148178
-0.859743
-0.104953
0.152525
-0.203018
0.435073
-0.061953
0.00783042
-0.0310003
0.00690539
0.024095
-0.0127642
0.00944815
-0.263208
0.076932
-0.0522325
-0.51881
0.383891
0.0336619
0.0819023
-0.134278
-0.699282
1.28763
-0.81162
0.0158547
-0.211786
0.195932
-0.150588
-0.518803
0.669392
0.0545898
-0.697412
-0.322739
-0.0612106
0.035671
0.00258514
-0.0382562
-0.236598
-0.559636
-0.150654
-0.115539
-1.46502
-0.252598
0.181863
0.127485
-1.18909
-0.36772
0.12343
0.24429
0.244752
0.0989217
0.506802
0.337879
-0.844681
-0.0606772
0.00639953
0.679313
-0.72821
0.0488968
-0.210129
-0.163332
0.423064
-0.263104
0.197529
0.0676774
-0.231009
0.565538
-0.210901
0.0109235
-0.0115105
-0.0155003
1.09573
-0.371164
0.774181
0.0858137
-1.8481
-0.194515
0.272863
0.716636
0.852641
-0.0112343
-0.0209526
-1.87618
-0.668788
-0.711818
0.723738
0.0726131
-0.782861
0.67174
0.575963
-0.928487
1.07579
0.00364861
-0.803349
-0.316814
0.640332
-0.755445
0.115113
0.0725878
0.0464362
-0.809073
-0.544428
2.13336
-1.58893
-0.00149044
-0.00437046
-0.28589
0.233504
0.694922
0.20372
-0.191313
-0.1682
1.12449
-1.64081
0.302902
-0.582525
0.870591
-0.679624
-0.190966
-1.49923
1.78344
0.504646
-1.21773
0.115716
0.636383
-1.18081
0.00462428
0.229439
0.00207758
0.00763807
-0.0576197
0.0126343
-0.0279674
0.0153331
-1.03144
-0.032728
0.299544
-0.806748
-0.0635691
0.586834
-0.523264
0.399647
0.692085
-0.0427882
0.0455934
-0.00280522
-0.037795
1.16228
-0.720862
1.25619
0.785077
-0.848646
0.340249
-0.110811
-0.583297
-0.409459
0.627089
0.243501
-0.0488191
-0.888918
-1.86522
0.0882515
0.636383
0.0524198
-0.859167
0.831029
-0.646909
-0.18412
-0.98191
0.398613
0.00771387
0.107491
0.00168095
-0.109172
-0.971464
0.562005
-0.195114
0.913973
-0.919825
0.207607
-0.225383
-0.103629
0.259799
0.191657
0.613449
-0.113001
-1.10531
0.472247
0.0274555
0.0985509
-0.552546
-0.518521
1.07107
0.447454
0.0210726
-0.00968426
-0.74165
0.708922
0.213968
-0.251763
-1.63873
1.8062
-0.167465
-0.0574835
0.644317
0.767177
-0.803526
-0.493649
-0.44921
-0.471895
-0.499569
0.804393
-0.804393
0.68923
-0.68923
-0.74165
-1.90159
1.90159
-1.8062
-0.830678
-0.060923
-0.0619225
-0.545196
0.545196
0.213968
-0.251763
0.767177
0.7627
-0.7627
0.803526
0.757804
-0.757804
0.506351
0.528105
0.481479
-0.331228
-0.500431
-0.55079
1.07889
0.0635352
-0.408502
1.03559
1.083
-0.578354
-0.38462
-0.0266329
0.0726387
-0.883173
0.0841313
0.799041
0.00570625
-0.0248284
-0.991931
0.595266
0.85662
-0.558358
-0.121215
-0.000407804
0.00370936
-0.830172
-0.0750643
-0.532524
-0.0111584
0.0304751
0.095133
0.0182855
-0.0569863
0.189914
-0.00322542
-0.0084904
0.0117158
-0.8137
0.0689567
0.744743
-0.730276
0.921933
-0.521208
0.434692
0.0865155
0.914699
-0.747963
-0.166736
0.0873672
0.322367
-0.0147515
-0.0659636
-0.0732408
-0.0126761
-0.270811
-0.984204
-0.884783
0.0925556
-0.751311
0.793771
-0.0424607
0.118814
-0.900492
0.781678
-0.805013
0.900533
-0.0955198
-0.00676636
-0.00599786
0.0210503
-0.310394
0.924761
-0.68126
-0.0868261
-0.796347
0.914115
-0.088023
-0.826092
-0.092164
0.0292753
0.352724
0.827873
-0.0653703
0.500721
-0.412798
0.0944766
-0.890823
1.34976
0.22881
-0.796303
-0.00704589
1.016
-0.89719
1.04307
0.943995
-1.51502
0.571026
-0.887046
-0.104885
-0.439841
0.058205
-0.0172299
0.519349
-0.782526
0.782526
-0.641172
-0.0796047
-0.862991
0.115028
-1.02336
0.92738
0.0824539
-0.217126
-0.0525722
0.0441068
0.0125773
0.183537
0.832467
0.820928
0.775795
0.133622
-0.909417
-1.32067
0.74232
-0.786021
-0.0973165
0.883337
0.155909
-0.876771
-0.679455
0.884491
-0.790014
-0.0988975
0.461694
0.00532705
-0.467021
-0.648472
1.64285
-0.994374
0.0765366
0.0477501
-0.124287
-0.884918
-0.827542
0.0762316
0.564496
0.282409
-1.43409
0.447261
-0.609963
0.609963
-0.722014
-0.383299
0.67759
-0.324932
-0.0279347
0.254378
0.787174
-0.184143
0.0510834
-0.944636
1.61591
-1.35904
-0.256872
-0.6176
-1.58059
0.131609
-0.376679
0.780052
-0.965532
0.274028
0.328083
-0.240716
0.783639
-0.879159
1.37132
-0.628999
-0.137169
0.732435
0.607298
-0.607298
-0.0213932
0.00255028
0.124078
-0.0940548
1.10069
0.542156
0.218243
0.00102292
0.00784396
-0.00886688
-0.681842
0.690636
-0.00879356
-0.329488
-1.18553
0.101279
-0.891293
-1.10314
1.30142
-0.198277
-0.0399908
0.871305
-1.85768
1.52819
-0.757671
0.617818
-0.646551
-0.690096
0.174224
0.430377
0.025383
0.174907
-0.824479
1.25486
-0.00266417
-0.646707
0.0558766
0.737895
0.683221
-0.0654031
0.0654197
0.797428
-0.733149
0.468175
0.264975
-0.396908
0.472985
-0.0805168
-0.887637
0.675193
0.212444
-0.684583
-0.132416
0.915576
-0.137739
0.130727
-0.0285009
0.485766
0.514234
-0.772436
-0.106724
-0.772512
-1.21244
-0.979111
-0.18206
0.400663
0.599337
-0.00749246
-0.0144734
-0.860459
-0.0460795
-0.600472
-0.154097
-0.225736
0.379833
0.0142372
0.00233722
0.124738
0.0792437
-0.128248
-0.13496
0.76642
-0.654417
0.719837
0.297196
-1.12168
0.435953
-0.0723646
-0.363588
-0.74302
-0.17848
0.921499
-0.22371
0.211764
-0.0262208
-0.120689
-0.104811
-0.00578549
0.752939
-0.142977
0.0999498
0.11748
-0.733701
0.0518592
1.12485
0.608149
0.589832
-1.10322
0.455121
-0.275562
1.00924
0.00112461
0.148173
-0.292906
0.00140604
-0.0346398
0.0219957
0.507468
0.617382
0.390604
-0.0491719
-0.341432
0.842652
-0.0333728
0.00471741
0.0286554
0.140592
0.0046264
0.000671961
0.204231
-0.101173
0.751472
-0.779407
-0.0207897
0.411393
0.00295234
0.262091
-0.121536
-1.16617
1.39375
-0.227579
-0.777183
0.82152
-0.0443372
-0.986322
0.125006
0.440532
-0.09219
1.60816
-0.474368
-0.0468403
0.266222
0.428851
0.169896
-0.598747
0.368262
0.020841
0.669795
-0.571145
0.584793
-0.013648
1.10061
-0.406326
-0.032845
0.0347253
-0.00188029
0.705483
-0.0102259
-0.0818439
0.017329
1.09625
-0.0199366
-0.966385
0.0837223
0.125566
-0.18368
0.2307
-0.137099
-0.0936009
0.0169531
-0.00431873
-0.524146
-0.204064
-0.0638933
0.201538
-0.0237024
-0.0676965
0.244898
0.0887805
0.00286512
0.0222882
0.76136
0.82576
0.300286
-1.12605
-0.00651577
0.407613
-0.401098
0.643041
0.116704
-0.0341628
-0.0828197
0.116982
-0.129841
0.156171
-1.51521
-0.0190018
0.776809
0.735736
0.729441
-1.15787
0.348798
0.79895
0.0127078
-0.132072
-0.923821
0.129547
-0.272492
-0.568039
-0.167318
0.703302
0.058058
0.014945
0.971938
-0.846932
0.0596615
0.171032
0.00306453
-0.10701
0.421157
-0.0602991
-1.17456
-0.0595412
0.133197
-0.157546
0.15103
-0.139134
0.90176
-0.0128822
-0.108147
-0.00785515
0.000453732
0.00740142
-1.13731
0.730987
0.00419358
0.987884
-0.223672
-0.627475
0.668891
-0.0414155
0.22886
0.755161
-0.422161
0.058573
0.0857048
-0.189333
0.64613
0.10903
1.34436
-0.180397
-0.287845
0.788566
-0.444353
1.06174
-0.574374
0.353395
0.220979
-0.0107679
-0.0706866
0.0392783
0.0759892
-0.0523874
1.28143
0.73484
0.0641095
0.646477
0.205026
-0.885966
-0.0835267
-0.687271
0.680225
-0.0318594
-0.546041
0.391944
0.849953
0.666971
0.0142299
0.127214
-0.120979
-0.326033
0.523864
0.763763
0.0661814
0.0223908
0.906932
0.154804
0.458043
0.915433
-0.0861857
0.965505
-0.719779
0.91445
-0.194671
-0.415203
-0.159171
-0.0358851
-0.101965
-0.115256
0.900472
0.0194109
-0.00219318
0.625264
-0.297283
-0.805941
0.620892
-0.13033
0.208853
0.80089
0.271771
-1.07266
0.276248
-0.923157
0.300907
-1.11253
-0.156316
0.741318
-0.585001
-0.68436
-0.0258522
-0.0948369
-0.0578582
-0.855195
-0.00230144
-0.0286989
1.06618
0.262711
-0.185831
-0.0768795
-0.0347308
-0.565283
-0.124789
0.272962
-1.61197
-0.00744608
0.00422066
-0.900204
-0.0566668
-0.612265
0.0411197
0.568106
0.281847
0.965069
0.64028
-0.217997
-0.39232
0.610317
0.0958189
-0.620273
0.620273
-0.224408
-0.988408
1.21282
0.0330645
-0.164613
0.662171
-0.094065
-0.215762
0.247137
-0.116411
0.193455
0.0955839
-0.715112
0.197686
-0.0995981
-0.81455
0.4816
0.103193
0.0854291
-0.00342035
-1.91064
-1.60815
-0.516729
0.692767
0.307233
-1.60815
0.692767
-0.599805
-0.604015
-0.599805
-0.696458
0.696458
0.303542
-0.0130368
-0.0449119
-0.0812405
0.252784
0.118116
-0.51002
0.633892
-0.0129995
0.6332
-0.505855
-0.127345
-0.0403581
0.0339952
0.00636291
-0.0173601
0.018383
-0.599917
0.0171113
-0.0738786
-0.434514
-0.382572
0.150305
0.0325659
0.812979
-0.265829
-0.534342
0.219652
-0.0226884
-0.129041
0.00251013
0.69839
0.0784198
-0.470622
-0.0258006
0.00145124
-0.0177995
0.0824718
0.541156
-0.482282
-0.0588745
1.8833
0.568488
-0.724169
0.964143
0.0125578
-0.0690561
0.117474
0.0733282
0.00295326
1.20495
-0.404063
0.00127053
0.0438785
0.151535
-1.29221
0.0167993
-0.0167993
0.0246793
-0.0246793
0.00178394
-0.00178394
-0.0265387
0.367076
0.467418
0.111387
-0.670715
0.439067
0.175792
0.0284385
-0.0883613
-0.479903
0.601805
0.114424
-0.799007
-0.67563
-0.236504
-0.0317776
0.02363
-0.00261593
0.0165241
-0.0165241
0.218506
0.013939
-0.013939
0.700051
0.115843
-0.0233016
-0.00249907
0.0059438
-0.060752
-0.0195823
0.0195823
0.0025565
-0.0025565
-0.0248659
0.0248659
0.0100876
-0.0100876
0.0160664
-0.304564
-0.073299
0.216548
0.00885764
-0.00885764
-0.381985
0.488168
-0.106183
0.46658
-0.20342
-0.417878
-0.116465
0.55484
0.0902542
0.0937788
0.575112
0.563959
0.00480595
-0.00480595
-0.0300905
0.0280762
-0.0280762
0.00793959
-0.00793959
0.792168
-1.30937
0.0362634
-0.61761
0.368241
-0.00259354
0.00259354
-0.00277842
0.00277842
0.0201341
-0.0201341
0.0197618
-0.0197618
-0.0260595
0.0260595
0.03863
-0.03863
0.508
-0.0350792
0.0350792
0.00192157
-0.00192157
0.0265321
-0.0265321
0.00122643
-0.00122643
-0.00560236
0.00560236
-0.162951
-0.0297966
0.0297966
-0.226029
0.0323209
-0.0433836
0.0433836
-0.0014948
0.0014948
0.00320817
-0.00320817
0.0369122
-0.0369122
0.0231942
-0.0231942
-0.00304727
0.00304727
-0.000679185
0.000679185
0.591913
0.217047
0.00209524
-0.00209524
0.00101351
-0.00101351
-0.0418863
0.0418863
-0.0254949
0.0254949
0.00104644
-0.00104644
-0.442108
0.714972
0.254042
-0.0351409
0.0351409
0.0188615
0.00305581
-0.00305581
1.52691e-05
-1.52694e-05
0.0339086
-0.0339086
-0.0411998
-0.0908723
0.000398674
-0.000398674
-0.0188865
0.0188865
-0.458785
0.039601
-0.029494
-0.0284233
0.0284233
-0.426416
0.0288212
0.0167722
-0.195834
-1.65227
-0.0404162
0.0404162
-0.220532
0.160233
-0.0377524
-0.000934394
0.000934394
-0.0260342
0.0636146
0.268948
-0.321002
-0.24859
0.569592
0.162135
0.000303234
-0.000303234
-0.0229684
-0.0332823
0.0562506
0.731661
-0.360207
-0.371453
-0.496788
-0.65567
-0.219058
0.438711
-0.101471
-0.295437
-0.577226
-0.027391
0.191451
-1.56713
0.0205522
-0.0205522
-0.00146827
0.00146827
0.0339134
-0.0339134
0.0239225
-0.0239225
-0.00110331
0.00110331
-0.0017252
0.0017252
-0.135519
-0.235158
0.149723
-0.270938
0.00116315
-0.00116315
-0.0410338
0.0410338
-0.044349
0.044349
-0.00229097
0.191298
-0.189007
0.0280972
0.283913
-0.507586
-0.00113603
0.00113603
-0.0208265
0.0208265
-0.114984
0.126006
-0.345064
-0.00255206
0.00255206
0.0180316
0.0145264
0.865788
-0.491759
-0.103526
0.595285
-0.609627
0.314707
-0.331937
-0.0352815
0.0352815
-0.668168
0.259823
0.0545642
-0.0545642
-0.695251
0.411239
0.243057
0.107803
-0.00111689
0.00111689
-0.900863
-0.000749946
0.000749946
0.333679
0.406865
0.071829
-0.0589994
0.0589994
-0.00310867
0.00310867
-0.0465985
0.0465985
-0.0492319
0.0492319
-0.000775418
0.000775418
-0.054511
0.054511
-0.00102381
0.00102381
-0.0502401
0.0502401
-0.0126488
-0.0414742
0.0414742
0.00507605
-0.00507605
0.0530404
-0.0530404
-0.00167031
0.00167031
0.0433142
-0.0433142
-0.275162
-0.0035856
0.0035856
-0.00551842
0.00551842
-0.0374882
0.0767846
-0.0124539
0.0124539
0.00490167
-0.00490167
-0.0654525
0.0654525
0.317384
-0.0208712
0.0208712
-0.0530823
0.0530823
-0.0072849
0.0072849
-0.0740784
0.0740784
-0.0126036
0.0126036
-0.0885397
0.0885397
-0.0242713
0.0242713
-0.0877376
0.0877376
-0.710559
0.117838
-0.554143
0.512727
-0.918568
-0.471961
-0.527247
0.359929
0.292665
-0.0143579
0.00380139
-0.00380139
0.244088
-0.681209
0.0536744
-0.0570947
-1.34119
1.52008
1.41232
0.240844
0.0369416
0.0158653
-0.367399
-0.606743
-0.138974
0.395647
-1.3547
-0.0306149
0.0306149
-0.705966
0.0132683
-0.0132683
-0.000865475
0.000865475
0.346458
-0.290932
-0.00290821
0.00290821
0.0172504
0.0129233
0.600857
-0.327312
-0.0126427
-0.0127915
-0.00816106
-0.117496
0.525198
-0.407702
0.177793
-0.0461842
-0.00413492
1.19547
0.0260415
0.0317675
-0.413382
0.471587
-0.516908
-0.897152
-0.224608
-0.0822761
0.0198299
-0.0142057
0.0619559
-0.0487174
-0.0100627
0.00133698
0.814156
-0.521083
-0.0529139
0.0559784
-0.0426596
-0.0243245
-0.0205873
0.407659
0.255126
-0.16215
0.20085
0.0194976
-0.00412443
-0.882532
0.0114238
-0.226482
0.0406501
-0.016777
-1.19388
-0.0734113
0.276566
-0.357775
0.42206
0.159226
-1.09797
0.0414952
0.112577
-0.0833022
-0.363315
0.449831
-0.0539128
0.111388
-0.0574749
-0.0301136
0.0301136
0.185891
-0.47085
-0.182122
0.0349306
-0.0941206
0.0622612
-0.055349
-0.00256161
0.0579106
-0.0364347
-0.164738
0.123275
0.10289
-0.28005
-0.326491
0.606542
0.0194513
0.0681861
0.147129
-0.0471795
-0.217052
0.0816096
-0.17281
0.335189
0.000171371
0.028484
-0.00938813
0.156517
0.0031471
0.280101
0.0010426
-0.0010426
-0.347733
0.805776
0.105029
-0.188556
-0.0275245
0.10923
1.41644
0.111756
0.0995399
-0.0164953
-0.538705
-0.015438
-0.083021
0.113812
-0.728623
0.329921
-0.0564032
0.349774
-0.629825
0.192541
0.482652
-0.0987737
0.0987737
0.00168095
-1.03976
0.0880177
0.951738
-0.231828
0.17397
-0.157323
0.047488
-0.283236
-0.00126544
-0.0333905
0.0311038
0.929081
0.196734
-0.182505
-0.0715952
-0.317915
-0.530732
-0.0213476
-0.26289
0.746913
0.542253
-0.258339
-0.296745
0.558836
0.0475392
0.0647296
-0.264326
0.0123091
-0.449448
0.343266
0.116176
-0.116176
-0.0586647
-0.0814938
0.140158
-0.0100146
0.00534877
0.00690539
-0.13653
0.00668895
0.205203
-0.185126
-0.0200767
0.51553
-1.14368
-0.158372
-1.11305
0.677494
-0.0983672
-0.172571
-0.0171391
-0.0806782
-0.509697
0.075183
-0.310639
-0.00385135
-0.016777
0.410537
-0.00511736
0.00499211
-0.00122995
0.017347
-0.0118109
-0.00553615
-0.0924933
-0.019083
-0.181482
0.200565
-0.100664
-0.348785
0.0172504
0.351936
0.00127187
-0.402703
0.100212
0.00321031
0.232218
-0.120831
-0.0143034
0.0143034
-0.00208724
-0.000221918
-0.00841373
-0.00091805
0.0838631
0.000179503
-0.00119364
0.0934261
0.171401
-0.00283675
0.00283675
-0.00549046
0.489927
-0.000461259
-0.27877
0.586411
1.22868
-0.463979
0.305266
-0.441725
-0.114418
-0.067704
0.198716
-0.206514
0.0787135
-0.00806072
0.00227523
-0.00994425
-0.175875
-0.362671
0.801738
0.425078
-0.560597
0.017606
-0.00171787
-0.0208171
-0.0191737
-0.00027739
-0.00051655
-0.00754417
0.472327
0.00149735
-0.000875235
0.752789
-0.671179
-0.252398
0.251776
0.542113
-0.000998238
-0.000280512
-0.0377524
-0.00522917
0.817777
-0.432547
0.53574
-1.72917
0.90657
-0.786076
0.541496
-0.181568
0.731895
-0.0009232
0.00340013
0.0202299
-0.124393
0.136721
0.0245708
0.00700392
0.00399732
0.0746693
-0.0633131
-0.0113562
-0.000701908
-0.0927343
0.139383
-0.0466482
-0.0994828
0.00811588
-0.00027192
0.0022393
0.512281
-0.447985
0.0176183
-8.9595e-05
0.584475
-0.496457
0.361624
-0.00650284
-0.000533879
0.030867
-0.0947603
-0.0547331
-0.0831504
-0.00651991
-0.0039328
0.1453
0.0398613
-0.00353099
0.379347
-0.000186292
0.00253072
-0.00253072
9.50611e-05
-0.0128866
5.98363e-05
-0.322367
-0.00405407
0.079203
-0.107935
-0.0546088
0.293436
-0.0650365
-2.71157e-05
0.00193282
0.430667
-1.35781e-05
0.0029878
-0.0388729
-0.00224942
-3.83621e-06
0.0449246
0.173318
-0.709841
0.433001
-0.795672
0.187962
-0.000556604
0.0712291
0.212188
0.0618394
0.538849
-0.0139504
-0.149198
-0.00443523
-0.00152374
-0.559138
-0.00364165
-0.000248396
0.0269269
0.885739
-0.517478
-0.00280031
-0.000646497
-0.00645309
-0.00191529
0.0756044
-0.0203427
0.0203427
-0.0111309
0.010909
-0.00238323
-0.00862594
0.0432712
-0.0382791
-0.18231
0.111624
-0.00531871
-0.0144613
0.0323043
-0.0200149
0.0700177
-0.0501878
-0.624238
0.581778
0.00932178
-0.00110027
0.347024
-0.213827
-0.0593617
-0.640353
-0.0597987