/*--------------------------------*- C++ -*----------------------------------*\
| =========                 |                                                 |
| \\      /  F ield         | OpenFOAM: The Open Source CFD Toolbox           |
|  \\    /   O peration     | Version:  2306                                  |
|   \\  /    A nd           | Website:  www.openfoam.com                      |
|    \\/     M anipulation  |                                                 |
\*---------------------------------------------------------------------------*/
FoamFile
{
    version     2.0;
    format      ascii;
    arch        "LSB;label=32;scalar=64";
    class       volScalarField;
    location    "42.3";
    object      p;
}
// * * * * * * * * * * * * * * * * * * * * * * * * * * * * * * * * * * * * * //

dimensions      [0 2 -2 0 0 0 0];

internalField   nonuniform List<scalar> 
2186
(
0.821506
-0.484652
-0.131343
1.139
-0.89519
0.286659
0.680156
-1.09706
-1.02074
1.43289
1.25093
-1.20257
-1.0573
1.14015
-0.724154
1.16782
1.17767
-0.9809
0.0436273
-0.569586
1.55693
-0.550852
1.1524
-1.31357
1.14432
1.10939
1.37057
0.939127
0.835807
1.14202
-0.550549
1.14471
-0.500669
0.142927
-1.23455
0.378466
0.140398
1.54912
-0.366464
0.440718
-1.06127
-0.51984
-0.881397
-0.676774
1.11842
1.41368
0.301962
0.495967
-0.89946
-0.777071
-0.556314
1.11207
-0.844324
1.49386
-0.544223
0.997008
-0.950348
1.0285
-0.446872
0.866641
-0.0914933
0.88506
0.803535
0.483416
0.827121
0.433458
0.907222
1.44589
1.34398
-0.945813
-1.10751
-0.310652
1.40295
1.05782
1.35225
1.24116
-0.548203
1.17366
-1.25442
-0.445906
-0.932302
0.537925
1.13815
0.869007
1.12645
1.13849
1.46496
0.084358
0.464941
-1.25135
0.998127
-0.631156
1.01559
1.27744
1.15436
0.676742
-0.273202
0.846315
-0.869525
1.04514
-1.42337
-1.27873
0.89689
1.03261
1.17906
-0.541224
1.40231
-0.509921
0.981672
-1.38046
-0.436884
-0.802009
0.524543
1.49455
-1.10774
-0.943848
-0.366843
-1.0469
-1.25105
1.3996
0.243923
-0.745122
1.07601
-1.16001
1.17174
-0.434564
-0.864685
1.23062
-1.04634
0.657512
1.51759
1.34241
0.173224
0.647946
-1.07203
-0.719218
0.962685
-0.75014
-0.215662
-1.19485
1.02388
-0.321001
-1.1057
0.707383
0.99435
1.03606
-0.566764
-0.905812
0.608782
-0.611812
-0.777171
0.567524
1.17655
1.27659
1.11164
0.510277
1.4659
0.71704
0.631392
0.38816
-1.20473
-1.17072
1.16044
1.04686
0.0985139
-0.0318695
-1.19003
-1.23388
0.306878
-0.0350748
0.623404
1.05126
1.17891
1.18939
0.677892
0.0260558
-0.926493
1.16431
-1.12212
1.08646
-1.19659
1.16063
-0.576432
0.794783
0.773145
-0.934318
-0.926546
1.3335
-0.183305
-1.01265
-0.978974
1.4173
-1.14241
1.04113
-1.20897
-1.45152
0.342488
1.34453
1.27675
-0.546889
-1.18702
-1.09409
0.000745759
1.16811
-1.22196
-0.834128
-1.27378
-0.869281
1.13757
-0.534731
0.504083
0.372279
1.48251
1.05127
1.13799
1.00061
1.37888
1.14966
0.937344
1.3048
0.373121
-0.920678
-0.555551
0.371421
0.123753
-0.934684
-0.879972
1.24887
1.24202
-1.34631
-1.13116
-2.0949
0.330936
0.656858
0.832468
0.938621
1.20203
-1.44322
0.926239
-1.16391
-0.831037
-0.936037
1.21314
0.961008
1.35108
1.3199
1.31566
1.29527
-1.14701
0.854816
1.29921
-1.10772
1.20093
1.00457
-2.07783
-1.24781
-1.31037
1.35186
1.18505
-1.03331
-0.341002
-0.133156
1.00701
-1.1756
0.987372
1.27759
0.938312
-1.25729
-0.571479
1.10969
0.88117
-0.360972
-0.163695
1.51526
-0.827842
-1.12959
0.918649
1.2805
1.12693
-0.899201
-0.384633
-0.765162
1.13319
-1.08379
0.531425
1.10815
1.09313
-0.302373
-0.325085
1.15475
-1.28971
0.982301
1.29242
1.1792
1.17594
-0.382776
-0.670286
-1.33212
-0.188567
-1.4445
-1.1741
0.34029
-0.704757
0.848191
1.26536
1.39908
1.13925
-0.673203
1.32445
-1.26585
0.486789
-1.1445
-1.21148
-0.987789
0.311573
-0.772431
-0.690491
0.422371
1.13989
0.166527
0.632399
-0.747271
0.155197
-0.966957
-0.816283
1.37497
0.249473
-0.939485
-0.614547
0.812953
0.820913
-0.0804755
0.534448
-0.781337
-1.01031
0.897481
1.16953
1.2831
-1.44816
1.30735
0.931276
0.635416
1.35532
1.16638
1.05054
0.363229
-0.247132
-1.18494
1.09767
-0.648938
-1.31415
-1.21709
-0.915092
-1.26156
1.5364
-0.23627
-0.567864
-1.132
1.16515
-0.932067
-1.6212
-0.603916
0.779754
-0.137289
-1.12845
1.43006
1.48348
1.21285
-1.09707
-0.948823
1.54937
1.16651
-0.993666
0.711832
-1.15702
0.100395
1.3639
1.20321
0.953392
1.43113
-0.588466
-0.139449
0.133754
0.23081
-1.13042
-0.527979
0.496934
1.48869
-0.930308
-0.743621
1.1609
0.575387
-1.24044
-1.52067
-1.17625
-0.866369
-1.14096
-1.21968
-0.497657
-0.847008
1.31894
0.0718245
-0.926712
1.16338
-1.23187
1.37776
-1.12149
-1.82805
-0.542691
1.14427
-1.19519
1.18305
0.883238
-0.656165
1.13085
-0.693745
-1.23287
-1.17392
1.07842
1.05523
-1.24657
-1.16165
-1.12726
1.20301
-1.17639
-0.19936
0.756295
1.15779
0.971023
0.749708
-1.22339
-0.37544
1.0539
-0.212591
0.872018
-0.311133
1.16995
0.244422
1.22157
-1.24875
0.88918
0.952254
1.19067
-1.24417
1.17026
0.347677
-1.23464
1.14769
-1.967
0.427168
-0.928808
0.177848
1.16832
0.102082
0.243044
1.17872
0.504467
-0.113642
-0.15784
-0.564291
0.238593
-1.03808
0.950714
-0.339302
1.28182
1.22284
-1.15088
-1.21431
-0.414154
-0.538326
0.694224
-0.959892
1.06256
-0.0263606
-1.0438
1.2945
-0.070411
0.625931
0.245348
-0.231013
1.0278
0.598352
-0.36331
0.0728708
0.293272
-0.455658
1.17206
-0.432262
1.21788
1.33705
1.32237
0.898551
1.36597
-0.858986
-0.453382
0.994845
0.159888
1.16144
-0.542751
-1.00834
-1.15064
0.838649
-1.22467
-0.577834
-0.561742
-0.600326
-0.0601199
-0.350108
0.979182
0.951338
-0.248144
-0.322121
0.770214
-0.00736212
1.34073
0.246268
0.109342
-1.22261
0.994279
-0.572588
1.26986
1.56069
-1.25513
-0.856639
-1.05676
0.58281
-1.39575
1.11033
-0.279272
1.05742
0.995063
-1.28704
1.09445
1.0564
-1.8761
0.964806
-0.323909
-0.633036
-0.643746
-1.19544
-0.358268
-1.2493
-0.34652
1.1458
0.487187
-0.827591
0.585578
1.29657
1.3202
-0.466935
0.795975
0.204882
0.801225
0.0902867
-0.920652
-0.688543
0.752315
1.05003
1.27258
-0.0599423
-1.21505
-1.0974
-1.25249
-0.225982
0.749087
-0.0855294
-0.0102906
-1.0546
1.16802
-0.676411
1.14177
-0.0199362
0.407559
1.06742
0.694459
-1.41133
0.12384
1.14572
1.4166
1.17254
-0.12544
-0.924934
0.83071
0.00920666
0.818045
-0.228209
0.701643
1.14425
-0.98768
-0.569747
1.23619
-1.28891
1.43265
-0.0995456
0.91833
-0.697237
0.633007
-1.2879
1.37044
-0.595891
-1.1915
1.18287
0.775497
0.771132
-1.07796
-0.548107
-0.237949
1.0076
0.371725
-0.394478
0.0813837
1.17184
0.66355
-0.824954
0.991439
1.12529
1.1626
-0.0609284
-0.471252
-0.666241
1.1641
1.37589
0.472325
1.15902
-0.345253
1.13996
-0.721264
-0.548535
0.344635
1.02796
1.09294
-1.1247
1.08107
-0.597818
1.04611
-0.924099
1.22075
1.02186
1.17388
-0.183472
1.15078
-1.0354
-0.363199
1.30131
-1.31737
0.530739
1.31405
-0.653188
1.31533
-1.57748
-0.635821
1.25948
0.808074
1.49725
1.14796
-1.03422
1.16571
1.29171
-0.242794
0.88092
-0.293472
-1.27402
1.64938
-1.18605
1.33946
-0.79946
0.262702
1.14813
-1.07498
1.16717
0.188219
1.15211
1.05855
1.15695
-0.0826179
-0.984083
-0.798297
0.601559
0.702275
1.15815
0.206591
1.06343
-0.277254
-0.0215404
-1.21123
0.871556
1.24034
-0.530545
-1.2863
0.286121
1.40878
0.346791
0.976806
0.165802
-1.63394
-1.1301
-0.567987
0.591817
1.03771
-1.94581
-0.687994
-0.00348404
-0.572227
-0.579502
-1.17715
0.307081
1.15007
1.17285
-1.06505
-0.290402
1.15739
1.04354
1.16961
-1.36662
1.15828
1.1568
1.13238
1.13761
-1.86395
-0.0281137
-0.571367
0.868298
1.13858
0.722176
0.0850541
-0.322547
-0.703124
-0.160012
1.37856
-0.061663
-0.861851
-0.69548
0.0446657
-1.07576
1.02971
-1.32493
-1.24781
-1.23242
1.16765
1.1483
1.17628
0.0745385
0.619218
1.34877
-0.260983
1.13811
-0.127204
0.00327858
1.00623
1.17568
1.30342
0.0500549
1.16076
1.15346
-0.645851
0.170025
1.17602
1.18534
1.17796
-1.21778
-1.29736
1.17637
0.612691
1.1509
0.475095
0.147566
-0.382602
0.461759
0.445772
-0.594435
-0.17056
0.124572
1.18502
1.18995
0.999477
-1.26814
1.16797
0.28498
0.548702
0.0935904
1.14298
1.1778
1.17717
1.19528
1.17494
1.17062
1.1647
0.154888
0.55934
0.594913
0.59448
0.0647316
-0.00258669
0.00366346
-0.251936
-0.086447
0.370436
0.018799
1.13546
1.16168
1.15539
1.18199
1.18164
1.1763
1.18271
1.1486
1.17369
-0.333327
0.62973
1.17934
1.17517
0.0026815
1.17688
1.17831
0.262348
-0.671785
-0.136436
-0.924113
-0.418003
1.16288
-1.08962
1.15228
0.666956
1.16113
-1.191
1.15011
1.13463
1.0741
-0.566394
0.0316656
-1.02247
0.234596
0.241485
-0.550776
1.17993
-0.393771
1.248
1.16846
0.103107
1.38046
1.50795
0.501785
1.10219
0.676714
1.1622
1.17914
1.16227
-1.19069
0.742865
0.024688
1.16574
1.16829
-0.978327
-0.47871
1.16896
0.27475
-0.0470208
1.16544
-0.0730889
1.16139
1.18039
-0.601585
1.16446
-1.0505
1.15624
1.27269
-1.45313
1.16753
1.17648
-0.0897224
0.946972
1.15377
1.16954
0.453295
-0.465143
0.737043
1.48775
1.17667
1.15737
1.16853
-0.678976
1.15993
1.13336
1.17245
1.16297
1.16775
1.15656
1.28901
0.270029
-0.394797
1.16081
1.1624
0.573958
0.0308482
-0.370917
0.194423
1.08858
-0.41876
-0.18637
0.0188601
1.15913
0.751114
-0.262083
-1.19486
0.267306
0.367697
-0.440409
-0.7547
-0.751013
-0.789378
-0.0541765
1.16474
-0.421841
1.15242
1.12285
-1.21587
1.44346
-0.0399304
-0.59852
0.811195
1.34657
0.717376
-1.24238
1.17045
-1.11874
1.16471
-0.609665
1.16351
-1.3331
1.1581
-0.912608
-0.339224
1.16772
1.17791
1.16589
-1.25478
-1.25184
-0.353308
-1.26131
1.17367
1.11176
-1.0862
1.16362
1.20066
1.16437
-0.938915
-1.5137
-0.820119
-2.06365
0.322736
1.17104
-0.0394994
1.15732
-1.72331
1.16395
1.20252
1.16746
0.0858345
-0.136146
1.19149
-1.13932
1.16906
1.17351
-0.0576937
-1.08086
1.17888
1.34984
1.15523
1.16455
-1.16929
-0.923698
1.10912
0.388369
1.16926
0.886292
-0.945765
-1.11962
1.07045
1.38024
1.16803
0.308998
-0.056749
-1.18859
-2.01242
-0.44086
1.12706
-0.521818
1.16158
-1.16238
-1.2036
-0.869407
0.740127
-1.2525
-0.37515
-0.629817
1.15801
-1.24343
1.15416
-1.16935
-0.286267
-0.973668
-0.0879962
-0.70924
1.15286
-1.01592
-1.19897
-0.663204
-0.586733
1.13239
-0.78257
-0.0803567
-1.76594
1.3015
-0.335308
-1.17678
1.23145
1.13132
1.11609
0.490646
-1.1387
1.17526
1.20889
0.644529
-0.765442
1.15647
0.829812
1.4498
1.18348
-0.599075
-0.862634
-0.751635
-1.05422
-0.955307
-1.23085
0.0818456
-1.35254
0.834654
-0.112037
1.15798
1.40197
1.16524
-1.24851
-1.20703
1.16074
-1.04911
-0.282752
1.1181
-0.204619
-0.957125
-1.74376
-1.22454
1.15259
1.13007
0.732271
0.915638
0.946509
-1.63674
1.12319
-1.19804
1.05358
-0.459419
1.06926
-1.79296
0.405708
1.16035
1.31708
-1.70874
-1.28877
1.06364
1.53506
1.18259
1.25237
-1.08403
1.36221
-1.28432
-0.259136
-1.04885
0.455877
-1.77125
1.27641
1.26254
-1.1535
0.612312
1.16442
-0.439215
0.9017
1.19309
1.17012
-1.49346
1.1634
0.0705081
1.18288
0.0765907
-0.843494
0.149403
1.16476
0.495522
-0.16937
-0.64551
1.11214
-0.710329
1.3999
0.217957
1.51118
1.22449
-0.485916
1.11514
-0.663108
1.16583
1.1544
-0.249117
-0.617396
1.34557
1.16475
1.42872
1.14645
0.0247455
1.15859
1.12183
1.10512
1.17242
-1.29734
-0.897984
-1.28701
1.22154
0.359028
-0.501025
-0.612001
0.447043
-0.86979
-0.263237
1.11901
-1.00463
1.0804
1.12737
-0.785263
-0.921158
-0.535785
-0.462123
-0.546101
-0.671804
1.17879
-1.92098
1.1805
1.35425
1.21304
0.159586
1.18838
1.13346
0.0952649
1.07823
1.16511
-0.942504
1.16053
1.18837
0.358514
-0.592125
1.61761
-1.51565
-1.0709
-1.06791
0.186665
1.11765
-1.07425
0.469239
-0.5512
1.32025
-0.624608
1.1108
1.19358
1.11293
-0.203994
1.07915
-2.00043
1.18002
1.1934
-0.0608258
1.18121
0.785019
1.11967
0.740938
-1.82872
0.0236443
-0.0588649
-0.142762
1.43578
-0.490557
1.21442
1.56865
0.529767
0.178744
1.22047
0.329557
1.21747
-0.087154
-0.132887
1.22757
1.23214
0.405133
-1.2693
1.03016
-0.412112
-0.712739
-0.382895
1.19111
1.121
1.57698
-1.24418
-0.62452
0.768397
-1.00661
1.26706
1.22517
1.10707
1.16479
1.086
-1.16398
-1.22889
-1.10458
1.07243
1.13531
-2.00617
-0.714481
-1.17889
1.17137
1.16493
0.424412
-1.42897
1.20364
-1.09099
0.540801
1.03832
1.17269
-0.0745534
-1.05882
0.149439
-0.974067
-0.507922
-0.239323
-1.40449
1.51843
1.54509
-0.944457
-0.938428
1.17381
1.14791
-0.940138
-0.130238
-0.505112
0.932444
1.27273
-0.908426
1.1743
-0.657389
-1.07881
-0.525228
-1.04699
-0.637126
1.10775
-0.962486
-0.685694
1.54294
-0.988732
1.17474
1.43056
-0.730293
1.12786
1.37389
-0.879939
1.44711
-1.01534
-1.11616
1.25006
-1.15229
1.0907
1.17309
-1.04112
1.18671
0.0926044
-1.2025
1.21559
1.11304
-1.15898
-1.10512
1.16089
1.168
-1.10978
-1.90179
1.48007
-1.06548
1.12964
-0.872971
1.05293
-1.24307
-0.834815
-1.16362
-0.897163
1.32232
1.159
1.41941
1.41749
1.22407
1.23298
1.29919
-1.17807
1.35681
1.24506
-0.816278
-1.08784
-0.951849
1.51387
-1.26346
-1.13229
-0.473543
1.18935
-0.841655
-0.980692
1.26202
1.10032
-1.1477
-0.73319
-1.12223
-0.290644
-1.99272
-0.860686
-1.19087
1.14765
0.950896
-0.649091
-0.117155
-1.10807
1.10431
-1.07009
-0.919205
-1.20211
1.01051
-1.17408
-0.762098
1.46754
1.00272
0.402385
1.30826
-0.656586
1.05348
1.18819
1.25607
1.32288
-0.562545
0.961993
1.25165
0.221445
-1.21188
1.59091
1.06766
0.988817
1.18386
-0.790719
-0.924547
0.930736
1.06894
1.09729
-1.03758
-1.60254
1.13606
-1.20732
0.890318
-1.06889
1.58874
-1.22069
1.01074
0.772134
-0.589797
-1.22839
-0.680037
1.15095
-0.606293
-1.24336
0.725751
0.904542
-1.04636
1.24729
0.894758
-0.625794
-1.05496
1.17475
-0.896139
-1.23534
-1.16774
-0.549737
-0.457707
1.1966
1.14262
-1.44814
0.634585
1.16266
1.52201
0.244052
0.599109
0.36308
0.941385
-0.596509
-0.577743
-0.888702
-0.246076
-0.567443
1.18154
-0.598503
0.494691
-1.24049
0.84209
0.574776
-0.560634
0.654002
-0.123653
0.490987
-0.555074
0.772645
-0.578134
0.372565
-1.24907
0.694275
-0.551139
0.862613
-1.12898
-0.549808
-0.555115
-1.23877
1.18012
0.0209871
-0.582685
-1.25999
0.367353
0.460778
-0.579748
-1.23236
-0.625159
-0.213853
-1.27748
0.21004
-1.31802
0.0101733
-0.702227
-0.42047
1.12599
0.551621
-1.06302
1.18593
0.291924
0.392039
0.445293
1.10718
-1.06219
-1.41427
-1.25468
-1.14863
0.975816
1.59109
0.496947
-0.746048
-0.0418543
-0.973525
0.0245561
-0.477161
1.18697
-0.956204
1.07786
-0.929226
1.65042
0.475319
1.57558
-0.703824
1.30181
-0.208648
1.09469
-0.463339
-1.25266
1.16754
1.13234
-1.6662
-1.24033
-0.553214
1.20754
-0.397878
1.16595
-0.657091
-1.18275
-1.15967
1.47817
1.24763
1.20825
1.22412
1.1731
-0.911498
-0.46519
1.41728
-0.524329
-0.933557
1.58947
-0.702069
1.13251
1.04186
1.53279
1.58395
-0.652904
-1.23415
1.1819
0.194152
-0.61244
-0.504569
0.616497
-0.838898
-0.745515
0.586804
-1.12426
1.31397
0.0252816
1.28248
1.34193
1.25762
-0.93153
-1.26207
-0.974698
1.24279
-0.941787
1.39149
-0.404512
-0.970284
1.44443
1.43906
-1.26507
0.409121
1.0726
-1.03384
-0.979699
0.691892
1.47321
1.35138
-0.854949
1.10886
1.10913
-1.24665
1.36297
0.59595
-0.675337
-0.493249
-0.0813963
0.399843
1.34177
-0.935665
0.573547
-0.61935
0.0238634
-0.983067
-1.26769
1.18805
-1.46429
1.24031
0.253629
0.0251267
0.729462
0.249944
-1.25023
-0.296918
-1.51148
-0.116433
-0.309666
-0.819567
1.18697
-1.04633
-0.449648
1.2397
-1.02785
-0.829142
1.17478
-1.32381
1.21828
-0.12862
-1.21338
-0.423034
0.838832
-1.07727
-0.963219
0.956164
-1.17274
1.21004
-0.777636
-0.957693
-0.947815
-1.24769
1.64973
-1.87986
1.23313
-0.56838
1.09787
1.37118
0.758341
1.13889
1.3784
0.221643
-1.42467
1.09554
1.19082
1.50554
-0.974661
1.24225
0.954194
-1.00135
0.82644
1.32473
-0.264923
1.53011
0.471424
-0.970073
0.880361
-1.02803
-0.553456
1.05579
-0.159445
1.20022
1.14276
1.18427
-0.935169
1.15671
1.46299
-0.949062
0.0387154
-1.97939
-0.880907
-0.955739
-1.23488
1.49452
0.780359
-0.889849
0.969766
-1.05373
-0.933475
1.39794
1.43313
-1.26883
-1.10275
-1.24624
-1.18559
1.08172
-0.871944
0.0259734
-0.476462
-0.0432804
1.21394
-1.09976
1.56741
1.23481
0.947704
1.22456
1.49673
-0.988468
-1.07626
1.12139
1.24965
-1.0113
1.14545
-1.80369
-1.16967
-1.12569
1.31578
1.33913
-1.15432
-0.876103
0.558147
-0.13055
-0.651657
1.17681
1.20898
-1.12714
1.24385
1.28117
-1.29162
-0.830048
-0.90929
-1.18409
-1.1363
1.44594
-0.00521558
1.16754
-0.850656
1.44328
1.11267
1.12413
1.18863
-0.960844
0.628379
-1.19659
0.81779
-0.747446
0.979094
0.256268
-0.184337
1.12082
1.07965
1.20612
1.20245
0.221441
1.1968
-0.000402491
0.403444
1.06035
-0.24805
-0.804178
-0.644825
-0.385733
1.17292
1.0349
1.17128
-1.04125
-1.05191
-1.20699
-0.485104
1.17871
1.48433
1.19085
-0.776642
-0.94984
-1.03275
-0.237766
-1.24286
-1.24795
0.10289
1.1891
-1.00892
-0.63615
-0.145709
-0.184469
0.99061
-1.16649
-1.21688
-1.32277
1.18155
1.59196
-0.28224
1.24285
1.65181
0.934927
1.40629
-0.848179
-1.03171
1.5465
-1.22462
0.283856
-0.718038
-1.12952
-0.549739
-0.597078
1.0758
0.758136
1.40499
1.37255
-0.0135448
0.81421
0.370071
-0.0340885
-1.23189
1.26081
0.991943
1.18425
1.2013
-0.296821
0.501657
1.18766
-0.0960939
-1.25314
-0.614581
-0.559182
0.606003
-0.582048
1.09671
0.686404
-1.22497
1.35004
-0.8014
-0.027132
1.12809
-0.951105
-0.943167
-0.708325
0.875492
-0.660949
-0.588156
1.163
1.19252
0.402774
0.00875712
-0.820959
-1.23815
-0.18625
-0.776335
-0.261484
0.606619
-0.983294
-0.571735
1.46368
0.5521
0.649668
-0.563396
-1.12087
1.16112
1.12685
0.809347
0.531071
-0.5572
-0.956206
-0.967009
0.736864
0.42798
-0.552375
1.0817
0.438839
-0.547267
1.61392
-0.549243
-0.686196
-1.13772
-0.494555
0.889217
-0.564067
-0.883727
-1.26477
-0.0767217
-0.600374
0.298337
-0.940112
-0.334679
1.39031
-0.656591
-0.291434
-1.2988
0.123173
1.52659
1.5441
1.43556
1.17085
1.41602
-0.394494
1.16417
-0.807096
1.12303
-1.25635
-1.24535
1.38654
-0.604854
0.487066
-0.896033
1.55077
0.289745
1.47843
0.87352
1.03626
-0.688515
-0.750367
-1.25244
-0.512046
1.46972
1.40223
1.16852
0.656058
1.15421
0.917683
1.06837
-0.549222
-1.20429
0.55941
-0.382672
1.04539
1.17813
-0.116684
-0.709852
-0.544981
-1.29581
-1.25357
-1.03338
1.48281
1.19547
1.17294
-0.218983
0.408715
1.1841
0.670589
-1.23838
-0.347062
-0.998756
1.0366
-0.640012
-0.560032
-0.434374
1.20378
-1.13944
-1.14253
1.15627
0.616616
0.765861
1.16518
-1.24401
1.11898
1.30743
0.88056
-1.247
1.13837
0.326168
0.735929
-0.94876
-0.599256
1.61094
0.236645
-0.606087
0.00298541
1.15185
1.19544
-0.952346
-1.09138
-0.183425
-0.377256
-1.17207
-0.892232
-0.413393
1.16333
-0.890191
1.19372
1.40963
1.1807
1.20977
1.30945
1.36096
1.16649
-1.09037
-0.868112
-0.118231
-1.35218
-1.04473
-0.558454
1.35481
1.27941
-1.05693
1.05961
-0.979211
-0.592213
-0.55236
-0.0144176
0.547566
-1.27534
1.16369
1.14807
-0.652945
-0.565667
1.50051
-1.249
-0.42931
-1.28576
-0.906444
-0.517145
1.17949
1.03017
1.19134
-1.02365
0.54004
-1.21085
-0.0605439
-1.04429
-0.15118
-1.03573
-0.939884
1.15477
-0.960883
1.60982
-0.790543
-0.709754
-1.2834
-0.55422
1.01773
-1.28609
-0.994983
-1.25124
-0.339329
1.40125
1.33924
-0.790095
0.574881
1.07445
-1.27536
-1.10591
1.20944
-0.74884
-1.41213
-0.501016
1.00899
-0.53909
-1.03053
1.16376
0.354396
-0.486675
1.18827
-0.96269
-1.17472
-0.927862
-0.622922
-0.110008
-1.02595
1.5039
-1.21823
0.130962
-1.25483
1.04628
-0.341948
-0.939526
0.911
0.80497
1.20576
1.07999
1.38071
-0.561125
0.920885
0.565122
-0.996413
1.1634
-0.0847241
-0.343838
-1.00831
1.29045
1.27678
-0.367949
-0.942106
-0.997929
1.24411
-0.952219
0.408277
-1.19655
-0.570678
1.47467
1.24481
-0.719414
-0.921706
-0.736706
-0.662663
1.12507
-0.842992
1.21498
0.518961
0.96608
1.08552
-0.535229
-0.943041
1.18037
-0.558704
-0.236954
1.43905
-1.19768
-0.65738
1.06776
-0.976857
-0.898474
-0.241383
-0.953321
1.50769
-0.777185
0.124811
-0.735106
1.43592
-0.77993
-0.938201
0.906597
-1.13626
-1.25584
1.48098
0.934268
1.08164
-0.89496
1.43145
-0.190693
-0.929054
-0.876554
-0.883491
-0.794922
1.45858
0.843637
-1.14228
-0.766847
-1.0073
1.33785
-0.983797
1.40649
-1.25373
0.983754
-0.616425
0.650574
0.808997
0.776718
0.700228
0.129345
-0.956864
1.24038
-0.868233
-0.397238
-1.16496
0.244932
1.45501
-0.348371
-0.904064
-0.825394
-0.627922
0.548775
-0.789232
-0.606554
0.887496
0.149773
-0.691714
1.53288
-1.02016
-1.24834
1.50913
-0.649825
0.439014
-0.971792
-0.554498
-0.591205
1.50204
-0.539958
1.41364
-0.583442
-0.945962
1.37877
-0.239767
-0.94918
0.83433
-0.958991
0.309785
-0.500565
-0.611561
0.855576
-1.22622
-0.621936
-0.557747
-0.554726
-1.26112
0.901859
0.141566
-0.444914
-0.704257
1.44772
-1.12351
-0.908751
-0.536538
-0.275162
-0.677997
-0.538361
-0.676646
-0.121344
1.44429
-0.815047
-1.24522
-0.924316
-0.854242
0.0622585
-1.26818
1.54396
1.47698
0.692025
-0.948168
-1.25612
0.610807
-1.25424
1.55974
0.49519
1.15831
0.958599
1.41157
0.381393
-0.686337
-0.954297
0.2334
-0.871248
0.233216
-0.209329
-0.589128
1.44712
-0.273844
0.506316
-0.361986
-1.22508
-0.956866
)
;

boundaryField
{
    frontback
    {
        type            empty;
    }
    Top
    {
        type            zeroGradient;
    }
    outlet
    {
        type            fixedValue;
        value           uniform 0;
    }
    bottom
    {
        type            zeroGradient;
    }
    Inlet
    {
        type            zeroGradient;
    }
    rectangle
    {
        type            zeroGradient;
    }
}


// ************************************************************************* //
