/*--------------------------------*- C++ -*----------------------------------*\
| =========                 |                                                 |
| \\      /  F ield         | OpenFOAM: The Open Source CFD Toolbox           |
|  \\    /   O peration     | Version:  2306                                  |
|   \\  /    A nd           | Website:  www.openfoam.com                      |
|    \\/     M anipulation  |                                                 |
\*---------------------------------------------------------------------------*/
FoamFile
{
    version     2.0;
    format      ascii;
    arch        "LSB;label=32;scalar=64";
    class       volScalarField;
    location    "3";
    object      p;
}
// * * * * * * * * * * * * * * * * * * * * * * * * * * * * * * * * * * * * * //

dimensions      [0 2 -2 0 0 0 0];

internalField   nonuniform List<scalar> 
2186
(
0.81538
-0.531886
-0.175865
0.992423
-0.60848
-0.00265435
0.593989
-1.06731
-0.86994
1.22622
0.934602
-1.0772
-0.838214
0.948258
-0.758482
0.951317
0.964363
-0.141504
-0.00468892
-1.86296
1.31847
-1.33257
0.946738
-1.24796
0.93883
0.968366
1.14877
0.824567
0.469207
0.944519
-1.51918
0.93288
-2.46343
-0.021335
-2.11157
-0.0413012
-0.0247216
1.30785
-0.546919
0.00567606
-0.822547
-1.45138
-0.930804
-1.68872
0.801201
1.21071
0.240776
0.433363
0.0213043
-1.02173
-1.56622
0.77871
-0.870493
1.23808
-2.3912
0.874294
-1.02023
0.900984
-0.435276
0.842032
0.00788038
0.526819
0.429446
0.0131072
0.457861
0.369731
0.544841
1.20963
1.11121
-0.664481
-1.15875
0.0130817
1.18293
0.9238
1.09482
1.07401
0.00786531
0.953975
-2.27197
-1.27352
-0.166893
0.00119068
0.918872
0.520653
0.946383
0.946454
1.21273
-0.0076927
0.0084206
-1.40195
0.874522
-2.28512
0.849511
1.09404
0.945477
0.283947
-0.317871
0.480942
-0.732875
0.914872
0.0193656
-0.00406996
0.5555
0.889381
0.95461
-2.48402
1.12041
-0.286421
0.858042
0.0728548
-1.25987
-1.29151
0.452524
1.23476
-1.1447
-0.396051
0.00457351
0.0340061
-1.39464
1.18377
-0.199077
-0.81099
0.739868
-0.0286512
0.953377
0.00934691
-0.861068
1.06608
-0.104579
0.573995
1.29509
1.15329
0.121043
0.565211
-0.0631764
-1.12802
0.84543
-0.509348
-0.2252
-1.84081
0.681439
-0.335149
-1.15128
0.619812
0.855002
0.909107
-0.388954
-0.554889
0.537175
-1.9172
-1.32008
0.497891
0.955384
1.10274
0.96831
0.441201
1.20779
0.330411
0.250737
0.330227
-1.91045
-0.405906
0.924253
0.91263
-0.00496915
0.00472018
-1.07401
-1.47551
0.0201064
0.0110315
0.217713
0.91967
0.963147
1.03296
0.29165
-0.185038
-0.462286
0.92673
0.0192378
0.755299
-1.35446
0.955847
-1.99894
0.413385
0.397483
-0.385114
-0.335006
1.03426
-0.273634
-0.60677
-0.165549
1.17831
-0.0325002
0.899761
-1.77253
0.0630844
-0.096735
1.10311
0.965385
-1.15626
-1.5193
0.0504983
-0.048012
0.965574
-1.25371
-0.973598
-1.35163
0.0332348
0.895818
-0.0362502
0.441906
0.0272679
1.2212
0.711937
0.807964
0.876764
1.09149
0.952309
0.823217
1.00932
0.341535
-0.386364
-2.67619
-0.0507453
0.0733728
-0.208412
-0.761638
0.933583
1.06894
-2.38419
-1.11548
0.0676604
0.273425
0.579217
0.797332
0.825235
1.04439
0.057023
0.813699
-1.60793
-0.756211
-0.3714
0.893964
0.609983
1.05664
1.11096
1.01511
0.988129
-1.50984
0.751087
1.03865
-1.12945
0.878442
0.658993
0.0750294
-2.62373
-2.74319
1.05729
0.959289
-0.681827
-0.0997546
0.0334805
0.883056
-0.0170625
0.62612
0.978636
0.804379
-2.659
-1.85581
0.915582
0.561282
-0.233856
-0.208074
1.26395
-1.01494
-1.3331
0.758575
1.10595
0.936119
-0.573053
-0.0465634
-0.625109
0.823177
-0.951286
0.459969
0.912967
0.945308
-0.301135
-0.223498
0.90762
-2.37764
0.860605
1.11556
0.943852
0.94694
0.0375719
-1.492
-1.43123
-0.011765
0.0394318
-0.00428832
0.276463
-0.703237
0.482195
1.09247
1.11675
0.836479
-0.576785
1.06789
-1.51104
0.0228699
-0.715106
-2.00879
-0.468332
0.25778
-1.42717
-1.6634
-0.00169929
0.848765
0.0284887
0.240764
-1.58914
0.00063898
-0.423327
-1.11386
1.14296
-0.198911
0.0190379
-2.43986
0.714445
0.466709
-0.233344
0.460412
0.0490871
-0.515084
0.538773
0.977496
0.975857
0.0611881
1.08433
0.817685
0.23967
1.16384
0.9357
0.911966
0.334932
0.0138779
-1.70412
0.761641
-1.34405
-2.75187
-0.969289
-0.352732
-1.38742
1.2894
0.0432939
-1.53439
-1.33964
0.935729
-0.453203
0.0395198
-1.82941
0.685484
0.00511223
-0.105517
1.17667
1.23591
1.05198
-1.09092
0.0146275
1.30643
0.954478
-0.141042
0.323511
-1.57073
0.0507029
1.10007
0.895291
0.848352
1.22338
-0.566145
0.00598555
0.0261608
-0.0019154
-0.240287
-1.15457
0.00189355
1.23139
-0.244783
-0.249246
0.939883
0.499594
-2.66245
0.0685498
-1.65362
-0.497853
-0.400859
-1.95114
-2.44775
-0.897814
1.12198
0.0212304
-0.404523
0.962724
-0.628167
1.18072
0.000397436
0.0884216
-1.69211
0.931714
-2.01563
0.958334
0.776393
0.0366214
0.98044
-0.818337
-1.65339
-1.35578
0.941852
0.918405
-2.71824
-1.64366
-0.545772
0.891442
-0.25063
-0.00270539
0.37982
0.871103
0.824934
0.633577
-2.36512
-0.0654655
0.774906
-0.0977958
0.760676
0.0589879
0.96949
-0.213216
1.0584
-1.43425
0.781449
0.621306
0.963612
-1.71457
0.942161
0.0128345
-1.6425
0.938828
0.0685517
0.0628772
-0.347549
-0.103008
0.950134
0.0905981
0.20449
0.946198
0.0950042
-0.0935416
0.0149008
-1.52016
0.245212
-0.639884
0.615727
-0.765202
0.972653
1.06084
-1.55372
-1.79033
0.0210615
-1.16579
0.320521
-0.3688
0.724737
-0.00827771
-0.768315
1.02399
0.0145933
0.229656
0.18827
0.0112892
0.685724
0.201458
0.0250914
0.0518883
0.0209155
-1.61268
0.953549
0.0568691
1.04395
1.15061
1.13859
0.535899
1.07509
-0.83749
-2.37924
0.835028
0.110848
0.93985
-1.16608
-0.634325
0.0480922
0.764726
-1.6819
0.0708785
-1.29341
-1.28112
0.00336323
-0.119663
0.630453
0.623897
-0.128414
-0.16113
0.676254
-0.0572873
1.04145
0.0423831
-0.363224
-1.729
0.647568
0.025473
1.097
1.32202
0.0789791
-0.86201
-1.13476
0.191016
0.00472027
0.968485
-0.142152
0.924878
0.673686
-1.56809
0.800869
0.764571
0.0917399
0.807386
-0.0164628
-1.93454
-0.0178215
-1.29236
-0.028334
0.0299926
-0.134223
0.957291
0.0651963
-1.02729
0.508671
1.08678
1.13717
-0.449751
0.720663
0.0257809
0.704233
0.0142141
-0.0198991
-1.80403
0.372856
0.708648
0.974457
0.0144213
-2.21568
-0.277359
-1.31957
-0.274465
0.658198
0.00772564
0.00678067
-0.198871
0.850649
0.0508239
0.903608
0.0132855
0.00638378
0.897295
0.594934
0.0727655
-0.360624
0.914054
1.21278
0.967153
0.0475781
-0.284542
0.734148
0.00933558
0.721354
-0.54896
0.316692
0.906974
-0.530989
-1.56681
0.933092
-1.3124
1.15908
0.0133445
0.807465
0.0106599
0.55572
-2.08875
1.16289
-1.87262
-0.0332733
0.858312
0.402485
0.378712
-0.454893
-1.26265
-0.119273
0.718648
0.0167187
-0.0861433
0.0450345
0.961745
0.290863
-0.496379
0.674661
0.801956
0.935671
0.033283
-1.05176
-2.13858
0.957395
1.08925
0.403569
0.952982
0.023366
0.985554
0.0111648
-0.308092
0.00800974
0.934918
0.917772
-0.0408249
0.745051
-1.78225
0.730997
-0.374489
0.903529
0.883108
0.948403
0.0506116
0.828317
-0.0716705
-0.255978
1.10129
0.0897447
0.0443292
1.03797
-0.286554
1.01631
0.092834
-1.80496
0.945545
0.709276
1.27806
0.948507
-0.109461
1.01368
1.00452
0.0232945
0.520896
0.0218842
-2.46246
1.41391
-1.83572
1.05157
-1.23281
0.220387
0.948499
-0.267074
0.926145
-0.00181662
0.825
0.904827
0.963503
-0.000568631
-0.55594
-0.850766
0.481659
0.528103
1.00237
0.0333816
0.725228
0.0561257
-0.230646
0.0538004
0.769188
1.07392
-0.765503
-2.20042
0.0180607
1.16031
0.0222411
0.626689
0.0111994
0.0501523
-1.33968
-1.26331
0.0399716
0.723748
0.0747711
0.0123729
-0.519867
-0.499715
-1.30327
-1.06527
0.0312157
0.926119
0.959288
-0.36601
-0.18183
0.94071
0.900107
0.957174
-0.00456076
0.932175
0.992853
0.943667
0.99104
0.0607259
0.00879103
-1.61112
0.503578
0.951647
0.635754
0.0335363
0.0152714
0.0694608
0.00746556
1.18235
0.0155605
0.014818
-0.625607
0.0183544
-0.950413
0.68965
-2.47914
-0.621488
-1.9015
0.944253
0.956975
0.94774
0.0099319
0.237904
1.15922
0.0224535
0.942083
0.00869797
0.00403156
0.658671
0.937982
0.997911
0.00126376
0.935374
0.927887
-0.0405475
0.0153243
0.954996
0.954482
0.947375
-1.84676
-1.38857
0.934162
0.535737
0.944063
0.0579268
-0.320606
0.0128069
0.0355805
0.0160087
-2.10048
-0.0442958
0.0241036
0.958985
0.95816
0.689391
-1.36145
0.951984
0.0130989
0.00930455
0.00990623
0.929386
0.958608
0.953086
0.966693
0.954415
0.949577
0.941655
-0.00590632
0.0385161
0.00929524
-0.00130989
0.00412697
0.0057532
0.00974849
0.00769248
0.0234219
0.00865203
0.0143756
0.939902
0.965707
0.951081
0.964042
0.9674
0.955732
0.955988
0.946908
0.948723
0.00489058
0.011856
0.960257
0.957202
-0.000247617
0.952262
0.961991
0.0179671
0.00860666
0.0121207
-0.489363
0.0576276
0.949688
-0.938703
0.955006
0.559725
1.00878
-1.75816
0.937689
0.890381
0.903408
-1.68135
0.0120918
-0.45699
0.0132574
-0.202508
-1.32757
0.966718
0.0118323
1.02666
0.947637
-0.357658
1.09339
1.2547
0.0190402
0.820074
0.594117
0.941784
0.943212
0.958848
-1.9824
0.363555
0.00906272
0.943996
0.953661
-0.332493
0.00826928
0.948932
0.00612816
-0.50927
0.94775
-0.0690858
0.934767
0.952588
-0.321368
0.960337
0.00785906
0.959943
1.00896
0.0902134
0.966778
0.963403
0.0153072
0.598031
0.941301
0.970662
0.0309404
-1.08417
0.645984
1.26978
0.962804
0.941682
0.953691
0.00492088
0.938091
0.943075
0.950176
0.946663
0.959275
0.947474
1.04621
0.0207489
0.0347426
0.949476
0.93742
0.19807
-0.0608374
0.0207736
0.03608
0.824997
-0.11589
0.0386778
0.00344317
0.944849
0.662878
0.00461938
0.0135469
0.0151724
0.0257224
-1.82346
0.0078625
0.0427102
-0.481811
-0.560452
0.948465
-0.010166
0.947141
0.859002
-2.21567
1.17165
0.0188852
-1.12432
0.728761
1.05021
0.333149
-1.53622
0.947378
0.0103182
0.946268
-0.152384
0.942744
-0.90059
0.9487
0.00846617
0.0176498
0.947636
0.971263
0.888551
0.00782106
-1.3666
-0.817953
0.0105732
0.966208
0.855906
0.00713097
0.947124
0.993794
0.945317
0.0207542
0.101318
-0.836568
0.0848795
0.306195
0.969148
0.00811327
0.926992
0.0833157
0.943568
0.97514
0.951824
0.0057433
0.00667422
0.981595
-1.3434
0.954533
0.958454
-0.0835207
-0.979444
0.854895
1.06686
0.948944
0.949946
0.0180648
0.0240165
0.921688
0.325929
0.957135
0.778855
-0.346671
-1.25025
0.817514
1.17723
0.947014
0.254876
0.0352687
0.0097147
0.0594465
0.0377147
0.944217
-0.0171528
0.940021
0.0014923
-1.78714
-0.815015
0.378074
-2.02082
0.0294015
0.0324173
0.94493
-1.69647
0.8267
-1.59797
-0.333878
0.022573
-0.00510663
0.0315393
0.931689
0.0149218
-1.72811
0.0257134
-0.296387
0.930102
0.0391595
0.00448647
0.0586897
1.01287
0.0250651
-1.71907
1.00441
0.948665
0.934811
0.420058
-1.28728
0.954451
0.978842
0.0355856
-1.36167
0.948839
0.729454
1.18132
0.968856
0.026188
0.0392226
-1.63947
-0.158721
-0.237929
-1.7848
0.0129338
-1.43668
0.734264
-0.161157
0.956691
1.14088
0.946587
-1.3334
-1.57194
0.951628
0.0461295
0.0293952
0.915284
-0.158223
-0.377847
0.100605
0.0207353
0.889498
0.874564
0.0368236
0.86322
0.58806
0.0579678
0.941987
-0.227366
0.77495
-2.3964
0.927955
0.0562798
0.351722
0.941154
1.01361
0.0492096
0.0733583
0.79732
1.29891
0.955412
0.940862
0.0461555
1.16917
-2.18552
0.0289945
-1.03239
0.38855
0.052607
1.05082
1.09082
-1.48624
0.0222519
0.948636
-0.19594
0.78991
0.970167
0.914743
0.0200925
0.93905
0.00995012
0.972646
0.005989
0.0252057
-0.31807
0.948692
0.021058
-0.653346
0.0275296
0.956343
0.0274445
1.11978
0.164183
1.25736
0.905148
-0.307508
0.926285
-1.94746
0.929046
0.929311
0.0255517
0.0313015
1.0532
0.946843
1.15347
0.912767
-0.0122045
0.880047
0.935507
0.800249
0.95679
-2.17803
-0.45965
0.0501746
1.03884
0.0120527
0.0319466
-2.02417
0.0203953
0.021219
0.0117589
0.787927
0.0241541
0.90289
0.955144
-1.28694
-0.482343
-0.225846
-0.152139
-0.64948
-1.66841
0.951081
0.0559898
0.967118
1.16345
1.00757
-0.230346
0.949836
0.880884
-0.0210723
0.905817
0.940664
-0.298496
0.937584
0.86702
0.0066119
-0.0662452
1.38198
0.0439225
-0.0554715
-0.756623
0.13287
0.933103
-0.0558419
0.0235638
-1.36961
1.07335
0.0331087
0.779055
0.965296
0.941208
-0.0642278
0.915719
0.0610924
0.954688
0.966171
-0.537155
0.954891
0.41257
0.945864
0.657617
0.0813967
7.3541e-05
-0.00193984
0.0126527
1.17043
-0.00262181
0.972235
1.3267
0.0150424
-0.00540641
0.998595
0.0044072
0.996967
-0.00395717
0.0120923
1.00059
1.0098
0.338768
-0.382177
0.687172
-1.97541
-1.67636
-0.931859
0.972306
0.950152
1.34257
-1.53602
0.0369556
0.674785
-0.373607
1.01343
0.921812
0.935252
0.949819
0.923829
0.0875804
-2.00661
-0.233912
0.756554
0.871856
0.0714962
-1.55648
-1.878
0.960152
0.979534
0.010014
0.0840444
0.984288
0.0406745
0.178089
0.697733
0.846864
0.0227001
-0.557032
-0.226299
-0.495848
-1.24238
0.0426081
0.0450311
1.29234
1.30424
-0.471534
-0.440474
0.952027
0.942797
-0.288458
-0.129429
-0.55737
0.575653
1.04143
-0.252041
0.958095
0.0334876
-0.71151
-0.312659
-0.0792532
-1.34181
0.937714
-0.505022
-0.147047
1.29633
-0.58375
0.968448
1.16106
-1.47893
0.982531
1.17758
-0.712745
1.17893
-0.674014
-0.908745
0.956494
0.0222704
0.953402
0.942766
-0.776437
1.00836
0.0626142
0.0934798
0.984767
0.971042
-1.24794
-0.129748
0.905329
0.949735
-1.14625
0.0755496
1.22127
-0.890019
0.871389
-0.00492577
0.90111
-1.93794
0.0777505
-1.54496
-0.621255
1.02051
0.975822
1.21288
1.14031
0.90418
0.999355
0.991042
-1.63808
1.06289
1.07765
-1.03618
-1.01522
-0.24904
1.26407
0.0410124
-1.12828
0.0105998
0.864088
-0.920154
-0.410673
0.947323
0.960512
-1.42442
-1.38006
-1.15161
-0.000878762
0.082327
-0.809761
-1.70332
0.818036
0.835123
-1.63311
-0.639901
-1.1857
0.770107
-0.906377
-0.541366
-1.73841
0.8872
-0.10922
-1.26828
1.25102
0.838025
0.373732
1.12715
0.0140372
0.922197
0.96305
1.0685
1.1392
0.0192492
0.611693
0.941498
0.166269
-1.74237
1.35535
0.926813
0.859842
1.01607
-1.153
-0.0329607
0.833177
0.742529
0.912423
0.0683578
0.0959458
0.937126
-2.20229
0.79365
0.0157566
1.35581
-1.73149
0.66623
0.67676
-1.66276
-1.69373
-0.374404
0.998042
-1.67686
-1.91241
0.637166
0.547772
-0.0862111
1.01064
0.775875
-1.66799
-0.353311
0.900826
0.0725534
-1.61995
-1.59967
-1.43121
-0.24169
0.924425
0.961252
0.0841411
0.552254
0.947341
1.27544
0.200389
0.20153
-0.0835214
0.826138
-0.641022
-1.62297
0.0385739
-0.85885
-1.58478
0.947794
-2.23305
0.0810523
-1.55311
0.477329
0.499681
-1.51276
0.575472
0.0404135
0.422047
-1.44972
0.39895
-1.66953
0.308999
-1.44499
0.309495
-1.39749
0.760994
-0.0233102
-1.34989
-1.31329
-2.2298
0.951775
-0.0273882
-1.29826
-1.35118
-0.0677374
0.112744
-2.2232
-2.37778
-1.32539
-0.263728
-1.35755
-0.252988
-1.40777
-0.494728
-1.4253
-0.471608
0.842479
0.00963902
0.051258
0.934685
-0.0315156
0.0268496
0.38103
0.925347
-0.0592418
0.0965228
-1.36819
0.025925
0.869239
1.35446
0.00992952
0.023509
-0.0675256
-0.522539
-0.281893
-0.502045
0.921439
-0.353681
0.915705
-0.0450751
1.42216
0.427278
1.34081
-1.48149
1.12207
-0.709751
0.951834
-0.239637
-1.40647
1.0145
0.952531
0.0605728
-1.6341
-1.2003
0.909545
-1.47145
0.941446
-0.177094
-1.83371
-1.54124
1.23754
0.977751
1.04922
0.957033
0.967467
0.0178324
-0.343568
1.13997
0.0312144
-0.41667
1.3547
-1.86116
0.862088
0.896844
1.30012
1.35082
-2.07723
-0.275751
0.982472
0.153677
-0.666276
-1.13496
0.0267243
0.0778741
-1.47665
0.499531
-0.0111051
1.13281
-0.0372381
0.97854
1.06999
0.974002
-0.134929
-2.71229
-0.281572
1.02837
-0.311707
1.1057
-0.95983
-0.162889
1.17367
1.22987
-1.46496
-0.0152782
0.917707
-0.130686
-0.173487
0.605366
1.211
1.1571
-0.625005
0.838511
0.778764
-1.59041
1.16771
0.201044
-1.56604
0.0210589
0.010325
0.0242731
1.05063
-0.33124
0.169734
0.00702666
0.0181901
-0.33127
-2.50074
0.942039
0.0432372
0.962247
-0.186056
-0.0186595
0.627578
0.227735
-1.64783
-0.874947
-1.61315
0.00764355
0.013335
-0.126991
0.866845
0.0142967
-0.00859424
0.944785
-0.317411
-1.01977
0.950728
-1.65391
0.903596
0.00201873
-2.35815
-0.419955
0.729504
-1.46613
-0.114526
0.833093
-1.82108
1.01708
-0.84091
-0.236049
-0.468943
-1.47463
1.40889
0.0952702
1.06216
0.0060746
0.903452
1.1217
0.665032
0.979653
1.09094
-0.113645
0.022426
0.929409
1.03118
1.28426
-0.540725
0.995038
0.598691
-0.625293
0.728083
1.13897
-0.8118
1.2845
0.0518293
-0.438316
0.77309
-0.72163
-1.33406
0.902633
-0.685045
1.00069
0.994421
0.905185
-0.503352
0.839655
1.19967
-0.25136
-0.412249
0.0886138
-1.63175
-0.26895
-1.67932
1.2729
0.687264
-0.663025
0.850743
-0.831589
-0.300001
1.19611
1.16045
-0.000684521
-0.0433539
-1.5016
-2.0197
0.937754
-0.761263
0.01054
-1.73549
-0.449449
1.00644
-1.08141
1.33067
0.988718
0.82939
0.973286
1.24261
-0.146592
-0.951762
0.966492
1.07969
-0.334816
0.959914
0.0991184
-1.58917
-1.27394
1.0106
1.04119
-1.47637
-0.696213
0.487504
-0.135368
-0.427294
0.939421
0.886287
-0.00224181
0.926463
0.9696
-0.696336
-0.974255
-0.578421
-1.67512
-1.34714
1.23622
0.0272132
0.840078
-0.861343
1.23178
0.827227
0.792238
0.878204
0.0829521
0.0210198
-1.73036
0.446562
-1.32498
0.859512
0.198242
-0.582379
0.805905
0.943965
0.977345
0.955992
0.00458901
0.989246
0.00440987
0.346939
0.754789
-0.816457
-1.0957
-1.35355
-0.945987
0.956972
0.907756
0.957536
-0.104904
-1.12701
-1.74834
-1.11704
0.960026
1.22257
0.96617
-1.21048
-0.3139
-0.0915841
-0.759125
-1.49013
-1.47055
-0.346019
0.942688
-0.381904
-1.65686
0.0153066
-0.221748
0.643686
0.0781594
-1.74377
-1.12817
0.881649
1.35686
-0.00150889
1.05082
1.41855
0.581601
1.13954
-0.9665
0.0124816
1.31617
-1.72706
0.240291
-1.43458
-1.30179
-1.23761
-1.677
0.931568
0.666178
1.12313
1.08245
-0.00337484
0.715558
-0.0489911
-0.000536409
-1.65612
1.05461
0.645302
0.949477
0.968565
0.0111297
0.0166176
0.975125
-0.0677717
-1.46685
-1.67865
-1.3134
0.52957
-1.64582
0.92537
0.600456
-1.78321
1.1587
-1.18577
-0.529011
0.93905
-0.320988
-0.337598
-0.00849106
0.515042
-1.60665
-0.936149
0.835968
0.956726
0.0179695
0.0025522
0.0500697
-1.59709
0.0257651
-0.386481
-0.261603
0.528308
-0.178978
-1.62129
1.19831
0.147461
0.259228
-1.54877
-1.23127
0.95065
0.98261
0.440461
0.459172
-1.48553
-0.479706
-1.09426
0.358156
0.361688
-1.43032
0.806825
0.0161992
-1.38234
1.38276
-1.33654
-0.0812359
-1.35326
-1.15414
0.78076
-1.30001
-0.671966
-1.34498
-0.124614
-1.30094
-0.148612
-0.442938
0.0145879
1.11004
-1.36666
-0.341302
-1.38283
-0.356923
1.279
1.31567
1.16287
0.948269
1.13821
-1.08672
0.950052
-1.10244
0.979182
-1.35882
-1.78902
1.18782
-0.290559
0.442212
-0.171081
1.32225
-0.103208
1.26102
0.512721
0.713765
-1.5272
-1.34829
-1.43873
-1.07511
1.23935
1.12766
0.947343
0.560931
0.948553
0.805901
0.732213
-1.32775
-2.26929
0.163463
0.010215
0.706688
0.9591
-0.163595
-1.77395
-1.29153
-0.35788
-1.38648
0.010824
1.26388
0.956885
0.935178
0.00448499
0.0162721
0.971689
0.0231293
-1.56223
0.0639366
-0.593299
0.695047
-1.67732
-1.53706
-0.468253
0.952639
-0.0901216
-1.40605
0.944289
0.537363
0.65817
0.948447
-1.54215
0.788905
1.12093
0.775985
-1.46592
0.9314
0.265829
0.357171
-0.235796
-1.67988
1.37656
0.202225
-0.381634
0.0183387
0.828599
0.897216
-0.452044
-0.0811777
0.00267051
-1.52975
-1.2347
-0.628228
0.0152811
0.947194
-0.440703
0.93555
1.20504
1.02615
0.927587
1.01325
1.07525
0.941797
-0.0411864
-0.935845
-0.650274
-1.44931
-1.11427
-1.46165
1.07978
0.976658
-0.838737
0.920305
-0.343607
0.0245982
-1.35483
0.0212121
0.481855
-0.802185
0.931767
0.819208
-0.53445
-0.620713
1.26423
-0.150217
0.0350119
-1.24253
-0.566724
-1.15462
0.992307
0.685764
1.02987
-0.248947
0.0159881
-1.25283
-0.534727
-0.780959
-0.0518881
-0.0884082
0.0235661
0.830514
-1.14771
1.37208
-1.5443
-0.716613
-1.3489
-1.42626
0.893428
-1.28068
-0.233495
-1.59886
-0.269112
1.11942
1.15015
0.0706626
0.0233326
0.736949
-1.36658
-1.50265
1.04404
-0.313862
0.0152847
-0.788329
0.66146
-0.533048
-0.723707
0.947826
-0.0122831
-1.09093
0.953441
-0.323354
0.0222422
-0.328226
-1.32087
-0.0696333
-0.702829
1.24846
-1.75122
0.113107
-1.35307
0.704983
-1.67524
-0.281453
0.554548
0.706683
1.00324
0.909401
1.10873
-1.19495
0.840979
0.488277
-0.154414
0.868341
-0.59904
-1.91469
-0.0228349
1.11049
1.09814
-1.16341
-0.285638
-0.183592
0.927486
-0.320514
0.0566612
-0.585298
-1.58792
1.21065
0.936846
-1.44849
-0.506344
-1.59563
-1.62649
0.868476
-1.0256
0.902307
0.113106
0.616572
0.750368
-1.26897
-0.271126
0.86334
-1.49214
0.0149182
1.20944
-1.76108
-1.72452
0.729801
-0.205697
-0.585679
-0.219063
-0.420644
1.27892
-0.805824
0.115946
-1.41122
1.22567
-1.2295
-0.470303
0.549794
-0.691805
-1.39033
1.26076
0.581147
0.944779
-0.627477
1.15849
0.020974
-0.873146
-0.718353
-0.693884
-1.16733
1.19304
0.479322
-1.43365
-1.292
-0.633053
1.05545
-0.385797
1.20335
-1.3782
0.64414
-1.69284
0.26081
0.440423
0.403587
0.317004
0.0894553
-0.416213
0.933946
-0.764799
-0.98718
-0.96632
0.215644
1.24191
-0.311774
-0.533087
-1.1109
-1.71019
0.144034
-1.50511
-1.69812
0.781111
0.130185
-1.55657
1.30516
-0.680533
0.0473361
1.28326
-1.66373
0.0177684
-0.363203
-1.40894
-1.67919
1.28044
-1.15876
1.20517
-1.64401
-0.291847
1.10254
-0.185678
-0.412052
0.468163
-0.462025
-0.134078
-0.488069
-1.75365
0.753809
-2.08271
-1.75329
-1.44057
-1.38056
-1.34468
0.78925
-0.332442
-0.343706
-1.51076
1.23107
-1.11482
-0.547239
-1.16937
-0.308852
-1.4055
-1.179
-1.6153
-0.0786095
1.17434
-1.1153
-1.32062
-0.330438
-0.846262
-0.423042
-1.35367
1.31437
1.24987
0.307587
-0.238003
-1.35271
0.215254
-1.32103
1.32711
0.0823687
1.00781
0.607225
1.20802
-0.0484427
-1.41283
-0.217096
-0.224311
-0.742768
-0.223053
-0.232964
-1.70407
1.22672
-0.210531
0.0954502
-0.255634
-1.19612
-0.216289
)
;

boundaryField
{
    frontback
    {
        type            empty;
    }
    Top
    {
        type            zeroGradient;
    }
    outlet
    {
        type            fixedValue;
        value           uniform 0;
    }
    bottom
    {
        type            zeroGradient;
    }
    Inlet
    {
        type            zeroGradient;
    }
    rectangle
    {
        type            zeroGradient;
    }
}


// ************************************************************************* //
