/*--------------------------------*- C++ -*----------------------------------*\
| =========                 |                                                 |
| \\      /  F ield         | OpenFOAM: The Open Source CFD Toolbox           |
|  \\    /   O peration     | Version:  2306                                  |
|   \\  /    A nd           | Website:  www.openfoam.com                      |
|    \\/     M anipulation  |                                                 |
\*---------------------------------------------------------------------------*/
FoamFile
{
    version     2.0;
    format      ascii;
    arch        "LSB;label=32;scalar=64";
    class       surfaceScalarField;
    location    "3";
    object      phi;
}
// * * * * * * * * * * * * * * * * * * * * * * * * * * * * * * * * * * * * * //

dimensions      [0 3 -1 0 0 0 0];

oriented        oriented;

internalField   nonuniform List<scalar> 
3181
(
-0.992006
0.352832
0.639174
-0.409738
0.375953
0.0337848
0.532437
-0.370923
-0.161514
0.115181
-0.19461
0.0794292
-0.0758913
0.0593325
0.0165588
0.696917
0.478307
-1.17522
0.150011
-0.14381
-0.00620065
0.0309465
0.0464774
-0.0774239
0.205502
-0.841207
0.635705
-0.0703887
0.131635
-0.0612468
-0.0095346
-0.0510786
0.0606132
0.194159
0.0193471
-0.213506
-0.0759592
-0.0218268
0.097786
-1.01236
0.109634
0.902729
-0.319592
0.729144
-0.409552
-1.10987
0.641951
0.467921
0.0615056
-0.933343
0.871837
0.123667
-0.167555
0.0438881
-0.635058
-0.373746
0.00260679
0.212294
-0.214901
0.0359404
-0.0859172
0.0499768
0.0722384
-0.00381282
-0.0684256
1.00584
-0.963747
-0.0420967
0.102465
0.0217259
-0.124191
-0.960919
0.33176
0.629158
-0.110141
0.225321
0.2961
-0.238021
-0.0580784
0.0291003
0.0627258
-0.0918261
-0.41223
0.33482
0.0774101
-0.00652031
-0.142612
0.188982
-0.0463697
-0.0455158
-0.915403
0.129962
-0.0204374
-0.109525
0.0886471
0.684
-0.772647
-0.0965277
0.194074
-0.0975459
0.190348
0.262885
-0.453234
0.889309
-0.800662
0.0732614
-0.037321
1.36091
-0.898359
-0.462553
-0.293825
0.990742
-0.0841927
0.00823354
0.199646
-0.127408
-0.434489
0.114897
-0.0897773
0.289423
-0.621564
0.132125
0.48944
-0.141942
0.0715537
-0.174104
0.178128
-0.00402479
-0.266181
-0.0842164
0.350398
0.050588
0.666638
-0.717226
0.176081
-0.222984
0.0469033
-0.140005
-0.0991669
0.105034
-0.00586676
0.488996
0.240148
-0.0982291
0.14064
-0.0424112
-0.122517
0.252479
-0.169775
0.195047
-0.0252721
0.165269
0.0706399
-0.235909
0.107944
-0.114021
0.00607639
0.740976
0.619936
-0.812311
-0.179695
-0.0232127
-0.810995
0.834208
0.55927
0.207851
-0.767122
-0.447457
-0.198383
0.645841
-0.971388
0.677563
-0.242634
0.801905
-0.317601
-0.115158
0.432758
-0.211345
-0.200885
-0.190366
0.16638
0.023986
0.14202
0.279824
-0.421844
-0.59037
0.795872
-0.119139
0.150085
-0.990823
0.967611
0.179787
0.116313
-0.171049
-0.114323
0.285372
-0.265679
0.35184
-0.086161
-0.0782634
0.0871115
-0.00884807
-0.940235
-0.936892
-0.00549374
0.942385
-0.178286
0.0817586
-1.30226
0.701884
0.600378
0.411492
-0.629426
0.217934
-0.967901
-0.00348662
1.08711
-0.977479
-0.690092
1.11465
-0.211917
1.0416
0.166453
-0.176662
0.010209
1.14683
-0.668527
1.06173
-1.06173
-0.00308299
-0.000131712
0.0032147
-0.205311
-0.0564751
0.261786
0.170622
-0.185708
0.0150856
-0.417348
0.788089
-0.370741
-0.0148324
-0.228928
0.243761
-1.02085
0.0571063
0.338735
0.0646746
-0.403409
0.122699
-0.830046
1.0379
0.137106
-0.110589
-0.0265171
-0.0200104
-0.149765
-0.502347
0.489555
0.0127915
-0.576097
0.0737506
0.0809449
-0.910991
0.315946
-0.733293
0.86395
-0.802445
-0.0320811
-0.0693274
0.101408
0.0848551
0.0512098
-0.136065
-1.03466
-0.269524
1.30418
-0.238469
0.404797
-0.166328
0.854173
-0.333586
-0.520587
-0.531734
-0.770528
0.102319
0.073762
-0.155604
0.149515
0.00608876
-0.0794089
-0.0126101
0.092019
-0.830446
-0.0107605
-0.0284973
0.0219359
0.00656145
-0.957108
-0.0105969
0.967705
0.943125
-0.276487
-0.0416512
0.0385682
0.0363906
0.143396
-0.196115
0.386464
0.100046
-0.351825
0.251779
0.135442
0.068939
-0.204381
-0.0655976
-0.122437
0.188035
-0.586256
-0.523616
-0.782486
-0.174622
0.0350695
0.102036
-0.101282
0.179539
-0.0782564
0.0580694
0.0241456
0.125865
-0.0539104
0.0681226
-0.0142123
-0.092239
-0.0208339
0.113073
0.0787074
-0.0787074
-0.186374
0.210519
-0.164605
-0.122938
0.102094
0.0929533
-1.12153
0.531161
-1.13835
-0.103659
1.24201
0.193387
-0.179027
-0.0143598
-0.0273463
-0.050978
0.0783242
0.504167
0.0128876
-0.517054
-0.119738
0.111542
0.00819594
-0.199255
0.0128807
0.156605
0.631484
-0.351587
0.508192
0.102792
-1.13745
-0.028117
-0.0477742
0.483989
-0.29175
-0.192239
0.110575
-0.151477
0.0409021
0.0514308
-0.317612
0.010918
-0.94781
0.0484649
-0.149747
-0.281189
-0.401817
0.068224
1.41713
-1.00863
-0.408501
1.07517
0.341963
0.0725706
0.277827
0.166935
0.0264523
0.261728
-0.30886
0.047132
-0.226594
-0.568669
0.795263
-0.352792
0.511776
0.651558
-1.0253
0.296624
0.049388
0.123733
-0.173121
-0.868573
-0.0423078
0.91088
0.0451375
-0.91371
-0.324289
0.663024
-0.922425
-0.0150715
-0.000756898
-0.265203
0.26596
1.23422
-1.44433
0.210114
-0.0499685
0.0218514
0.543512
-0.770106
-0.02634
0.251254
-0.224914
-0.303416
-0.110975
0.414391
0.346012
-0.927972
-0.0928813
-0.1223
-0.0926013
-0.556802
0.358418
-0.248755
0.021623
0.227132
-0.0458056
-0.00416282
0.00735801
-0.00735801
-0.118649
0.131273
-0.0126239
-0.00423815
-1.13411
-0.00209079
0.0516387
-0.0495479
-0.0105463
-0.000707746
0.0112541
-0.221746
0.0313795
0.892907
-0.0405458
-0.852362
-0.18349
0.438609
-0.25512
0.14731
-0.139723
-0.00758712
0.540118
0.314055
-0.193871
-0.00306405
0.196935
-0.16603
0.30805
-0.10106
0.0995618
0.00149826
0.0793681
0.0322489
-0.111617
0.0257861
-0.156508
0.130722
0.398291
-0.834608
0.436316
-0.227407
-0.0495782
0.276986
-0.68791
0.655001
0.032909
-0.0135707
0.0352965
0.0625192
-0.0729147
0.0103955
-0.139341
0.0151499
0.556124
0.387001
0.162977
-0.846539
0.683561
-0.0803116
1.06741
-0.987101
0.368832
0.22652
0.835211
0.0612315
0.203403
-0.067961
-0.0705309
-0.0286361
0.228897
0.155505
-0.0706501
0.728555
-0.396795
0.0623653
0.199421
0.0524221
-0.164229
0.111806
-0.858246
-0.108006
0.966252
-0.0153725
0.0153725
-0.0525185
-0.289382
0.552267
0.00613681
-0.233544
-0.171081
0.00352534
0.0720907
-0.0370212
0.134895
-0.144429
-0.33257
0.317738
-0.309725
0.29403
0.0156947
0.410466
-0.391119
-0.711362
0.378372
0.33299
-0.206241
0.278812
0.194172
-0.485922
-0.310491
0.663323
0.164459
-0.0326859
0.0326859
0.0864424
-0.188309
0.101867
0.373454
0.0313426
-0.159127
0.155965
0.00316232
-0.0636855
-0.00699074
-0.0215066
-0.0477215
0.182616
-0.177656
0.242299
-0.0646431
0.130127
0.0253781
-0.385625
0.147604
0.187569
-0.0574419
-0.0448947
-0.0561653
-0.0580455
0.171135
-0.11309
0.148135
-0.105352
-0.0427836
-0.0175438
0.391583
-0.374039
-0.125422
0.00628292
0.103331
-0.107596
0.00426527
0.0257471
-0.411119
-0.300243
-0.11058
-0.000402169
0.110982
0.161364
-0.208436
0.0470713
-0.0932711
0.102923
-0.71846
0.615536
-0.0862835
-1.04934
-0.0354775
1.08482
0.0242899
0.828536
-0.852826
0.0826723
0.280724
-0.403161
0.263489
0.26067
-0.524159
-0.200559
0.252981
0.205882
-0.885014
0.679132
0.11925
0.0421146
-0.194495
0.0721948
-1.06306
0.42837
0.634686
1.00863
-0.927688
-1.3971
1.12757
-1.23422
1.13056
0.0425704
-0.0849816
-0.0152545
0.0777738
0.0920396
0.974116
-0.768234
0.118419
-0.0699537
0.412573
0.702073
-0.0742913
-0.988077
0.907766
-0.760746
-0.360785
-0.238419
-0.383145
-0.117188
-0.165126
0.216557
-0.650483
-0.369564
0.186075
0.778092
-0.273925
-0.787343
-0.609752
0.70649
-0.135849
0.255099
0.272281
0.0365521
-0.0365521
0.690636
0.126016
-0.816652
-0.225163
0.915799
0.629591
-0.941306
0.311715
-0.221378
0.0984398
0.00163456
0.0160018
-0.0176363
-0.810995
-0.811033
0.534545
0.44507
0.447837
-0.0368556
-0.137248
-0.297018
0.786014
-0.195619
-0.0531358
-0.00274875
-0.0755147
-0.0551057
0.106315
0.373905
-0.24178
-0.657954
-0.283222
0.334896
0.0109055
-0.345802
-0.727133
0.953653
0.0844937
-0.227451
0.142957
0.226251
-0.0593161
-0.0071117
-0.0393065
0.0464182
0.0193494
0.413409
-0.0294322
0.140007
-0.00760706
0.127319
-0.119712
-0.0211527
-0.172718
-0.694633
0.356174
0.338459
0.55121
-0.926817
0.375607
0.139379
-0.162139
0.0227605
0.164617
-0.0622984
-0.162163
-0.899568
-0.0269964
0.0198847
-0.0360197
0.109782
0.154576
-0.350692
-1.10209
0.691949
0.410145
0.118104
0.0927533
0.0553821
-0.858246
-0.425514
0.823805
0.0410302
-0.0803367
0.0466799
-0.621578
-0.066332
0.0580509
0.129518
-0.29449
0.0342349
-0.456079
0.122054
0.353747
-0.289072
-0.113064
0.0208248
0.197683
0.811677
-1.00936
0.121469
-0.836211
0.714741
-0.904846
0.79684
-0.820038
-0.0343931
0.854431
-0.121443
0.122605
-0.00116165
0.160973
-0.46439
0.245241
-0.146993
-0.0982476
-0.129319
-0.0791164
0.0358125
0.299083
-0.00801452
-0.010455
-0.128886
0.0224076
0.0788254
-0.101233
0.653881
0.0779565
-0.0758319
-0.00212455
0.149823
-0.14354
0.839634
0.042441
-0.0205896
-0.256977
-0.554056
-0.20041
-0.0209677
0.00671003
0.0860433
-0.854431
0.899568
-0.238839
0.156118
0.0827206
-0.253268
0.076606
0.122303
-0.112094
-0.00111741
0.0882289
-0.0732601
-0.710264
-0.39183
-0.0431821
0.0655897
0.741103
-0.273181
0.016821
-0.0273673
0.321551
-0.0577299
-0.101397
-0.00908796
0.0877954
0.146229
0.205611
0.154254
-0.325599
0.171345
0.133179
0.498304
-0.0388514
-0.103091
0.817941
-0.138302
-0.679639
-0.820038
-0.125583
0.676793
0.889309
-0.708179
0.592958
0.115221
0.466794
-0.0946348
-0.372159
-0.234094
-0.733807
-0.0752703
0.0760714
-0.000801073
0.141685
0.253914
-0.395599
-0.0691664
-0.654807
0.723973
0.0224472
0.750456
-0.772904
-0.0453929
-0.110211
-0.0388921
-0.071688
-0.280502
0.366945
-0.0938061
-0.0276368
-0.222383
0.120428
0.101955
0.0818402
0.179887
0.0355714
0.190679
0.341687
-0.411014
-0.0685582
-0.00435643
0.186491
-0.415419
0.0418815
0.786655
0.0159243
-0.000551784
-0.923064
-0.00490778
-0.273047
-0.0695609
-0.0435029
0.073856
-0.100196
-0.480115
0.6407
-0.160585
-0.442476
0.242066
-0.946363
-0.0311167
-0.185992
-0.656507
0.75943
-0.0167017
0.181161
-0.414651
-0.526655
0.19064
-0.443873
0.253232
0.146345
-0.498169
0.0851673
-0.0823025
-0.0028648
-0.0716326
0.0974187
-0.0195625
-0.130202
0.769931
-0.648462
0.00322252
0.113406
0.166334
0.310206
-0.155952
-0.191707
0.665216
0.0429316
-0.708148
-0.120738
0.142361
-0.494246
-0.200388
-0.569069
0.673088
-0.663625
-0.00946265
-0.0681848
0.0714073
-0.988077
0.683123
-0.683123
-1.05203
1.05203
0.974116
0.755811
-0.404453
-0.351358
-0.826093
-0.0969704
0.648355
-0.352546
-0.295809
0.154734
-0.232991
-0.0182991
-0.0233521
-0.847755
-0.0632357
-0.927633
0.209173
-0.107276
0.118182
0.689476
-0.106196
-0.58328
0.749243
0.140066
0.0287691
0.0563983
-0.98846
-0.307114
0.685486
-0.149507
-0.545068
0.694575
-0.0150053
-0.846449
-0.597881
0.239439
-0.825695
-0.966252
1.3406
-0.374344
-0.153964
0.285835
-0.131871
-0.0397903
0.729266
-0.0994866
-0.936912
0.936912
-1.04894
0.459998
0.588939
0.0360903
0.0418662
-0.0452533
-0.426603
0.954268
-0.252384
-0.0863785
-0.0338033
0.0367332
0.0703459
0.0769645
0.871829
-0.906222
-0.388229
0.467597
-0.629396
0.97769
-0.348293
-0.0404438
0.0134474
0.123873
-0.0549338
0.403684
0.026073
-0.0478999
0.352014
0.0395692
0.0464308
-0.251802
0.205372
0.142204
0.0359246
0.0965265
0.18581
0.855548
0.112063
-0.299694
0.797038
-0.497343
-0.866131
0.823824
0.548332
-0.258908
0.0893527
-0.770659
0.681306
0.456117
0.133046
-0.465617
-0.0710736
0.128922
-0.0578487
0.126177
-0.197251
-0.452211
-0.104591
-0.0726968
0.0761149
-0.00341817
-0.0288073
-0.0397509
0.499174
-0.246695
0.768234
-0.714741
-0.0534925
-0.297176
0.303313
0.834124
0.790643
-0.323849
-0.00517018
0.0568089
0.219772
0.0314822
0.133336
-0.542831
0.409495
-0.0692979
-0.0130046
0.344454
0.136479
-0.480933
0.00464335
-0.009761
0.00511765
-0.022799
0.0104107
0.0123883
-1.00613
0.337604
-0.199416
-0.849922
-0.191541
-0.927688
1.13056
1.12757
-0.192545
-0.178383
0.128805
-0.063491
0.0694629
-0.00597192
-0.29441
0.760085
-0.465675
0.527023
0.121332
0.0236222
-0.0929201
0.122274
-0.0905368
0.0338033
-0.0481913
0.00500921
0.317154
-0.0973819
-0.0270751
0.0991658
-0.3105
0.720966
1.07517
0.00022158
-0.0598829
0.000659166
0.0592237
1.25144
-0.12387
-0.0605822
-0.0534386
-1.11054
0.18285
0.664715
-0.318703
-0.45772
-0.117755
0.575474
0.769566
-0.342223
-0.427342
-0.0448594
-0.435256
-0.907766
0.0967701
-0.0215521
-0.207755
0.229307
0.223947
0.843465
-0.198496
0.200131
-0.000274519
1.41784
-0.287283
-0.660852
0.0573579
0.603494
0.373643
0.0660166
-0.35139
0.481074
0.772511
-0.079477
0.0768065
-0.0214244
-0.764335
-0.00495348
0.769288
0.669017
0.19267
-0.200277
-0.044991
-0.363186
0.10735
-0.307909
0.53486
0.130356
0.0413119
-0.109497
-0.143973
-0.564206
-0.0298389
0.0162682
0.114457
-0.155133
0.0406766
-0.296229
0.306961
-0.0107328
0.534502
-0.491571
-0.960119
0.040493
0.919626
-0.0972608
0.0752
0.0220608
0.269682
0.0405239
0.344658
-0.770172
-0.80101
0.80101
0.834208
0.749243
-0.836211
0.286848
0.485663
0.204322
-0.102455
0.947458
-0.420435
0.0320549
-0.842382
0.810327
0.12741
0.00422594
0.0378572
-0.487114
0.831771
-0.0293959
-0.176567
-0.113566
0.290133
0.0141704
-0.498086
0.321519
-0.902598
-0.289829
-0.768955
-0.00312974
-0.0643667
-0.0114653
-0.218249
0.192937
-0.538738
0.0337241
-0.14452
0.110796
-0.610675
-0.438262
-0.00560975
0.0683356
-0.992002
0.441037
0.550965
-0.555661
0.363422
-0.338458
0.632488
0.222882
-0.0492096
-0.145285
-0.698219
0.657673
0.0340415
0.0692891
0.0593884
0.106945
0.231441
0.0137997
-0.427416
0.748717
0.429764
0.309924
0.882413
-0.79306
0.775163
-0.453611
-0.586702
0.1601
0.158708
-0.756711
0.727229
0.0294822
0.714492
-0.179632
-0.249588
-0.138641
-0.0691256
-0.116582
0.993177
-0.874029
-0.119148
-0.179786
0.109136
0.0265394
0.122976
0.900296
0.835321
-0.671832
-0.163488
-0.326372
-0.043192
-0.545849
-0.446153
0.361131
0.94305
0.889917
-0.140674
0.201525
0.517321
-0.718846
-0.0687963
0.0500999
-0.135307
0.086097
-0.499317
-0.087385
-0.0112268
-0.0345788
-0.183963
0.136242
-0.5206
0.26548
-0.995822
-0.698863
-0.293044
-0.862825
1.0648
0.177209
-0.267815
0.202904
0.11425
0.262742
0.295525
0.0564887
0.792384
-0.861551
-0.186063
0.128622
0.179484
0.122307
-0.301792
-0.12618
0.104628
0.0484832
-0.0640998
-0.232129
-0.115157
0.689847
-0.402168
-0.28768
-0.149247
0.130259
-0.0944991
-0.0357596
0.238234
0.0572911
0.0365031
-0.889329
-0.0953134
0.141993
0.814328
0.020993
-0.458914
0.505985
-0.0212356
0.0194425
0.00179309
-0.0506987
-0.128328
-0.239135
0.074906
-0.0416955
-0.556075
0.402111
0.0289953
0.0265303
-0.123791
-0.674865
0.827804
-0.697448
0.0163597
-0.190687
0.174327
-0.14737
-0.49067
0.638039
0.0645185
-0.686097
-0.839176
-0.120943
-0.0443206
0.00557747
0.0387431
-0.269221
-0.673088
-0.185158
-0.135732
-0.764335
-0.230121
0.16216
-0.354409
-0.923997
0.194852
-0.159036
-0.0358161
0.259888
0.109571
0.0367661
0.799587
-0.836353
0.398898
-0.534748
0.797234
-0.0980799
-0.699154
-0.221889
-0.0714759
0.8953
-0.242402
0.177759
-0.814319
0.742843
0.560877
-0.0713224
-0.0453484
0.137388
-0.0984476
0.848003
-0.538079
0.664905
0.104661
-0.913601
0.203337
0.321797
0.625661
0.927956
-0.110014
-0.0181556
-0.889917
-0.768955
-0.704241
0.698748
0.0859188
-0.787343
0.750456
0.622561
-0.970999
0.670465
0.0139315
-0.770643
-0.310827
0.629082
-0.761302
0.132221
0.0794856
0.0507731
0.390996
0.00584146
0.991613
-0.997455
-0.000487359
-0.0638793
-0.265599
0.212463
0.6936
0.218296
-0.205415
-0.187471
0.866677
-0.877274
-0.444736
0.0933776
0.595579
0.438352
-1.03393
-0.799071
0.794118
0.972484
-0.531447
0.270002
0.775129
-0.769288
0.0203621
0.22285
-0.113624
-0.446386
0.173339
-0.0106487
-0.187661
0.19831
-0.989233
-0.020127
0.326388
-0.749794
-0.445816
1.11827
-0.672454
0.365459
0.61223
-0.0475403
0.0507773
-0.003237
-0.0261933
0.892871
-0.703944
0.901076
0.521913
-0.967729
0.315936
-0.0930862
-0.57597
-0.419852
-0.404909
1.00049
-0.042877
-0.828451
-1.11352
0.126419
0.775129
0.0558141
-0.805608
0.823871
-0.659353
-0.164518
-0.969047
0.393077
0.105917
0.127856
0.00209163
-0.129948
-0.980692
0.56084
-0.207645
0.888119
-0.919236
0.191351
-0.212504
-0.0942125
0.248789
0.989317
0.248817
0.0804408
-0.842063
0.133916
0.835547
-0.915024
-0.554084
-0.525998
1.08008
0.445916
0.0205332
-0.00453148
-0.793031
0.772904
0.772738
-0.798932
-0.835211
0.785955
0.0492565
0.61671
0.50156
0.8624
-0.86892
-0.496266
-0.451543
-0.475737
-0.504955
0.799319
-0.799319
0.737217
-0.737217
-0.793031
-0.782468
0.782468
-0.785955
-0.510366
-0.367465
-0.411199
-0.888913
0.888913
0.772738
-0.798932
0.8624
0.811814
-0.811814
0.86892
0.778864
-0.778864
0.503734
0.524263
0.474002
-0.116174
-0.495045
-0.548457
1.07272
-0.513931
-1.01496
0.610055
0.514546
0.457938
0.0238021
0.00110951
0.0413315
-0.876217
0.0933311
0.782886
-0.0822559
-0.0349321
-0.969696
0.572901
0.940708
-0.65386
-0.126455
0.108245
-0.0272841
-0.76745
-0.0790884
-0.634686
-0.1204
0.192595
0.0212281
-0.00279054
-0.0775461
0.199721
-0.0728977
0.0342556
0.0386421
-0.803905
0.102416
0.701489
0.453514
0.535803
-0.521145
0.40935
0.111795
0.906935
-0.735914
-0.171021
0.0948273
0.291636
-0.0130443
-0.0596524
-0.0599724
-0.0152979
0.217729
-0.944863
-0.799943
0.0993163
-0.742011
0.794811
-0.0527994
0.10783
-0.884321
0.77649
-0.807898
0.905308
-0.0974107
-0.210764
0.160065
0.0246702
-0.289873
0.530161
0.470327
-0.0754245
-0.800792
0.927046
-0.0838225
-0.843223
-0.0513139
0.0108701
0.968059
0.83151
-0.645063
0.49843
-0.377098
0.0859253
-0.886717
0.800662
0.251364
-0.761779
-0.008864
0.993276
-0.885446
0.892292
0.959732
-0.515456
-0.444276
-0.863777
-0.105919
-0.409718
0.0356785
0.304316
-0.464901
-0.816721
0.816721
-0.607022
-0.088164
-0.866471
0.130557
-0.954194
0.804687
0.0655119
-0.212505
-0.0577669
0.0578255
0.0102971
0.165283
0.827994
0.817144
0.75616
0.139756
-0.895917
-0.483166
0.941104
-0.78586
-0.105201
0.891061
0.178856
-0.882801
-0.701189
0.873916
-0.787991
-0.102091
0.449253
-0.021226
-0.428027
-0.316015
0.873873
-0.557858
-0.000461027
-0.408944
0.409405
-0.887952
-0.831028
0.0890166
0.490372
0.284791
-0.869719
0.531987
-0.714155
0.714155
-0.756907
-0.0851566
0.35587
0.475901
-0.838936
0.87943
0.768715
-0.195789
0.881018
-0.543415
0.520348
-0.911902
0.391554
-0.264546
-0.662271
-0.100789
0.476566
0.379937
0.443868
-0.249254
0.318791
-0.223964
0.780469
-0.877879
0.558578
0.382526
-0.159551
0.732451
0.721921
-0.721921
-0.234987
0.175671
0.110588
-0.0768635
0.514674
0.359199
-0.256103
0.0486502
0.0155637
-0.0642139
-0.662872
0.689685
-0.0268133
0.418669
-0.934125
0.107483
-0.895474
-0.711406
0.683756
0.02765
-0.25345
0.862046
-0.627076
1.04574
-0.755717
0.586755
-0.653087
-0.638676
0.14443
-0.413777
0.0281132
0.491715
-0.928962
0.515185
0.00776616
-0.975723
0.0666832
0.728127
0.674757
-0.088003
0.0650305
0.774603
-0.448599
1.00639
-0.557788
0.382388
0.475515
-0.455978
-0.888529
0.654798
0.233731
-0.692338
-0.133358
0.981911
0.275912
0.0910327
-0.0481424
0.481717
0.518283
-0.751184
-0.126696
-0.480376
-0.5457
-0.467981
-0.562044
0.418691
0.581309
-0.107334
-0.0362063
-0.835006
-0.0741922
-0.578894
-0.184523
-0.231798
0.416321
-0.0724209
-0.00083925
0.111217
0.071399
-0.126792
-0.112343
0.756128
-0.639391
0.704422
-0.402452
-0.52651
0.851052
-0.346401
-0.50465
-0.688675
-0.215295
0.90397
-0.243097
0.227531
-0.0281104
-0.0178499
0.0136871
0.0661932
0.850921
-0.136766
0.117262
0.10562
-0.727307
0.0644354
0.887857
-0.460538
0.720701
-0.387711
0.855838
-0.277078
0.979151
0.0128246
-0.0776736
0.0773991
-0.113271
-0.0558823
0.147823
0.374877
0.51298
-0.448714
0.817595
-0.368881
0.845144
-0.100764
-0.0907723
0.191537
0.127577
-0.0983507
0.00454462
0.229928
-0.115472
0.144286
-0.983223
-0.826309
0.377595
-0.0184982
0.326257
0.471194
-0.984294
0.827291
0.157003
-0.76452
0.837265
-0.0727455
-0.382441
0.159803
0.401074
-0.0696748
0.889552
-0.448005
-0.0731402
0.290476
0.443081
0.149297
-0.592377
0.402263
0.0408445
0.648841
-0.549026
0.539618
0.00940829
0.822376
-0.559634
-0.126606
0.123373
0.00323252
0.685593
-0.0113833
-0.0832889
0.0199665
0.668186
-0.812289
0.429848
0.135185
0.0746914
0.000508548
-0.0293555
0.0337311
-0.00437564
0.118891
-0.129539
0.665756
-0.763836
-0.13984
0.216148
-0.0263283
-0.0826026
0.222835
0.101711
-0.00172565
-0.0383261
0.752277
-0.390007
0.789149
-0.399142
0.900686
-0.426531
-0.474155
0.62197
0.149569
-0.0347807
0.00363094
0.0311498
0.398219
-0.351051
-0.560851
-0.00286795
0.709358
0.691327
0.284298
-0.374984
0.76598
0.800827
-0.376862
0.185156
-0.854758
0.0881595
-0.267367
0.345717
-0.187244
0.689358
0.0629187
0.0132976
0.675841
-0.516038
0.0974698
0.167798
0.0257914
-0.111709
0.423575
-0.0544454
-0.375972
-0.0683742
0.173574
0.650604
0.250082
-0.150971
0.418864
-0.0467288
-0.106814
0.0951884
0.00680073
-0.101989
-0.814619
0.254985
0.000820013
0.777515
-0.225805
-0.600105
0.62425
-0.0241459
0.154427
0.753793
-0.872254
0.367604
0.0847442
-0.178957
0.628982
0.124811
0.684551
0.269103
-0.248975
0.747405
-0.361179
0.874159
-0.578968
0.337304
0.241664
-0.494659
-0.0689894
0.0452674
0.0662153
-0.0469827
0.918185
0.721992
0.0788341
0.602973
0.19229
-0.846949
-0.0769278
-0.656445
0.647581
-0.0254773
-0.591263
0.406739
0.854213
0.669827
-0.0287625
-0.0855181
-0.165575
-0.300042
0.565802
0.262001
-0.795413
0.0840222
0.509957
0.364202
0.649593
0.318113
-0.0768045
0.877561
-0.688877
0.851664
-0.162787
-0.383213
-0.195755
-0.0857036
0.141065
0.0661086
0.656702
0.145784
-0.0184656
0.609051
0.294326
-0.682037
0.595635
-0.125697
0.226753
0.636699
0.310828
-0.947527
0.268784
-0.928138
0.0214841
-0.718932
-0.168448
0.739351
-0.570903
-0.645383
-0.0318164
0.0139665
-0.0544447
-0.879158
0.0213474
-0.042583
0.828872
-0.0221321
0.0623885
-0.0402563
-0.127509
-0.650483
0.00531113
-0.0829847
-0.822404
-0.0667167
-0.00618108
-0.365565
-0.0557936
-0.574125
0.0250994
0.54905
0.305163
0.499799
0.585016
-0.248751
-0.36861
0.617361
-0.263173
-0.634801
0.634801
-0.0702624
-0.936489
1.00675
0.0315903
-0.152328
0.66628
-0.11723
-0.234142
0.4518
-0.360767
0.511964
0.508427
-0.368175
0.17418
-0.105956
-0.72685
0.471203
0.0684148
0.0586626
0.0145987
-0.802945
-0.649604
-0.264727
0.714549
0.285451
-0.649604
0.714549
-0.654522
-0.261286
-0.654522
-0.708491
0.708491
0.291509
-0.0142721
-0.203523
-0.0802421
0.301637
0.0361414
-0.498563
0.63056
-0.0349252
0.631964
-0.497832
-0.134132
-0.0557055
0.0552866
0.000418914
-0.0568875
0.105538
0.423584
0.0190396
-0.0541045
-0.430944
-0.349686
0.131437
0.047977
0.811249
-0.293928
0.393097
-0.278846
0.00301783
0.0560963
-0.00987793
0.636668
0.0726897
-0.563415
-0.140074
0.0203623
-0.0973585
0.0991623
0.547093
-0.475147
-0.0719466
0.946001
0.542557
-0.813792
0.855831
0.0114524
-0.0624304
0.105441
-0.122278
0.0293993
1.07223
-0.435527
0.0200997
-0.0232295
0.534041
-0.468075
0.0212472
-0.0212472
0.0209838
-0.0209838
-0.0172156
0.0172156
0.0159243
0.368478
0.444772
-0.0639343
-0.717373
0.443448
0.195521
0.0344074
-0.0878399
-0.474755
0.58
0.104119
-0.796457
-0.747798
0.221143
-0.0981098
0.021821
-0.0114103
-0.0163043
0.0163043
0.494844
-0.0218817
0.0218817
0.694636
0.0908907
-0.129163
-0.0109107
0.0066216
-0.0665045
-0.0214073
0.0214073
-0.0256026
0.0256026
-0.0230794
0.0230794
-0.0237701
0.0237701
0.0448474
-0.292395
-0.0801447
0.214611
-0.0300661
0.0300661
-0.351339
0.488161
-0.136822
0.499763
-0.213928
0.286068
0.107029
0.551965
0.138817
0.0785534
0.545697
0.558329
-0.0457346
0.0457346
-0.162341
0.0258
-0.0258
-0.038378
0.038378
0.715221
-0.801698
0.00808162
0.567629
-0.43115
0.05273
-0.05273
0.0232344
-0.0232344
0.0183187
-0.0183187
0.0221613
-0.0221613
-0.0241394
0.0241394
0.0346151
-0.0346151
0.478825
-0.0316164
0.0316164
-0.0572746
0.0572746
0.0242907
-0.0242907
-0.0354658
0.0354658
0.0375387
-0.0375387
0.00191466
-0.0266011
0.0266011
0.360797
0.142266
-0.0388804
0.0388804
0.0250704
-0.0250704
0.0146166
-0.0146166
0.0331146
-0.0331146
0.0252723
-0.0252723
0.0459292
-0.0459292
-0.0474208
0.0474208
-0.424645
0.289459
-0.0294268
0.0294268
-0.0561129
0.0561129
-0.0376386
0.0376386
-0.02798
0.02798
0.0446076
-0.0446076
-0.382435
0.704232
0.315028
-0.0317719
0.0317719
-0.0520587
-0.0195013
0.0195013
-0.0510867
0.0510867
0.0371338
-0.0371338
0.302501
-0.117346
0.0452265
-0.0452265
-0.022013
0.022013
-0.445449
0.0431191
-0.721276
-0.0310574
0.0310574
-0.43339
0.0323955
0.0183818
-0.301073
-0.612527
-0.0370949
0.0370949
-0.196027
0.141581
-0.0427828
-0.0434996
0.0434996
0.00220277
0.0477741
0.265775
-0.296975
-0.268734
0.56571
0.188119
-0.040826
0.040826
-0.421135
0.324418
0.0967172
0.71576
-0.39715
-0.31861
-0.450571
-0.610042
0.0373055
-0.316152
0.178833
0.203555
-0.556413
-0.0749214
0.172929
-0.952681
0.0159745
-0.0159745
-0.0275439
0.0275439
0.0308938
-0.0308938
0.0264978
-0.0264978
-0.0263576
0.0263576
-0.0145393
0.0145393
-0.724574
0.0951474
0.166717
-0.293173
0.0349124
-0.0349124
-0.0455373
0.0455373
-0.0410408
0.0410408
-0.069924
0.0253901
0.0445339
0.00406955
0.288886
-0.514691
-0.0408887
0.0408887
-0.011513
0.011513
-0.0929791
-0.358344
0.39565
-0.0116745
0.0116745
0.0945155
0.0615739
0.81918
-0.461765
-0.0743184
0.536083
-0.609279
-0.122894
0.427209
-0.0393367
0.0393367
-0.661497
0.281538
0.0518034
-0.0518034
-0.658433
0.362624
0.260239
0.106732
-0.0202428
0.0202428
-0.84079
-0.00877751
0.00877751
0.326949
0.402317
0.202126
-0.0563871
0.0563871
-0.0038589
0.0038589
-0.0434124
0.0434124
-0.054991
0.054991
-0.00665296
0.00665296
-0.0610797
0.0610797
-0.00290842
0.00290842
-0.0471162
0.0471162
-0.120887
-0.0468076
0.0468076
-0.00392947
0.00392947
0.0500331
-0.0500331
0.000185263
-0.000185263
0.0479222
-0.0479222
0.233705
0.00201796
-0.00201796
0.000958459
-0.000958459
-0.175268
0.0877954
-0.00415919
0.00415919
-0.000679306
0.000679306
-0.063055
0.063055
0.310763
-0.0165475
0.0165475
-0.0614671
0.0614671
-0.00639255
0.00639255
-0.0720819
0.0720819
-0.0155447
0.0155447
-0.0871659
0.0871659
-0.0249937
0.0249937
-0.102144
0.102144
-0.655512
-0.28467
-0.520245
0.496099
-0.846449
-0.196145
-0.560616
0.373373
0.358118
-0.507365
-0.00403967
0.00403967
-0.0851795
-0.694126
0.0443915
-0.0297927
-0.557041
0.697106
0.588479
0.267966
-0.0242208
0.14823
-0.396664
-0.554744
-0.0210936
0.360994
-0.725943
-0.0197744
0.0197744
-0.755549
0.0198614
-0.0198614
-0.0476805
0.0476805
0.36497
-0.0307411
0.00406118
-0.00406118
0.0186507
0.0140352
0.57637
-0.43209
-0.14766
-0.0287711
0.0106154
-0.101918
0.480054
-0.378136
0.544747
-0.645537
0.00219824
0.854941
0.135827
0.0542866
-0.406191
0.44187
-0.48051
-0.818135
-0.319314
-0.0730651
0.0179595
-0.483572
0.0746274
0.0213841
-0.00379984
0.0660591
0.764017
-0.536101
-0.0368539
0.0626453
-0.0343582
-0.54289
0.339367
0.41801
0.236992
-0.189152
0.229306
0.0520435
-0.0197946
-0.538107
-0.00578983
0.00151626
0.0608722
-0.0181703
-0.751163
-0.0674051
0.262099
-0.354744
0.394313
-0.128998
-0.733827
0.0318659
0.0316494
-0.0207793
-0.350295
0.46209
-0.0215729
0.0135138
0.00805919
-0.0277088
0.0277088
0.136559
-0.460407
-0.0125196
0.0118119
-0.0812925
0.0558152
-0.0620515
-0.00648675
0.0685382
-0.157971
-0.159341
0.00476746
-0.031743
-0.308205
-0.317622
0.625828
0.0152197
0.0608517
0.144529
-0.027267
0.0567423
0.0597088
-0.154552
0.31326
0.149889
0.0416472
-0.0258461
0.170375
0.00713213
0.258827
0.0481901
-0.0481901
-0.166021
0.815614
0.0900489
-0.166977
-0.0205185
0.00551324
0.441647
0.604098
0.00783482
-0.0151928
-0.51924
-0.00100494
-0.431868
0.0871259
-0.673387
0.252952
-0.0676097
0.327839
-0.636044
0.150608
0.504191
-0.0992682
0.0992682
0.00209163
-0.918213
0.461563
0.45665
-0.208708
0.154263
-0.0509645
0.159153
-0.650724
0.0318143
-0.079777
0.0645224
0.929319
0.608395
-0.637158
-0.0671266
-0.377352
-0.590377
-0.146609
-0.326568
0.807642
0.551764
-0.262878
-0.497455
0.823712
0.437078
0.15588
-0.249211
0.172561
-0.459512
0.32269
0.136551
-0.136551
-0.0100764
-0.0104775
0.0205539
-0.000379945
0.0872386
0.0194425
0.166519
0.231701
0.221479
-0.182006
-0.0394725
0.525424
-1.03341
0.0482081
-0.602264
0.666157
-0.114886
-0.178287
-0.0398621
-0.0752951
-0.475272
0.0443287
-0.288725
-0.00188833
-0.0181703
0.384303
-0.00561735
-0.00259895
-0.00629606
0.0108205
0.00912909
-0.0199496
-0.0952539
-0.0248248
-0.173897
0.198722
-0.113449
-0.346063
0.0186507
0.335696
-0.00228567
-0.36971
0.076666
0.0027206
-0.0767045
0.0127702
-0.012762
0.012762
-0.000765805
-0.00236819
-0.00915383
-0.00831184
-0.00700473
0.000754028
-0.00105995
-0.139325
0.0391294
0.00108199
-0.00108199
0.0752021
0.507438
-0.00382419
-0.310634
0.902016
1.15498
-0.463745
0.316499
-0.436181
0.0148662
-0.0273858
0.214597
-0.221699
-0.00367822
0.0810397
-0.0148465
0.0223113
-0.197195
-0.405893
0.849341
-0.0798791
-0.644694
-0.0836633
-0.00150049
0.427669
-0.681119
-0.00373318
0.0150411
0.0659986
-0.261144
0.00124179
-0.000148332
0.68696
-0.627252
-0.238274
-0.324122
0.38896
0.00502624
-0.00219428
-0.0427828
-0.00578514
0.809792
-0.426411
0.494826
-0.810426
0.86676
-0.82333
0.577681
-0.204308
0.680135
-0.00536017
0.00844623
0.0133748
-0.0954379
0.136259
0.0159425
0.00660317
-0.046404
0.0660728
-0.0509174
-0.0151555
-0.00440054
0.00967958
0.0150233
-0.0247029
-0.11426
0.0205046
-0.00494088
-0.00284748
0.491358
-0.427416
-0.00310361
0.00371892
0.793397
-0.331833
0.390665
-0.0062011
0.0159556
0.526504
-0.666344
-0.0403802
-0.1107
-0.0179813
-0.00394587
0.116879
0.0193888
-0.00138575
0.388529
-0.000259696
-0.0308881
0.0308881
-0.0477712
0.0190001
0.00855478
-0.321504
-0.00356945
0.0721231
-0.0908276
0.234391
0.132864
-0.0643154
0.00597635
0.0010595
0.428633
0.00611478
0.0225287
-0.108232
-0.00237164
0.00358245
-0.69964
0.443537
-0.718964
0.409925
-0.815818
-0.283717
0.00781561
-0.735299
0.28943
-0.538684
0.522773
-0.0156543
-0.0378633
-0.00458366
-0.00177033
-0.536686
-0.00370377
0.00374454
-0.0246008
1.06932
-0.667054
-0.00291688
0.00309368
-0.00666796
0.00183269
0.0928002
-0.0223702
0.0223702
-0.0458255
0.0434573
-0.00707185
-0.00902681
0.0265335
-0.0291324
-0.16106
0.0920706
-0.00915215
-0.0150841
0.0410744
-0.0172499
0.0632219
-0.0452624
-0.611897
0.559098
0.0724136
-0.00336037
0.647918
-0.474344
-0.0676201
-0.649757
-0.0742203
-0.114146
-0.0951375
0.0927658
0.670257
-0.000509566
0.09158
-0.0937743
-0.154893
0.0574221
-0.140299
0.0828766
-0.0701694
-0.610093
0.813502