/*--------------------------------*- C++ -*----------------------------------*\
| =========                 |                                                 |
| \\      /  F ield         | OpenFOAM: The Open Source CFD Toolbox           |
|  \\    /   O peration     | Version:  2306                                  |
|   \\  /    A nd           | Website:  www.openfoam.com                      |
|    \\/     M anipulation  |                                                 |
\*---------------------------------------------------------------------------*/
FoamFile
{
    version     2.0;
    format      ascii;
    arch        "LSB;label=32;scalar=64";
    class       volVectorField;
    location    "3";
    object      U;
}
// * * * * * * * * * * * * * * * * * * * * * * * * * * * * * * * * * * * * * //

dimensions      [0 1 -1 0 0 0 0];

internalField   nonuniform List<vector> 
2186
(
(1.21308 -0.0749639 1.94926e-19)
(1.71483 -0.942488 -1.41778e-19)
(1.52979 -0.916295 -1.95837e-21)
(0.740549 -0.567796 -1.17997e-19)
(-0.381567 0.0319107 -1.3616e-19)
(1.03707 -0.000628553 0)
(0.743251 -0.682862 0)
(-0.65934 -0.384823 1.2114e-19)
(1.97011 0.669359 1.99545e-19)
(0.538256 -0.323175 -2.24385e-21)
(0.66102 0.600525 0)
(1.24478 -0.241075 -1.69236e-19)
(-0.546418 -0.180416 -3.84762e-20)
(1.07677 -0.0559055 -3.02281e-19)
(1.92613 -0.609822 -1.39094e-19)
(1.02355 -0.0138808 1.42413e-19)
(1.00646 0.0467509 0)
(0.127106 -0.411814 0)
(1.01389 -0.00822756 0)
(-0.190654 0.924588 -1.35758e-19)
(0.487772 0.0695488 -9.59826e-20)
(0.520444 0.424857 1.46121e-19)
(1.06552 0.00663085 2.47406e-19)
(-0.123027 -0.474378 2.28805e-20)
(1.02382 0.0113651 -1.93287e-19)
(0.793604 -0.540538 0)
(0.742097 -0.0388733 1.19469e-19)
(0.623965 -0.599042 -1.32917e-19)
(1.21065 0.69726 0)
(0.956972 0.0193799 -2.65609e-19)
(-0.118045 0.80348 0)
(1.01642 0.0407098 9.1854e-21)
(0.326694 0.449792 0)
(1.17677 0.0893489 9.88087e-22)
(0.0966913 -0.939436 -5.49535e-21)
(1.54489 0.730163 8.59297e-21)
(1.11784 0.0047104 1.99244e-21)
(0.518924 0.113764 -2.85307e-19)
(1.83895 -0.371172 -2.87463e-19)
(1.04034 -0.00629138 -1.2755e-21)
(-0.549897 -0.140011 0)
(0.444237 0.674268 0)
(2.06147 -0.830374 1.25928e-19)
(0.425386 0.560708 0)
(1.08802 0.250361 1.20707e-19)
(0.576418 -0.301537 2.32992e-19)
(0.965795 -0.809981 0)
(1.20839 -0.767586 7.42073e-20)
(1.07965 -0.114067 0)
(-0.387759 -0.501312 2.05461e-19)
(-0.215548 0.932264 2.0072e-19)
(0.618789 0.56757 6.04133e-20)
(2.22156 -0.631333 1.44557e-19)
(0.596562 0.245736 -2.28068e-19)
(0.325635 0.43611 8.80125e-20)
(0.771763 -0.646815 0)
(1.86045 -0.99002 2.41774e-20)
(0.58901 -0.544341 0)
(1.81215 -0.359554 6.1234e-20)
(1.09224 -0.188277 -3.14258e-19)
(1.03918 0.0170076 3.13637e-22)
(1.33541 0.271466 -1.27964e-19)
(1.31469 0.5484 0)
(1.0298 0.0418018 1.39746e-21)
(1.33592 0.358447 -7.25684e-20)
(1.28044 -0.715515 -9.62765e-20)
(1.17489 0.641915 3.7456e-20)
(0.673205 0.0512516 -4.59932e-19)
(0.81661 0.0713246 0)
(1.86589 0.587553 -4.79512e-20)
(-0.73791 -0.273088 -1.76849e-19)
(1.0932 -0.0568453 3.17614e-21)
(0.698442 -0.0506608 -2.02528e-19)
(0.880732 -0.504722 0)
(0.813972 0.164998 -7.41006e-20)
(0.546416 -0.501528 -2.41437e-19)
(1.16046 -0.0687174 0)
(1.03458 -0.0217278 2.88736e-19)
(-0.110959 -0.862615 0)
(2.44424 -0.00111602 0)
(1.03654 -0.722848 1.36235e-20)
(1.00108 -0.00965668 2.33344e-22)
(1.05825 0.0120637 3.21036e-20)
(1.29112 0.317188 1.90271e-20)
(0.96455 0.0525204 3.42613e-19)
(1.01593 -0.0191922 -8.02461e-21)
(0.672771 0.151742 -2.74323e-19)
(1.02113 0.0014562 -2.03732e-22)
(0.860145 -0.00944278 0)
(-0.0380357 -0.0515944 1.47669e-19)
(0.867072 -0.607869 -1.28309e-19)
(-0.806797 0.40131 2.76241e-20)
(1.04513 -0.0355508 1.95816e-19)
(0.785667 -0.190078 0)
(0.967511 -0.0100266 3.23134e-20)
(1.3659 0.607251 0)
(1.70029 -0.927176 0)
(1.2895 0.177765 0)
(-0.467824 -0.162004 0)
(0.798766 -0.658033 2.3102e-19)
(0.887307 -0.386702 1.72261e-21)
(0.896458 -0.46672 3.08001e-22)
(1.40405 0.126454 0)
(1.0307 -0.136407 -1.79032e-19)
(1.027 0.0298595 1.43318e-19)
(0.38297 -0.505179 3.70456e-19)
(0.626484 0.503194 0)
(1.69935 0.213048 -3.79199e-20)
(0.967313 -0.471169 6.42977e-20)
(0.914488 0.0313402 -1.04136e-20)
(2.13247 0.0679594 2.02724e-19)
(-0.763884 -0.00918005 -3.96833e-19)
(0.844069 -0.761425 0)
(0.564491 0.327583 1.38282e-19)
(2.10846 0.623801 -6.60471e-19)
(-0.190363 -0.046785 -1.9193e-19)
(1.01896 0.0565245 -2.36055e-21)
(1.03092 -0.117855 0)
(-0.0786572 -0.236865 -4.45237e-19)
(0.682294 -0.0818485 6.4057e-20)
(1.59495 0.857412 0)
(0.150106 -0.996291 -2.05931e-19)
(0.87308 0.740313 -2.06316e-19)
(0.351434 -0.362948 6.77114e-21)
(0.995592 -0.00172695 0)
(1.00871 -0.014516 2.97409e-21)
(-0.557796 0.00856768 0)
(0.694152 -0.483939 -8.63041e-20)
(0.188804 -0.353395 -1.26842e-20)
(0.811728 -0.735199 0)
(0.42881 -0.297689 3.4073e-19)
(0.534817 -0.454054 2.27125e-19)
(0.441652 -0.397568 0)
(1.00619 -0.788425 -8.76742e-20)
(0.944132 -0.591673 0)
(-0.315853 -0.511961 -1.60358e-19)
(0.822398 -0.696991 1.08745e-19)
(1.86753 0.353841 1.42472e-19)
(1.70335 -0.222164 0)
(-0.888126 -0.884011 0)
(0.680694 0.625453 -2.49696e-19)
(1.8343 -0.516225 2.96369e-20)
(-0.673196 -0.477183 0)
(1.00242 -0.810798 -9.83665e-21)
(1.08605 -0.0767975 0)
(1.06401 -0.130737 3.18777e-19)
(1.80224 0.145581 -6.17899e-20)
(-0.333714 -0.0138316 0)
(1.23805 -0.527487 -3.90109e-20)
(0.516112 0.690675 -1.09878e-19)
(-0.793561 0.331826 0)
(1.1123 -0.813225 1.25947e-20)
(1.02023 0.0124675 -4.82468e-19)
(0.644205 -0.476071 -8.52089e-21)
(0.82142 -0.501352 0)
(1.23464 -0.712857 -6.30929e-20)
(0.650368 0.20667 2.1363e-19)
(1.24219 0.113932 0)
(1.53928 -0.0193062 -1.25075e-19)
(1.23325 -0.85528 -1.11174e-19)
(-0.915757 -0.998827 -2.09831e-19)
(0.104441 0.856277 -8.22315e-20)
(1.05401 0.00925508 1.81906e-19)
(0.925534 -0.455958 -8.08587e-20)
(1.05928 7.84483e-05 1.88614e-22)
(0.971154 -0.0231296 -2.02177e-21)
(0.947046 -0.202109 1.51528e-19)
(0.661525 -0.464666 -4.26269e-19)
(1.0034 0.00189023 0)
(1.05549 0.0187609 -2.04662e-21)
(1.45977 0.63655 7.13762e-20)
(0.814382 -0.602215 -1.68495e-19)
(1.00978 0.0290284 9.9043e-21)
(0.719822 -0.519291 2.37302e-19)
(1.31261 0.768199 7.18022e-20)
(1.56961 -0.0843352 1.11363e-20)
(-0.267094 0.0375931 0)
(1.01209 0.0731481 -1.89402e-19)
(0.454059 0.29641 1.4272e-21)
(1.08063 0.455205 6.07723e-20)
(0.867771 -0.326051 2.57788e-19)
(1.0193 0.0115774 -3.45604e-20)
(-0.182774 0.906506 -3.74567e-19)
(1.29922 0.537738 -4.7078e-20)
(1.14584 0.870013 0)
(-0.197579 -0.0565381 -3.87096e-20)
(-0.0686318 -0.0262123 0)
(0.639326 0.562331 -2.19729e-19)
(1.72256 -0.150414 -1.67262e-20)
(-0.374601 -0.0934403 9.24919e-20)
(-0.0307178 -0.0336897 -9.4999e-20)
(0.725022 0.059464 2.0186e-19)
(1.20921 -0.284336 -6.6089e-22)
(0.973861 -0.341458 -2.37831e-20)
(-0.705182 -0.856593 0)
(0.924027 0.0268598 -1.51884e-20)
(1.36785 0.972944 2.92457e-20)
(0.829608 0.0734338 -1.09719e-19)
(0.543154 0.514047 1.51697e-19)
(0.649546 0.214422 0)
(-0.225184 0.547621 -3.3757e-19)
(0.954716 -0.00150918 -1.02581e-20)
(1.36356 -0.973389 1.20728e-23)
(0.993149 -0.062993 -1.52523e-19)
(-0.155752 -0.239483 -5.82545e-21)
(-0.499856 0.439691 1.63264e-19)
(0.164383 -0.689003 -2.58721e-19)
(1.03051 -0.0830208 0)
(1.05557 0.0517144 -2.53869e-19)
(1.21159 -0.136314 5.304e-21)
(1.30069 -0.590582 6.32355e-20)
(1.03822 0.0222151 -1.56853e-21)
(0.591646 0.303137 0)
(0.932731 0.723502 -1.2051e-20)
(0.67065 0.612878 1.39177e-19)
(0.902306 -0.549976 1.16162e-19)
(0.66291 0.496337 0)
(0.988156 0.0134168 6.5537e-21)
(0.890527 -0.653888 1.65168e-19)
(0.817816 0.417697 -3.63173e-19)
(1.30949 -0.074632 0)
(-0.0973902 -0.0749202 -1.37452e-19)
(-0.0372585 0.212199 -3.10639e-19)
(1.61048 0.664388 0)
(1.41212 -0.93508 -1.03344e-23)
(0.120648 -0.480391 0)
(-0.453486 0.129367 9.83229e-20)
(0.714693 0.641305 -7.593e-20)
(0.825332 -0.228907 0)
(0.847427 -0.517356 0)
(1.99514 -0.420745 0)
(0.899333 -0.0827364 -2.31781e-20)
(1.2567 -0.881308 7.31317e-20)
(1.2079 -0.583688 4.33244e-20)
(1.13979 -0.0818009 -1.30156e-19)
(0.889325 -0.688018 -1.29636e-19)
(0.185289 -0.188323 0)
(0.481664 -0.182805 0)
(1.00668 -0.496498 1.34069e-19)
(-0.915932 -0.691118 0)
(-0.449437 -0.144567 0)
(-0.167264 -0.0193806 1.64741e-19)
(0.770415 0.654421 6.58754e-20)
(1.00926 0.767309 0)
(0.672772 0.549516 -6.74285e-20)
(0.806819 -0.0606645 -1.81632e-19)
(0.716978 0.556619 -1.79688e-19)
(0.578265 0.544641 -1.30636e-19)
(-0.85933 -0.349028 -8.09123e-21)
(0.734916 -0.653941 0)
(0.884556 0.168551 -2.58516e-19)
(-0.755059 -0.218592 7.67822e-20)
(0.58833 0.54684 2.8945e-19)
(0.950197 0.774047 0)
(0.896349 -0.0820324 -1.99764e-20)
(-0.14115 -0.463118 9.39417e-19)
(0.741809 0.180773 -4.9583e-19)
(0.649117 0.570307 -1.17134e-20)
(0.960032 -0.0210814 4.59393e-20)
(-0.464231 0.00199454 0)
(1.36198 0.204807 -3.15099e-20)
(0.970222 -0.0556946 9.66189e-21)
(0.662534 -0.607414 -5.88844e-20)
(0.490073 -0.50841 5.55057e-23)
(1.18111 0.41698 1.28731e-19)
(0.857331 0.410037 0)
(1.10679 -0.15476 1.50101e-19)
(0.350341 0.326465 8.44703e-22)
(-0.554591 1.09054 8.63355e-19)
(1.04487 -0.0108124 -4.15191e-20)
(1.14175 0.112396 0)
(1.44458 0.12162 -9.6219e-20)
(1.44705 -0.0583416 0)
(0.556054 0.229296 -3.77076e-19)
(-0.561589 0.448053 0)
(-0.847543 -0.462188 3.55402e-19)
(0.925829 -0.0385791 0)
(0.615908 -0.506267 -1.4641e-19)
(1.06747 -0.0247101 1.65704e-19)
(-0.382021 -0.0260856 2.29112e-20)
(1.19493 -0.0462658 -3.30157e-21)
(1.95623 0.296513 -1.25203e-19)
(1.08537 0.188519 -1.68856e-19)
(-0.633412 -0.0524841 -1.12276e-19)
(1.1034 -0.855546 0)
(0.824339 0.0230318 -1.20811e-19)
(0.944511 -0.367227 -2.29218e-19)
(1.76012 -0.51357 -1.08023e-20)
(1.49806 0.05046 1.08588e-19)
(1.03412 -0.0132512 3.04576e-19)
(0.333238 0.996259 -3.4773e-19)
(0.996224 -0.435216 -9.75715e-20)
(0.192975 -0.184882 2.07056e-19)
(1.03636 -0.0272821 0)
(1.03868 0.0119907 0)
(1.02666 -0.0335412 -4.33339e-21)
(0.0588164 -0.559931 -1.72743e-19)
(0.287462 -0.110455 -2.05298e-19)
(0.8833 -0.0398071 2.03078e-21)
(1.04009 -0.126411 0)
(1.16817 -0.257763 -4.32535e-21)
(0.986155 -0.844626 -4.39201e-20)
(1.90255 -0.498788 -1.0909e-19)
(1.10733 0.811351 0)
(0.467635 -0.447072 0)
(0.59726 0.520595 -1.41879e-19)
(1.07264 0.252552 -3.1053e-19)
(1.90117 0.169854 3.15043e-22)
(0.8456 0.146744 1.11233e-19)
(0.464846 1.25918 -5.99926e-19)
(1.0618 -0.0406594 3.44876e-21)
(-0.196279 0.803466 0)
(-0.759724 -1.0164 0)
(-0.254712 0.0926678 0)
(1.38157 -0.699553 -3.87764e-20)
(-0.750401 0.278896 -3.9016e-19)
(-0.853133 0.80589 0)
(1.31894 0.971281 -6.25181e-21)
(1.06756 0.15341 -3.24877e-19)
(1.00447 -0.00352506 2.81697e-21)
(1.09693 0.922013 3.85678e-20)
(-0.694725 0.0632343 2.23072e-19)
(1.03485 0.0152206 0)
(-0.203296 0.0652554 -1.41819e-19)
(-0.616006 0.115022 3.44456e-19)
(0.76924 0.029693 1.4847e-19)
(1.57325 0.909373 6.36852e-20)
(1.01878 0.00420415 2.67942e-21)
(-0.536036 0.494444 3.14248e-20)
(0.762571 -0.69089 -2.7496e-20)
(1.30325 -0.0228992 0)
(1.50725 -0.0307802 0)
(1.2369 0.00216496 0)
(0.987703 0.0215972 1.04799e-20)
(-0.32606 0.156878 5.65058e-20)
(1.0465 0.822202 0)
(0.945873 -0.00755425 4.0908e-19)
(0.737808 0.595789 -1.78568e-19)
(0.943916 0.00134348 8.16674e-21)
(0.858605 0.0270389 -3.32769e-20)
(0.726927 -0.656255 -1.67868e-19)
(1.38181 0.673339 -1.26067e-20)
(0.554982 -0.451715 -2.36666e-19)
(1.04367 -0.00412191 -3.64872e-19)
(1.04067 0.0249105 3.66305e-20)
(1.43085 -0.138648 3.91293e-20)
(1.01111 0.00248361 1.97837e-21)
(-0.796785 -0.801652 -1.96694e-21)
(1.08156 0.448167 -2.01352e-19)
(1.52267 0.640987 1.23418e-19)
(0.637404 -0.271357 0)
(0.0941692 1.03381 2.06025e-19)
(-0.118628 -0.0649904 5.71529e-20)
(-0.162979 -0.691599 -1.99867e-19)
(0.484248 0.295642 0)
(0.980931 0.00501915 0)
(-0.310682 0.44599 -2.56812e-19)
(-0.779169 -0.00787489 -4.98408e-20)
(1.03768 -0.0023294 1.44926e-19)
(-0.258587 0.0830497 -2.5006e-20)
(0.995327 -0.142532 1.1608e-20)
(0.154746 -0.770535 0)
(0.852074 -0.748989 -2.2092e-19)
(1.00737 -0.0109996 -2.43623e-21)
(0.293423 0.54717 7.18656e-21)
(0.716402 0.142398 2.6703e-19)
(0.628366 0.112701 8.70793e-20)
(0.499278 -0.46817 1.62181e-19)
(-0.680142 -0.452369 -1.49995e-19)
(1.03456 -0.0159287 0)
(0.397135 0.331601 -1.60568e-19)
(1.03115 0.0149269 -2.32381e-19)
(0.0130642 -0.0795913 4.06357e-20)
(1.43567 0.402071 -6.10658e-20)
(-0.899844 -0.681027 -8.37904e-20)
(0.742703 -0.669541 -1.83322e-21)
(0.801324 0.169248 -1.6546e-19)
(0.957583 0.418873 1.76015e-20)
(1.01419 -0.203874 2.85148e-20)
(0.583264 -0.238195 -2.44459e-19)
(2.00053 -0.0404113 -1.85266e-19)
(0.864289 -0.0113164 0)
(0.990342 0.00882475 2.55632e-21)
(0.897558 0.055595 -2.90991e-21)
(1.21155 0.746835 3.03341e-20)
(1.48592 0.318634 -2.72697e-19)
(1.01693 -0.0135112 -6.3464e-22)
(0.424588 0.388497 -2.06161e-19)
(0.353528 -0.803486 7.21998e-20)
(1.44276 0.623431 0)
(1.01775 0.00984062 0)
(0.900735 -0.788634 3.96983e-20)
(-0.365495 -0.30077 -1.03068e-18)
(0.60594 -0.253024 7.45137e-21)
(-0.841166 -0.842179 -4.05427e-19)
(-0.024354 -0.702221 -6.06783e-20)
(0.0826007 0.786833 0)
(-0.780223 -1.01064 8.72062e-20)
(1.16018 -0.503165 -2.88981e-19)
(-0.49928 0.378607 -3.60745e-19)
(0.77395 -0.131522 0)
(1.07824 0.0032467 -4.40822e-21)
(-0.143247 -0.114122 0)
(0.975913 -0.0140054 2.95259e-19)
(0.171806 0.99291 -1.12528e-21)
(0.530224 -0.427124 3.17178e-19)
(0.390826 0.234366 -2.36333e-21)
(0.860061 -0.011185 0)
(0.577355 -0.988606 2.1725e-19)
(1.01276 0.00512766 -8.75513e-21)
(0.913347 -0.642865 0)
(1.03561 -0.00345545 -4.53491e-20)
(0.872899 -0.727286 -2.16739e-19)
(1.00432 -0.0182067 0)
(0.963868 -0.275605 1.64687e-19)
(0.317722 -0.952148 1.71164e-19)
(-0.416354 -0.575566 0)
(-0.494175 0.486772 -7.30533e-21)
(0.731011 -0.625758 -3.34773e-19)
(1.03387 -0.00581837 -2.15916e-19)
(0.0474255 0.180093 1.23303e-18)
(-0.945151 -0.581536 2.69005e-19)
(-0.285422 0.658449 0)
(0.941737 0.461843 0)
(0.28381 0.753094 2.97372e-20)
(1.13671 0.279679 -8.16227e-21)
(1.08465 0.887106 1.13383e-20)
(1.01864 0.184879 -9.72187e-20)
(1.12166 0.0294042 -1.72325e-19)
(1.16114 0.0261207 -5.94565e-20)
(-0.378463 0.039193 -1.01506e-18)
(1.07739 -0.0651475 3.38703e-20)
(0.94872 0.040275 1.63088e-19)
(1.08802 0.0740067 1.25136e-20)
(1.18947 -0.0484491 0)
(0.939574 0.0825713 -1.66978e-20)
(0.982393 -0.00142032 -4.00103e-19)
(1.76806 0.551689 -3.49618e-20)
(0.731556 -0.44458 -1.29131e-19)
(-0.0937579 -0.344316 3.31435e-19)
(0.81203 -0.704941 2.87059e-19)
(1.21676 0.177482 5.53909e-20)
(0.998383 -0.0313621 2.00818e-19)
(0.0334794 0.839022 -3.23339e-19)
(1.00016 0.0147509 0)
(1.04929 0.0232471 2.00573e-21)
(-0.391692 -0.690425 0)
(1.04154 -0.00453546 -1.18272e-19)
(0.922757 -0.0206215 2.64946e-20)
(1.64168 0.184486 6.8467e-21)
(-0.138777 -0.0326497 6.49588e-20)
(1.52999 -0.00833839 -1.3978e-20)
(1.07809 0.0051537 4.12595e-20)
(1.34803 -0.0509281 0)
(1.48031 -0.569425 -6.91048e-20)
(1.02267 0.0303439 -1.24013e-19)
(1.44877 0.760814 3.16542e-21)
(1.2778 -0.0557241 0)
(1.01842 -0.0165887 1.55152e-21)
(-0.307345 0.513836 0)
(1.44459 0.0304649 0)
(-0.445897 0.10125 0)
(1.18952 0.440578 0)
(2.0616 -0.16881 5.76402e-20)
(0.718479 0.608757 3.1277e-19)
(0.289718 -0.289459 -1.91996e-19)
(-0.891841 -0.299109 -5.89593e-19)
(-0.753642 -0.950647 0)
(1.03156 -0.018 -3.45702e-21)
(1.64945 0.486229 0)
(1.42408 0.256127 0)
(-0.159336 0.132527 5.99e-20)
(0.798253 0.694259 9.38355e-20)
(1.65514 0.0914734 0)
(-0.467599 -0.269907 7.35573e-20)
(0.890468 0.209003 1.51959e-19)
(1.02236 -0.0438213 1.71633e-21)
(1.25634 0.911268 2.3193e-20)
(0.967832 -0.861012 -1.39976e-20)
(0.860414 -0.00575354 5.87542e-22)
(0.786827 0.701399 9.48768e-20)
(1.19757 0.918888 0)
(1.09136 -0.0639476 -3.52597e-21)
(0.980064 0.0750081 0)
(1.02132 -0.0399361 -3.67438e-21)
(1.33766 0.353176 3.75716e-19)
(0.999656 -0.025984 0)
(0.957197 0.0762863 -1.51641e-20)
(0.878976 -0.188159 3.82921e-20)
(0.617705 -0.409008 0)
(0.651323 -0.381119 1.7134e-19)
(1.22991 0.5418 -2.3158e-20)
(0.472409 0.451398 2.20944e-19)
(-0.492481 0.355092 3.76798e-20)
(1.3438 0.0587934 2.90171e-19)
(1.04126 0.0965273 0)
(1.37581 -0.897559 -1.12666e-20)
(1.0248 -0.0142452 3.2251e-19)
(1.72029 0.3389 2.15469e-19)
(-0.399329 -0.130143 5.95995e-20)
(0.546249 0.251168 0)
(1.17448 -0.170095 -8.67976e-20)
(-0.478312 -0.70144 -3.46012e-19)
(0.90902 0.199624 2.16426e-21)
(-0.100696 0.0307908 1.12324e-21)
(-0.208789 0.0508705 4.52666e-19)
(1.05098 0.000544733 1.19903e-22)
(1.4577 0.218213 4.22527e-20)
(1.18365 0.409558 -2.07594e-19)
(1.14902 -0.0752789 0)
(1.34061 0.0224677 4.43899e-20)
(1.33645 0.000794057 3.38268e-20)
(0.926515 -0.770239 1.03489e-19)
(1.22801 -1.01073 1.52505e-21)
(0.47288 0.443833 1.4658e-19)
(1.00254 0.116054 0)
(1.80075 0.480083 6.70679e-20)
(-0.571653 -0.843825 -7.18838e-19)
(0.880615 0.753484 0)
(1.03031 -0.0238196 0)
(0.288767 -0.287015 -3.48918e-21)
(0.325722 0.291357 0)
(0.566774 0.128457 2.02498e-20)
(-0.523608 0.280045 -1.29844e-19)
(1.93154 -0.380215 0)
(1.24969 0.0991282 9.09673e-20)
(0.604652 -0.38901 -5.47372e-21)
(0.537321 -0.504681 -3.66694e-19)
(1.25943 0.136877 -7.73957e-21)
(0.61781 -0.554741 0)
(1.11719 0.0741547 0)
(1.68919 -0.293776 0)
(1.07475 0.219538 -1.82181e-19)
(1.19513 0.0726418 2.5711e-19)
(0.818429 -0.0317121 0)
(0.966112 0.0201925 0)
(1.09993 -0.05472 1.36487e-21)
(-0.801604 0.823912 2.49423e-19)
(1.19542 -0.142289 -6.44685e-21)
(1.27871 -0.560187 2.82401e-19)
(0.974347 -0.059974 -9.89843e-21)
(0.376639 -0.255682 -7.66777e-22)
(1.28874 -0.132989 -3.49471e-20)
(0.95668 -0.030373 3.33031e-19)
(1.54384 0.531816 0)
(-0.618516 0.170755 3.68043e-20)
(1.0263 -0.837016 1.18667e-19)
(0.86037 -0.019114 3.88963e-20)
(0.623491 -0.429624 0)
(1.95149 -0.340459 1.15356e-20)
(1.24043 -0.153639 1.10934e-19)
(0.979258 0.00142817 0)
(0.622481 -0.57546 3.27792e-19)
(1.00815 0.0290277 2.45187e-21)
(1.17444 -0.141434 5.12726e-21)
(-0.937996 0.637271 -4.68501e-19)
(1.33781 0.596175 9.03278e-20)
(1.12991 0.372906 2.71796e-21)
(0.878633 0.368546 1.7776e-19)
(1.0742 0.228494 1.14551e-21)
(-0.525445 0.409672 2.81744e-20)
(1.29136 0.813453 0)
(-0.120748 -0.109975 5.02803e-19)
(1.177 -1.00556 0)
(1.06996 -0.637088 1.58761e-20)
(1.02649 0.373994 5.73318e-21)
(1.0269 -0.0092012 -7.33833e-22)
(0.048124 0.369064 -6.2191e-20)
(0.976931 0.466691 1.34855e-19)
(0.968945 0.0351759 -1.15716e-20)
(0.878201 -0.00694602 0)
(0.868232 -0.0226226 0)
(0.856968 -0.0199574 -4.11531e-22)
(0.843399 -0.0199451 0)
(1.29949 -0.160681 -1.14145e-19)
(0.493528 -0.10645 -2.55324e-20)
(1.91022 0.420984 7.37148e-20)
(1.06627 0.0200349 0)
(0.538574 -0.358365 8.40895e-20)
(0.988885 0.023928 1.58231e-19)
(0.987098 0.0307914 9.16751e-21)
(0.178626 -0.666437 0)
(1.13074 -0.455985 3.64929e-19)
(1.01448 -0.0154898 8.60263e-24)
(1.10162 -0.477224 -1.59123e-19)
(1.92755 -0.139111 1.44719e-19)
(1.28745 0.771757 0)
(1.01128 0.00897426 0)
(-0.316731 -0.0391511 -1.14276e-19)
(-0.345013 0.551092 2.90088e-19)
(0.920662 0.362095 -1.62245e-19)
(0.745078 1.1901 -1.97009e-19)
(0.63238 0.390811 1.96699e-19)
(0.997219 0.00637227 0)
(0.549095 -0.50779 0)
(1.03862 0.00764265 2.34675e-22)
(1.23638 -0.467762 -7.09549e-20)
(1.67287 -0.0602855 3.56492e-20)
(0.70671 -0.161921 9.61021e-20)
(-0.623194 0.972948 -6.14804e-19)
(1.09802 -0.404966 3.40042e-21)
(0.646245 0.602278 0)
(1.26575 0.670371 0)
(1.50398 0.193538 0)
(-0.245061 0.59695 -8.25551e-20)
(1.44895 0.586784 3.21577e-19)
(1.27842 0.0828571 7.56048e-21)
(1.08863 -0.0245849 0)
(1.03032 -0.0306381 0)
(1.3172 -0.0855541 -2.90965e-20)
(0.983732 0.0608196 -1.07789e-20)
(1.01811 -0.00164146 -1.57342e-19)
(1.44991 0.459203 0)
(-0.0252385 -0.644388 0)
(1.19876 0.265645 2.18592e-19)
(1.02828 0.504118 -9.85202e-20)
(1.02482 -0.0142374 0)
(1.04063 0.172229 0)
(2.1631 0.568588 -4.47659e-19)
(-0.667864 0.0623967 1.88519e-20)
(1.03743 -0.00282938 0)
(0.681087 0.462253 -2.66464e-20)
(0.968798 -0.842182 0)
(1.03448 -0.0113879 3.65421e-20)
(1.00572 0.0286259 7.47003e-21)
(0.91877 -0.307703 2.40338e-19)
(1.01112 -0.0235895 -4.33784e-21)
(1.66262 0.188024 1.37256e-19)
(1.04867 0.0122854 -1.08758e-21)
(0.803062 -0.113106 0)
(1.02977 -0.0335516 0)
(0.419789 0.447685 0)
(0.656106 0.623295 -1.40442e-19)
(-0.67113 1.04099 4.09061e-19)
(1.12437 0.33521 -3.50851e-19)
(-0.205774 -0.117159 0)
(0.802596 0.628674 1.30346e-19)
(1.00602 -0.354158 0)
(0.990686 -0.0224898 9.05486e-20)
(0.955111 0.141213 -1.94171e-21)
(1.03692 0.365593 1.93447e-19)
(1.15162 -0.440997 0)
(1.63975 -0.170043 -2.48176e-20)
(0.796641 -0.128621 -2.93893e-19)
(0.657953 0.115704 3.18592e-20)
(0.981642 0.114218 0)
(0.867976 0.221021 1.40143e-19)
(1.52254 0.384 0)
(0.742135 0.514449 2.86483e-19)
(0.615324 -0.045239 -1.32962e-20)
(-0.793045 0.986249 0)
(0.578117 0.554412 -5.48112e-20)
(1.03147 -0.626048 -1.1192e-19)
(0.467763 -0.264395 -1.00151e-19)
(1.00553 -0.0469123 0)
(0.430859 -0.626666 -1.29242e-20)
(0.63756 -0.558393 6.47834e-20)
(0.887999 0.270301 0)
(1.03641 -0.0345792 -4.81863e-21)
(0.986862 0.822793 1.70304e-20)
(0.994127 -0.0183623 -6.97163e-21)
(1.67191 0.408776 -7.15886e-19)
(0.236564 -0.0721185 -4.58417e-19)
(-0.910735 -0.896785 1.86213e-20)
(0.797436 0.348218 1.96153e-19)
(-0.729011 0.237264 -7.34666e-21)
(1.43889 -0.610142 3.3551e-21)
(1.02903 0.0209065 -2.75156e-19)
(0.0215737 0.528688 0)
(1.00972 0.023994 -3.21606e-19)
(1.1289 0.142966 -9.52645e-22)
(0.869141 0.668354 2.14011e-19)
(1.04237 -0.0678767 1.27555e-19)
(0.977984 0.0053781 1.26429e-19)
(1.01583 0.0426615 6.15605e-22)
(-0.293481 -0.187248 -1.60802e-21)
(1.8717 -0.856731 1.85373e-20)
(1.19402 -0.140162 -4.79179e-20)
(0.997026 -0.0249535 5.57474e-20)
(0.921281 -0.287898 7.17392e-20)
(0.81327 -0.0309707 0)
(0.953537 0.708885 0)
(0.952976 0.164634 2.31374e-21)
(1.76473 0.00569291 -1.69287e-20)
(0.414533 0.074942 -6.91824e-21)
(1.02878 -0.525604 -3.91545e-19)
(0.61198 -0.523079 3.12659e-19)
(1.70384 -0.830352 -6.59276e-20)
(1.38392 0.934177 3.23691e-20)
(1.01358 -0.000866555 0)
(0.760479 0.10521 -5.47024e-21)
(1.0007 0.000877296 7.60042e-21)
(1.04077 0.736063 0)
(1.04579 0.00404673 0)
(0.872081 -0.289901 0)
(-0.81324 -0.538111 -9.34858e-20)
(0.493209 0.276527 0)
(1.02278 0.0436649 -1.10706e-20)
(1.18042 0.167065 4.86501e-21)
(0.876395 -0.0146825 -1.05984e-20)
(1.04518 0.000822695 -8.86333e-22)
(1.88566 0.290577 -1.32207e-19)
(1.94992 -0.0240236 -2.41419e-20)
(-0.197088 0.014486 -3.24444e-19)
(-0.0618373 1.01736 5.4624e-21)
(1.0354 0.00123759 0)
(0.813079 -0.00929521 0)
(0.984887 -0.00219113 -4.92193e-22)
(-0.179907 0.471319 0)
(1.28355 0.0157192 -5.16529e-20)
(0.7917 -0.00226257 0)
(1.03673 0.0373846 1.04693e-19)
(1.04844 0.0203831 -3.58416e-20)
(1.05158 -0.343595 -5.7198e-21)
(1.00988 0.0380596 -7.40892e-22)
(0.943081 -0.20654 -4.32624e-20)
(1.02766 -0.0292287 2.93428e-19)
(0.672711 -0.599933 1.4548e-19)
(0.951531 -0.0312039 1.13049e-20)
(0.983697 0.00307126 -1.25703e-21)
(-0.42037 0.700505 0)
(1.13254 0.771519 0)
(1.00509 -0.0208709 0)
(1.01397 -0.769801 -7.48866e-20)
(1.09761 -0.921606 -1.64215e-21)
(1.0277 -0.0245129 3.35273e-21)
(0.907753 0.0960351 3.25405e-20)
(1.02225 0.0141199 1.18275e-21)
(0.570928 -0.38921 -5.11854e-19)
(0.980691 0.0102723 3.98655e-21)
(1.00019 -0.00783304 -3.75648e-21)
(2.00954 0.13087 1.12193e-19)
(1.00949 0.00953255 2.66824e-21)
(-0.625179 -0.272942 -1.4068e-19)
(1.11215 0.541829 1.43621e-19)
(0.782057 -0.289838 0)
(0.526948 1.11181 2.19106e-19)
(-0.528432 -1.02053 1.87257e-20)
(1.02583 0.00480961 2.6284e-19)
(1.04845 -0.0222715 -6.83723e-21)
(1.02932 -0.000957414 -7.28078e-20)
(1.00952 0.0213342 1.17523e-21)
(1.53733 0.251805 2.9366e-20)
(0.391342 -0.366366 -2.53075e-19)
(0.999059 0.045484 -6.13179e-21)
(1.02562 9.47741e-05 -1.93533e-19)
(1.05761 0.0106345 1.29371e-21)
(1.02851 -0.0196251 0)
(1.1206 0.573076 -2.67248e-19)
(1.01811 0.0266427 7.24702e-20)
(0.660566 0.602527 2.04131e-19)
(1.04812 -0.0088777 -1.00466e-22)
(1.00849 0.0298144 -2.41977e-20)
(1.00591 -0.00411536 6.8438e-22)
(1.29924 -0.206049 6.86081e-22)
(0.793358 0.0212159 0)
(0.992525 -0.0141437 0)
(1.07247 -0.0322264 4.56411e-19)
(1.02537 0.0123919 0)
(-0.702212 -1.06111 0)
(1.11889 -0.6641 0)
(1.0318 -0.0143858 -4.2766e-19)
(1.17497 -0.662743 5.57457e-20)
(0.996712 -0.0204968 9.09845e-21)
(1.37005 0.936671 -2.24131e-21)
(1.56285 0.984786 -1.66069e-19)
(1.00021 0.0114937 -2.02063e-21)
(1.00641 0.14578 -4.13069e-21)
(0.849489 0.017525 0)
(-0.120086 -0.15726 0)
(1.19791 0.321559 7.56869e-21)
(0.984922 -0.0504634 0)
(0.994958 0.00183749 -1.33787e-19)
(1.02216 -0.0114988 2.60314e-19)
(1.27621 0.0769483 -5.19457e-20)
(0.0421404 -0.0707129 3.98945e-19)
(1.01382 -0.0146313 1.4365e-19)
(1.01613 -0.015404 -1.98934e-21)
(1.04296 -0.0260326 1.69512e-21)
(1.00319 0.00895185 4.43191e-23)
(0.990082 -0.0298197 -1.42564e-19)
(1.00943 0.00652185 1.68375e-19)
(0.979336 -0.00633598 9.84181e-21)
(0.839354 -0.028793 0)
(0.843066 0.0273465 0)
(0.826535 -0.00985134 -2.61761e-22)
(0.809342 0.00849592 0)
(0.871248 -0.00536391 0)
(0.777774 0.0572988 0)
(0.832978 -0.0585977 -2.83362e-21)
(1.01555 0.0182529 6.53573e-22)
(1.02008 -0.0046723 0)
(1.01224 0.00399589 1.8467e-21)
(1.02084 -0.00552559 0)
(0.854732 0.0347066 0)
(0.80085 0.00488033 0)
(0.818693 -0.00180031 -3.71336e-24)
(0.813575 -0.0121573 -5.00093e-21)
(0.913008 0.0516632 0)
(0.830661 -0.0198107 0)
(1.04696 0.0292882 -1.77e-19)
(0.867139 0.00179143 3.29657e-19)
(1.00433 0.000367205 0)
(1.02511 0.0106849 3.11811e-19)
(1.01716 0.00343407 1.23291e-22)
(0.85187 0.0290015 2.8004e-19)
(1.02255 -0.0225784 -1.64012e-19)
(1.01089 -0.0153274 0)
(0.799035 0.00932345 -1.69654e-21)
(0.95589 -0.00525242 -1.57643e-19)
(0.986267 0.00665587 -2.70458e-19)
(1.01769 0.00377846 0)
(1.00433 0.00187426 0)
(1.02489 0.00164719 0)
(1.00885 -0.00239573 -3.27154e-21)
(1.00984 0.00508198 1.85519e-21)
(1.02299 -0.0303697 0)
(-0.294559 0.128936 1.22474e-19)
(0.963234 0.0375365 1.48895e-20)
(1.0012 0.00377796 -2.11008e-19)
(-0.65025 0.059047 -8.81204e-20)
(1.01762 0.00502128 -1.70992e-19)
(1.29974 -0.159659 -6.63008e-20)
(0.799628 -0.456746 2.40338e-19)
(-0.842653 -0.921451 -1.74808e-19)
(1.04329 -0.0145813 0)
(1.06312 0.0252802 -4.57694e-20)
(1.02261 0.0158427 0)
(-0.413045 0.948819 5.39973e-19)
(1.02721 0.000158525 0)
(-0.286189 0.280339 -1.30808e-19)
(1.00578 -0.0112563 1.80263e-21)
(1.68047 0.613919 1.03268e-19)
(-0.161884 0.488716 0)
(1.02517 0.00978087 1.44276e-19)
(1.0144 0.0193374 2.69746e-22)
(0.914034 -0.00487366 2.24918e-19)
(1.03194 -0.0158034 -1.41869e-19)
(1.71448 0.803761 9.91159e-20)
(0.520085 0.495983 0)
(0.453009 0.398765 1.67356e-19)
(1.00604 0.0296419 5.47396e-22)
(1.1106 0.138802 1.51335e-19)
(1.09266 -0.699828 0)
(1.02037 0.0201922 0)
(1.00045 0.0241137 -3.29352e-19)
(1.02162 0.0340051 -3.23462e-19)
(-0.973035 -0.732428 0)
(1.22889 0.79947 -7.32964e-20)
(1.0421 -0.0177217 1.06961e-22)
(1.02172 -0.00722201 1.24196e-19)
(1.04007 0.00251002 -1.55531e-19)
(-0.114159 0.201501 -1.04262e-20)
(1.01532 -0.0142605 -3.45061e-21)
(1.01328 0.0388801 5.29487e-19)
(1.03472 0.0294343 0)
(1.97743 0.548666 -1.06382e-19)
(1.03029 -0.00808006 -1.65609e-19)
(1.16235 0.0681167 -1.23532e-20)
(1.03042 -0.00459615 -3.83734e-22)
(0.997536 -0.0314591 3.26346e-20)
(1.65476 0.388564 -1.22963e-19)
(1.01622 0.0168277 1.61092e-19)
(1.02565 -0.00985609 -2.94022e-22)
(0.954619 0.0138267 0)
(0.927871 0.144578 3.93535e-20)
(0.818611 0.0546833 -3.12202e-22)
(1.04061 0.0311457 1.5986e-19)
(1.03928 0.00173699 1.75957e-22)
(1.00899 -0.00148288 -8.15741e-22)
(1.23334 0.300467 2.93363e-19)
(1.027 0.0117889 1.08612e-19)
(0.982506 -0.0238445 1.33989e-22)
(1.66108 0.128282 -4.52788e-21)
(1.95558 0.953547 -1.57229e-19)
(0.792436 -0.70616 4.24894e-20)
(0.440727 -0.336605 -2.49072e-19)
(1.00459 0.0512654 0)
(1.01077 0.000103539 4.00999e-20)
(1.00326 -0.00298134 8.4898e-20)
(0.998492 -0.0199508 1.59444e-23)
(0.967144 0.0221938 -1.63833e-19)
(1.02196 -0.0547432 1.90948e-19)
(1.06859 -0.00711533 -1.58202e-19)
(0.996606 0.0365203 -1.25268e-22)
(0.987144 -0.00923325 -5.22477e-22)
(1.03294 0.027429 1.58772e-19)
(0.879911 0.0887948 4.10034e-19)
(1.03823 0.0297062 0)
(0.925908 0.311595 -8.18022e-21)
(1.03905 -0.000438066 0)
(1.02332 -0.0156178 -4.60892e-20)
(1.5351 0.334087 -3.95501e-20)
(0.95714 0.034569 0)
(1.0675 -0.0205165 3.61109e-21)
(1.02022 0.0370554 2.05254e-21)
(0.968307 -0.00421293 0)
(1.31276 0.361539 0)
(0.988609 0.023737 9.26271e-21)
(1.03984 -0.00448125 2.65041e-22)
(1.01722 -0.0228978 -1.67487e-19)
(1.12793 -0.545559 -4.45568e-20)
(0.995471 0.0131173 -1.45131e-21)
(1.02437 -0.00884175 0)
(0.992283 -0.022288 0)
(1.02425 0.0314321 0)
(0.786199 -0.793529 1.73779e-19)
(1.03873 0.0188099 2.49765e-21)
(0.976309 0.0125193 0)
(0.373768 -0.95815 -8.45588e-20)
(1.74776 0.934631 -1.45587e-19)
(1.01401 -0.0175164 -3.26309e-19)
(1.03753 0.0184028 -8.23781e-22)
(1.02828 -0.026392 2.188e-19)
(0.935432 -0.0159855 0)
(-0.817348 -0.789187 -7.04905e-20)
(0.605189 0.422377 -2.7655e-19)
(1.06932 0.0189424 -4.66851e-21)
(0.409492 -1.08092 0)
(0.929378 0.25447 5.83554e-20)
(0.514705 0.499201 4.10277e-20)
(1.19581 0.864622 -1.80713e-20)
(-0.217167 -0.463348 2.31614e-19)
(0.998227 0.00359759 0)
(1.02967 0.0143261 1.717e-21)
(1.01228 -0.00762407 1.22826e-19)
(1.45872 -0.274755 0)
(1.00146 0.0175125 2.05089e-19)
(0.536063 1.19636 -1.16747e-19)
(1.00722 -0.00942586 -1.28606e-19)
(1.01834 -0.00352691 0)
(1.06588 -0.00955137 -9.30571e-24)
(1.00163 -0.00424986 -8.56861e-20)
(0.992112 -0.0648737 2.2673e-19)
(1.06367 0.08796 -2.8542e-21)
(1.02526 0.00205358 -1.75035e-21)
(-0.0356875 -0.339742 5.35026e-19)
(2.14425 -0.445599 1.61056e-19)
(1.0195 -0.00189516 2.05906e-21)
(0.85489 -0.0161942 -3.1085e-19)
(0.945882 0.0173965 0)
(1.02668 0.00458566 2.4922e-21)
(1.01909 -0.0163792 -2.49754e-20)
(0.944662 0.0382642 0)
(1.02066 0.00230617 -1.5799e-19)
(0.996217 0.00239793 -3.0884e-21)
(0.670408 0.0246075 -1.39596e-20)
(2.28323 -0.326075 0)
(0.835699 -0.0792104 3.4796e-20)
(1.47133 -0.279399 0)
(1.00154 -0.0134994 4.68596e-20)
(1.02128 -0.0152729 -1.66574e-22)
(1.07015 -0.0121056 1.31022e-19)
(0.65717 -0.194053 -2.5259e-20)
(1.00026 -0.00644278 0)
(1.02688 -0.00167548 -3.20222e-19)
(0.983414 0.00461687 1.68765e-19)
(1.02422 0.00461745 0)
(1.02761 0.00602051 9.16474e-22)
(1.01213 0.00526341 -1.45664e-19)
(-0.737987 0.0848546 5.36626e-19)