/*--------------------------------*- C++ -*----------------------------------*\
| =========                 |                                                 |
| \\      /  F ield         | OpenFOAM: The Open Source CFD Toolbox           |
|  \\    /   O peration     | Version:  2306                                  |
|   \\  /    A nd           | Website:  www.openfoam.com                      |
|    \\/     M anipulation  |                                                 |
\*---------------------------------------------------------------------------*/
FoamFile
{
    version     2.0;
    format      ascii;
    arch        "LSB;label=32;scalar=64";
    class       volScalarField;
    location    "3.9";
    object      p;
}
// * * * * * * * * * * * * * * * * * * * * * * * * * * * * * * * * * * * * * //

dimensions      [0 2 -2 0 0 0 0];

internalField   nonuniform List<scalar> 
2186
(
0.785431
-0.397701
-0.0674723
1.04283
-1.06764
0.00542968
0.658248
-1.44063
-1.35379
1.28324
1.00075
-0.911386
-1.26199
1.01669
-0.612244
1.01451
1.03046
-0.62773
0.00357984
-1.3189
1.37772
-0.96985
1.01096
-1.06106
1.00022
1.01942
1.20876
0.877259
0.530894
1.01755
-1.14724
0.995357
-1.79166
-0.0511766
-1.4467
0.0261354
-0.0628567
1.36605
-0.816473
0.00981105
-1.27441
-1.0114
-0.769482
-1.09639
0.862662
1.26771
0.325162
0.498748
0.00787559
-1.63923
-1.16171
0.83655
-0.719649
1.29662
-1.69434
0.925398
-0.842331
0.951536
-0.760647
0.832155
-0.0188382
0.580436
0.490861
0.0188347
0.521247
0.438491
0.608777
1.2684
1.16454
-0.963803
-1.51559
-0.0147118
1.24111
0.978483
1.14936
1.12442
-0.0214211
1.02058
-1.512
-1.23453
-0.649729
0.0183301
0.994855
0.56404
1.01279
1.00806
1.27043
0.00319712
0.0322035
-1.17682
0.928468
-1.86103
0.943238
1.14652
1.00629
0.352955
-0.198528
0.517798
-1.29003
0.965274
-0.0893991
-0.206758
0.59633
0.952209
1.03025
-2.23047
1.18399
-0.412541
0.912169
0.112482
-1.08002
-1.75218
0.524594
1.29448
-1.52751
-0.786231
0.0207207
0.0308376
-1.18393
1.24347
-0.124942
-1.77532
0.79501
-0.35335
1.01237
0.014773
-1.33291
1.11785
-0.5279
0.639482
1.35367
1.2071
0.21219
0.630891
-0.376967
-1.98201
0.8979
-0.657537
-0.290756
-1.60025
0.734292
-0.244582
-1.43036
0.681838
0.925683
0.962415
-0.485927
-1.0277
0.591276
-1.30435
-1.69706
0.562032
1.0207
1.15515
1.02226
0.506611
1.26595
0.387267
0.278772
0.404509
-1.57872
-1.22208
0.970236
0.968008
0.00222666
0.0119235
-0.854269
-0.965539
0.0301112
0.020603
0.290946
0.971673
1.02892
1.0838
0.356529
-0.224755
-0.90843
0.975992
-0.189777
0.811867
-0.987699
1.01072
-1.44151
0.479612
0.456257
-0.85641
-0.663193
1.10072
-0.334404
-1.05627
-0.583706
1.2381
-0.150406
0.964765
-1.47184
0.0951914
-0.0178968
1.15458
1.03169
-1.00236
-2.2942
0.0831252
0.0519235
1.02651
-1.07445
-1.34413
-1.0977
0.035238
0.948881
-0.111559
0.505814
0.0368756
1.28053
0.766664
0.867596
0.92991
1.15414
1.01953
0.876966
1.06701
0.367691
-0.740503
-1.96821
0.0176322
0.164827
-0.786605
-1.25442
0.998427
1.11862
-1.58262
-0.90398
0.101695
0.351743
0.633494
0.78535
0.878347
1.09277
-0.0767977
0.865369
-1.60638
-1.47845
-0.756258
0.956352
0.664218
1.12078
1.16458
1.07783
1.05531
-1.7127
0.807477
1.0887
-1.56721
0.941233
0.712751
0.10444
-2.05263
-2.35367
1.12276
1.01943
-1.1562
-0.227695
0.0412958
0.933606
-0.345666
0.690934
1.03518
0.910518
-2.5365
-1.38604
0.970163
0.593175
-0.280793
-0.290611
1.32293
-1.37658
-1.58701
0.890737
1.1583
1.00509
-1.12082
-0.130047
-0.722529
0.886206
-1.43413
0.529473
0.977459
1.01074
-0.221056
-0.265788
0.958201
-2.69067
0.91137
1.16691
1.01728
1.02451
0.0527037
-2.25284
-1.19885
-0.0427363
0.0495241
-0.0682915
0.358247
-0.588394
0.539385
1.14351
1.18099
0.881322
-0.624796
1.12359
-2.37345
0.0148417
-1.49695
-1.59913
-0.933564
0.335296
-1.74812
-1.57701
0.0711234
0.897513
0.033729
0.302106
-1.99724
0.0292144
-0.864472
-1.56802
1.2044
-0.119168
0.0304635
-1.85033
0.773034
0.49527
-0.281137
0.559047
0.0789637
-1.02721
0.592731
1.0345
1.03917
0.093439
1.13947
0.870524
0.306872
1.21834
0.999024
0.970637
0.361121
0.00968918
-1.56476
0.823663
-1.17514
-2.24039
-1.94392
-0.694656
-1.14915
1.34757
0.0444178
-1.22593
-1.75335
0.997749
-0.86907
0.0445058
-2.43489
0.745275
0.00565491
-0.574065
1.23353
1.29679
1.10154
-1.40955
0.0317153
1.36349
1.01131
-0.552695
0.381363
-1.62956
0.145614
1.15553
0.94775
0.89486
1.28126
-0.54746
0.00165745
0.0283728
-0.0340819
-0.853733
-0.902209
0.0120325
1.29132
-0.948277
-0.713105
1.00073
0.569232
-2.10996
-0.0168296
-1.57734
-1.25994
-1.14026
-1.5078
-2.38909
-1.27864
1.17967
0.022918
-0.767392
1.01566
-1.63058
1.23632
-0.237363
0.131069
-2.50001
0.996537
-1.30118
1.01466
0.83119
0.0566007
1.03056
-1.8081
-1.33072
-2.1544
0.991629
0.965013
-2.43799
-1.72647
-1.33205
0.945857
-0.969394
-0.0860021
0.436723
0.924023
0.908951
0.721408
-2.37858
-0.161159
0.805371
-0.179358
0.835717
0.103903
1.02917
-0.121958
1.11122
-1.19284
0.836026
0.667828
1.031
-2.59515
1.00367
-0.0164755
-1.32102
0.997132
0.110679
0.120314
-0.714603
-0.118742
1.00102
0.133108
0.282365
1.00168
0.162414
-0.0667583
0.017069
-1.21765
0.248532
-1.16478
0.660894
-0.96198
1.03776
1.10937
-1.84303
-1.45649
0.015174
-1.01241
0.379282
-0.811576
0.779581
-0.00261212
-1.20143
1.07545
0.0214571
0.294
0.275082
0.00510293
0.739383
0.264749
0.00648967
0.0797284
0.0273884
-1.00594
1.02628
0.0930769
1.1002
1.20493
1.19331
0.598953
1.14157
-1.23721
-1.79914
0.879242
0.199379
0.998751
-0.82576
-1.06176
-0.0776121
0.762179
-1.35272
0.0934507
-1.08672
-1.12993
0.00499078
-0.234675
0.691418
0.68353
-0.238057
-0.219365
0.735922
0.0442969
1.10879
0.0701476
-0.265813
-1.39075
0.70069
0.023465
1.14735
1.37885
0.011817
-1.28375
-0.900587
0.231518
-0.16613
1.01656
-0.216254
0.97455
0.727197
-1.16021
0.84215
0.810453
0.13029
0.888503
-0.0675162
-1.57083
-0.0714076
-1.07845
-0.0951113
-0.199964
-0.250096
1.01442
0.138044
-1.46989
0.576934
1.13687
1.19092
-0.362198
0.717818
0.0297676
0.76341
0.0201762
-0.072723
-1.66848
0.437251
0.76618
1.03359
-0.0257309
-2.40399
-0.907034
-1.12964
-0.157522
0.716045
-0.0784981
0.0148107
-0.707356
0.904219
0.0833626
0.955121
-0.0166792
-0.0158246
0.970646
0.658686
-0.0220881
-0.294054
0.968014
1.26939
1.03211
0.0731432
-1.05166
0.782062
-0.00840397
0.769434
-0.647632
0.380508
0.960713
-0.968468
-1.24335
0.989613
-2.35728
1.21851
0.0180478
0.861385
0.0224509
0.610255
-1.57006
1.22215
-1.43888
-0.1708
0.920223
0.465733
0.432974
-1.12729
-1.09363
-0.197221
0.764406
0.017917
-0.200835
0.0709029
1.01962
0.323864
-1.32529
0.714757
0.854116
0.985018
0.0169992
-0.923639
-1.95206
1.01658
1.15006
0.477705
1.00587
0.0359322
1.04566
0.0213775
-0.45301
0.00811837
0.952912
0.988853
-0.360026
0.800877
-1.40604
0.77557
-0.885391
0.964757
0.942257
1.02562
0.0825708
0.885232
-0.332131
-0.373953
1.16048
0.0719659
0.0713241
1.09427
-0.595923
1.07708
0.0699915
-1.5096
1.01129
0.766813
1.33644
1.00766
-0.62947
1.06243
1.06169
0.0311163
0.573276
0.0368165
-2.28856
1.47103
-1.67714
1.10879
-1.63439
0.295346
1.00261
-0.864475
0.985046
-0.0232018
0.883171
0.976593
1.02283
0.0151724
-0.969347
-0.692352
0.623857
0.670036
1.0557
0.0190586
0.781041
0.0734905
-0.26674
-0.112454
0.816784
1.12437
-1.26956
-2.703
0.0251986
1.22016
0.0286653
0.682923
0.0266674
-0.000105872
-1.54874
-0.975899
0.0568483
0.77948
0.116333
0.0296682
-0.426357
-0.516163
-1.11156
-1.89864
0.0205481
0.976096
1.02203
-0.986495
-0.234605
0.996237
0.940673
1.02267
-0.100908
0.98903
1.04962
1.00046
1.03989
0.0939034
0.0196793
-1.27501
0.563322
1.00621
0.69528
0.129312
0.0170686
0.104008
0.0192175
1.23771
0.0202533
0.023819
-0.646364
0.0210413
-1.33342
0.749139
-1.73989
-1.63751
-1.40649
1.00589
1.00914
1.00729
0.0143098
0.294301
1.21294
0.0104447
1.00856
0.0233627
0.0116033
0.717479
1.01076
1.06429
0.0112
0.980265
0.982646
-0.144749
0.0210112
1.01594
1.03083
1.00909
-1.47013
-1.16575
1.01635
0.595499
1.00366
0.128372
-0.232859
0.0256513
0.04137
0.0183245
-2.32964
-0.133638
0.0306421
1.02421
1.02902
0.724733
-1.13548
1.00624
0.0263764
-0.000647013
0.00549214
1.00428
1.02153
1.01804
1.03432
1.01067
1.01295
0.999474
0.0156915
0.0285741
0.0190199
0.0094385
0.00581712
-0.00127355
-0.00196681
0.00981572
0.0185021
0.0205797
0.0222285
1.0091
1.02177
1.00563
1.03005
1.03143
1.01553
1.02058
1.00443
1.00982
0.00268925
0.0131859
1.02018
1.02139
-0.000484882
1.01317
1.01959
0.0196161
0.0161485
0.0176998
-0.903481
0.0968814
1.00396
-1.48757
1.02092
0.637631
1.06239
-1.56742
1.00106
0.958066
0.966812
-1.28668
0.0345888
-1.00457
0.0168057
-0.119766
-1.10974
1.01666
0.0256711
1.08622
1.00115
-0.282631
1.15929
1.3135
0.0210395
0.865797
0.652984
1.00458
1.01779
1.00556
-1.80368
0.426339
0.0159692
1.00106
1.01636
-0.805878
0.0155364
1.00175
0.012403
-0.426561
1.0067
-0.136373
0.988963
1.02832
-0.530234
1.01634
0.0220491
1.02699
1.0678
0.123953
1.01946
1.03484
0.0164541
0.656627
1.0041
1.01612
0.0678034
-0.940938
0.707726
1.32776
1.02274
1.00411
1.0191
0.015641
1.00201
1.00993
1.0182
1.01226
1.01781
1.00937
1.10047
0.0399336
0.0108119
0.997742
1.00698
0.235905
-0.104074
0.0145542
0.050825
0.893759
-0.260251
0.0603544
0.00974878
1.01181
0.714206
0.0115932
0.0265836
0.0234406
0.0290549
-2.50444
0.018181
0.067616
-1.38052
-0.461222
1.00942
0.00992581
0.999963
0.933264
-1.76296
1.23215
0.0385198
-2.18903
0.7725
1.11732
0.395773
-1.26397
1.00786
0.027003
1.01019
-0.345544
1.00802
-1.95681
1.01156
0.0273285
0.00447076
1.00546
1.02966
0.938459
0.0260618
-1.16452
-0.956998
0.0234297
1.03134
0.924198
0.0255499
1.00564
1.042
1.00352
0.0323062
0.104246
-0.70077
0.116515
0.354387
1.01104
0.00884821
1.00636
0.0408885
1.00453
1.02975
1.01077
0.000663047
0.00268008
1.0424
-1.85564
1.0168
1.02315
0.0125098
-1.33632
0.915586
1.1233
1.00904
1.00327
0.0271831
0.0436714
0.97821
0.402604
1.00588
0.834273
-0.799054
-1.48759
0.846878
1.23553
1.00642
0.334179
0.0529349
0.0281497
0.0893985
0.0608212
0.993451
-0.0557246
0.999276
-0.250278
-1.50969
-1.23189
0.426858
-2.61133
0.0472466
0.0533355
1.00631
-1.2767
0.885665
-1.57087
-0.213431
0.0358609
0.0107663
0.0535503
0.979099
0.0252073
-1.26185
0.044837
-0.651749
0.993769
0.0655922
0.0165082
0.0467904
1.06947
0.0398433
-1.63074
1.06925
0.998791
0.988566
0.507383
-1.00183
1.01263
1.02981
0.0492401
-1.53663
1.00852
0.786222
1.23993
1.03092
0.0226427
0.0656654
-1.84353
-0.588494
-0.698732
-1.37322
0.0241484
-2.44089
0.790485
-0.0524071
1.02251
1.19786
1.00207
-1.13982
-2.37892
1.00707
0.0676035
0.0514841
0.992213
-0.137047
-0.768777
0.0955828
0.0332552
0.953106
0.936898
0.0479261
0.868292
0.651491
0.0859756
1.00014
-0.93801
0.803721
-2.16615
0.982626
0.0824775
0.420175
1.00268
1.08106
0.0262365
-0.0191967
0.832405
1.35923
1.02135
1.00228
0.0756942
1.22346
-1.92921
0.0447307
-0.853744
0.462547
0.0502513
1.10804
1.14454
-1.56
0.0362456
1.00469
-0.360865
0.843753
1.03011
0.968216
-0.0197079
1.0054
0.00901918
1.03323
0.00383527
0.0445827
-0.229841
1.01252
0.00403088
-0.52154
0.0477364
1.00777
0.0476779
1.17891
0.250139
1.31635
0.969571
-0.506465
0.995451
-1.69539
0.98045
0.982025
0.0368901
0.0514921
1.11311
1.00031
1.21574
0.969117
0.0726715
0.964769
1.00461
0.851997
1.01673
-2.50229
-1.03647
0.0770985
1.09858
0.00481652
0.0531108
-1.53676
0.0257267
0.0424902
0.0213279
0.845625
0.0441935
0.969968
1.02079
-1.55116
-0.916171
-0.415375
-0.321514
-1.00027
-1.52789
1.00647
0.0759725
1.02124
1.21907
1.05539
-0.217831
1.01761
0.949041
-0.0613039
0.969475
0.987152
-0.734841
0.997762
0.925949
0.00636439
-0.210257
1.43996
0.0650683
-0.398156
-1.33275
0.221985
0.993005
-0.400289
0.0361971
-1.11824
1.12765
0.0585103
0.835608
1.02072
1.00289
-0.162495
0.985734
0.0732285
1.01182
1.04227
-0.584479
1.01588
0.468001
1.00463
0.698721
0.0669931
-0.000598445
0.00327423
0.0222077
1.22892
0.00832773
1.03127
1.38426
0.0202159
-0.000274236
1.06133
0.00118767
1.06138
-0.00236142
0.00619075
1.06253
1.0684
0.416706
-1.24488
0.743276
-1.45613
-2.1438
-0.797739
1.029
1.00113
1.40095
-1.23575
0.0587112
0.73548
-0.890219
1.07077
0.977598
0.998078
1.00086
0.97423
0.10353
-1.48175
-0.877072
0.810011
0.93337
0.0883841
-1.54946
-1.8388
1.01746
1.04106
-0.0125765
0.0249024
1.0415
0.0601501
0.23071
0.751447
0.908232
0.0224524
-1.17806
-0.22547
-0.914055
-0.820938
-0.00380882
0.0663069
1.3506
1.36157
-0.863601
-0.814605
1.02676
1.00026
-0.80239
-0.0552538
-0.419018
0.634308
1.09505
-0.691597
1.01034
0.0485848
-1.35985
-0.564948
-0.440309
-1.1917
0.992737
-0.898386
-0.397998
1.35466
-0.984175
1.01354
1.2186
-1.54015
1.03103
1.2319
-1.12338
1.2422
-1.0807
-1.61343
1.01034
0.0354752
1.00227
1.01526
-1.17056
1.06458
0.149119
0.12129
1.04076
1.01955
-1.04249
-0.642266
0.951002
1.01182
-1.42108
0.0815726
1.28239
-1.2603
0.918334
0.0184868
0.953336
-1.30247
0.120707
-1.55778
-1.03397
1.08828
1.04161
1.26885
1.20535
0.968735
1.06099
1.05867
-1.55864
1.13058
1.1272
-1.36421
-1.35198
-0.698554
1.32293
0.0613886
-1.78808
0.0286123
0.926494
-1.29702
-0.782243
1.01375
1.00906
-1.53126
-1.49749
-1.71971
0.0125726
0.0813476
-1.20566
-1.54141
0.877533
0.887713
-1.48001
-0.447711
-0.996089
0.826361
-1.28281
-0.948406
-1.50974
0.937441
-0.60963
-1.4697
1.30839
0.891433
0.423795
1.17978
0.033622
0.971207
1.02119
1.11952
1.19181
0.0325736
0.662506
1.00152
0.254761
-1.46588
1.41377
0.985867
0.909541
1.06341
-1.42557
-0.266858
0.871839
0.796042
0.985898
0.0497859
0.11978
0.999561
-1.86467
0.821322
0.0310864
1.41179
-1.41544
0.718621
0.737675
-1.35105
-1.36479
-1.09747
1.05402
-1.40067
-1.37654
0.700071
0.598243
-0.453338
1.06855
0.834108
-1.44286
-0.686508
0.957012
0.0767088
-1.30584
-2.09772
-1.07483
-0.366878
0.979062
1.01521
0.129311
0.619687
1.01464
1.33512
0.28023
0.264767
-0.0137188
0.879192
-0.498722
-1.29813
0.0485805
-0.660768
-1.25832
1.00228
-1.64289
0.150757
-1.26825
0.529141
0.570366
-1.20629
0.6363
0.0307796
0.496739
-1.16662
0.453073
-1.30424
0.388892
-1.20139
0.367536
-1.13419
0.817036
-0.332208
-1.10648
-1.08715
-1.59205
1.01905
0.0729199
-1.10611
-1.12661
0.0103714
0.157002
-1.59319
-1.80143
-1.15738
-0.148421
-1.13363
-0.164089
-1.17997
-0.390726
-1.2553
-0.33809
0.900217
-0.000659107
-0.017045
0.98644
-0.0226978
0.0187851
0.448562
0.994902
-0.549895
0.130272
-1.14234
-0.158067
0.904917
1.41108
-0.000339216
0.0354064
0.0276238
-0.931579
-0.289939
-0.376345
0.972369
-0.760561
0.973163
-0.144097
1.47762
0.480231
1.39916
-1.50745
1.17421
-0.529813
1.00832
-0.358388
-1.17143
1.0627
1.01017
-0.0186987
-1.27859
-1.04934
0.966874
-2.28545
0.993658
-0.399136
-2.1877
-1.57842
1.29754
1.03774
1.09904
1.01489
1.02902
0.0350651
-0.374822
1.20389
-0.0174971
-0.790403
1.41102
-1.86603
0.916776
0.95736
1.36038
1.40934
-2.16395
-1.07028
1.03737
0.229333
-0.5213
-0.962085
0.0405211
0.12583
-1.55902
0.573844
-0.276744
1.1849
-0.0893377
1.03794
1.12673
1.03257
-0.407225
-2.08064
-0.736382
1.08995
-0.720744
1.17233
-0.730942
-0.574132
1.23578
1.28688
-1.06759
0.0574759
0.971172
-0.529828
-0.614692
0.659232
1.27181
1.21426
-1.29532
0.886169
0.836158
-1.20452
1.2251
0.265523
-1.49898
0.0283045
0.0148655
0.0153739
1.10872
-0.70078
0.236924
0.0256102
0.0269702
-0.665183
-1.72277
0.996578
-0.0979001
1.01671
-0.165509
0.077549
0.698992
0.267121
-1.17424
-0.74556
-1.36795
0.0188187
0.0127998
-0.329601
0.924662
-0.154609
-0.136352
1.00573
-0.859811
-1.39667
1.01726
-2.16202
0.962262
0.0104508
-2.0125
-0.331808
0.783252
-1.31839
-0.542551
0.883643
-2.01786
1.08086
-0.67145
-0.656172
-0.854852
-1.21146
1.46593
0.106111
1.11807
0.0154792
0.964875
1.17946
0.712419
1.02883
1.1562
-0.111228
0.0173238
0.992961
1.0861
1.34307
-0.937383
1.04739
0.660052
-1.03143
0.781763
1.19149
-0.691269
1.34246
0.108178
-0.820022
0.828141
-1.12354
-1.10424
0.96187
-0.573966
1.06316
1.04281
0.959242
-0.904093
0.89505
1.26199
-0.844173
-0.398591
0.110507
-1.44593
-0.698783
-1.31568
1.33093
0.74492
-1.0773
0.902404
-1.21758
-0.696272
1.25129
1.22471
-0.247762
-0.413725
-1.23557
-1.9836
0.984842
-1.16647
0.088214
-1.58077
-0.507359
1.06789
-1.39217
1.38713
1.05148
0.871234
1.02372
1.30265
-0.552914
-1.30974
1.01657
1.13397
-0.668409
1.01239
0.130097
-1.56137
-1.48657
1.07838
1.10929
-1.54766
-1.16261
0.544884
-0.0642525
-1.13737
0.989705
0.949941
-0.260208
0.992181
1.03694
-1.68373
-1.32999
-0.989736
-1.55649
-1.51596
1.29331
0.0302816
0.901129
-1.25316
1.28854
0.891602
0.849748
0.935504
0.12259
0.0105634
-1.5293
0.509187
-1.48854
0.9107
0.284127
-0.678967
0.858842
0.992505
1.03926
1.01229
0.000865817
1.04737
-0.00189792
0.416104
0.804292
-0.597965
-1.39815
-1.19366
-0.751237
1.01786
0.957276
1.01461
-0.538367
-0.931451
-1.49208
-0.927688
1.0219
1.28272
1.02691
-1.45116
-0.688053
-0.459916
-0.640594
-1.23346
-1.22314
-0.28259
1.00304
-0.739184
-1.46471
0.0133279
-0.115055
0.694945
0.119799
-1.45133
-2.09515
0.930556
1.41534
0.013165
1.10174
1.47429
0.631947
1.197
-1.36102
0.0220344
1.37469
-1.40467
0.308996
-1.5059
-1.50677
-1.05768
-1.38143
0.979871
0.727866
1.18916
1.15
0.00331638
0.773952
-0.00807904
0.0181359
-1.33789
1.11246
0.697051
1.01439
1.03577
0.0108443
0.0129458
1.03501
-0.1409
-1.18415
-1.42494
-1.10056
0.590371
-1.32851
0.97248
0.665209
-1.4094
1.21208
-1.4864
-0.429801
1.00386
-0.677319
-0.753232
-0.124638
0.565846
-1.49383
-2.00266
0.897076
1.02621
0.0301573
0.062864
0.0031455
-1.29692
0.0448366
-1.29895
-0.189645
0.597585
-0.594286
-1.29438
1.25959
0.2135
0.319479
-1.23255
-1.47336
1.01316
1.03087
0.493097
0.532027
-1.18775
-0.874613
-0.992544
0.413853
0.439004
-1.15321
0.846656
0.0895004
-1.11904
1.43823
-1.09513
-0.305412
-1.5127
-1.00807
0.83607
-1.08628
-1.09023
-1.12054
-0.0189597
-1.12539
-0.0659077
-0.834278
0.00561964
1.16802
-1.20138
-0.218796
-1.15747
-0.261741
1.33705
1.37424
1.22589
1.01936
1.20249
-0.879433
1.01216
-1.40862
1.02879
-1.13127
-1.80944
1.24297
-0.538376
0.497948
-0.827239
1.38142
-0.0635073
1.31989
0.564276
0.770396
-1.50699
-1.50002
-1.1899
-2.05259
1.30086
1.1844
1.00853
0.63753
1.00823
0.859826
0.786772
-1.05519
-2.07525
0.197821
0.0157022
0.760273
1.02373
-0.0557752
-1.70508
-1.07069
-1.19202
-1.15663
-0.0117141
1.32169
1.02598
0.99869
0.00505595
0.0123481
1.03668
0.0278179
-1.26796
0.0758549
-1.0173
0.748135
-1.45579
-1.20506
-0.343638
1.00602
-0.569307
-1.54185
1.01
0.60546
0.71973
1.00663
-1.25693
0.844768
1.1774
0.831615
-1.21475
0.9965
0.3479
0.41332
-0.651095
-1.36346
1.43356
0.23949
-0.832529
0.0510949
0.885011
0.962188
-0.839403
-0.444469
0.0146155
-2.05594
-1.04153
-1.05987
0.0211123
1.00283
-1.05665
0.986461
1.2631
1.07494
0.981327
1.07072
1.13277
1.00656
-0.366279
-0.764219
-0.536479
-1.21419
-1.32891
-1.16958
1.13592
1.03472
-1.22806
0.970236
-0.703946
0.0380268
-1.11699
0.0369596
0.547779
-1.7678
0.991529
0.879035
-1.45296
-0.473403
1.32472
-0.736868
0.0505093
-2.0005
-1.01722
-1.03196
1.04254
0.743518
1.08585
-0.756566
0.0110483
-1.05273
-0.45451
-1.18513
-0.156994
-0.465099
-0.11572
0.887131
-1.10556
1.43039
-1.35726
-0.61301
-1.13774
-1.1383
0.937203
-1.08798
-0.7002
-1.89665
-0.264392
1.18456
1.20627
0.080536
0.0252807
0.795847
-1.14496
-1.48971
1.09632
-0.7535
-0.0278433
-1.59902
0.720701
-0.452167
-1.13031
1.00154
0.00497196
-1.53476
1.00976
-0.698262
-0.191393
-0.963251
-1.17234
-0.0555953
-1.12402
1.30757
-1.4279
0.173984
-1.13668
0.761807
-1.69648
-0.680123
0.606705
0.755157
1.05858
0.979513
1.16488
-1.0793
0.872463
0.565582
-0.597349
0.927494
-0.491666
-2.02397
-0.287704
1.16633
1.15343
-1.4174
-0.67942
-0.613439
0.993133
-0.721086
0.09447
-1.3647
-1.21542
1.27078
0.994441
-1.51113
-0.911492
-1.66205
-1.49549
0.909515
-1.42844
0.958805
0.180124
0.667741
0.8066
-1.00413
-0.676622
0.918572
-1.16833
0.0117049
1.26896
-1.53284
-1.50489
0.784856
-0.716388
-1.00225
-0.187727
-0.829032
1.34025
-0.713236
0.169995
-1.51563
1.28247
-1.46537
-0.871472
0.601146
-1.35714
-1.15521
1.32073
0.631873
0.993278
-1.04953
1.22219
0.0285739
-1.03775
-1.1365
-1.12465
-1.44202
1.25493
0.531378
-1.57113
-1.495
-1.04335
1.11105
-0.75451
1.25929
-1.16165
0.699475
-1.42032
0.320863
0.493291
0.458019
0.374732
0.176046
-0.800073
0.989889
-1.17485
-0.853281
-1.60712
0.280805
1.29923
-0.291263
-0.967622
-1.49848
-1.44801
0.210016
-1.32841
-1.39498
0.836208
0.1997
-1.50837
1.36367
-1.08843
-0.139176
1.34351
-1.47926
0.0907397
-0.735924
-1.14362
-1.3454
1.33863
-1.03351
1.2642
-1.31348
-0.699344
1.1588
-0.164866
-0.81129
0.521529
-0.867301
-0.0527705
-0.456095
-1.41594
0.793098
-2.49963
-1.45385
-1.16906
-1.13926
-1.12344
0.835065
-0.239973
-0.354262
-1.51479
1.29139
-0.955095
-0.961409
-1.02074
-0.198067
-1.23872
-0.991831
-1.51307
-0.077675
1.23711
-1.45819
-1.10814
-1.06924
-0.912828
-0.326928
-1.13344
1.37414
1.31176
0.366244
-0.653701
-1.13021
0.277473
-1.11548
1.38674
0.151604
1.05646
0.659604
1.26443
0.0280473
-1.24001
-0.633643
-0.138356
-1.16184
-0.138077
-0.134736
-1.34294
1.28848
-0.202547
0.163673
-0.301914
-1.02563
-0.649872
)
;

boundaryField
{
    frontback
    {
        type            empty;
    }
    Top
    {
        type            zeroGradient;
    }
    outlet
    {
        type            fixedValue;
        value           uniform 0;
    }
    bottom
    {
        type            zeroGradient;
    }
    Inlet
    {
        type            zeroGradient;
    }
    rectangle
    {
        type            zeroGradient;
    }
}


// ************************************************************************* //
