/*--------------------------------*- C++ -*----------------------------------*\
| =========                 |                                                 |
| \\      /  F ield         | OpenFOAM: The Open Source CFD Toolbox           |
|  \\    /   O peration     | Version:  2306                                  |
|   \\  /    A nd           | Website:  www.openfoam.com                      |
|    \\/     M anipulation  |                                                 |
\*---------------------------------------------------------------------------*/
FoamFile
{
    version     2.0;
    format      ascii;
    arch        "LSB;label=32;scalar=64";
    class       volScalarField;
    location    "47.6";
    object      p;
}
// * * * * * * * * * * * * * * * * * * * * * * * * * * * * * * * * * * * * * //

dimensions      [0 2 -2 0 0 0 0];

internalField   nonuniform List<scalar> 
2186
(
1.19189
0.105394
0.413214
1.44801
-0.818139
0.198861
1.09825
-0.970093
-0.162182
1.64816
1.23466
-0.528753
-0.975175
1.32891
-0.106193
1.30616
1.34664
-1.0193
0.00492597
-1.16359
1.7032
-1.06917
1.33367
-0.612914
1.32516
1.42765
1.53847
1.29971
0.686128
1.32731
-1.11335
1.32512
-1.27679
0.100713
-0.52143
0.122008
0.270875
1.68694
-0.513872
0.123833
-0.992077
-1.05151
-0.234484
-1.21052
1.07594
1.63373
0.786459
0.95873
1.01045
-1.09229
-1.13202
1.04794
-0.214333
1.60068
-1.30411
1.34376
-0.292786
1.36733
-0.425268
1.21899
0.816337
0.753897
0.649641
0.0994336
0.67979
0.905046
0.775
1.59179
1.48374
-0.284434
-0.993061
0.830897
1.57695
1.39073
1.44332
1.51856
0.828875
1.3395
-0.54178
-0.832954
-0.514626
0.0519412
1.32218
0.733045
1.3217
1.32382
1.57918
0.0682105
0.589842
-0.525226
1.34785
-1.17975
1.29311
1.51151
1.33261
0.484238
0.290893
0.698171
-0.928557
1.37976
0.0101018
-0.197465
0.766965
1.32405
1.34939
-1.28624
1.4554
-0.0275317
1.33506
-1.40717
-0.813232
-1.07664
0.974923
1.59166
-0.199301
-0.902384
0.351281
0.997019
-0.529111
1.58631
-0.0429515
-1.27443
1.00018
-1.06519
1.31229
0.28867
-0.929757
1.51213
-1.04607
1.08111
1.70797
1.58706
0.684328
1.07409
-0.145299
-1.22296
1.31941
-0.266584
-0.0668839
-0.708742
0.932288
0.271163
-0.938303
1.12273
1.29646
1.33645
-0.00851052
-0.825264
1.05066
-1.20079
-1.05242
1.01529
1.34268
1.54398
1.42877
0.967077
1.56786
0.559195
0.467272
0.866614
-0.668927
-0.862586
1.25297
1.38082
0.215475
0.174322
-0.456713
-0.511634
0.181056
0.357524
0.421759
1.38572
1.34688
1.48355
0.488939
-0.0145438
-0.78943
1.24984
-1.45415
1.0126
-0.49445
1.33689
-1.16825
0.635308
0.608407
-0.785847
-1.07945
1.35345
-0.124855
-0.921921
-0.883047
1.55586
0.386946
1.37181
-0.624128
-1.10817
0.072532
1.46487
1.27114
-1.11408
-0.873028
-0.585871
0.528595
1.36232
-0.527959
-0.937169
-0.541757
0.918676
1.20459
0.48351
0.969463
0.578836
1.57734
0.966254
1.08353
1.3498
1.41969
1.32632
1.30227
1.32049
0.878033
-0.975675
-1.26601
0.111556
0.635631
-1.0506
-0.895394
1.23253
1.49049
-0.582779
-0.464284
-0.71737
0.81367
1.08872
1.20498
1.3031
1.49288
-1.23611
1.29693
-0.834243
-1.01665
-0.923383
1.18427
0.847617
1.37812
1.50172
1.3274
1.2994
-0.969086
1.23658
1.37181
-1.04362
1.16727
0.9045
-0.793169
-0.583633
-0.438685
1.38002
1.33473
-0.964735
-0.236698
0.170453
1.35104
-0.928452
0.881447
1.28293
1.26035
-0.508147
-1.15378
1.32019
0.766258
0.139534
-0.0461113
1.63127
-0.95028
-0.965755
1.24365
1.54762
1.32581
-0.869909
0.395601
-0.190738
1.10698
-1.04356
0.980854
1.31307
1.41026
0.289355
0.22723
1.22403
-0.462429
1.33557
1.55668
1.33218
1.32978
0.097928
-1.27891
-0.591562
0.755734
0.867155
0.607357
0.816462
-0.0838512
0.702971
1.53438
1.45109
1.10374
-0.0837154
1.41312
-0.551615
0.119804
-0.903622
-0.642084
-0.917981
0.804987
-1.08007
-1.09957
0.173503
1.13563
0.142212
0.434165
-1.14203
0.766079
-0.931724
-1.02278
1.5258
-0.0387897
0.162582
-1.19616
1.20537
0.690638
-0.0481606
1.00741
-0.497804
-0.954668
0.766262
1.35199
1.28115
-0.782483
1.4599
1.29391
0.431914
1.59572
1.29765
1.30029
0.872479
0.656621
-0.717116
1.03152
-1.22259
-0.553986
-0.692264
-1.00573
-0.536488
1.65687
0.0116495
-1.13523
-1.07518
1.29788
-0.768657
0.748178
-1.35734
1.1801
0.647902
-1.16722
1.53854
1.61129
1.49945
-0.946761
0.109141
1.67537
1.30687
-0.903421
0.531076
-0.866
0.620399
1.44543
1.17758
1.27309
1.6412
0.0432612
0.718741
0.222381
0.262655
-0.631658
-1.03907
-0.0208762
1.58614
-1.14417
-0.397682
1.28401
1.01692
-0.644411
-1.14294
-0.747844
-1.05621
-0.937186
-0.606017
-1.32019
-0.911926
1.53182
-0.0576373
-0.976067
1.33742
-0.714692
1.60975
-1.36908
-1.75759
-1.38465
1.32357
-0.496777
1.33369
1.25973
0.247862
1.42305
-1.3659
-0.549413
-0.936334
1.40286
1.30473
-0.647663
-0.902878
-0.91476
1.17398
-0.971512
-0.81994
0.587817
1.1678
1.26415
1.15067
-0.761623
0.282637
1.02251
0.0761809
1.22047
-1.34637
1.34273
-0.0445719
1.50511
-0.527253
1.26328
0.846752
1.34011
-0.596739
1.28432
0.317751
-0.538677
1.32648
-0.964629
0.237845
-0.966743
0.0557924
1.31014
0.652385
0.758834
1.29125
0.272344
0.457141
0.554624
-1.13436
0.770129
-0.980289
0.839285
-0.673739
1.27886
1.50685
-1.01786
-0.605651
0.509475
-1.08555
0.524642
-0.941458
0.983676
0.53889
-0.94797
1.34788
0.310321
0.422967
0.740144
0.620512
0.937737
0.39134
0.812854
-0.660526
-0.243158
-1.13645
1.32966
-1.00529
1.46946
1.58442
1.57335
0.764734
1.4026
-0.892983
-1.26568
1.27618
0.670366
1.28527
-0.954482
-0.9249
-1.62047
1.22153
-0.560185
-1.78908
-1.16483
-1.21516
0.240327
-0.150708
0.868295
0.869875
0.0227696
0.0875596
1.17218
0.522211
1.36167
-0.857217
-0.204267
-0.566475
0.891941
0.29961
1.53889
1.69602
-1.71401
-0.908738
-0.418188
0.428012
-1.03634
1.42449
0.126911
1.38765
0.936415
-0.594364
1.06633
1.02845
-1.7115
1.26763
0.619694
-1.13796
0.628798
-0.488297
0.539964
-1.09501
0.0873489
1.32847
0.252766
-0.984719
1.02433
1.46749
1.57352
0.14235
1.18823
-0.404044
1.19645
0.335883
0.668356
-1.11506
0.57958
0.96748
1.28047
-0.647023
-0.850366
-0.635007
-0.535264
0.332671
1.15822
-1.1181
0.115722
-1.02511
1.1239
-0.543276
1.22085
0.817623
0.347138
1.30485
1.11127
-1.4184
-0.184239
1.24126
1.63712
1.34386
-0.327518
-1.12616
1.22842
0.802007
1.21478
-0.419444
0.516653
1.23709
-0.910125
-1.13434
1.22965
-0.422216
1.50029
0.621368
1.28618
-0.443845
1.06869
-0.39158
1.57191
-1.14534
0.30057
1.14346
0.609511
0.601207
-0.964572
-1.15602
0.106811
0.960625
0.374696
0.187149
-0.285296
1.33136
0.473183
-1.15091
0.89686
1.06398
1.2653
-0.90194
-0.971612
-1.17912
1.3356
1.41618
0.929899
1.33318
-0.964165
1.44022
-0.675116
-0.107491
0.221208
1.29834
1.32002
-1.27041
1.00786
-1.14087
0.973791
-0.825725
1.19371
1.35059
1.33015
-1.31917
1.10755
-0.0243387
-0.0645785
1.50499
-1.89959
-0.60069
1.36492
-0.422471
1.32753
-1.72257
-1.12617
1.24756
1.20457
1.69178
1.32297
-1.01215
1.46492
1.31986
0.457625
0.745671
-0.901216
-0.281463
1.80735
-0.750029
1.37144
-1.03202
0.771886
1.32375
-1.02173
1.27277
-0.262419
1.09876
1.32125
1.34266
0.061525
-0.917245
-0.162236
1.04915
1.12195
1.44713
0.288465
0.981153
-1.4966
-0.0938912
-1.44587
1.25685
1.51863
-0.781852
-0.341902
-0.233776
1.52836
-0.35533
0.866558
-0.664292
-0.114459
-0.925371
-1.08308
-0.0734239
0.98712
-1.51799
0.215488
-0.329768
0.0389586
-1.18801
-0.815619
0.23484
1.25084
1.33687
-0.981287
0.262519
1.27405
1.30695
1.34046
0.28992
1.26737
1.4291
1.33553
1.4452
-0.706096
0.440437
-1.13598
0.726903
1.3399
1.13799
0.603258
0.564521
-1.72155
-0.252019
1.61066
0.39234
-0.340703
-0.0741053
0.425564
-0.965728
0.936015
-0.552449
-0.628998
-0.556632
1.30142
1.32746
1.31396
0.144291
0.437357
1.59317
0.677551
1.33088
0.404993
0.350877
0.903152
1.33238
1.30998
-0.042534
1.25167
1.25898
0.372309
0.50218
1.31555
1.33165
1.33319
-0.588494
-0.57124
1.33522
1.0504
1.32555
0.236327
-0.165793
-0.273852
-0.647181
0.250639
-1.26652
-0.533723
-0.562539
1.3376
1.34168
0.927118
-0.534028
1.3008
0.797338
0.0305361
-0.000463535
1.32874
1.34327
1.33601
1.34249
1.31659
1.3067
1.29277
0.735912
0.382655
0.118457
0.0531949
-0.0531605
-0.00111351
0.0118191
0.880954
0.948793
0.699592
0.401988
1.32602
1.33873
1.33452
1.3528
1.34868
1.33699
1.33656
1.33148
1.31275
0.930345
0.069528
1.33471
1.33744
0.0420494
1.34047
1.33549
0.07673
-0.128549
0.483719
-0.767336
-0.906906
1.31518
-1.0678
1.32251
1.09798
1.46241
-0.696247
1.3246
1.20935
1.3002
-1.13964
-0.714337
-0.979472
0.568833
-0.047576
-1.1235
1.32373
-0.11826
1.40494
1.31618
-0.214071
1.42404
1.61311
0.101186
1.0879
1.10153
1.30749
1.32739
1.33089
-0.777105
0.569696
0.144446
1.31702
1.33549
-0.953362
-0.0540293
1.31645
0.184291
-0.389333
1.31994
0.209457
1.27879
1.32914
-0.173598
1.33361
-0.214201
1.32315
1.3452
-1.99565
1.34213
1.3482
0.165143
0.837136
1.32865
1.32041
0.237148
-0.958375
1.14472
1.6857
1.32532
1.32865
1.32492
-0.0685398
1.32568
1.32855
1.32337
1.32252
1.32144
1.32739
1.39527
0.251503
-1.54933
1.32772
1.3121
0.375594
0.188782
0.592303
0.0606794
1.10967
-0.578975
-0.104459
0.0771336
1.32067
1.16526
0.102119
-0.215162
-0.0105456
0.125203
-1.44367
-0.0357089
-0.369062
-1.32229
-0.420307
1.33034
-0.0055275
1.31752
1.17662
-0.673485
1.51512
0.18526
-1.46965
1.18671
1.37307
0.537649
-0.529737
1.30191
-0.166925
1.32636
0.0866941
1.32819
-0.489959
1.31637
0.0667123
0.761523
1.32779
1.3471
1.18361
-0.385523
-0.526308
-0.693357
-0.60867
1.34685
1.15407
-0.430096
1.31005
1.35922
1.29323
-0.865625
-1.94408
-0.18734
-1.18164
0.830832
1.31576
0.442115
1.32652
-1.1777
1.31267
1.35176
1.33145
-0.0468434
0.146765
1.35942
-1.07663
1.3339
1.33533
0.494189
-0.938917
1.13779
1.39103
1.31467
1.29586
-0.664837
-0.778289
1.31623
0.86034
1.33052
1.26415
-0.788452
-0.921731
1.07948
1.5912
1.30796
0.801969
-0.0134138
-0.671308
-0.0795376
-0.226838
1.32579
0.694786
1.28289
-1.12054
-0.63804
-0.893222
0.576982
-0.531084
0.0187808
-0.669582
1.31335
-0.533032
1.10202
-0.774587
0.280463
-0.76848
0.133369
-0.494646
1.26309
-0.809119
-0.395277
-0.748508
-0.26999
1.32723
-0.393215
0.164371
0.0335078
1.32736
0.143236
-0.784957
1.38152
1.32389
1.3217
0.959369
-0.476864
1.30853
1.32542
-0.186866
-1.03848
1.31365
1.21903
1.52855
1.32828
0.832667
-0.427127
-1.11187
-1.061
-0.84026
-0.551919
-0.517224
-0.303854
1.22424
0.431395
1.33553
1.4934
1.30195
-0.530787
-0.744674
1.31332
-0.177472
-0.686821
1.3215
0.368635
-0.749593
-1.53439
-0.361275
1.21104
1.17605
0.0263497
1.24674
0.824237
-0.309035
1.32811
-0.940675
1.02414
-1.29539
1.3784
-0.0998863
0.890509
1.31578
1.3291
0.3725
-1.64646
1.05588
1.6879
1.33493
1.23792
-0.400836
1.60082
-0.320244
-0.858512
-0.384562
0.916728
0.485156
1.42091
1.53211
-0.831167
-0.0938159
1.30358
0.00346231
1.27616
1.34307
1.22948
0.601634
1.31355
0.128945
1.35067
0.193842
-0.462469
-0.162855
1.31846
0.0745767
-0.54041
-0.103208
1.37207
-0.431657
1.45269
0.716336
1.61846
1.19964
-0.190444
1.3309
-1.13732
1.25023
1.26599
-0.74962
-0.198395
1.37185
1.28588
1.49439
1.23435
0.569895
1.22632
1.33779
1.08322
1.31783
-0.276128
-0.869396
-0.380352
1.45694
-0.0957897
-0.547991
-1.15327
-0.263147
-0.159263
0.48129
1.05806
-0.478948
1.31433
1.37268
-1.02702
-0.380064
-0.0327237
-0.446219
-0.663089
-1.10374
1.30296
0.200097
1.32927
1.59294
1.37801
-0.109198
1.3359
1.20368
-0.197617
1.32669
1.27353
-0.794014
1.27892
1.14835
0.00862869
0.251798
1.777
0.546193
-1.0762
-1.03924
0.689933
1.31879
-1.0595
0.336868
-1.12134
1.42612
-0.369535
1.04352
1.30937
1.34041
-0.171348
1.34793
0.163611
1.32344
1.33963
-0.378647
1.33189
0.624323
1.34371
1.15258
-0.855989
-0.0593461
0.0426656
-0.454627
1.52258
0.809484
1.31778
1.70332
0.181062
-0.0201649
1.39067
0.0556464
1.38737
0.250075
0.593017
1.37576
1.38044
0.871143
-0.735946
0.935997
-1.19148
-1.18141
-0.828119
1.33067
1.35691
1.74393
-0.530336
-0.333175
1.17063
-0.956961
1.35715
1.22061
1.35739
1.29352
1.31405
-2.01643
-0.574674
-1.04189
1.01371
1.17805
-0.218896
-1.08377
-0.862554
1.33877
1.38388
0.104565
-1.55906
1.34644
0.0485902
0.351178
0.952037
1.12964
0.31628
-1.00369
-0.0785674
-0.912149
-0.959495
-1.36938
0.235591
1.70255
1.67453
-0.755609
-0.944289
1.33605
1.31558
-0.852152
0.446707
0.0914097
0.808186
1.39655
-0.602165
1.31899
0.566958
-1.044
-0.228126
-1.01136
-1.26186
1.34469
-0.933857
-0.716094
1.66701
-0.933556
1.32051
1.50596
-1.06582
1.43693
1.60712
-0.84336
1.52535
-0.940456
-1.04289
1.2619
-0.461624
1.41334
1.3262
-0.944415
1.41387
0.626639
-2.15347
1.34667
1.42729
-0.464464
-1.12817
1.20501
1.31182
-0.914129
-0.3182
1.57462
-0.943186
1.16309
0.0990426
1.31807
-0.527933
-1.99467
-0.782063
-0.807587
1.33934
1.38943
1.63661
1.47963
1.19887
1.36733
1.30189
-0.730024
1.38913
1.52163
-0.957537
-0.937014
-0.820579
1.6247
0.50502
-1.04072
-0.774313
1.14994
-0.917731
-0.758735
1.25033
1.41808
-0.833623
-1.04926
-1.08425
0.102702
-0.847915
-0.886307
-0.679751
1.09475
1.30902
-1.10741
-0.468979
-0.42876
1.03684
-0.945044
-0.776017
-0.6361
1.35598
-1.09382
-1.02174
1.66852
1.2808
0.89761
1.565
-1.00647
1.38453
1.31523
1.47061
1.57628
0.2187
0.848801
1.23746
0.721955
-0.598252
1.745
1.35172
1.31778
1.42536
-0.991478
-1.19317
1.27247
1.00026
1.3181
-1.83419
-1.99984
1.32389
-0.725233
1.25528
-0.113336
1.73545
-0.571568
0.913583
1.16996
-1.13306
-0.549018
-0.889189
1.45223
-1.1279
-0.543683
1.13914
0.774925
-1.07674
1.3677
1.26476
-1.11937
-0.817873
1.21059
-1.80516
-0.537148
-1.02501
-1.118
-0.0792235
1.23961
1.36297
-2.02998
1.06124
1.33092
1.65046
0.75263
0.391388
0.0997256
1.30617
0.0104924
-1.13514
0.721083
-0.548719
-1.13529
1.28331
-1.18075
0.261228
-0.529195
0.694963
1.01823
-1.13335
1.08545
-1.2821
0.949474
-1.13202
0.607166
-1.14
0.844464
-0.525671
0.508472
-1.133
1.24897
-1.2825
-1.13998
-1.15655
-0.582491
1.33361
0.552152
-1.19457
-0.533601
0.101883
0.269523
-1.1964
-0.622413
-1.24417
0.338768
-0.546777
-0.0949403
-0.579078
-0.349956
-1.33408
0.169784
1.12629
-0.0223849
-1.6853
1.25437
0.138785
0.110848
0.922283
1.32183
-0.804416
-2.107
-0.529243
-1.33388
1.3039
1.73532
0.249686
0.0502695
0.506373
-0.916632
-0.158333
0.11917
1.23424
-0.772145
1.32038
0.374385
1.81083
0.954816
1.74233
-1.07282
1.5611
-0.581407
1.41299
-0.120435
-0.525839
1.46382
1.34394
-0.582493
-0.533916
-1.1425
1.20981
-1.40936
1.28443
-0.0302484
-0.977414
-0.813867
1.61824
1.30583
1.49751
1.28567
1.3421
-0.105727
0.109305
1.47846
-1.50572
-0.940316
1.73458
-1.14037
1.16565
1.35161
1.69488
1.75154
-1.20861
-0.710371
1.3761
0.712663
-0.00631362
-1.09673
0.201131
-1.94137
-1.06321
1.04012
-1.17875
1.5713
-0.0193269
1.28123
1.40508
1.29317
-0.0400357
-0.562749
-0.948906
1.41677
-0.921012
1.43812
-0.777059
-0.914412
1.51794
1.65203
-0.543706
0.156713
1.30958
-1.04622
-0.882823
1.12181
1.56163
1.57899
-1.00079
1.12345
1.04252
-0.533673
1.59106
0.38913
-1.09203
0.593044
0.56694
0.102682
1.36816
-0.922859
0.35732
0.149612
-0.768321
-0.978224
-0.538467
1.27182
-0.674155
1.28027
-0.030631
0.553873
1.15242
0.771708
-0.527627
-0.747569
-0.741873
0.336782
0.133307
0.0550137
1.14708
-1.48232
-1.11461
1.25609
-0.981491
-0.953891
1.33501
-0.219508
1.19133
0.399696
-0.740781
0.185654
1.22651
-0.264391
-0.868522
1.30411
-0.978441
1.42157
-0.128868
-0.933291
-0.938238
-0.528742
1.80086
-1.53537
1.50045
0.0997423
1.31504
1.48307
1.16811
1.39779
1.42076
0.0545925
0.888469
1.33489
1.47867
1.69499
-0.935564
1.33238
0.835774
-0.938024
1.22232
1.57342
-0.683189
1.64905
0.234632
-0.750641
1.25971
-0.945274
-1.14163
1.324
-0.546228
1.40103
1.44589
1.21098
-0.761515
1.12199
1.54975
-0.921039
-0.260378
-1.14781
-1.5401
-0.932136
-0.541421
1.68702
1.18377
-0.823647
1.32247
-0.94769
-0.909604
1.62277
1.50333
-0.613132
-1.21894
-0.524996
-0.893634
1.35832
-0.862568
0.579291
-1.10038
-0.341944
1.40013
-0.929479
1.70527
1.33881
1.29471
1.30156
1.59955
-0.976329
-0.94102
1.39566
1.52071
-0.922404
1.3543
-1.80946
-0.759431
-0.89762
1.32509
1.36421
-0.813106
-0.86778
1.01158
0.44765
-0.808144
1.26694
1.17682
-1.26462
1.22557
1.277
-0.435864
-0.938292
-0.789374
-0.704768
-0.873059
1.65719
-0.522853
1.12158
-0.897913
1.65258
1.11493
1.06376
1.17124
-1.99324
0.191916
-0.655546
0.662597
-1.03582
1.33038
0.745714
-0.497626
1.07396
1.40355
1.35512
1.29275
0.0481662
1.36617
0.348273
0.891876
1.0086
-0.589695
-0.975137
-1.25335
-0.801166
1.33349
1.37334
1.33459
-0.94488
-0.363598
-0.613632
-1.06123
1.321
1.57505
1.33614
-1.00603
-0.865804
-1.02958
-0.637985
-0.527276
-0.528017
-0.212675
1.28027
-0.772788
-1.11391
0.22843
0.373836
0.886227
-1.7762
-0.582343
-0.217062
1.16567
1.75017
-0.000679812
1.44465
1.80609
0.813636
1.48739
-0.945549
-0.0145904
1.72278
-0.558807
0.793928
-1.06171
-0.884513
-1.1374
-1.13123
1.36719
1.16397
1.45881
1.41211
0.0222813
1.20547
0.116538
0.149758
-0.539619
1.44311
0.888722
1.33292
1.34887
0.760854
0.0948667
1.35815
0.0780416
-0.534655
-1.12426
-1.15369
1.05629
-1.13489
1.31258
1.10495
-0.569817
1.59051
-1.00243
-0.384377
1.32253
-0.920651
-0.933108
-1.2935
0.737396
-1.10028
-1.35392
1.11737
1.34098
-0.128401
0.562202
-1.65069
-0.529785
-0.581441
-1.1832
0.329904
1.04263
-0.971287
-1.13597
1.54708
0.332579
0.453726
-1.13445
-0.896472
1.32388
1.43725
0.653319
0.982269
-1.13218
-0.916701
-0.254196
0.561755
0.892878
-1.13187
1.06527
0.191308
-1.13392
1.766
-1.14451
-0.95474
-0.864625
-1.06589
1.26084
-1.17051
-0.832394
-0.537711
0.462585
-1.21705
0.015465
-0.760141
0.669795
1.4413
-1.28174
0.276911
-0.562384
-0.204683
1.64277
1.72297
1.5053
1.32653
1.47617
-0.960743
1.30393
-0.984599
1.43616
-0.530665
-0.317784
1.61602
-0.263128
0.966665
-0.865121
1.72646
0.0436836
1.67258
0.735695
0.965425
-1.08308
-1.041
-0.526088
-1.30048
1.6319
1.46429
1.29373
1.09413
1.32106
1.28293
0.993906
-1.10783
-0.833885
0.372539
0.0302231
0.963397
1.32423
0.426701
-1.10938
-1.12572
-0.586326
-0.527042
0.855635
1.67952
1.34408
1.31862
0.702883
0.127456
1.35431
0.174593
-0.536342
-1.78269
-0.925084
0.947416
-1.11647
-1.13264
0.153749
1.28074
-1.08355
-0.863886
1.31802
1.05018
1.16693
1.30499
-0.525576
1.05368
1.54647
1.26061
-0.523449
1.32777
0.805998
0.561538
-0.894153
-1.13177
1.76364
0.765435
-0.473566
0.552363
1.10047
1.20506
-0.919387
-1.142
0.531411
-1.27039
-0.464943
-0.819608
0.32886
1.29639
-0.931072
1.25657
1.62241
1.47611
1.23571
1.32282
1.39878
1.31193
-1.18256
-0.222451
-0.51229
-0.603062
-0.228227
-1.13087
1.41253
1.27827
-0.942218
1.35178
-0.833973
-0.914293
-1.13618
0.2253
1.01493
-0.39661
1.28915
1.09608
-1.28953
0.0471271
1.65147
-0.880494
-0.331825
-0.24968
-0.805872
-1.11931
1.3873
0.935375
1.47574
-1.00556
0.224532
-0.498774
-0.411269
-0.942447
-0.250749
-1.00881
-1.46456
1.10304
-0.19177
1.77004
-1.43999
-0.0763929
-0.558974
-1.12705
1.32881
-0.593191
-0.981955
-0.219787
0.247074
1.4542
1.57935
-1.85706
0.0357006
0.995835
-0.546292
-0.26761
1.47851
-0.358095
0.665532
-1.04878
0.907119
0.0821634
-0.937828
1.29674
0.179588
-0.971092
1.29363
-0.835009
-1.18174
-0.95594
-1.24307
0.444616
-0.929228
1.60599
-0.584226
0.669509
-0.531243
0.956136
-1.09729
-0.88292
0.784257
1.20551
1.38656
1.32825
1.44647
-1.17123
1.25811
1.02044
-0.933193
1.16145
-0.457536
-1.30143
-1.24221
1.5456
1.53169
-0.951863
-0.855773
-0.999385
1.22685
-0.792051
0.259498
-0.438589
-1.1368
1.56176
1.23048
-1.0655
-0.767672
-1.08586
-1.1033
1.1413
-0.970188
1.1881
0.292879
0.855028
1.00861
-1.09611
-0.833778
1.14047
-1.13097
0.284043
1.59817
-0.663745
-1.11696
0.9895
-0.955059
-0.797155
0.341562
-0.921347
1.67803
-0.120537
0.669628
-1.05573
1.64696
-1.01164
-0.765308
0.77828
-0.39079
-0.530243
1.66859
0.81395
1.40363
-0.815574
1.50054
0.298529
-0.189888
-0.854351
-0.84892
-0.992619
1.541
0.697975
-0.895033
-1.02827
-0.930432
1.37887
-0.775314
1.62896
-0.530218
0.888299
-1.1257
0.456047
0.654109
0.613353
0.517444
0.651201
-0.765795
1.22713
-0.869034
-0.856594
-0.323201
0.766001
1.66165
0.245103
-0.792515
-0.995388
-1.12228
0.329587
-1.39857
-1.12989
1.26389
0.686418
-1.08674
1.71371
-0.934063
-1.32079
1.68623
-1.11135
0.193719
-0.798078
-1.13197
-1.13479
1.69413
-1.14507
1.61787
-1.13531
-0.796885
1.43567
0.329024
-0.762048
0.686059
-0.908892
0.0310004
0.123609
-1.13489
1.24055
-0.753252
-1.12606
-1.13103
-1.13349
-0.536032
1.26735
-0.178769
0.142092
-1.07821
1.63893
-0.438178
-0.784282
-1.05191
0.297045
-1.29543
-1.10707
-1.0966
0.431771
1.51869
-0.984959
-0.526496
-1.02904
-0.142708
-0.273752
-0.541084
1.71571
1.64816
0.507458
-0.849152
-0.534443
0.406552
-0.532705
1.72366
0.26319
1.45958
0.844585
1.63399
0.123099
-1.30628
-0.879752
-0.0644753
-0.861402
-0.0615504
0.361325
-1.13693
1.62981
0.302784
0.277344
0.218763
-0.531504
-0.853141
)
;

boundaryField
{
    frontback
    {
        type            empty;
    }
    Top
    {
        type            zeroGradient;
    }
    outlet
    {
        type            fixedValue;
        value           uniform 0;
    }
    bottom
    {
        type            zeroGradient;
    }
    Inlet
    {
        type            zeroGradient;
    }
    rectangle
    {
        type            zeroGradient;
    }
}


// ************************************************************************* //
