/*--------------------------------*- C++ -*----------------------------------*\
| =========                 |                                                 |
| \\      /  F ield         | OpenFOAM: The Open Source CFD Toolbox           |
|  \\    /   O peration     | Version:  2306                                  |
|   \\  /    A nd           | Website:  www.openfoam.com                      |
|    \\/     M anipulation  |                                                 |
\*---------------------------------------------------------------------------*/
FoamFile
{
    version     2.0;
    format      ascii;
    arch        "LSB;label=32;scalar=64";
    class       volScalarField;
    location    "6";
    object      p;
}
// * * * * * * * * * * * * * * * * * * * * * * * * * * * * * * * * * * * * * //

dimensions      [0 2 -2 0 0 0 0];

internalField   nonuniform List<scalar> 
2186
(
0.823256
-0.343612
-0.0392078
1.06228
-1.34655
0.0120473
0.664027
-1.30147
-1.30731
1.29902
0.974476
-0.926323
-1.32254
0.993946
-0.552234
0.994925
1.02402
-1.94561
0.00218633
-1.0775
1.37114
-0.991571
1.01033
-1.03081
1.00154
1.03733
1.20515
0.890149
0.498207
1.00012
-1.0566
1.00263
-1.08214
-0.268949
-0.956902
-0.0104616
-0.249872
1.35784
-0.987466
0.00276808
-1.36091
-1.00104
-0.682284
-1.03401
0.83732
1.28053
0.338619
0.509351
-0.150706
-1.72525
-1.07305
0.813367
-0.650887
1.28541
-0.990633
0.940357
-0.738129
0.96814
-1.10718
0.856408
-0.153043
0.55337
0.457914
0.00567672
0.484946
0.455279
0.5782
1.26433
1.16174
-1.28245
-1.31591
-0.140257
1.23941
0.991778
1.14094
1.1493
-0.193279
1.01652
-0.966926
-0.98281
-2.25035
0.0117303
0.989954
0.536982
0.984855
0.987566
1.26338
0.0121586
0.0168194
-0.984136
0.942327
-1.21191
0.920522
1.15035
1.01114
0.317521
-0.160628
0.50116
-1.52841
0.982591
-1.39767
-1.78566
0.565787
0.952011
1.02419
-1.31215
1.16152
-0.70125
0.925572
0.215758
-0.873292
-1.51915
0.530486
1.27831
-1.18458
-1.17727
0.0151774
-0.0645127
-0.996173
1.24265
-0.153775
-2.08076
0.772283
-1.86905
0.998909
0.0204325
-1.44823
1.13849
-1.83542
0.644908
1.37021
1.2318
0.229382
0.637361
-1.94174
-1.8381
0.910846
-0.993
-0.560074
-1.12158
0.71277
-0.203321
-1.25189
0.689536
0.923599
0.953431
-0.668991
-1.37013
0.610069
-1.05177
-1.3413
0.569703
1.02102
1.17705
1.0379
0.52087
1.25614
0.353069
0.240161
0.415524
-1.10683
-2.30148
0.961638
0.98042
0.00498927
0.00289136
-0.863613
-0.813654
0.0156112
0.00836597
0.258444
0.987736
1.02502
1.10489
0.322109
-0.377633
-1.30622
0.963487
-1.76119
0.787566
-0.840135
1.00939
-1.09351
0.44925
0.429238
-1.33435
-1.00131
1.07527
-0.566732
-1.31189
-1.3644
1.23255
-0.751258
0.969482
-1.0834
0.174002
-0.0446808
1.15176
1.0058
-1.03963
-1.72815
0.16219
0.0761736
1.02638
-0.966585
-1.30966
-0.979305
-0.0246947
0.929607
-0.441611
0.521459
0.0132108
1.26616
0.743422
0.843685
0.943247
1.13234
1.0015
0.889702
1.04819
0.383301
-1.0918
-1.1642
-0.0214258
0.183071
-2.08563
-1.41825
0.972816
1.12432
-0.854425
-0.853636
0.156332
0.362823
0.650514
0.812332
0.891022
1.11741
-1.33501
0.878833
-1.18422
-1.67087
-1.16256
0.93139
0.64031
1.09736
1.16382
1.05459
1.02897
-1.28245
0.816701
1.07971
-1.36631
0.916465
0.689816
0.10076
-1.11667
-1.11791
1.09815
1.02167
-1.36136
-0.704213
0.0316522
0.949303
-1.99119
0.669877
1.01624
0.859567
-1.28864
-1.10333
0.975836
0.56812
-0.44859
-0.523554
1.31183
-1.31061
-1.28032
0.848083
1.18186
0.983983
-1.46852
-0.383663
-0.840819
0.861317
-1.40266
0.536652
0.972217
1.01429
-0.198879
-0.367426
0.947834
-1.5322
0.924804
1.19315
1.01494
1.00894
0.0719434
-1.71457
-1.03851
-0.184375
-0.0184621
-0.527886
0.369819
-0.543023
0.512971
1.16884
1.15735
0.864089
-0.685249
1.11388
-2.02282
0.0157922
-1.92074
-1.09342
-1.33732
0.351788
-1.34785
-1.20463
0.0435931
0.883142
-0.0196993
0.274678
-1.50881
0.00392836
-1.28959
-1.4691
1.19816
-0.146717
0.0199333
-1.17243
0.781005
0.471407
-0.481494
0.531316
0.164582
-1.41072
0.568642
1.02504
1.01479
0.204226
1.13374
0.883104
0.272778
1.24129
0.99451
0.920116
0.380753
-0.0385826
-1.14035
0.802029
-1.15249
-1.07332
-2.11401
-1.04872
-0.985665
1.33024
0.0482385
-1.08847
-1.39071
0.993456
-1.25413
-0.137925
-1.72201
0.75197
-0.0015307
-2.19067
1.22637
1.28906
1.1259
-1.26986
0.0218811
1.34474
0.997099
-1.42429
0.354148
-1.20904
0.165556
1.14537
0.929648
0.894623
1.28964
-0.490493
-0.0660096
-0.021275
-0.206185
-2.28711
-0.97478
0.0171452
1.2694
-2.37686
-1.42807
0.975163
0.574597
-1.14627
-1.13915
-1.15935
-1.91986
-2.1244
-1.0659
-1.29063
-1.30502
1.1794
0.0257429
-1.11922
1.00743
-2.34354
1.25852
-1.61925
0.185109
-1.78987
0.998607
-0.819535
1.02038
0.842087
0.0789352
1.03738
-2.22763
-1.04121
-1.74286
1.0107
0.933226
-1.30079
-1.23594
-1.96298
0.92727
-2.43234
-0.81
0.411141
0.907948
0.879065
0.699002
-1.34783
-0.398658
0.803207
-0.531056
0.83122
0.119027
1.00709
-0.162067
1.12885
-0.997132
0.846941
0.637555
1.0229
-1.92466
0.985082
-0.167847
-1.03401
1.00001
0.233283
0.047756
-1.10697
-0.224228
1.0025
0.113484
0.297862
0.99299
0.12813
-0.123985
0.00740821
-1.08434
0.258037
-1.42378
0.628414
-0.926644
1.01232
1.13485
-1.33363
-1.08201
-0.021173
-1.02654
0.326141
-1.30161
0.757102
-0.0229739
-1.30862
1.06372
0.0031225
0.265713
0.289912
-0.0182726
0.717378
0.236774
-0.0742295
0.0677168
0.0314166
-0.775976
1.00828
0.105422
1.10151
1.2244
1.20978
0.567118
1.11585
-1.31594
-0.934824
0.915252
0.216418
0.976815
-0.878998
-1.28673
-1.49759
0.813965
-1.04977
-0.323491
-1.06271
-1.11793
0.0147931
-0.663448
0.659494
0.652892
-0.528566
-0.456474
0.743955
0.0704662
1.0827
-0.0360206
-0.304779
-1.05819
0.678458
0.0173619
1.17375
1.35998
-0.986306
-1.36419
-0.776197
0.170552
-1.60203
1.03797
-0.419671
0.992858
0.705387
-0.807947
0.824321
0.785673
0.0785705
0.882233
-0.239157
-1.15393
-0.378828
-0.933622
-0.296658
-1.64335
-0.567867
0.996451
0.105882
-1.43547
0.583461
1.13489
1.21205
-0.347748
0.773699
0.0367464
0.770635
-0.00931435
-0.41171
-1.21847
0.401972
0.746491
1.01375
-0.472486
-1.38682
-2.16124
-0.979077
-0.117835
0.727299
-1.02987
0.000647888
-1.67649
0.883764
0.137519
0.945827
-0.121764
-0.146632
0.949319
0.673102
-1.09715
-0.294328
0.960356
1.28806
1.01134
0.109262
-2.17685
0.798398
-0.0923076
0.787513
-0.734616
0.347815
0.955567
-1.29714
-1.09529
0.972073
-2.1282
1.20157
0.00872212
0.872956
0.0273241
0.629049
-0.768727
1.22222
-1.11204
-1.17386
0.895454
0.43026
0.403307
-1.80907
-1.06519
-0.462112
0.750904
0.0232826
-0.505067
0.0810528
1.00876
0.296921
-2.07935
0.68203
0.832295
0.971313
-0.396719
-0.946415
-1.25382
1.01081
1.12994
0.484414
1.00711
0.0459825
1.05106
0.0338683
-0.800752
-0.0941578
0.924039
0.966544
-2.11917
0.778176
-1.12985
0.748487
-1.43268
0.940425
0.948624
1.00892
-0.0169988
0.867464
-1.60295
-0.68875
1.15753
-0.77608
0.0187815
1.08036
-1.2238
1.05525
-0.661519
-1.16041
0.985334
0.778671
1.3509
0.996026
-2.31584
1.0853
1.04508
0.00957671
0.550424
0.0373586
-1.0901
1.47405
-1.15568
1.09183
-1.36623
0.312143
0.997947
-1.81999
0.975608
-0.374905
0.859459
0.948087
1.00847
0.00366862
-1.24521
-0.611519
0.559529
0.638063
1.06339
-0.0234136
0.757267
-0.286003
-0.427544
-1.33992
0.831372
1.14834
-1.53234
-1.65015
0.0255577
1.21288
0.0285314
0.657789
0.0378978
-1.06658
-1.25385
-1.01338
0.0506483
0.756274
0.185011
0.0175289
-0.421171
-0.523065
-1.0878
-2.01296
-0.0338238
0.961902
1.0162
-1.77472
-0.326333
0.971299
0.945548
1.01256
-1.12814
0.970079
1.0522
0.990276
1.06153
0.194854
0.0110187
-1.10295
0.53471
0.99788
0.703253
0.150759
0.0146688
0.00914874
0.027592
1.25782
0.0025905
0.0248625
-0.647217
0.00470195
-1.29935
0.719334
-0.930561
-2.5351
-1.02937
0.986771
1.00221
0.994104
0.00573916
0.22939
1.23852
0.0158459
0.990781
0.011208
0.00722755
0.691946
1.01723
1.03843
0.0242746
0.962504
0.969737
-0.534343
0.0106505
0.994194
1.01163
1.01952
-1.07321
-1.01525
1.01771
0.609709
1.00189
0.099833
-0.258637
0.0223795
-0.112232
-0.0597935
-1.38832
-0.806736
0.0441399
1.02142
1.02168
0.703247
-0.985742
0.989956
0.00957379
0.0215861
0.00503813
0.996675
1.0218
1.01712
1.02295
1.00253
0.994195
0.988523
0.00423778
0.0191566
0.00966088
0.0158501
0.00185418
0.00404168
0.00311152
0.0101088
0.00812663
0.0120622
0.000243944
0.991906
1.00899
1.00566
1.02917
1.02478
1.01679
1.01757
1.00183
0.999579
0.00813473
0.0204345
1.01599
1.01425
0.00374931
1.02136
1.01712
0.0204793
0.0209356
0.0120046
-1.24427
0.197984
0.999636
-1.49791
0.99272
0.646007
1.07786
-1.13399
1.00128
0.931146
0.944199
-1.08949
0.0439698
-1.49981
0.0111017
-0.163485
-1.05434
1.00553
0.016351
1.08061
1.00669
-0.307002
1.13393
1.29302
0.0179951
0.84431
0.664572
0.993482
1.01247
1.0085
-1.17197
0.394446
0.0155962
1.00439
1.00757
-1.38627
0.0164419
1.00212
0.0168791
-0.47971
1.00336
-0.371392
0.980223
1.00458
-0.881418
1.0053
0.0262244
0.995277
1.05542
0.0586998
1.01468
1.01857
0.0154838
0.628732
1.00523
0.999154
0.0177207
-0.938697
0.714099
1.34664
1.00172
1.00576
1.0058
0.0160379
1.00958
0.985224
0.998973
1.00261
0.999894
1.00041
1.08933
0.0174358
-1.09015
1.01097
0.994799
0.205255
-0.267114
-0.0235553
0.0451663
0.864986
-1.12007
0.0901824
0.00583814
0.999477
0.731145
0.00887838
0.0310188
0.021065
-0.0299287
-1.64177
0.0201817
0.116939
-2.50837
-0.480279
1.00752
0.00922469
0.995187
0.916402
-1.10514
1.21359
0.0156531
-2.1056
0.769178
1.09123
0.366658
-1.01705
0.993735
0.0247576
1.00666
-0.735658
1.00913
-2.42135
0.995582
0.0204849
-0.0702942
1.00962
1.01995
0.922454
0.0304638
-0.980887
-1.02505
0.0385049
1.01976
0.895627
0.0267456
0.995249
1.03529
0.983895
0.0473728
-0.470697
-0.636379
0.0378026
0.34719
1.00449
0.0059617
1.00597
-0.838961
0.998856
1.03671
1.01023
0.00106901
-0.000361056
1.03584
-1.51437
1.01057
1.01252
0.0298242
-1.28765
0.89121
1.10818
0.994733
0.988498
0.0485059
0.0603245
0.971104
0.412183
1.01107
0.845278
-1.27808
-1.24938
0.839504
1.23752
0.995762
0.34926
0.0633182
0.032216
0.17394
0.0998244
0.98511
-0.259822
0.979154
-1.4661
-1.09831
-1.33926
0.388368
-1.66633
0.0537771
0.083597
0.994772
-1.00354
0.861602
-1.17296
-0.17062
0.0493529
0.00719734
0.0913413
0.968009
0.0390544
-0.625294
0.0677672
-1.21947
0.992144
0.115583
0.00396997
-0.628391
1.05273
0.0357284
-1.16732
1.05985
0.984452
0.976147
0.488841
-0.79525
0.998535
1.02151
-0.011654
-1.26591
0.992526
0.795904
1.22542
1.00373
-0.049565
0.123707
-1.37927
-1.65735
-1.41772
-1.04154
0.0339261
-1.94031
0.800302
-0.0197783
1.00345
1.18843
0.993674
-0.979601
-1.79435
0.995671
0.133384
0.0739025
0.977527
-0.199048
-1.15494
-0.426586
0.0345773
0.936493
0.915144
0.0160999
0.870651
0.62186
0.181047
0.987408
-2.58388
0.793585
-1.17699
0.985306
0.161038
0.436939
0.996614
1.05465
-0.463206
-1.06795
0.816684
1.35478
1.01992
0.978367
0.16108
1.24869
-0.986622
0.0627839
-0.807981
0.470642
-0.121645
1.09999
1.16002
-1.20152
-0.0704766
0.989224
-0.662964
0.856756
1.02788
0.954393
-0.642217
0.99697
-0.000505515
1.02721
0.00416756
0.0631617
-0.255681
1.00142
0.0208078
-0.611856
0.0623257
1.00593
0.0813131
1.16116
0.264342
1.29904
0.944175
-0.994297
0.983329
-1.19738
0.957073
0.97239
0.0548045
0.0807727
1.09288
0.981514
1.1947
0.949068
0.098896
0.942928
0.985725
0.838684
1.00097
-1.4122
-1.52806
0.158061
1.09833
-0.212011
0.0879098
-1.13352
-0.177721
0.0500545
0.0137031
0.822129
0.0518116
0.959059
1.01382
-1.29229
-1.50292
-0.783292
-1.06321
-1.42103
-1.17768
0.996845
0.108149
1.01133
1.23214
1.04981
-0.297445
1.02387
0.930048
-0.421199
0.970978
0.979529
-1.26634
0.975488
0.902326
0.0207834
-0.614375
1.44484
0.0540438
-1.44715
-1.50843
0.237839
0.985231
-1.54518
-0.00756677
-1.0574
1.12016
0.111248
0.812047
1.00812
0.985109
-0.576739
0.977686
-0.027482
1.00857
1.01798
-0.523838
1.01538
0.443434
0.995512
0.719094
-0.716229
0.00479108
0.00026431
0.0332621
1.21738
0.00930098
1.01688
1.3732
-0.0702466
-0.000760757
1.06504
0.00852725
1.06326
0.000432448
0.0106776
1.05565
1.06144
0.425072
-2.66142
0.718819
-0.833591
-1.56425
-0.831471
1.01831
0.999146
1.41712
-1.0123
0.106195
0.741937
-1.48548
1.05997
0.963416
0.989689
0.984485
0.964234
-0.671275
-1.04685
-1.97696
0.782425
0.914307
-0.0907414
-1.2106
-1.2225
1.01325
1.03332
-0.219919
-1.03673
1.03178
0.119878
0.176962
0.729599
0.883642
-3.51162e-05
-1.62066
-0.310267
-1.25698
-0.804357
-0.936599
0.131979
1.37306
1.34017
-1.1825
-1.156
1.01077
0.989303
-1.47755
-0.0490535
-0.356788
0.607031
1.08464
-1.80248
1.005
0.0505635
-1.5947
-1.08632
-1.45775
-1.16573
0.992369
-1.21501
-1.59564
1.34114
-1.24922
1.00385
1.20537
-1.22758
1.05277
1.25798
-1.3022
1.21746
-1.27755
-1.69015
0.997429
0.0447442
1.0223
1.00637
-1.28695
1.05976
0.163833
-0.353316
1.03557
1.04058
-0.9078
-1.99869
0.935583
0.993807
-1.25716
-0.330205
1.25849
-1.28565
0.90232
0.0226427
0.951448
-0.901494
-0.166072
-1.1863
-1.27683
1.0619
1.03592
1.29422
1.17996
0.94327
1.0507
1.03212
-1.1598
1.10416
1.15301
-1.30185
-1.28211
-1.33118
1.30028
0.090024
-1.65401
0.0344816
0.901902
-1.31941
-1.10983
0.987746
1.02946
-1.21292
-1.24115
-1.56811
0.00902507
-0.371222
-1.31169
-1.13161
0.853918
0.900251
-1.17294
-0.522105
-0.874447
0.803971
-1.29281
-1.2401
-1.10858
0.953182
-2.52771
-1.26494
1.33246
0.918367
0.41857
1.20439
0.0521616
0.9892
1.0063
1.11855
1.2178
0.0180113
0.641418
0.978541
0.270143
-1.08376
1.40855
0.977941
0.91835
1.06508
-1.28703
-2.10292
0.868875
0.773696
0.965802
-1.1313
-0.192263
0.987804
-1.14574
0.847304
0.032924
1.39255
-1.0651
0.697225
0.743694
-1.1202
-1.04836
-2.2861
1.06605
-1.13585
-1.01178
0.705488
0.57675
-1.51261
1.05856
0.846624
-1.15163
-0.987229
0.942712
-1.10596
-1.03195
-1.5435
-1.04879
-0.697454
0.965133
1.01448
0.111844
0.624381
1.00399
1.32638
0.296179
0.237696
-0.0390362
0.891829
-0.439529
-1.10659
0.0365934
-0.675458
-1.09315
0.987232
-1.14682
0.12263
-1.01883
0.506639
0.574948
-1.07652
0.645037
-0.495095
0.502601
-1.06153
0.429229
-1.11005
0.397349
-0.99386
0.342121
-1.04665
0.825714
-2.25066
-1.04311
-1.04738
-1.02777
1.01668
0.0976725
-1.08719
-0.969816
-0.0175899
0.0932828
-1.1194
-1.0855
-1.13956
-0.109382
-0.984551
-0.190324
-1.02414
-0.411076
-1.22447
-0.281678
0.873634
0.0195144
-1.54412
0.973349
-0.110177
0.0196344
0.46874
0.971546
-2.33319
-0.0674821
-0.972182
-1.51572
0.907061
1.39858
-0.175061
0.0316496
0.0432371
-1.23668
-0.422662
-0.344726
0.957942
-1.18267
0.959685
-0.800898
1.46199
0.473156
1.41877
-1.21841
1.2
-0.64136
1.01859
-0.761913
-0.980923
1.08605
0.997044
-1.17879
-1.02216
-1.05861
0.950427
-1.67294
0.986742
-1.05222
-1.41471
-1.19533
1.29193
1.02152
1.12203
1.0009
1.01628
0.0381439
-0.51211
1.17993
-1.44185
-1.15176
1.39357
-1.29164
0.90946
0.959778
1.35878
1.41949
-1.39929
-2.68161
1.03652
0.25001
-0.451629
-0.998006
-0.0183012
0.0216396
-1.24263
0.563225
-1.37236
1.21104
-0.367114
1.01611
1.11301
1.01834
-1.54479
-1.07641
-1.37739
1.08509
-1.23031
1.1463
-0.795768
-1.34815
1.21386
1.30881
-0.924724
0.0276985
0.946774
-1.55403
-1.47582
0.679376
1.24968
1.21826
-1.73724
0.869713
0.812414
-0.985919
1.23115
0.232901
-1.1924
0.0106288
0.0143963
0.0177746
1.09
-1.10931
0.207436
0.0155929
0.0389659
-1.00245
-0.988422
0.981471
-1.57597
1.0045
-0.169983
0.0985915
0.706177
0.277327
-0.936455
-0.75141
-1.19375
0.01186
0.0157879
-1.1095
0.901785
-1.97946
-1.49282
0.990287
-1.58861
-1.32567
1.01486
-1.43273
0.939441
0.0124955
-1.183
-0.308325
0.801357
-0.803
-2.18369
0.894494
-1.33591
1.07392
-0.578509
-1.31059
-1.1891
-1.00443
1.48082
-0.239496
1.12443
0.0186523
0.963662
1.17228
0.734424
1.02855
1.1316
-0.209968
-0.253342
0.971949
1.09731
1.35366
-1.23261
1.0372
0.631621
-1.267
0.795578
1.21767
-0.707432
1.32038
0.0822231
-1.14634
0.840379
-1.28326
-1.04839
0.957481
-0.591501
1.05895
1.06481
0.94304
-1.21403
0.878529
1.2375
-1.58706
-0.407249
-0.114817
-1.40997
-1.29878
-1.02751
1.35431
0.753737
-1.29252
0.916638
-1.28832
-1.17811
1.27742
1.19956
-1.90874
-1.7041
-1.0053
-1.28176
0.984178
-1.3088
0.0938071
-1.02301
-0.529988
1.06161
-1.27239
1.36677
1.03789
0.885794
1.01078
1.27916
-1.38726
-1.28873
1.02057
1.14619
-0.994834
1.01077
-0.0393941
-1.17698
-1.23597
1.05188
1.08273
-1.20436
-1.37256
0.56558
-0.0542488
-2.0254
0.970825
0.924869
-1.43178
0.966321
1.01054
-2.46841
-1.30957
-1.25975
-1.15138
-1.22853
1.31324
0.060287
0.876943
-1.32373
1.31333
0.877447
0.826948
0.919389
-0.378593
-0.15893
-1.12358
0.477592
-1.25695
0.924807
0.297322
-0.715914
0.837579
1.01185
1.04
0.998694
0.00902982
1.04291
0.00697224
0.433657
0.777211
-0.655213
-1.29724
-1.16294
-0.810395
1.01116
0.974162
1.01565
-2.30807
-0.811195
-1.09886
-0.972144
0.997747
1.26356
1.01524
-1.27882
-1.10387
-1.44057
-0.671284
-1.01152
-1.00297
-0.31086
0.984852
-1.0636
-1.1645
0.0113811
-0.0833907
0.673897
0.159684
-1.07807
-1.9676
0.915377
1.41528
0.0102179
1.09903
1.46779
0.610779
1.18581
-1.34892
0.0284395
1.39594
-1.05779
0.330583
-1.23275
-1.24177
-1.04906
-1.12914
0.98375
0.733761
1.16335
1.12354
0.000126715
0.780763
-0.034894
0.00436479
-1.04001
1.10735
0.675737
1.02392
1.03213
0.00645772
0.00370867
1.03535
-0.424156
-0.998036
-1.1463
-1.05616
0.606237
-1.11446
0.964458
0.669745
-1.05627
1.2385
-1.29689
-0.449593
0.986873
-1.0624
-1.22877
-1.76766
0.543979
-1.18658
-2.25741
0.872657
1.02752
0.0202712
0.0612124
-1.49697
-1.02471
0.0735396
-2.61517
-0.171845
0.60214
-1.38805
-1.10001
1.23815
0.185745
0.293191
-1.08529
-1.259
0.999946
1.05236
0.470008
0.537039
-1.06863
-1.20988
-0.759539
0.389276
0.445918
-1.05372
0.835083
0.0610107
-1.03818
1.42136
-1.0372
-1.76995
-1.22442
-1.00008
0.845934
-1.06152
-1.29722
-0.971495
0.0103932
-1.11077
-0.0934917
-1.17592
0.0142532
1.15149
-1.17619
-0.173005
-1.00553
-0.286015
1.31655
1.39131
1.20258
1.00889
1.17797
-0.879417
0.990289
-1.29185
1.04958
-0.967095
-1.0658
1.26729
-1.05045
0.499474
-2.52174
1.38925
-0.131325
1.3275
0.542081
0.739265
-1.20866
-1.24407
-0.987109
-1.98886
1.29719
1.17005
0.987888
0.638996
0.997542
0.87079
0.764826
-1.04738
-1.27301
0.141983
0.00950736
0.73849
1.0073
-0.025426
-1.24233
-1.04367
-2.57968
-0.975257
-0.271034
1.34392
1.03175
1.00758
0.00953772
0.00591178
1.03033
-0.0608207
-1.0234
-0.7287
-1.26594
0.72657
-1.15264
-1.08113
-0.304171
0.992743
-2.5501
-1.22155
0.995307
0.610502
0.729416
0.994843
-1.01197
0.821962
1.18094
0.840967
-0.998
0.996324
0.357566
0.388579
-1.26575
-1.12157
1.42441
0.266113
-1.48403
0.0283111
0.862521
0.941969
-1.1921
-1.83449
0.0112784
-1.41785
-0.915744
-1.3077
0.0155576
0.987249
-1.65593
0.974474
1.26851
1.09859
0.967204
1.05158
1.11551
1.00154
-1.52237
-0.666335
-0.552143
-1.05308
-0.994059
-1.07139
1.1223
1.0141
-1.28944
0.970631
-1.06696
0.0642669
-1.04928
-0.000704598
0.552151
-2.23272
0.986104
0.855011
-2.42846
-0.403094
1.32023
-2.56888
0.0857412
-1.72063
-1.31547
-1.03483
1.04164
0.719761
1.09384
-1.5555
-0.0936613
-0.936599
-0.489208
-1.29092
-0.6513
-1.62397
-1.95593
0.864504
-0.790931
1.44694
-1.31748
-0.548889
-1.00601
-1.06626
0.938867
-1.02486
-1.4422
-1.17501
-0.299351
1.15949
1.21605
-0.825222
-0.0981676
0.771361
-0.992166
-0.893841
1.10294
-1.71176
-0.557674
-1.8864
0.694659
-0.407295
-1.28537
0.989363
-0.0817098
-1.44215
0.996175
-1.1072
-1.39701
-1.676
-1.14913
-0.0932121
-1.29007
1.28832
-1.06598
0.177031
-0.974294
0.737343
-0.939607
-1.19359
0.584379
0.773382
1.05114
0.970603
1.15216
-1.08129
0.865879
0.559297
-1.56103
0.905048
-0.510852
-1.20373
-2.26212
1.17542
1.16034
-1.18343
-1.1606
-1.45104
0.967179
-1.17218
0.0237461
-2.08442
-1.08623
1.25266
0.973373
-1.22512
-1.22582
-1.26722
-1.17838
0.898385
-1.36653
0.937438
0.147056
0.646386
0.783312
-1.01629
-1.20657
0.897394
-1.07463
0.0153323
1.26577
-1.11441
-1.16249
0.762601
-1.6095
-1.26964
-0.177474
-1.22761
1.33938
-0.612445
0.13903
-1.23866
1.30641
-1.2663
-1.21144
0.579327
-1.8356
-0.97814
1.32453
0.610529
1.01303
-1.28924
1.19769
0.00773116
-0.904388
-1.30801
-1.32524
-1.28133
1.23158
0.508703
-1.22709
-1.25989
-1.27172
1.0965
-1.09775
1.28304
-0.982662
0.672841
-1.13881
0.29462
0.470107
0.434113
0.349199
0.193353
-1.15091
0.970823
-1.31152
-0.857147
-1.67675
0.293834
1.322
-0.279962
-1.27833
-1.35454
-1.15232
0.182503
-1.30156
-1.13125
0.846185
0.205792
-1.19491
1.38366
-1.27993
-1.27934
1.34564
-1.16382
0.0618843
-1.10438
-1.05848
-1.11831
1.35918
-1.05511
1.26675
-1.11079
-1.21271
1.14496
-0.264333
-1.18853
0.49823
-1.2283
-0.0805627
-0.398138
-1.13155
0.817792
-1.57064
-1.13858
-1.06651
-1.05591
-0.974034
0.851862
-0.264858
-0.432456
-1.20898
1.29289
-0.882419
-1.25319
-1.0144
-0.163252
-1.20094
-1.01952
-1.19163
-0.132443
1.2134
-1.31726
-0.963225
-1.84414
-0.784814
-0.350359
-0.984257
1.37812
1.30922
0.340162
-1.25782
-0.974441
0.25072
-0.977984
1.38719
0.123513
1.07924
0.637645
1.28723
-0.0011774
-1.20398
-1.28668
-0.164462
-1.32183
-0.164199
-0.10413
-1.10711
1.28682
-0.316011
0.135789
-0.414081
-0.971407
-1.31556
)
;

boundaryField
{
    frontback
    {
        type            empty;
    }
    Top
    {
        type            zeroGradient;
    }
    outlet
    {
        type            fixedValue;
        value           uniform 0;
    }
    bottom
    {
        type            zeroGradient;
    }
    Inlet
    {
        type            zeroGradient;
    }
    rectangle
    {
        type            zeroGradient;
    }
}


// ************************************************************************* //
