/*--------------------------------*- C++ -*----------------------------------*\
| =========                 |                                                 |
| \\      /  F ield         | OpenFOAM: The Open Source CFD Toolbox           |
|  \\    /   O peration     | Version:  2306                                  |
|   \\  /    A nd           | Website:  www.openfoam.com                      |
|    \\/     M anipulation  |                                                 |
\*---------------------------------------------------------------------------*/
FoamFile
{
    version     2.0;
    format      ascii;
    arch        "LSB;label=32;scalar=64";
    class       surfaceScalarField;
    location    "6";
    object      phi;
}
// * * * * * * * * * * * * * * * * * * * * * * * * * * * * * * * * * * * * * //

dimensions      [0 3 -1 0 0 0 0];

oriented        oriented;

internalField   nonuniform List<scalar> 
3181
(
-0.977029
0.357554
0.619475
-0.386251
0.361046
0.0252045
0.514596
-0.354508
-0.160088
0.119153
-0.19867
0.0795171
-0.121125
0.132434
-0.0113096
0.692266
0.482149
-1.17441
0.147156
-0.140816
-0.00633969
0.103524
0.00688075
-0.110404
0.627875
-0.903447
0.275572
-0.0763055
0.134059
-0.0577537
-0.0101389
-0.0518985
0.0620374
0.144805
0.0325918
-0.177397
-0.0251662
-0.0766629
0.101829
-1.03199
0.137934
0.894052
-0.31765
0.691197
-0.373547
-1.10845
0.630971
0.477481
0.0814046
-0.94303
0.861626
-0.390372
0.279317
0.111055
-0.621943
-0.415004
-0.00205865
0.104269
-0.10221
0.0392011
-0.0864451
0.047244
-0.0605493
0.0415011
0.0190482
1.01198
-0.99239
-0.0195929
0.017999
0.0539893
-0.0719884
-0.953632
0.315019
0.638613
-0.109362
0.228515
0.300879
-0.241902
-0.0589765
0.029908
0.0619105
-0.0918185
-0.412754
0.339043
0.0737111
-0.0200024
-0.0136353
0.0124335
0.00120184
-0.0372643
-0.916368
0.200336
-0.117143
-0.083193
-0.0915387
0.972287
-0.880748
-0.0680189
0.0897402
-0.0217213
0.184883
0.273368
-0.45825
0.85614
-0.947679
0.0726902
-0.0334891
1.64385
-0.902173
-0.741678
-0.335866
1.02813
-0.168599
0.143433
-0.0651917
0.00464242
-0.406537
0.0888876
-0.150749
0.085557
-0.630161
0.127127
0.503034
-0.144116
0.0678107
-0.165947
0.170054
-0.00410664
-0.268863
-0.0735472
0.34241
-0.18401
0.987873
-0.803863
0.140956
0.175368
-0.316324
-0.015694
-0.100886
0.107017
-0.00613087
0.499329
0.191868
-0.0967638
0.143218
-0.0464538
0.0464797
0.153856
-0.170782
0.197338
-0.0265563
0.159794
0.0585655
-0.21836
0.109003
-0.114863
0.00586021
1.17208
0.471771
-0.804385
-0.172644
0.0628671
-0.816584
0.753717
0.549651
0.22408
-0.773731
-0.446408
-0.20363
0.650038
-1.01507
0.679202
-0.265983
0.815634
-0.319431
-0.0981281
0.417559
-0.208575
-0.20418
-0.188847
0.166206
0.0226417
0.136776
0.281493
-0.418269
-0.336195
0.964069
-0.0387396
0.142263
-1.05501
1.11787
0.182798
0.11808
-0.173782
-0.113044
0.286826
-0.270717
0.358581
-0.0878634
-0.0802917
0.0890131
-0.00872137
-1.23902
-0.915982
0.00677234
0.90921
-0.105192
0.0371733
-1.1239
0.826534
0.297364
0.571086
-0.637509
0.0664236
-1.00221
-0.0128567
1.12618
-0.988245
-0.712391
1.08736
-0.193304
1.08891
0.169644
-0.175236
0.00559235
1.13629
-0.654137
0.97983
-0.97983
6.22346e-06
0.00340248
-0.0034087
-0.21107
-0.0527135
0.263784
0.21322
-0.141301
-0.0719193
-0.414542
0.792061
-0.377519
-0.0189658
-0.231108
0.250073
-1.03745
0.0450557
0.34408
0.0598689
-0.403949
0.128345
-0.841929
1.06601
0.154183
0.0544778
-0.20866
-0.0174444
-0.153337
-0.498875
0.763595
-0.26472
-0.750655
0.25178
0.100608
-0.942536
0.344725
-0.759267
0.912838
-0.831434
-0.0349831
0.285224
-0.250241
0.0859341
0.0525316
-0.138466
-1.32249
-0.203779
1.52626
-0.237293
0.401698
-0.164405
0.582042
-0.145066
-0.436975
-0.492951
-0.630947
0.236372
-0.0954155
-0.150662
0.145208
0.00545396
-0.078564
-0.0146771
0.0932411
-0.628196
-0.275251
-0.121943
0.0566669
0.0652763
-0.983745
-0.00597716
0.989722
1.12289
-0.13502
0.00574277
-0.00573655
0.0374037
0.145394
-0.200127
0.38501
0.0642282
0.184605
-0.248833
0.139535
0.0689667
-0.208502
0.427208
-0.254615
-0.172593
-0.584108
-0.524343
-0.795756
-0.187989
-0.0566467
0.210829
-0.101265
0.182546
-0.0812815
0.0368366
0.0250169
0.122139
-0.056509
0.0674387
-0.0109296
-0.0944031
-0.0204666
0.11487
0.0733682
-0.0733682
-0.182629
0.207646
-0.179569
0.239596
0.105192
0.0921457
-1.26369
0.927497
-1.42146
0.000450821
1.42101
0.0576536
-0.0458629
-0.0117907
-0.0269808
-0.0518374
0.0788181
0.522788
-0.0129369
-0.509851
-0.0675738
0.0701171
-0.00254335
-0.199031
0.0164011
0.166415
0.625646
-0.346372
0.512787
-0.0903879
-1.2321
-0.136381
0.0152567
0.47161
-0.29975
-0.17186
0.2221
-0.193162
-0.0289378
0.04628
-0.315143
0.0256348
-0.941617
0.0502983
-0.151563
-0.283144
-0.392978
0.0728803
1.42236
-0.998778
-0.423584
1.0928
0.329557
0.0651017
0.277308
0.0628829
-0.00522924
-0.0443894
0.204259
-0.15987
-0.238426
-0.584536
0.822962
-0.350336
0.514343
0.67143
-1.08643
0.162804
-0.00280922
-0.0181579
0.0209671
-0.905601
-0.047822
0.953423
0.0596204
-0.965221
-0.310928
0.655008
-0.917396
-0.0161238
0.00353213
-0.268479
0.264947
1.41357
-1.56872
0.155151
-0.151852
0.0154705
0.563544
-0.801971
0.333048
-0.452419
0.119372
-0.297011
-0.117097
0.414108
0.159995
-0.985431
-0.0520147
-0.0496372
-0.0525732
-0.558189
0.354559
-0.248802
0.0193428
0.229459
-0.0526885
-0.0991634
0.0308813
-0.0308813
-0.121345
0.133477
-0.0121317
-0.168309
-1.25316
0.0990491
0.0477944
-0.146843
-0.190481
0.0315299
0.158951
-0.222516
0.0336687
1.33868
0.0578178
-1.3965
-0.177524
0.438653
-0.261129
0.00699723
-0.00559137
-0.00140586
0.451354
0.130688
-0.189259
-0.00423545
0.193495
-0.172694
0.30947
-0.103041
0.101388
0.00165251
0.074888
0.0234121
-0.0983001
-0.269419
0.294699
-0.0252808
0.319745
-0.701557
0.381812
-0.216191
-0.0497136
0.265904
-0.685415
0.654697
0.0307173
0.014922
0.0390674
0.0690287
-0.0703866
0.00135789
-0.00221003
-0.0697783
0.56651
0.556383
0.156036
-0.86072
0.704685
-0.22315
1.56511
-1.34196
0.373482
0.200324
0.779506
0.0646535
0.205843
-0.0663078
-0.0720444
-0.0288415
0.234112
0.159906
-0.0739717
0.728583
-0.413564
0.0593559
0.204428
0.0520626
-0.166408
0.114346
-0.837993
-0.121354
0.959347
-0.0446912
0.0446912
-0.152126
-0.275254
0.548622
0.0119816
-0.228172
0.0708076
0.208509
0.0736835
-0.13033
0.137954
-0.148093
-0.338021
0.319055
-0.0304428
0.168201
-0.137758
0.372391
-0.3398
-0.417486
0.369992
0.0474945
-0.203834
0.268936
0.178966
-0.478717
-0.266309
0.623863
0.164548
-0.0334851
0.0334851
-0.473318
0.429663
0.0436557
0.376172
0.0255255
-0.0548206
0.0670953
-0.0122747
-0.261847
-0.0594952
-0.0624481
-0.0490826
0.187037
-0.181646
0.243562
-0.061916
0.132467
0.0274389
-0.381967
0.140065
0.193358
-0.0608909
-0.0462654
-0.0567753
-0.115195
0.116681
-0.0014862
0.146415
-0.103691
-0.0427246
-0.0172322
0.394057
-0.376824
-0.186314
0.147574
0.105603
-0.109956
0.00435293
0.0241974
0.0618455
-0.479332
-0.153379
-0.0443883
0.197767
-0.159008
-0.0971817
0.25619
-0.0939063
0.107663
-0.729645
0.621982
-0.0695501
-1.43588
-0.104002
1.53989
0.0725992
0.877663
-0.950262
0.0824463
-0.279878
0.0252634
0.275585
0.254735
-0.53032
-0.202898
0.254961
0.201
-0.908304
0.707304
0.0439419
-0.20295
-0.0525718
0.00293459
-1.01686
0.463126
0.553733
0.998778
-0.89817
-1.60796
1.40419
-1.41357
1.41402
0.039634
-0.0860878
0.0160878
0.0529409
0.0270679
0.910372
-0.709372
0.120891
-0.0705923
0.401408
0.685948
-0.193404
-1.28956
1.06641
-0.696039
-0.567652
-0.23778
-0.392381
-0.0428808
-0.164358
0.210638
-0.615451
-0.362755
0.185231
0.771226
-0.248438
-0.864238
-0.743726
0.71958
0.309762
-0.26582
0.274248
0.0377134
-0.0377134
0.671819
0.155741
-0.82756
-0.215749
0.887568
0.616804
-0.967631
0.350827
0.273274
-0.0336782
0.0055841
0.00834404
-0.0139281
-0.816584
-0.971165
0.836146
0.432454
0.906224
-0.0340177
-0.13193
-0.257271
0.7566
-0.198895
-0.0499063
-0.00287024
-0.0774215
-0.0551183
0.10765
0.378326
-0.251199
-0.786427
-0.287949
-0.18935
-0.048349
0.237699
-0.743935
0.944259
-0.312412
0.238045
0.0743665
0.0549237
0.00795911
-0.146737
0.0630021
0.0837353
0.00889779
0.408661
0.145942
0.0761575
0.0433205
0.0243413
-0.0676618
-0.0179046
-0.171355
-0.712706
0.366935
0.345772
0.59346
-1.0103
0.416836
0.139493
-0.161275
0.0217816
0.00915596
0.227216
-0.172857
-0.806973
-0.155477
0.00874007
-0.176831
0.0814155
0.148192
-0.348319
-1.12818
0.704817
0.423368
0.0610945
0.0923392
0.054076
-0.837993
-0.455111
0.774856
0.190198
-0.127196
0.0446665
-0.630305
-0.0551092
0.0608815
0.132476
-0.250203
0.0349269
-0.453196
0.122054
0.353054
-0.293186
-0.113602
0.0191994
0.203099
0.829316
-1.03241
0.0869912
-0.742547
0.655556
-0.913327
0.791973
-0.709385
-0.0379672
0.747352
-0.0180116
0.0206393
-0.00262768
0.167978
-0.46499
0.22279
-0.131683
-0.0911066
0.0260677
-0.123249
-0.0642204
-0.125129
-0.0138099
0.0222415
-0.0244515
0.0206537
0.0809571
-0.101611
0.689403
-0.0121203
0.0133187
-0.00119843
0.169735
-0.0221605
0.834069
0.0836566
-0.0681861
0.0266432
-0.997809
0.251633
0.0216413
0.00840604
0.0839331
-0.747352
0.806973
0.146684
-0.324035
0.17735
-0.255276
0.0800394
0.119577
-0.113985
-0.00135802
0.0903711
-0.060693
-0.739179
-0.389005
-0.0457379
0.0663915
0.74204
-0.264559
-0.295139
0.104658
0.33911
0.0170616
-0.0718822
-0.00771657
0.0810848
0.147247
0.211333
0.153933
-0.328362
0.17443
0.0970814
0.528565
-0.035901
-0.108215
0.894319
-0.238962
-0.655357
-0.709385
-0.105538
0.698998
0.85614
-0.59119
0.756329
-0.165139
0.381772
-0.0567179
-0.325054
-0.255578
-0.746633
-0.0753334
0.0763243
-0.000990869
0.0786195
-0.204587
0.125967
0.233046
-1.10957
0.876525
0.0264268
0.703998
-0.730425
-0.0432881
-0.107374
-0.0110429
-0.142336
-0.112156
-0.361163
-0.0225778
0.00456612
0.0994059
0.0954735
-0.194879
0.156381
-0.20077
-0.00398295
0.0589067
0.152027
0.133197
-0.0615901
-0.00879647
0.190081
-0.421189
0.0489815
0.828682
0.0353567
0.00933446
-0.977277
-0.0081544
0.140039
-0.0713541
-0.0422484
-0.046679
0.379726
-0.119685
0.26659
-0.146905
0.182455
0.0691784
-0.97007
-0.0181752
-0.0486006
-0.646091
0.753754
-0.0183631
0.182911
-0.325359
-0.642272
0.190176
-0.436725
0.246549
-0.0162444
0.200849
-0.00641016
0.00738976
-0.000979601
-0.112916
-0.156503
-0.0209721
-0.132365
0.746096
-0.659105
-0.213993
0.133743
-0.156031
0.31016
-0.156227
-0.0131858
0.983383
0.329707
-1.31309
-0.121661
0.141004
-0.495828
-0.216878
-0.563579
0.653774
-0.644063
-0.00971055
-0.158373
-0.0556194
-1.28956
0.631727
-0.631727
-1.394
1.394
0.910372
0.650625
-0.690222
0.0395977
-0.881219
-0.0960574
0.635587
-0.363292
-0.272295
0.155624
-0.236906
-0.000102215
0.00584499
-0.861124
-0.0814128
-0.934685
0.20504
0.0754983
-0.123847
0.68867
-0.10427
-0.5844
0.624378
0.231762
0.00258627
-0.00899644
-0.989663
-0.121523
0.491515
-0.10707
-0.578799
0.685869
-0.0733051
-0.883412
-0.685307
0.214009
-0.798117
-0.959347
1.362
-0.402655
-0.13833
0.275678
-0.137348
-0.0253943
0.714064
-0.105196
-0.984296
0.984296
-1.08292
0.491646
0.591274
-0.000854682
-0.0112656
0.120648
-0.436806
0.899563
-0.0730294
-0.0872115
-0.0348431
0.168248
0.0089373
-0.00194007
0.91624
-0.954207
-0.353111
0.427999
-0.642425
1.01229
-0.369866
-0.088881
-0.0665964
0.125305
-0.0563388
0.377706
0.0125492
-0.0892121
0.350819
0.0432371
0.0440254
-0.250498
0.206473
0.136608
0.0334456
0.0983247
0.183518
0.896831
0.221042
-0.0905848
0.811078
-0.720493
-0.897128
0.849306
0.248008
-0.162451
0.0811517
-0.773792
0.69264
0.56004
0.125829
-0.463849
-0.0769742
0.132364
-0.0553895
0.124153
-0.201127
-0.451762
-0.106427
-0.0733638
0.0766213
-0.00325749
-0.00939395
-0.0521962
0.155956
-0.00210028
0.709372
-0.655556
-0.0538165
-0.286206
0.298187
0.855743
0.655402
-0.27363
-0.0376087
0.0854031
-0.109578
-0.342841
0.170295
-0.5526
0.382306
0.00697999
0.000409772
-0.142534
0.550283
-0.407749
0.00176469
-0.00959564
0.00783095
-0.0272582
0.0185869
0.00867123
-1.00692
0.352784
-0.253824
-1.18206
-0.197027
-0.89817
1.41402
1.40419
-0.190625
-0.169656
0.119942
-0.0644896
0.0703782
-0.00588861
0.00204586
0.838439
-0.840484
0.544981
0.0906056
0.00525306
0.00172693
0.122522
-0.0909396
0.0348431
-0.0503171
0.00457921
-0.369306
0.259727
-0.0844549
0.158138
-0.244442
0.616833
1.0928
-0.392034
-0.0611321
0.00135079
0.0597813
1.64783
-0.243642
-0.0606961
-0.0541666
-1.06196
0.163787
0.366846
-0.206851
-0.471089
-0.129155
0.600244
0.785802
-0.34054
-0.445263
-0.142495
0.0228105
-1.06641
0.249823
-0.0322376
-0.0739669
0.106204
0.575922
0.989192
-0.171894
0.177478
0.257069
1.84798
-0.433958
-0.656764
0.0371111
0.619653
0.379754
0.0339982
-0.34704
0.513955
0.78977
-0.068446
0.0752377
-0.0211617
-0.664305
-0.030229
0.694534
1.00838
0.145886
-0.102566
-0.0493899
-0.362342
0.107076
-0.309974
1.08246
-0.099076
-0.177843
0.0194694
0.127242
-0.718432
-0.00732339
0.0222454
0.108556
-0.145027
0.0364703
-0.292874
0.308555
-0.0156814
1.07665
-0.746943
-0.971205
0.045829
0.925376
0.139469
-0.326976
0.187507
0.270987
0.0391728
0.235617
-0.690728
-0.730197
0.730197
0.753717
0.624378
-0.742547
0.312449
0.477321
-0.253292
0.296948
0.923161
-0.37818
0.0217004
-0.856359
0.834658
0.126744
0.00731562
0.0316192
-0.587414
0.823031
0.149427
-0.158945
-0.119578
0.278524
0.0443318
-0.496138
0.337193
-1.07048
-0.289654
-0.708497
-0.0631082
0.0123464
0.000972269
-0.221286
0.140453
0.0972455
0.0336984
-0.148293
0.114595
-0.621445
-0.461476
-0.00569716
0.0676077
-1.0006
0.447912
0.552687
-0.545797
0.373936
-0.0782844
0.246486
0.227485
-0.0210391
-0.0315327
-1.14335
1.20117
0.0349118
0.0706914
-0.275029
0.118998
0.21332
0.00947032
-0.430229
0.780566
0.55842
0.223664
0.874621
-0.793469
0.784878
-0.445768
-0.611113
0.174307
0.153891
-0.77914
0.758529
0.0206109
0.892156
0.190303
-0.217343
-0.135768
-0.176363
0.0350617
0.954487
-0.847256
-0.107231
-0.18548
0.111508
0.0272139
0.117994
0.902473
0.854046
-0.691083
-0.162963
-0.322236
-0.0405187
-0.554843
-0.445756
0.282868
1.2434
0.769843
-0.145465
0.188814
0.561704
-0.750518
-0.204663
0.050678
-0.0193127
-0.00172637
-0.510906
-0.100207
0.16114
-0.213828
-0.18914
0.140057
-0.523066
0.261937
-0.989541
-0.688176
-0.29056
-1.32292
1.36669
0.054322
-0.281124
0.0286884
-0.397994
0.117946
0.297566
0.0532536
1.26111
-1.02806
-0.191898
0.131007
-0.239665
-0.233005
0.47267
-0.0390875
0.0068499
0.0494897
-0.0564006
-0.236473
-0.114263
0.68353
-0.408646
-0.274885
-0.179323
0.133166
-0.0960454
-0.0371203
0.237433
0.0601328
0.0130444
-0.963307
-0.0967986
0.141465
0.829425
0.0246216
0.0216523
0.234537
-0.0231404
0.0166998
0.00644059
0.0257985
-0.0716614
-0.243102
0.0766939
-0.111747
-0.542915
0.404584
0.0267665
0.212203
-0.0727348
-0.688806
1.05887
-1.15794
0.0153953
-0.194618
0.179223
-0.128701
-0.518457
0.647158
0.0776883
-0.707994
-0.853987
-0.117218
-0.084719
0.000601542
0.0841175
-0.246743
-0.653774
-0.184219
-0.13206
-0.664305
-0.233023
0.166715
-0.83071
-1.098
-0.479105
0.393295
0.0858104
0.256594
0.112169
0.512498
0.409272
-0.921771
0.223554
0.0862075
0.819658
-0.0984542
-0.721204
-0.221607
-0.0686356
0.917941
-0.243671
0.181755
-0.811402
0.742766
0.37986
0.383735
-0.0474477
0.0745157
-0.0152168
0.884182
-0.660519
0.697337
0.0884652
-0.943607
0.204428
0.262814
0.660347
0.887371
0.00694775
-0.0254935
-0.769843
-0.708497
-0.713919
0.720691
-0.0628252
-0.864238
0.703998
0.617395
-0.943313
0.93645
0.00530042
-0.78444
-0.310896
0.631643
-0.76094
0.129297
0.0803174
0.0528482
0.241312
0.0166105
0.986578
-1.00319
0.00720445
0.00514197
-0.265713
0.215807
0.709332
0.220599
-0.204198
-0.177372
0.874889
-0.880866
-0.191425
0.231023
0.588162
0.46444
-1.0526
-0.82899
0.798761
0.998824
-0.550912
0.100944
0.711144
-0.694534
-0.00857523
0.217081
-0.111691
0.0808515
0.0591874
-0.00699484
-0.042756
0.0497508
-1.02202
-0.0103926
0.319937
-0.808013
-0.456698
1.15118
-0.694478
0.366796
0.645495
-0.048813
0.0520886
-0.00327561
-0.0293583
0.904248
-0.723829
0.895638
0.509924
-0.966622
0.315002
-0.0979209
-0.580727
-0.408813
-0.400916
0.989078
-0.0434416
-0.851058
-1.5934
0.251437
0.711144
0.0475563
-0.85557
0.83091
-0.64629
-0.18462
-0.988068
0.407341
0.00495435
0.113329
0.000359306
-0.113688
-0.966143
0.557329
-0.214012
0.922404
-0.940579
0.192829
-0.210734
-0.0957127
0.243905
1.01713
0.0516718
-0.228599
-1.36557
0.0524816
0.856409
-0.924855
-0.553049
-0.513261
1.06631
0.446951
0.017373
-0.00902895
-0.740818
0.730425
0.696558
-0.725916
-0.779506
0.725305
0.0542014
0.632295
0.518881
0.808754
-0.828757
-0.490934
-0.450683
-0.467471
-0.498671
0.809272
-0.809272
0.693261
-0.693261
-0.740818
-0.712448
0.712448
-0.725305
-0.538627
-0.357085
-0.407916
-0.81334
0.81334
0.696558
-0.725916
0.808754
0.783701
-0.783701
0.828757
0.760236
-0.760236
0.509066
0.532529
0.486739
-0.116783
-0.501329
-0.549317
1.08185
-0.527499
-1.05303
0.65211
0.531727
0.467097
0.0147718
-0.0126011
0.0962577
-0.87915
0.0935451
0.785604
-0.205108
0.162227
-0.993702
0.580138
0.926601
-0.614152
-0.127519
0.00884856
0.00603595
-0.791216
-0.0695039
-0.553733
-0.00890535
0.0118399
0.045007
-0.233487
0.106291
0.18533
0.0141138
-0.0217193
0.0076055
-0.811464
0.0686089
0.742855
0.473228
0.543899
-0.519391
0.412375
0.107016
0.929515
-0.740783
-0.188732
0.085598
0.299412
-0.0137436
-0.0596202
-0.0611493
-0.0141842
0.233368
-0.977303
-0.811628
0.0945438
-0.742004
0.790912
-0.0489087
0.116446
-0.883726
0.76728
-0.804801
0.915606
-0.110805
-0.118078
0.143876
0.0210393
-0.289518
0.526055
0.463022
-0.0838165
-0.795333
0.912033
-0.0845102
-0.827522
0.0870928
-0.175974
1.00496
0.845698
-0.648359
0.476562
-0.385957
0.100622
-0.895955
0.947679
0.446323
-0.768423
-0.0160169
1.02594
-0.909495
1.21037
0.95616
-0.512451
-0.443709
-0.874338
-0.119364
-0.413646
0.0368221
-0.118614
-0.0282912
-0.791856
0.791856
-0.599424
-0.0871903
-0.861379
0.120596
-0.975052
0.867982
0.0722606
-0.203944
-0.0568828
0.0557933
0.0116454
0.188759
0.837182
0.828416
0.775358
0.13223
-0.907588
-0.487692
0.954788
-0.756133
-0.112169
0.868302
0.172751
-0.89658
-0.67262
0.896339
-0.795717
-0.112163
0.460644
-0.0183265
-0.442317
-0.28854
0.904795
-0.616254
-0.436243
-0.306627
0.74287
-0.868296
-0.832184
0.0901803
0.514015
0.270863
-0.941162
0.595642
-0.668879
0.668879
-1.1571
-0.208469
0.312042
0.510988
-0.828931
0.87476
0.78417
-0.200193
0.921661
-0.568877
0.536125
-0.944875
0.40875
-0.281765
-0.728531
0.334482
0.468468
0.338434
0.436422
0.109723
0.309633
-0.224035
0.774802
-0.885606
0.557626
0.397162
-0.150449
0.730587
0.660694
-0.660694
-0.125471
0.13343
0.112663
-0.0789648
0.548778
0.356017
0.270028
-0.00160295
-0.00720753
0.00881048
-0.661067
0.689343
-0.0282754
0.42828
-0.940731
0.0934948
-0.889212
-0.980777
1.03498
-0.0542039
0.221305
0.877715
-0.644129
1.07241
-0.756983
0.602785
-0.657894
-0.642672
0.146844
-0.404606
0.0165049
0.157886
-0.931569
0.526963
-0.00818575
-0.99462
0.0612505
0.729662
0.680922
-0.0781372
0.0658321
0.768237
-0.458461
1.0225
-0.56404
-0.210976
0.512158
-0.0806498
-0.924778
0.69616
0.228617
-0.674011
-0.124106
1.00157
0.0364719
-0.397634
-0.0465794
0.487734
0.512266
-0.767968
-0.117638
-0.489504
-0.543182
-0.474072
-0.549264
0.40833
0.59167
-0.22092
0.198759
-0.852478
-0.0659187
-0.591976
-0.163015
-0.23891
0.401925
-0.0542299
-0.00646311
0.114171
0.0728652
-0.127502
-0.1156
0.758351
-0.644208
0.71004
-0.399842
-0.531727
0.858302
-0.354865
-0.503437
-0.699846
-0.215109
0.914956
-0.237852
0.227592
-0.0231644
-0.110283
0.0111193
0.0226694
0.809309
-0.14043
0.118652
0.108833
-0.726298
0.0652305
0.907684
-0.467658
0.618685
-0.57119
0.849423
-0.301291
0.987239
-0.000185917
0.378724
-0.121655
-0.0108206
-0.0938488
-0.190322
0.360017
0.547667
-0.443376
0.8233
-0.379924
0.848532
-0.0280295
-0.00630236
0.0343319
0.129567
-0.0203559
-0.00222187
0.214372
-0.105816
0.164773
-0.993705
-0.80728
0.363905
-0.00449878
0.288561
0.468435
-1.17836
1.28449
-0.10613
-0.787623
0.849593
-0.0619699
-0.370859
-0.280361
0.660221
-0.0725414
0.908795
-0.451148
-0.0682426
0.287393
0.450444
0.170945
-0.621389
0.409982
0.0446132
0.64473
-0.572983
0.566723
0.00626015
0.903951
-0.786005
-0.0745195
0.0931712
-0.0186516
0.698082
-0.00771313
-0.0836399
0.0194452
0.787552
-0.76133
0.390471
0.155098
-0.0946509
-0.232325
0.150929
0.0633654
-0.214295
0.00321257
-0.0102074
0.668933
-0.767388
0.3208
0.219879
-0.0250843
-0.0883409
0.227287
0.0978325
0.00918154
0.170852
0.759333
-0.304651
0.778722
-0.47407
0.904644
-0.406204
-0.49844
0.634484
0.120058
-0.0917648
0.00554556
0.0862193
-0.196533
-0.364999
-0.579876
-0.00301323
0.722593
0.696499
0.243432
-0.442857
0.684169
0.807235
0.0166776
-0.0298633
-0.875492
0.289153
-0.276518
0.175828
-0.169433
0.688291
0.0710417
0.0136029
0.769016
-1.04938
-0.219378
0.177582
0.0236475
-0.110093
0.420219
-0.0566636
-0.379518
-0.0692796
0.268138
0.646076
0.258568
-0.147932
0.795659
-0.0408206
-0.112753
0.0326306
-0.0020017
-0.0306289
-0.963901
0.177896
0.00336405
0.932734
-0.22189
-0.602819
0.633815
-0.0309962
-0.112927
0.753521
-0.868869
0.365432
0.0810421
-0.176755
0.626716
0.126806
0.692432
0.251827
-0.263335
0.739898
-0.344458
0.892125
-0.595483
0.349475
0.246008
-0.504964
-0.070885
0.0407641
0.06628
-0.0479188
1.2264
0.722055
0.0851799
0.605832
0.21713
-0.855557
-0.0803891
-0.688964
0.672947
-0.0258025
-0.576291
0.413276
0.851352
0.671329
0.320745
-0.032264
-0.151124
-0.312725
0.912229
0.146638
-0.786128
0.0746717
0.531294
0.360831
0.66652
0.323202
-0.0789355
0.896726
-0.71439
0.902735
-0.188346
-0.413021
-0.182462
-0.103457
-0.145502
-0.0480424
0.984269
0.0356602
-0.0113189
0.619335
0.0490998
-0.62029
0.60541
-0.133317
0.229774
0.732745
0.255279
-0.988023
0.261744
-0.908034
-0.158928
-0.999015
-0.176793
0.748848
-0.572055
-0.668195
-0.146076
0.0357933
-0.0545611
-0.903937
0.0165521
-0.0396925
0.885246
0.126066
-0.366975
0.240909
-0.0844604
-0.615451
0.169073
0.209651
-0.89802
0.00819145
0.00592233
-0.395657
-0.0538
-0.596585
0.0236019
0.551467
0.299886
0.593353
0.946534
-0.231658
-0.37133
0.602988
0.175369
-0.624652
0.624652
-0.201079
-0.915626
1.1167
0.030791
-0.152452
0.667466
-0.115999
-0.208604
-0.0720736
-0.325561
0.517675
0.51746
-0.383669
0.178674
-0.105794
-0.738228
0.48234
0.0843825
0.0619768
0.0107134
-0.873996
-0.596601
-0.251866
0.698494
0.301506
-0.596601
0.698494
-0.6083
-0.247051
-0.6083
-0.703229
0.703229
0.296771
-0.0139358
0.075865
-0.0769558
0.245908
0.193538
-0.480678
0.628161
-0.0227503
0.644679
-0.490672
-0.154007
-0.053048
0.0511096
0.00193838
0.000503514
-0.00210646
0.383064
0.0183549
-0.146394
-0.431973
-0.351959
0.130672
0.0210765
0.84745
-0.285746
-0.18261
-0.215384
0.0161507
-0.273505
-0.00787223
0.654602
0.0679914
-0.303963
-0.0632847
-0.00437705
0.0156654
0.0816876
0.561239
-0.470043
-0.0911957
1.11893
0.550023
-0.79943
0.880811
0.0114578
-0.0632952
0.107777
-0.129991
0.225289
1.12481
-0.392067
0.0222976
-0.0854058
0.640407
-0.623602
0.0207967
-0.0207967
0.0213256
-0.0213256
-0.0315937
0.0315937
0.0353567
0.367927
0.455703
-0.0628985
-0.712188
0.46375
0.184969
0.0294028
-0.0839583
-0.483138
1.00377
0.112714
-0.786725
-0.818026
0.175755
0.140829
0.0205039
-0.001917
-0.0275473
0.0275473
0.795298
-0.0281489
0.0281489
0.713075
0.0950343
-0.0454988
-0.0177859
0.00659689
-0.067729
-0.0220445
0.0220445
-0.0242812
0.0242812
-0.0228781
0.0228781
-0.0227109
0.0227109
0.215195
-0.291826
-0.0816682
0.214948
-0.0219842
0.0219842
-0.378776
0.499779
-0.121003
0.490672
-0.214993
0.209455
-0.392065
0.556283
-0.0961549
0.0840321
0.549783
0.581139
-0.0115862
0.0115862
0.356258
0.025577
-0.025577
-0.0205927
0.0205927
0.738634
-0.832118
0.0411395
0.515992
0.0342915
0.00425849
-0.00425849
0.0280648
-0.0280648
0.0185864
-0.0185864
0.0225906
-0.0225906
-0.0240205
0.0240205
0.0354127
-0.0354127
0.488041
-0.0321893
0.0321893
-0.00203662
0.00203662
0.024475
-0.024475
-0.014796
0.014796
0.0141296
-0.0141296
-0.0827106
-0.0265679
0.0265679
0.261644
0.0586923
-0.0397656
0.0397656
0.0134381
-0.0134381
0.0314438
-0.0314438
0.0338418
-0.0338418
0.0256039
-0.0256039
0.00626019
-0.00626019
-0.00561466
0.00561466
-0.436079
0.284185
-0.0222346
0.0222346
0.000591052
-0.000591052
-0.0384127
0.0384127
-0.0277065
0.0277065
-0.000866531
0.000866531
-0.403529
0.666344
0.266366
-0.0322818
0.0322818
-0.0628051
-0.0288982
0.0288982
0.0025631
-0.0025631
0.0370788
-0.0370788
0.0607497
-0.090613
0.00888744
-0.00888744
-0.0221177
0.0221177
-0.474334
0.0442774
-0.727003
-0.0312186
0.0312186
-0.432248
0.0331441
0.0189445
-0.300745
-0.642862
-0.0371092
0.0371092
-0.201006
0.144342
-0.0399226
0.00396896
-0.00396896
-0.00266542
0.0499095
0.256615
-0.320827
-0.267932
0.588759
0.187055
-0.0120214
0.0120214
-0.530705
0.346923
0.183782
0.731688
-0.375768
-0.35592
-0.462548
-0.62921
-0.42359
0.208206
-0.181164
-0.0298128
-0.576643
0.0184055
0.179088
-0.968881
0.0167464
-0.0167464
0.0041821
-0.0041821
0.0311224
-0.0311224
0.0257308
-0.0257308
0.00434951
-0.00434951
0.00377233
-0.00377233
-0.400794
-0.236715
0.165106
-0.292625
-0.0035474
0.0035474
-0.0440857
0.0440857
-0.040795
0.040795
0.248273
0.0437175
-0.291991
0.00490316
0.305701
-0.527591
0.0022008
-0.0022008
-0.0267995
0.0267995
-0.0928898
-0.446243
0.0226527
0.00475193
-0.00475193
0.173478
0.0170759
0.999754
-0.481371
-0.0799663
0.561338
-0.62405
-0.324566
0.205953
-0.037746
0.037746
-0.680317
0.271313
0.0504475
-0.0504475
-0.650617
0.378322
0.259638
0.114303
0.00555168
-0.00555168
-0.832026
0.00457941
-0.00457941
0.304797
0.409267
0.135766
-0.0546245
0.0546245
0.00493789
-0.00493789
-0.0429135
0.0429135
-0.0525111
0.0525111
0.00577784
-0.00577784
-0.0579651
0.0579651
0.00571705
-0.00571705
-0.0463346
0.0463346
-0.0017009
-0.0440293
0.0440293
-0.00630043
0.00630043
0.0489672
-0.0489672
0.0040383
-0.0040383
0.0468924
-0.0468924
-0.143913
-0.000110202
0.000110202
-0.00424424
0.00424424
-0.0890415
0.0810848
-0.0120752
0.0120752
0.00221087
-0.00221087
-0.0607105
0.0607105
0.302012
-0.0207464
0.0207464
-0.0560005
0.0560005
-0.00709482
0.00709482
-0.0689476
0.0689476
-0.0135688
0.0135688
-0.0827574
0.0827574
-0.0231647
0.0231647
-0.0924707
0.0924707
-0.664784
-0.134634
-0.529277
0.49828
-0.883412
-0.196737
-0.548401
0.378968
0.0820801
-0.261403
-0.00166721
0.00166721
0.346616
-0.696594
0.0451375
-0.0344241
-0.554656
0.786418
0.60805
0.251762
-0.0624214
0.0268071
-0.386484
-0.574261
-0.0806455
0.384278
-1.14506
-0.021926
0.021926
-0.742382
0.0186382
-0.0186382
-0.00297561
0.00297561
0.336368
-0.182306
0.00289795
-0.00289795
0.019007
0.0144781
0.593333
0.0581739
-0.00579885
-0.0123613
-0.0131322
-0.10179
0.49531
-0.39352
0.403022
-0.0685399
0.00475137
1.23029
-0.00436423
0.0522212
-0.409226
0.446048
-0.489192
-0.965592
-0.266505
-0.0733329
0.0182146
-0.695052
0.388425
0.0660014
-0.0051796
-0.0212642
0.76449
-0.54445
-0.0379364
0.0615839
-0.0364959
-0.241481
0.317346
0.421408
0.233289
-0.171707
0.210174
0.0258441
-0.00243199
-0.654588
0.0476723
-0.105872
-0.261103
-0.0187689
-1.03968
-0.069999
0.264587
-0.350378
0.393615
-0.0852267
-1.23769
0.0745174
-0.0257767
-0.150197
-0.344806
0.451822
-0.1101
-0.0189447
0.129044
-0.0277325
0.0277325
0.165682
-0.439312
-0.116133
0.147663
-0.0819429
0.0561404
-0.0631089
-0.00526364
0.0683726
-0.0488113
-0.15549
0.153622
-0.109636
-0.275039
-0.345744
0.620783
0.0155708
0.0607536
0.149587
-0.0309343
-0.166373
0.0738496
-0.156664
0.310555
0.00767172
0.0266602
-0.0234925
0.173079
0.00426107
0.260686
0.000976947
-0.000976947
-0.16602
0.83254
0.0908899
-0.171279
-0.0678822
-0.00542285
0.45669
0.615719
0.0111637
-0.042045
-0.521927
-0.00734915
-0.33386
0.0956696
-0.680334
0.302154
-0.05632
0.360813
-0.635851
0.192269
0.503892
-0.0930049
0.0930049
0.000359306
-0.925158
0.468333
0.456825
-0.212274
0.157713
-0.278548
0.348129
-1.09507
-0.209219
-0.074813
0.0909008
0.925256
0.452878
-0.132133
-0.0679324
-0.371064
-0.595558
-0.12393
-0.270069
0.784024
0.554348
-0.248646
-0.277114
0.565675
0.456556
0.299773
-0.265654
0.163884
-0.448469
0.327466
0.121874
-0.121874
0.135877
-0.150206
0.0143297
0.00780939
-0.00220868
0.0166998
-0.203535
0.00700229
0.221168
-0.186995
-0.0341733
0.53653
-1.07737
-0.204512
-0.793297
0.684164
-0.111976
-0.18065
-0.0358649
-0.0783979
-0.487244
0.0552706
-0.288138
0.00543797
-0.0187689
0.381893
-0.00524227
-0.000149894
0.000726704
0.0137297
-0.0202764
0.0065467
-0.112109
-0.0198701
-0.169684
0.189554
-0.118257
-0.330213
0.019007
0.34446
0.00269548
-0.374783
0.0842227
0.0026989
0.185007
-0.247906
-0.0124912
0.0124912
-0.00132103
0.0037836
-0.00937224
0.0013915
-0.0868269
0.000546185
-0.00114238
0.32848
0.0512468
0.0042495
-0.0042495
0.179549
0.502623
0.00204665
-0.298912
0.543272
1.14351
-0.463063
0.323104
-0.433922
-0.284626
0.168493
0.225634
-0.224728
-0.0156357
0.0292295
-0.0065601
0.002104
-0.174465
-0.377968
0.841717
0.359555
-0.76035
0.240744
-0.00157089
0.40662
-0.185315
0.000833381
0.00123407
0.0279954
-0.235452
0.00135293
-0.000472914
0.69791
-0.62406
-0.24411
-0.357773
0.564269
0.00197204
0.00327278
-0.0399226
-0.00561467
0.809037
-0.42552
0.509902
-0.795049
0.893176
-0.796315
0.567698
-0.188729
0.688709
0.0027746
0.00241824
0.0180857
-0.102944
0.131787
-0.0741486
0.00818567
0.0106274
0.0663721
-0.0520958
-0.0142763
0.00313398
0.0474679
0.0358828
-0.0833507
-0.0987846
-0.00789592
0.000688387
-0.00205093
0.484742
-0.432869
-0.00464434
0.00133426
0.811696
-0.343363
0.380107
-0.00598674
0.000213139
0.447271
-0.126471
-0.0423579
-0.104782
-0.0154854
-0.00368578
0.121493
0.0833254
-0.00215851
0.395991
0.00263906
-0.00502612
0.00502612
0.0126709
-0.0250322
0.000802117
-0.318816
-0.00371198
0.0728314
-0.106044
0.205041
0.115847
-0.0617421
0.0013466
0.00413404
0.446318
0.00120217
-0.00697966
-0.0964777
-0.00211856
0.00184348
-0.0519441
0.321972
-0.702994
0.45162
-0.829588
-0.057818
0.000185957
-0.733892
0.19498
-0.085257
0.571648
-0.0147651
0.018287
-0.00417696
-0.00148029
-0.553511
-0.00342104
-6.07836e-05
-0.054612
0.945589
-0.535606
-0.00263266
-0.00167875
-0.00608601
-0.0041485
0.0775518
-0.0220094
0.0220094
-0.0636532
0.0674368
-0.00488395
-0.00823712
0.0622349
-0.0623848
-0.16547
0.0945851
-0.00647402
-0.0138098
0.04018
-0.0171925
0.0633322
-0.0451176
-0.632392
0.583483
0.0557155
-0.00387808
0.407384
-0.139246
-0.0687334
-0.663063
-0.0723607
-0.114299
-0.0948692
0.0927506
0.680837
0.00199866
0.036491
-0.0332182
0.351078
0.0578714
-0.140722
0.0828506
-0.0704358
-0.612675
0.838134
-0.526744
0.0196647