/*--------------------------------*- C++ -*----------------------------------*\
| =========                 |                                                 |
| \\      /  F ield         | OpenFOAM: The Open Source CFD Toolbox           |
|  \\    /   O peration     | Version:  2306                                  |
|   \\  /    A nd           | Website:  www.openfoam.com                      |
|    \\/     M anipulation  |                                                 |
\*---------------------------------------------------------------------------*/
FoamFile
{
    version     2.0;
    format      ascii;
    arch        "LSB;label=32;scalar=64";
    class       volVectorField;
    location    "6";
    object      U;
}
// * * * * * * * * * * * * * * * * * * * * * * * * * * * * * * * * * * * * * //

dimensions      [0 1 -1 0 0 0 0];

internalField   nonuniform List<vector> 
2186
(
(1.23692 -0.0328666 1.97672e-19)
(1.61221 -0.928488 -9.46727e-20)
(1.45277 -0.90689 7.77494e-22)
(0.749449 -0.583904 -1.26409e-19)
(-0.652005 0.577836 -2.83192e-19)
(1.02657 -0.00716861 0)
(0.722729 -0.670486 0)
(-0.485232 -0.658293 1.55652e-19)
(1.89887 -0.154702 2.41849e-19)
(0.552132 -0.301171 -2.16025e-21)
(0.676779 0.612379 0)
(0.912055 -0.242183 -1.40202e-19)
(-0.535957 -0.694522 -6.34128e-20)
(1.07742 0.0173874 -3.16177e-19)
(1.8112 -0.659293 -9.86183e-20)
(1.01096 -0.0133758 1.48842e-19)
(1.00298 0.00870973 0)
(-1.04929 0.165068 0)
(1.03548 0.00447803 0)
(-0.0973152 0.37695 -8.68378e-20)
(0.479536 0.0852774 -9.97255e-20)
(-0.192838 0.12746 1.14505e-19)
(1.0809 0.0239532 2.62944e-19)
(-0.283528 -0.0125708 7.71251e-21)
(1.0226 -0.00448007 -2.06508e-19)
(0.799432 -0.560008 0)
(0.750382 -0.0369298 1.25238e-19)
(0.617078 -0.599413 -1.43328e-19)
(1.20817 0.708623 0)
(0.956406 0.00494252 -2.82344e-19)
(-0.0190079 0.0539305 0)
(1.0306 -0.00299672 9.73683e-21)
(0.0706933 0.589871 0)
(1.46124 0.33927 4.91756e-20)
(-0.0777619 -0.402302 1.21808e-20)
(1.55385 0.761202 1.73619e-20)
(1.19595 0.11881 3.4405e-20)
(0.508576 0.132201 -2.96412e-19)
(2.10241 0.0779586 -4.27295e-19)
(1.04081 -0.0128959 -5.72146e-22)
(-0.620101 -0.713871 0)
(-0.184681 0.111298 0)
(1.88709 -0.856997 9.36325e-20)
(-0.313543 0.21408 0)
(1.09889 0.27645 1.25207e-19)
(0.595796 -0.28402 2.46018e-19)
(0.916794 -0.781362 0)
(1.17817 -0.793739 8.59285e-20)
(1.36691 -0.44514 0)
(-0.693322 0.743399 3.39852e-19)
(-0.00223294 0.159736 1.28524e-19)
(0.629067 0.580046 6.31099e-20)
(2.05925 -0.728599 1.09335e-19)
(0.596318 0.26325 -2.36953e-19)
(-0.152454 0.554984 4.24066e-20)
(0.772679 -0.662681 0)
(1.67452 -0.955681 1.87199e-20)
(0.590017 -0.551526 0)
(2.29786 0.0933393 1.4083e-19)
(1.08303 -0.162018 -3.19073e-19)
(1.01109 -0.0256616 2.84153e-20)
(1.32511 0.303917 -1.34472e-19)
(1.32919 0.527139 0)
(1.07682 -0.0136783 6.26843e-22)
(1.35069 0.369945 -7.57317e-20)
(1.23454 -0.735461 -1.17499e-19)
(1.17027 0.656559 3.96002e-20)
(0.674053 0.0612631 -4.80811e-19)
(0.81456 0.0557881 0)
(2.4682 -0.0304062 -6.75825e-20)
(-0.479104 -0.730674 -1.81444e-19)
(1.24567 -0.202909 -1.72761e-20)
(0.711041 -0.0488924 -2.12064e-19)
(0.878836 -0.513888 0)
(0.826216 0.170436 -7.7343e-20)
(0.557562 -0.515632 -2.58266e-19)
(1.35301 -0.261809 0)
(1.01353 0.00543035 3.08141e-19)
(-0.0789423 -0.535226 0)
(2.06593 0.386168 0)
(1.29906 -0.433273 1.93079e-19)
(1.00901 0.00917241 2.17806e-21)
(1.05976 0.00178037 3.41037e-20)
(1.31299 0.402308 1.98519e-20)
(0.956348 0.00574178 3.57681e-19)
(1.03999 0.0183627 -8.50651e-21)
(0.671246 0.165328 -2.85833e-19)
(1.02482 -0.00634533 2.78064e-22)
(0.749472 0.0128082 0)
(0.0223611 0.0514516 1.04277e-19)
(0.867622 -0.632677 -1.38478e-19)
(-0.145023 0.768773 -7.45634e-21)
(1.09139 -0.0916245 2.10921e-19)
(0.802492 -0.190461 0)
(0.97672 0.0400247 3.43532e-20)
(1.3721 0.637021 0)
(1.61573 -0.938081 0)
(1.30815 0.191899 0)
(-0.70831 0.679437 0)
(0.801704 -0.677789 2.4807e-19)
(0.80197 -0.944191 -2.69955e-19)
(1.08451 -0.866606 2.54491e-19)
(1.45723 0.164348 0)
(1.07851 -0.129164 -1.92833e-19)
(1.07647 0.0297479 1.52711e-19)
(-0.00417969 0.738336 1.94715e-19)
(0.639649 0.509795 0)
(2.14184 -0.0905144 -1.23564e-19)
(0.959523 -0.473369 6.91939e-20)
(0.587743 0.17143 -2.44029e-20)
(1.84246 0.293725 1.35476e-19)
(-0.45387 0.779868 -4.52354e-19)
(0.813844 -0.7419 0)
(0.567942 0.343837 1.43103e-19)
(1.86875 -0.29017 -6.75233e-19)
(-0.569286 -0.38247 -5.89868e-19)
(1.0361 0.00752647 -5.90781e-21)
(1.26549 -0.318836 0)
(-0.00571055 0.0495598 -3.14412e-19)
(0.692556 -0.0866776 6.7215e-20)
(1.57498 0.875444 0)
(-0.368325 0.622914 -5.3986e-19)
(0.884774 0.759939 -2.15265e-19)
(-1.0961 -0.0755794 5.27568e-19)
(1.01215 -0.00775595 0)
(1.04091 -0.00251798 7.44328e-21)
(-0.624309 0.73847 0)
(0.7072 -0.48867 -9.22649e-20)
(-0.987673 0.0213833 -3.09671e-19)
(0.788198 -0.722701 0)
(0.432155 -0.269542 3.60467e-19)
(0.547542 -0.453333 2.42657e-19)
(0.410756 -0.371493 0)
(0.984108 -0.789491 -9.99537e-20)
(1.07368 -0.664721 0)
(-0.271696 0.79645 -2.66546e-19)
(0.820178 -0.71098 1.17289e-19)
(2.25314 -0.0725642 3.03086e-19)
(2.06047 0.047487 0)
(-0.155861 -0.374187 0)
(0.684783 0.635109 -2.61177e-19)
(1.79701 -0.600287 1.55061e-20)
(-0.317079 -0.417594 0)
(0.98595 -0.817026 -1.1026e-20)
(1.07971 -0.0887237 0)
(1.05538 -0.101732 3.35183e-19)
(2.08421 -0.129618 -1.23061e-19)
(-0.662514 0.557336 0)
(1.19312 -0.556756 -4.40306e-20)
(-0.00953347 0.536724 -5.30099e-20)
(-0.454476 0.801072 0)
(1.09104 -0.823753 1.20401e-20)
(1.00007 -0.000763589 -5.14895e-19)
(0.659125 -0.473766 -9.09692e-21)
(0.826328 -0.511322 0)
(1.18703 -0.73721 -7.30894e-20)
(0.659426 0.225419 2.22e-19)
(1.22095 0.107765 0)
(1.56183 0.0499408 -1.15509e-19)
(1.19089 -0.860743 -1.44642e-19)
(-0.127833 -0.314932 -1.26799e-19)
(-0.53624 -0.327363 -3.69008e-19)
(1.0466 0.00943926 1.90541e-19)
(0.92234 -0.451227 -8.70173e-20)
(1.02871 -0.00208381 -2.57429e-22)
(1.03664 0.0075525 -1.41029e-21)
(0.749793 -0.0849061 1.24275e-19)
(-0.0459903 0.00754462 -2.46646e-19)
(1.06072 -0.0128229 0)
(1.07901 0.0222892 -9.12786e-22)
(1.43106 0.633576 8.10383e-20)
(0.81843 -0.62201 -1.80952e-19)
(0.994985 0.00853073 1.05625e-20)
(0.731324 -0.53087 2.53725e-19)
(1.30608 0.791805 7.85132e-20)
(1.79262 -0.092299 2.13564e-20)
(-0.668287 0.420212 0)
(1.05009 0.0634555 -1.97366e-19)
(-1.14316 0.165627 -3.2035e-19)
(1.06681 0.476912 6.31739e-20)
(0.165892 -0.0120177 1.48998e-19)
(1.08665 0.0262843 -3.651e-20)
(-0.0832622 0.479346 -2.16275e-19)
(1.30189 0.575441 -5.09005e-20)
(1.13835 0.882629 0)
(-0.691672 0.421764 -1.39311e-19)
(-0.229541 -0.113407 0)
(0.654298 0.566008 -2.28567e-19)
(1.98665 0.035229 -2.55273e-20)
(-0.613614 -0.625583 2.12738e-19)
(-0.971816 0.0710311 -8.41537e-19)
(0.723252 0.0679959 2.11048e-19)
(1.84794 -0.660775 -2.38288e-20)
(0.984162 -0.331522 -2.55648e-20)
(-0.00440801 -0.0542512 0)
(0.692112 0.155747 -4.63495e-20)
(1.33816 0.970226 1.96198e-20)
(0.836768 0.0671968 -1.14623e-19)
(0.554974 0.522043 1.58041e-19)
(0.533749 0.186451 0)
(-0.370144 -0.884606 -3.61041e-19)
(0.835069 0.0197359 -3.4405e-20)
(1.29216 -0.95229 1.96871e-22)
(0.980975 -0.039564 -1.6088e-19)
(-0.280108 -0.094284 6.31496e-21)
(-0.357467 0.431436 2.28455e-19)
(-0.397709 -0.173071 -1.99924e-19)
(1.23945 -0.316897 0)
(1.07902 0.0557654 -2.64549e-19)
(1.69453 -0.429847 8.07889e-20)
(1.25215 -0.620552 7.62881e-20)
(1.00506 0.0187625 -9.20114e-22)
(0.594408 0.321404 0)
(0.940974 0.746514 -1.2581e-20)
(0.681823 0.626963 1.45312e-19)
(0.903192 -0.567482 1.2518e-19)
(0.683988 0.503701 0)
(1.02465 -0.0128636 6.87758e-21)
(0.889423 -0.67614 1.78257e-19)
(0.827551 0.419906 -3.77081e-19)
(1.2876 -0.117452 0)
(-0.242191 -0.223996 -3.92928e-19)
(0.0135483 0.781992 -1.43121e-19)
(1.58443 0.710214 0)
(1.34504 -0.932537 -1.68481e-22)
(-1.03976 0.35844 0)
(-0.656601 0.72635 1.80059e-19)
(0.734085 0.653772 -7.91163e-20)
(0.839922 -0.219724 0)
(0.0449923 -0.45612 0)
(1.65223 -0.42136 0)
(0.503718 -0.337927 -6.11214e-20)
(1.20812 -0.882398 9.4612e-20)
(1.15545 -0.612062 4.89015e-20)
(1.08555 -0.124227 -1.38397e-19)
(0.886206 -0.708418 -1.40031e-19)
(0.189892 -0.193999 0)
(-0.869929 -0.472385 0)
(0.994979 -0.511318 1.44971e-19)
(-0.259328 -0.484234 0)
(-0.672926 0.641746 0)
(-0.55227 -0.354944 5.0298e-19)
(0.789174 0.670522 6.86457e-20)
(1.0107 0.789053 0)
(0.695767 0.557073 -7.00422e-20)
(0.814585 -0.0453571 -1.90437e-19)
(0.741994 0.564895 -1.8662e-19)
(0.590452 0.551278 -1.36081e-19)
(-0.433784 -0.778331 7.7116e-21)
(0.723679 -0.653297 0)
(0.892228 0.167729 -2.68845e-19)
(-0.570915 -0.7783 8.56886e-20)
(0.601542 0.558557 3.01905e-19)
(0.954623 0.793366 0)
(0.404517 -0.503328 -1.05001e-20)
(-0.0739734 -0.764747 4.02452e-19)
(0.157154 -0.691529 -2.2183e-19)
(0.664307 0.573878 -1.21741e-20)
(0.994652 -0.013341 5.05774e-20)
(-0.620329 -0.682419 0)
(1.94495 0.364882 -1.92912e-19)
(1.10041 -0.0554508 8.56305e-21)
(0.660425 -0.614438 -6.33729e-20)
(-0.862727 -0.14393 1.67349e-20)
(1.18457 0.448357 1.35817e-19)
(0.867175 0.409729 0)
(1.07226 -0.218032 1.60165e-19)
(0.185922 -0.805635 -1.79094e-20)
(-0.0643339 0.280058 5.02827e-19)
(0.96032 0.0207234 -4.42331e-20)
(1.13391 0.126671 0)
(1.78209 0.149909 -1.91272e-19)
(1.79062 -0.0653947 0)
(0.544844 0.245029 -3.91144e-19)
(-0.386764 0.515394 0)
(-0.464534 -0.696513 3.54527e-19)
(0.871487 0.0338981 0)
(0.629586 -0.513121 -1.56539e-19)
(1.04274 -0.00179985 1.75286e-19)
(-0.757525 0.520405 6.64152e-20)
(1.47986 -0.0952728 -9.07891e-21)
(2.18768 -0.197452 -1.42608e-19)
(1.10074 0.223569 -1.76308e-19)
(-0.564173 -0.782328 -1.7219e-19)
(1.07362 -0.856446 0)
(0.824138 0.0155206 -1.27498e-19)
(0.932428 -0.352384 -2.44941e-19)
(1.72044 -0.556383 -7.87959e-21)
(1.7021 -0.0769198 1.89495e-19)
(1.05677 0.00249992 3.17309e-19)
(0.0469989 -0.790505 -2.6159e-19)
(0.988799 -0.425495 -1.05292e-19)
(0.199132 -0.191114 2.21477e-19)
(1.00895 0.00992092 0)
(1.00235 -0.0224279 0)
(1.04801 -0.115206 -9.52516e-21)
(-0.162847 0.721776 -1.75579e-19)
(0.199232 -0.116054 -1.49077e-19)
(0.858527 -0.0866881 7.15412e-21)
(1.2303 -0.559302 0)
(1.757 -0.702757 -4.12456e-20)
(0.939555 -0.817951 -5.73108e-20)
(1.82784 -0.524513 -8.25607e-20)
(1.1039 0.830911 0)
(0.479538 -0.458702 0)
(0.606969 0.52249 -1.47115e-19)
(1.09037 0.274343 -3.21992e-19)
(2.11954 -0.133405 4.20003e-22)
(0.86332 0.14864 1.15856e-19)
(-0.14811 -0.660614 -8.80178e-19)
(1.02677 -0.0047312 2.46458e-21)
(-0.713696 -0.613968 0)
(-0.135787 -0.396088 0)
(-0.701519 -0.55188 0)
(1.32615 -0.720148 -5.80181e-20)
(-0.48284 0.834021 -3.46518e-19)
(-0.206536 0.462203 0)
(1.29528 0.971364 -1.05582e-20)
(1.08757 0.146388 -3.38774e-19)
(1.11897 0.0116943 -1.08863e-21)
(1.08215 0.920435 4.45225e-20)
(-0.428318 0.888691 2.33622e-19)
(1.00891 -0.00485123 0)
(-0.696521 -0.45221 -4.40027e-19)
(-0.554724 0.850961 4.33574e-19)
(0.773485 0.0269294 1.55696e-19)
(1.54355 0.93269 5.01616e-20)
(1.05723 0.0128129 4.31154e-21)
(-0.226414 0.743564 -4.18927e-21)
(0.748946 -0.687571 -3.01022e-20)
(1.2935 -0.0482884 0)
(1.66672 0.122033 0)
(1.1815 0.0564764 0)
(0.889182 0.0678934 3.1526e-20)
(-0.72508 -0.58484 1.67915e-19)
(1.04467 0.83892 0)
(0.982661 -0.015433 4.30843e-19)
(0.764607 0.607398 -1.85828e-19)
(0.757967 0.0238329 2.32093e-20)
(0.854906 0.0158496 -3.47696e-20)
(0.721134 -0.662494 -1.81418e-19)
(1.39132 0.695933 -1.51168e-20)
(0.567866 -0.444427 -2.52315e-19)
(1.03621 -0.0133196 -3.8393e-19)
(0.896858 0.00285528 3.70999e-20)
(1.50448 -0.131938 4.75186e-20)
(0.936768 0.0204095 -4.48886e-21)
(-0.0753487 -0.136732 7.28437e-22)
(1.07313 0.457213 -2.11413e-19)
(1.39214 0.620286 1.05973e-19)
(0.158422 -0.727455 0)
(-0.129268 -0.595393 3.24521e-19)
(-0.333669 -0.293478 1.65158e-19)
(-0.195364 -0.0771967 -1.43855e-19)
(0.479186 0.314576 0)
(1.05417 -0.0772488 0)
(0.0779783 -0.0776185 -1.82043e-19)
(-0.484689 -0.84178 -1.07176e-19)
(1.0137 -0.0059116 1.52281e-19)
(-0.593083 0.459108 -6.55764e-20)
(1.32383 -0.616995 -5.02725e-20)
(-0.0536782 0.796003 0)
(0.835083 -0.745704 -2.42765e-19)
(0.960994 0.0146024 2.95916e-21)
(-0.870201 -0.0353724 2.47351e-19)
(0.723803 0.152074 2.78239e-19)
(0.621371 0.126008 9.06387e-20)
(0.50975 -0.481337 1.73551e-19)
(-0.352785 -0.49116 -1.87486e-19)
(1.0502 0.0139025 0)
(0.396939 0.348209 -1.65251e-19)
(1.03113 -0.0056934 -2.4293e-19)
(-1.06382 0.0555152 3.32384e-19)
(1.42356 0.456862 -6.93326e-20)
(-0.302225 -0.562852 -6.84219e-20)
(0.684722 -0.623774 -2.41533e-20)
(0.820106 0.176464 -1.72197e-19)
(0.958663 0.413755 1.83432e-20)
(1.08554 -0.126792 2.95459e-20)
(0.601825 -0.224449 -2.58143e-19)
(2.01912 -0.32446 -1.67194e-19)
(0.685922 -0.012606 0)
(1.04742 -0.00112061 -1.05059e-21)
(0.851978 0.111628 -6.3725e-21)
(1.65153 0.334942 2.42928e-19)
(1.12947 0.305782 -2.1951e-19)
(1.05914 0.00033472 -4.16833e-21)
(0.423188 0.392611 -2.12637e-19)
(-0.617062 0.0707642 4.75158e-19)
(2.46113 0.239131 0)
(0.981022 -0.00261276 0)
(0.870366 -0.772806 4.53404e-20)
(-0.133335 -0.803565 -4.3919e-19)
(-0.872418 -0.272901 -2.27116e-19)
(-0.12184 -0.223465 -2.80966e-19)
(-0.775505 0.621975 -2.809e-19)
(-0.705167 -0.523255 0)
(-0.101919 -0.303785 4.64653e-20)
(0.412125 0.736404 -1.46603e-19)
(-0.394281 0.48057 -5.22754e-19)
(0.783061 -0.127268 0)
(1.07376 -0.0288761 -4.71808e-21)
(-0.326246 -0.345082 0)
(1.01069 0.0285366 3.07844e-19)
(-0.307632 -0.510975 2.55105e-20)
(0.542422 -0.415326 3.3821e-19)
(-1.08746 0.00862615 5.31908e-19)
(0.248231 0.0516497 0)
(0.337484 0.706555 2.10845e-19)
(1.05251 0.0270651 -9.33639e-21)
(0.00719582 -0.223407 0)
(1.00918 -0.0200117 -4.82917e-20)
(0.865924 -0.738579 -2.35534e-19)
(1.04549 -0.126602 0)
(0.937352 -0.260818 1.74535e-19)
(-0.0659354 0.542431 4.50773e-19)
(0.0556074 0.0530822 0)
(-0.54019 -0.755546 -1.09579e-20)
(0.735628 -0.64298 -3.58909e-19)
(1.04887 -0.0382447 -2.22456e-19)
(-0.180599 -0.893435 6.06569e-19)
(-0.386227 -0.698666 2.14188e-19)
(-0.715049 -0.659012 0)
(0.941824 0.464854 0)
(-0.449945 -0.232296 3.74223e-19)
(1.89225 0.792815 -1.12891e-19)
(1.07505 0.892861 1.22152e-20)
(1.04903 0.20424 -1.01079e-19)
(1.14585 -0.0161225 -1.83868e-19)
(1.12303 -0.0444854 -6.40971e-20)
(-0.155985 -0.871105 -5.65461e-19)
(1.41099 -0.12405 2.11732e-19)
(0.822915 0.0422248 1.67837e-19)
(1.52372 0.192502 6.76211e-20)
(1.08862 -0.139398 0)
(0.783155 0.587935 -1.09585e-20)
(1.09313 0.00883748 -4.16916e-19)
(1.72791 0.593306 -2.74634e-20)
(0.749369 -0.443299 -1.37507e-19)
(0.0181165 0.0522081 2.35332e-19)
(0.802441 -0.709564 3.10963e-19)
(1.23066 0.188057 5.66652e-20)
(0.998495 -0.0204524 2.13517e-19)
(0.0728207 -0.829451 -2.94233e-19)
(1.0197 0.0141585 0)
(0.980766 0.0427848 -4.88113e-20)
(0.0497907 0.0435899 0)
(1.03774 0.0223137 -1.26156e-19)
(0.576484 -0.158325 7.53306e-20)
(1.66758 0.253283 4.88489e-21)
(-0.48463 -0.282275 2.14103e-19)
(1.60537 0.0838469 -2.76603e-20)
(0.998865 -0.0162857 4.37119e-20)
(1.32273 -0.0836755 0)
(1.43819 -0.600167 -9.58452e-20)
(0.995153 0.0198161 -1.29551e-19)
(1.44339 0.781939 -4.24497e-21)
(1.33665 -0.0168953 0)
(1.06655 -0.0105008 1.45212e-21)
(0.0705552 -0.0763257 0)
(1.45748 0.0861321 0)
(-0.715766 -0.667186 0)
(1.22471 0.439971 0)
(2.01087 0.2578 7.01657e-20)
(0.73928 0.618822 3.25429e-19)
(0.296461 -0.297969 -2.05434e-19)
(-0.466598 -0.823835 -5.34506e-19)
(0.00638498 -0.0539511 0)
(1.10597 -0.0272249 3.70091e-21)
(1.45567 0.493089 0)
(1.46898 0.254464 0)
(-0.725788 -0.426696 1.95033e-19)
(0.806385 0.710781 9.80921e-20)
(1.72147 0.0350041 0)
(-0.532697 -0.621984 1.20726e-19)
(0.897093 0.210977 1.57757e-19)
(1.08805 0.00275102 6.26704e-22)
(1.24355 0.922093 2.61379e-20)
(0.915892 -0.824033 -2.2247e-20)
(0.686328 -0.00156881 1.30155e-21)
(0.793058 0.715042 9.93073e-20)
(1.18192 0.922452 0)
(1.1708 -0.139396 1.91811e-20)
(1.02907 0.297246 0)
(1.03317 -0.0223243 -5.08895e-21)
(0.960574 0.0691611 2.04105e-19)
(1.0124 -0.0125249 0)
(0.838648 0.401751 -3.97679e-20)
(0.871483 -0.179512 4.04954e-20)
(0.63492 -0.39668 0)
(0.673427 -0.367241 1.81771e-19)
(1.22955 0.547135 -2.44949e-20)
(0.477255 0.451703 2.2933e-19)
(-0.446899 0.567079 6.20891e-20)
(0.338712 0.348774 1.18141e-19)
(0.847499 0.0556481 0)
(1.3173 -0.897344 -3.88241e-20)
(1.05714 -0.00799247 3.36918e-19)
(1.56199 0.261378 1.73785e-19)
(-0.548099 -0.616675 1.04931e-19)
(-0.680134 0.347709 0)
(1.1467 -0.22611 -9.38527e-20)
(0.0550116 0.0404312 -2.13103e-19)
(0.738274 1.0784 -7.19594e-21)
(-0.149158 0.0268377 -4.73223e-22)
(-0.233824 0.102782 3.9215e-19)
(1.03198 0.0003183 -5.43815e-22)
(2.0598 0.180954 2.58442e-19)
(1.19403 0.450211 -2.1902e-19)
(1.07784 -0.0828086 0)
(1.65858 0.0893095 1.85499e-19)
(1.66732 0.0630744 7.53968e-20)
(0.913372 -0.775463 1.13623e-19)
(1.1511 -0.966359 -1.65561e-20)
(0.480312 0.447195 1.52502e-19)
(1.1681 0.509648 0)
(1.78821 0.539485 6.10109e-20)
(0.0436258 0.00150632 -4.3593e-19)
(0.883504 0.768401 0)
(1.03375 -0.0134404 0)
(0.2971 -0.296146 -3.69557e-21)
(0.329456 0.308761 0)
(-1.00277 0.194479 -2.86852e-19)
(-0.553645 0.705894 -1.8844e-19)
(1.76318 -0.355162 0)
(1.2789 0.0284513 8.2716e-20)
(-0.330585 -0.798158 1.97874e-19)
(0.541914 -0.51529 -3.92971e-19)
(1.63597 0.127622 -2.6071e-20)
(0.619625 -0.564085 0)
(1.08123 0.114968 0)
(1.3011 -0.241001 0)
(1.10306 0.220629 -1.87535e-19)
(1.25418 0.0660007 2.63732e-19)
(0.159617 -0.0853741 0)
(0.910784 -0.058985 0)
(1.19722 -0.0799407 9.26374e-21)
(-0.171555 0.489038 1.43768e-19)
(1.64463 -0.373212 -1.03777e-19)
(1.08673 -0.511813 2.06092e-19)
(1.16242 -0.157374 -9.98748e-20)
(-1.1936 -0.29976 -2.38529e-19)
(1.71716 -0.0976928 -1.55678e-19)
(1.00293 -0.0147056 3.48504e-19)
(1.53597 0.580476 0)
(-0.619792 0.742199 4.97553e-20)
(1.00178 -0.833528 1.3499e-19)
(0.847255 -0.00983186 4.0641e-20)
(0.63958 -0.421056 0)
(1.9302 -0.505359 8.41534e-21)
(1.20996 -0.205811 1.22029e-19)
(1.05425 -0.0363825 0)
(0.608929 -0.56787 3.588e-19)
(0.933806 -0.0192381 -8.47473e-22)
(1.61112 -0.621474 1.77834e-19)
(-0.262409 0.637109 -3.13029e-19)
(1.32615 0.609397 9.76576e-20)
(1.14706 0.398559 2.8625e-21)
(0.884761 0.3702 1.84844e-19)
(1.62476 0.811468 -6.95955e-20)
(-0.211672 -0.898706 -2.21955e-20)
(1.79623 0.291635 0)
(-0.188149 -0.020727 3.78865e-19)
(1.0879 -0.942683 0)
(1.05638 -0.662973 1.74889e-20)
(1.50409 1.01431 -3.74387e-19)
(1.04362 -0.0121638 -5.10234e-22)
(-1.07198 -0.316683 -5.74693e-19)
(0.976182 0.475184 1.40141e-19)
(0.896327 0.171353 -3.48172e-20)
(0.785635 -0.0260492 0)
(0.740511 -0.0536874 0)
(0.644639 0.0254743 6.06984e-21)
(0.769485 -0.00458928 0)
(1.32372 -0.185936 -1.25572e-19)
(-0.883028 -0.0919707 3.99406e-19)
(1.87121 0.446632 6.19714e-20)
(1.02544 -0.0134119 0)
(0.551497 -0.337974 8.97815e-20)
(1.02266 0.0210279 1.64937e-19)
(0.980752 0.132767 1.84786e-20)
(-0.414725 0.320006 0)
(1.08803 -0.482569 3.97514e-19)
(0.942771 0.00084327 -5.09421e-23)
(1.07472 -0.498884 -1.7322e-19)
(2.2002 0.0885908 2.26708e-19)
(1.28551 0.787768 0)
(0.92948 0.0247484 0)
(-0.61956 -0.577355 -2.62396e-19)
(0.0851942 -0.0698067 2.04683e-19)
(0.931837 0.360915 -1.69274e-19)
(0.367163 -0.649313 -2.9671e-19)
(0.6488 0.407078 2.03757e-19)
(1.02177 -0.0165459 0)
(0.541845 -0.505594 0)
(1.03252 -0.00171894 6.55543e-22)
(1.19913 -0.508194 -7.89104e-20)
(0.588049 -0.26576 1.46898e-20)
(0.71711 -0.161429 1.01028e-19)
(-0.0862321 0.320616 -3.72277e-19)
(1.67674 -0.770374 2.09704e-19)
(0.659893 0.615909 0)
(1.27348 0.689007 0)
(1.54193 0.233452 0)
(-0.919 -0.591553 -2.72778e-19)
(1.3211 0.573302 2.74412e-19)
(1.69376 0.197708 2.54527e-20)
(1.03253 -0.0345952 0)
(1.05873 0.000401027 0)
(1.71451 -0.0452054 -1.73182e-19)
(0.998393 0.232433 -2.20989e-20)
(1.00832 0.00458201 -1.65684e-19)
(1.472 0.4687 0)
(-0.587085 0.456846 0)
(1.23258 0.319708 2.22482e-19)
(1.01558 0.517801 -1.02405e-19)
(1.03653 0.0207694 0)
(1.48904 0.757934 0)
(2.04382 0.647535 -4.01625e-19)
(-0.212439 0.859351 -1.64201e-20)
(0.997019 0.0063575 0)
(0.707167 0.474554 -2.76473e-20)
(0.930214 -0.821561 0)
(1.0136 0.0579665 3.86041e-20)
(1.03264 0.00331399 1.55117e-20)
(0.906159 -0.299999 2.5747e-19)
(1.03765 -0.00259347 -1.21072e-20)
(2.11227 0.0556026 3.52104e-19)
(0.954602 -0.00254863 1.86249e-20)
(0.828551 -0.00697228 0)
(1.03826 -0.000494322 0)
(-0.624371 0.175457 0)
(0.664917 0.635993 -1.46689e-19)
(-0.00716733 0.1465 2.52024e-19)
(1.15346 0.346388 -3.58434e-19)
(-0.802817 0.367569 0)
(0.82577 0.645274 1.35609e-19)
(1.00761 -0.314651 0)
(1.0062 -0.0103164 9.71605e-20)
(0.898154 0.695427 5.9156e-21)
(1.02984 0.394855 2.03219e-19)
(2.09635 -0.669552 0)
(2.02908 -0.0256988 -7.37708e-20)
(0.809065 -0.117476 -3.08312e-19)
(-0.416111 0.594549 -2.20756e-19)
(1.08826 0.437638 0)
(0.865977 0.234044 1.45816e-19)
(2.27627 0.375282 0)
(0.771067 0.523618 2.97539e-19)
(-0.71547 0.0362597 7.70997e-20)
(-0.0933794 0.296601 0)
(0.590835 0.563539 -5.71546e-20)
(1.01904 -0.649636 -1.23015e-19)
(0.472623 -0.237364 -1.05905e-19)
(1.0074 -0.0129301 0)
(-0.205075 -0.392585 -3.62454e-19)
(0.64651 -0.574188 6.9326e-20)
(0.886739 0.281808 0)
(1.12005 -0.0831499 -3.51229e-21)
(0.98355 0.834471 1.78709e-20)
(1.02958 -0.00489673 -1.34997e-20)
(0.462467 -0.662302 -3.19126e-19)
(0.22546 -0.0247093 -4.78981e-19)
(-0.216921 -0.487099 1.2228e-20)
(0.811456 0.354985 2.03699e-19)
(-0.506533 0.817095 -8.65378e-21)
(1.39962 -0.638107 3.18343e-21)
(0.994278 0.0267112 -2.88115e-19)
(-0.923613 -0.458705 0)
(1.02542 0.0400372 -3.3684e-19)
(1.56966 0.51527 5.78683e-20)
(0.883903 0.689507 2.22899e-19)
(1.07651 -0.0536394 1.33804e-19)
(1.00186 -0.0328184 1.32482e-19)
(1.0382 0.016608 4.32099e-22)
(-0.465801 -0.49154 4.61545e-22)
(1.73607 -0.856026 1.55109e-20)
(1.19538 -0.169867 -5.73863e-20)
(0.917732 0.0275664 6.60365e-20)
(0.90787 -0.272199 7.59248e-20)
(0.665001 0.00618923 0)
(0.959399 0.731994 0)
(1.08028 0.939665 -7.05256e-21)
(1.98002 0.192587 -3.24614e-20)
(-1.16026 0.15391 1.81072e-19)
(1.01664 -0.541496 -4.22982e-19)
(0.624246 -0.534112 3.34351e-19)
(1.86929 0.0929175 -2.1437e-19)
(0.54716 -0.81424 3.18689e-20)
(1.0235 -0.00501351 0)
(0.756459 0.109292 -5.72022e-21)
(1.03819 -0.0127019 9.86584e-21)
(1.0383 0.757626 0)
(1.03517 0.00329261 0)
(0.785039 -1.05778 0)
(-0.35506 -0.570528 -8.5701e-20)
(-0.0148015 0.0862293 0)
(1.07526 0.136758 -1.03614e-20)
(1.19476 0.173086 5.04452e-21)
(0.454832 -0.012829 -3.0778e-20)
(1.06339 0.0170926 -1.30088e-21)
(1.85327 0.42691 -1.07545e-19)
(2.0261 -0.277709 -3.70203e-20)
(-0.206107 -0.0153372 -2.77676e-19)
(-0.569687 -0.791351 8.18146e-21)
(0.948448 -0.0262017 0)
(0.759022 -0.0207613 0)
(1.00138 -0.00225017 -4.45287e-22)
(-0.894611 -0.486607 0)
(1.43375 0.14222 -8.84173e-20)
(0.740478 -0.0192299 0)
(1.02252 -0.0312904 1.06852e-19)
(1.0149 0.0271643 -3.75696e-20)
(1.74396 -0.965906 1.07519e-19)
(1.0573 -0.00579167 -7.72597e-22)
(0.944018 -0.188836 -4.5751e-20)
(1.01854 -0.0197482 3.08281e-19)
(0.680269 -0.617114 1.55882e-19)
(0.712952 -0.117821 3.7054e-20)
(1.02712 0.00418481 -1.59787e-21)
(0.0849853 -0.0394533 0)
(1.1258 0.790544 0)
(1.01506 -0.0152653 0)
(1.00108 -0.784641 -8.33163e-20)
(1.03254 -0.883927 1.78263e-20)
(1.01519 0.0113276 2.72207e-21)
(0.620575 0.470484 2.36914e-20)
(1.053 -0.00398385 2.64304e-21)
(0.585497 -0.369601 -5.4423e-19)
(1.03341 0.00212484 1.85671e-22)
(1.0312 0.00660813 -8.84844e-21)
(2.09806 -0.27614 1.16545e-19)
(0.954777 -0.0101531 4.0305e-22)
(-0.513326 -0.656843 -1.81731e-19)
(1.10745 0.542182 1.5038e-19)
(0.15085 -0.575181 0)
(0.128233 -0.440525 7.9181e-19)
(-0.0902887 -0.271167 1.82875e-22)
(1.07228 -0.0117016 2.76885e-19)
(0.994362 -0.0136334 -7.1751e-21)
(1.063 -0.020198 -7.66086e-20)
(1.03329 0.00987273 1.55224e-21)
(1.59127 0.305723 2.87231e-20)
(0.40204 -0.374315 -2.7052e-19)
(1.02867 0.0280077 -5.06281e-21)
(1.02915 0.0248519 -2.03295e-19)
(1.02212 -0.00525903 1.64448e-21)
(1.0292 0.00130809 0)
(1.10578 0.581848 -2.80374e-19)
(1.00035 -0.0123002 7.97886e-20)
(0.676074 0.60824 2.12312e-19)
(1.01959 0.00154273 -3.76318e-22)
(1.05978 0.0123725 -2.50276e-20)
(1.08422 0.0237739 7.13669e-22)
(1.86265 -0.38189 1.09539e-20)
(0.694297 0.00100322 0)
(1.08149 -0.0357581 0)
(1.06003 -0.0210846 4.86755e-19)
(0.998356 0.00713823 0)
(-0.0358154 -0.145609 0)
(0.968632 -0.581097 0)
(1.00286 0.00990465 -4.62086e-19)
(1.14127 -0.688792 6.45666e-20)
(1.03071 -0.0167568 9.70234e-21)
(1.34964 0.94869 -6.11978e-21)
(1.5364 0.998055 -1.31801e-19)
(1.03472 0.00575196 -4.66389e-21)
(1.25825 0.668993 2.09653e-20)
(0.682785 0.000106964 0)
(0.0846212 0.802219 0)
(1.90764 0.729298 2.61801e-19)
(1.03882 -0.0489506 0)
(1.00195 -0.0123773 -1.42703e-19)
(1.00543 0.00133897 2.77416e-19)
(1.33403 0.114448 -5.31389e-20)
(0.0140728 -0.107402 2.92573e-19)
(1.00254 0.0172947 1.49903e-19)
(0.928181 0.00844219 -1.92931e-21)
(0.943901 9.29095e-05 3.36586e-21)
(1.03561 -0.00301492 2.41637e-23)
(0.915512 0.00992375 -1.51861e-19)
(1.00242 0.00084445 1.79701e-19)
(0.99267 -0.00322758 1.06051e-20)
(0.813541 0.00663393 0)
(0.736555 -0.0171818 0)
(0.721217 -0.00801413 7.84078e-22)
(0.727578 -0.00858344 0)
(0.710486 0.026903 0)
(0.740682 -0.0303023 0)
(0.753658 -0.00519685 -3.07609e-21)
(0.923973 -0.016282 2.14171e-21)
(1.05105 -0.00139397 0)
(1.02835 0.0018721 1.23347e-21)
(1.03977 -0.00255273 0)
(0.773467 -0.00822797 0)
(0.712477 0.0129983 0)
(0.720492 0.0137199 -1.28922e-22)
(0.679112 -0.000585707 3.82381e-22)
(0.85673 0.0114697 0)
(0.83478 0.0390802 0)
(0.945729 0.0035818 -1.87405e-19)
(0.814856 -0.00084904 3.50548e-19)
(1.00054 0.00039743 0)
(1.00043 -0.00236052 3.3111e-19)
(0.993925 9.80366e-05 -4.15161e-22)
(0.844628 0.011699 2.97244e-19)
(1.00425 -0.0183774 -1.72283e-19)
(0.919525 0.00115342 0)
(0.736181 0.000596278 -3.36869e-21)
(1.01754 -0.0068809 -1.67291e-19)
(1.00153 -0.00684772 -2.872e-19)
(1.04361 9.05326e-05 0)
(0.999664 0.00477693 0)
(0.996151 -0.00011093 0)
(1.02549 -0.0218348 -2.86774e-21)
(1.04189 0.00388253 3.46724e-21)
(1.02698 -0.012028 0)
(-0.57574 0.486351 3.09131e-19)
(0.812119 0.233894 3.9713e-20)
(1.01902 -0.00818022 -2.22987e-19)
(-0.675299 -0.77379 -1.81977e-19)
(1.02093 0.00446179 -1.78824e-19)
(1.19697 -0.214852 -7.7349e-20)
(0.80466 -0.459262 2.5676e-19)
(-0.0774712 -0.1569 -1.11205e-19)
(1.04046 0.038251 0)
(1.05363 0.0100886 -4.80881e-20)
(0.918956 0.00361765 0)
(0.00550066 0.0960326 3.59597e-19)
(1.03341 -0.0281855 0)
(-0.846282 -0.558318 -4.40468e-19)
(0.954575 -0.0107937 1.8999e-21)
(1.68256 0.658006 8.62197e-20)
(-0.0835521 -0.101705 0)
(1.07145 -0.0329276 1.49258e-19)
(1.04929 -0.00666301 4.23414e-22)
(0.910498 -0.00020094 2.37017e-19)
(1.03469 -0.0103449 -1.5243e-19)
(1.69318 0.843132 8.49463e-20)
(0.525477 0.495569 0)
(0.451647 0.407054 1.72354e-19)
(1.0682 -0.00506221 4.46293e-22)
(1.11621 0.116498 1.55791e-19)
(1.07742 -0.721497 0)
(1.01813 0.0077718 0)
(1.01841 -0.0241613 -3.49054e-19)
(1.03236 -0.00352425 -3.41094e-19)
(-0.294712 -0.659004 0)
(1.22293 0.816953 -8.01475e-20)
(1.03559 0.0143679 4.00647e-22)
(1.00505 0.019109 1.31351e-19)
(1.01832 0.0250615 -1.64227e-19)
(-0.822077 -0.422147 -4.2405e-20)
(1.02619 -0.00375747 -7.28461e-21)
(1.01934 -0.0121171 5.59393e-19)
(1.03442 -0.00351744 0)
(1.89536 0.642442 -9.67614e-20)
(1.01937 -0.00231754 -1.73938e-19)
(1.47426 0.0979989 -6.51372e-20)
(1.02574 0.0299272 -3.99927e-22)
(1.02171 0.0170687 3.47379e-20)
(2.1604 0.0858281 -2.93223e-19)
(1.00989 0.0220353 1.69035e-19)
(1.02849 0.00409829 1.83123e-22)
(1.01396 0.00773378 0)
(0.928258 0.149359 4.11412e-20)
(0.209915 0.323751 2.86801e-23)
(0.997367 -0.002042 1.68244e-19)
(1.05049 0.0151998 -7.97184e-22)
(1.02768 -0.00597582 -1.25595e-21)
(1.24368 0.302527 3.0784e-19)
(1.02673 0.0181569 1.15794e-19)
(1.01224 -0.0152847 -6.46359e-22)
(1.72776 0.212044 -3.23108e-21)
(1.83331 0.946125 -1.34627e-19)
(0.773306 -0.697959 4.68051e-20)
(0.444458 -0.312361 -2.64369e-19)
(1.02468 -0.0186013 0)
(1.03269 0.00156514 4.24819e-20)
(1.00738 -0.00286523 8.80283e-20)
(1.03506 -0.00216239 3.73893e-22)
(0.985014 -0.00824655 -1.76971e-19)
(1.03996 -0.0186501 2.00419e-19)
(0.997463 -0.00100541 -1.64462e-19)
(1.02486 0.0015905 -6.27732e-22)
(1.01827 0.00257762 -2.20196e-22)
(1.03944 -0.00132097 1.686e-19)
(0.901892 0.0869123 4.27196e-19)
(1.10235 0.0614038 0)
(0.982452 1.188 9.87086e-20)
(0.986868 0.00120922 0)
(1.0292 -0.0280353 -4.87167e-20)
(1.52871 0.422124 -4.02647e-20)
(1.08585 0.112273 0)
(1.11146 -0.030572 -3.86586e-21)
(1.07037 0.110489 2.58642e-21)
(0.915364 -0.0194931 0)
(2.14372 0.648543 0)
(0.982489 0.0985351 1.95517e-20)
(1.0423 0.0125902 -1.29603e-21)
(1.03017 -0.0069766 -1.77277e-19)
(1.0945 -0.57006 -4.88023e-20)
(1.03241 -0.0041776 -7.28494e-22)
(1.04116 0.011871 0)
(1.04066 0.00152121 0)
(1.09173 0.014219 0)
(0.43775 0.631309 1.92632e-19)
(1.02692 0.000314075 7.0272e-21)
(0.948274 0.0463201 0)
(-0.0130156 0.268337 -5.56162e-19)
(1.71316 0.959259 -1.24802e-19)
(1.01965 -0.00275398 -3.47215e-19)
(1.03089 -0.0137138 1.24798e-21)
(1.0077 0.0037996 2.28815e-19)
(0.811873 -0.0387518 0)
(-0.234364 -0.620609 -3.36065e-20)
(0.617186 0.435563 -2.8663e-19)
(1.08444 0.0588863 -5.46912e-21)
(0.098964 0.471591 0)
(0.909073 0.180859 6.28869e-20)
(0.522056 0.501185 4.26442e-20)
(1.18857 0.880671 -2.03662e-20)
(0.0578952 0.0577575 1.52833e-19)
(1.00857 0.00362162 0)
(1.02933 -0.00181426 4.80588e-21)
(1.01888 0.017013 1.30141e-19)
(2.08317 -0.349277 0)
(0.985677 0.0157541 2.18727e-19)
(0.31002 -0.410835 -3.79036e-19)
(1.01637 0.00211716 -1.34793e-19)
(1.04189 -0.00198369 0)
(1.15432 -0.0814423 5.51051e-23)
(1.00491 0.0111574 -9.09667e-20)
(0.991312 -0.0263724 2.38968e-19)
(1.05775 0.0862633 -3.31327e-21)
(1.03494 0.012344 -6.56463e-21)
(-0.117824 -0.00318807 3.8638e-19)
(2.12257 0.246822 2.5656e-19)
(1.02468 0.0120255 7.48042e-21)
(0.816582 0.0330405 -3.27761e-19)
(0.897873 0.0418505 0)
(1.03604 -0.000544657 4.34881e-21)
(1.02026 -0.00675689 -2.61867e-20)
(0.964989 0.0353895 0)
(1.02671 0.00186168 -1.66007e-19)
(1.02603 0.00607767 -9.15328e-21)
(-0.596866 0.188228 1.02185e-19)
(2.13514 -0.554808 0)
(0.16993 -0.368068 2.78728e-20)
(1.51008 -0.304662 0)
(1.023 -0.000590233 4.89794e-20)
(1.03669 0.0157209 -1.19783e-22)
(0.988997 -0.00260742 1.41529e-19)
(-0.515633 -0.49118 1.89469e-19)
(1.00703 -0.00210601 0)
(0.993598 0.00316632 -3.40244e-19)
(0.994598 -0.000774536 1.79196e-19)
(1.03548 -0.00568995 0)
(1.02665 0.00462611 6.50538e-22)
(0.974899 -0.00457633 -1.53781e-19)