/*--------------------------------*- C++ -*----------------------------------*\
| =========                 |                                                 |
| \\      /  F ield         | OpenFOAM: The Open Source CFD Toolbox           |
|  \\    /   O peration     | Version:  2306                                  |
|   \\  /    A nd           | Website:  www.openfoam.com                      |
|    \\/     M anipulation  |                                                 |
\*---------------------------------------------------------------------------*/
FoamFile
{
    version     2.0;
    format      ascii;
    arch        "LSB;label=32;scalar=64";
    class       volScalarField;
    location    "22.6";
    object      p;
}
// * * * * * * * * * * * * * * * * * * * * * * * * * * * * * * * * * * * * * //

dimensions      [0 2 -2 0 0 0 0];

internalField   nonuniform List<scalar> 
2186
(
1.0825
0.0687727
0.350002
1.38596
-0.816931
0.101534
1.0188
-0.557024
-0.44838
1.60938
1.21629
-0.472955
-0.573081
1.27175
-0.141247
1.26313
1.29539
-0.903458
0.0473998
-0.89474
1.65231
-0.873013
1.27881
-0.546018
1.27017
1.36224
1.49177
1.22885
0.711927
1.27137
-0.873041
1.27051
-0.824936
-1.1025
-0.47249
0.18134
-1.00263
1.63392
-0.685309
0.0378127
-0.577388
-0.842405
-0.243065
-1.00703
1.07817
1.59051
0.714363
0.86945
-0.97336
-0.919179
-0.880966
1.04527
-0.239046
1.55042
-0.882229
1.27444
-0.288714
1.30044
-0.733384
1.11337
-0.895852
0.773437
0.673524
0.0611225
0.701277
0.814429
0.796666
1.54578
1.43994
-0.47219
-0.550433
-0.961444
1.52972
1.31764
1.40924
1.46773
-0.963426
1.28934
-0.474677
-0.750966
-0.870078
0.0841538
1.26646
0.75286
1.26261
1.26782
1.53522
0.118062
0.0411252
-0.486903
1.27436
-0.862722
1.21363
1.45254
1.2786
0.522455
0.235354
0.720589
-0.87586
1.31264
-0.816807
-0.755299
0.784793
1.23299
1.29771
-0.865899
1.4129
-0.307694
1.25327
-1.6802
-0.736176
-0.891874
0.894426
1.53703
-0.426142
-0.617144
-0.0802458
-1.16539
-0.488301
1.53766
0.0314264
-0.954587
1.0017
-0.904693
1.26884
-0.0662625
-0.864173
1.45655
-0.897794
1.00144
1.67956
1.54652
0.611492
0.99387
-0.851288
-0.930671
1.2475
-0.49902
-0.528296
-0.50563
0.938939
0.193647
-0.545206
1.04191
1.20913
1.24496
-0.238397
-0.820125
0.953863
-0.962073
-0.861522
0.927834
1.29248
1.49339
1.36123
0.878843
1.52225
0.557724
0.44931
0.781208
-0.505945
-0.674099
1.22328
1.30553
0.0549867
0.0742299
-0.402179
-0.456508
-0.33138
-0.366622
0.458131
1.31673
1.29586
1.42562
0.528248
-0.248593
-0.779777
1.22322
-0.945745
1.01838
-0.458476
1.28326
-0.883369
0.664641
0.640631
-0.776371
-0.603071
1.32202
-0.475306
-0.596758
-0.756179
1.51169
-0.789798
1.29058
-0.501033
-1.72813
0.146747
1.42618
1.24907
-0.883938
-0.546503
-1.57928
0.463729
1.30519
-0.486903
-0.841394
-0.483278
-1.26097
1.18131
-0.840789
0.87074
0.14201
1.52657
0.971148
1.07774
1.2739
1.38256
1.27214
1.22664
1.29902
0.731553
-0.610216
-0.859087
0.168227
0.563885
-0.923058
-0.850351
1.21445
1.42687
-0.464438
-0.42824
-1.26757
0.734115
0.995606
1.09371
1.22868
1.4383
-0.971029
1.21177
-0.518222
-0.907851
-0.62497
1.17057
0.862421
1.34573
1.45122
1.30099
1.27358
-0.53116
1.16104
1.34366
-0.554497
1.1547
0.914734
-1.15053
-0.474932
-0.433034
1.3461
1.28861
-0.592378
-0.796225
-0.917199
1.2831
-0.91375
0.898846
1.26512
1.16449
-0.465603
-0.870272
1.2571
0.775613
-0.299855
-0.454396
1.57981
-0.846583
-0.538406
1.1439
1.49833
1.26538
-0.850047
-0.815609
-0.386344
1.10603
-0.569995
0.898818
1.25175
1.33332
0.199498
-0.143687
1.20175
-0.489028
1.24906
1.50914
1.28539
1.28279
-1.16347
-0.921757
-0.549488
-0.86851
-1.40505
-0.712493
0.743189
-0.135807
0.728407
1.48613
1.40788
1.10371
-0.266843
1.3822
-0.542496
0.0935307
-0.604865
-0.501291
-0.618522
0.715965
-0.863751
-0.865779
0.238437
1.12904
-0.628477
0.478651
-0.891282
-0.022098
-0.62524
-0.880471
1.48033
0.039299
-0.0857383
-0.85858
1.12834
0.694267
-0.359063
0.872416
-1.43134
-0.61966
0.786807
1.29835
1.2587
-1.68883
1.41341
1.22195
0.475418
1.5554
1.25643
1.22537
0.722364
-0.54768
-0.51254
1.03641
-0.984273
-0.450048
-0.586883
-0.611707
-0.49284
1.59196
-0.938671
-0.877641
-0.547142
1.25648
-0.757553
-1.12882
-0.919047
1.10151
-0.263387
-0.80978
1.49829
1.56364
1.4461
-0.550725
-0.249398
1.60539
1.26347
-0.786853
0.561919
-0.524403
0.551003
1.41112
1.17171
1.17988
1.597
-0.0937429
-0.661756
-0.486555
-0.949706
-0.704867
-0.860221
0.120816
1.52486
-0.941979
-0.649569
1.24493
0.935817
-0.481929
-0.960269
-0.51645
-0.925352
-0.676225
-0.496227
-0.864791
-0.829147
1.47688
-0.704126
-0.610362
1.28479
-0.623052
1.57198
-0.930475
-1.49799
-0.912168
1.2688
-0.453426
1.2874
1.18352
-1.54357
1.34657
-0.946676
-0.493847
-0.561037
1.33841
1.22949
-0.486605
-0.523376
-0.627041
1.1675
-0.761505
-1.26338
0.621271
1.1583
1.17895
1.03009
-0.501923
-0.7638
1.024
-0.742741
1.1186
-1.99611
1.29017
0.0128954
1.44653
-0.4889
1.18857
0.862053
1.29413
-0.541054
1.24875
-0.936949
-0.491422
1.27205
-1.41767
0.222966
-0.622469
-0.092005
1.26631
0.470264
0.660041
1.25627
0.325875
0.238239
-0.124053
-0.878596
0.603666
-0.600812
0.854107
-0.672839
1.25598
1.45454
-0.533605
-0.500838
-0.630647
-0.874496
0.543355
-0.640071
0.985647
0.328218
-0.581934
1.32346
-0.602794
0.469759
0.668135
-0.373182
0.943794
0.439169
-1.04202
-2.02327
-0.380286
-0.865311
1.28156
-2.06019
1.40207
1.53851
1.52372
0.788007
1.36425
-0.82812
-0.796162
1.19187
0.593008
1.2464
-0.865373
-0.590484
-1.08637
1.11447
-0.494035
-1.97665
-0.902472
-0.946415
0.174351
-0.65339
0.885976
0.875604
-0.552363
-0.5007
1.093
0.460353
1.3294
-2.01711
-0.144255
-0.495246
0.902772
-0.110742
1.49079
1.62205
-1.12089
-0.843159
-0.402269
0.397566
-0.940388
1.3642
-0.562321
1.3229
0.938515
-0.510912
1.06421
1.02637
-1.35679
1.17538
-0.861519
-0.866721
-0.906387
-0.458539
-0.827007
-0.913966
-0.645616
1.27354
0.298114
-0.870948
0.94336
1.41854
1.52697
0.0573226
1.07744
-0.545184
1.11894
-0.168083
-0.911421
-0.862248
0.612786
0.978843
1.26401
-1.47655
-0.511637
-0.676129
-0.497074
0.283525
1.07394
-1.27918
0.19634
-0.720153
1.12041
-1.582
1.19455
-0.854413
-0.808724
1.23388
0.992017
-0.98099
-0.139593
1.21027
1.5998
1.29198
-1.72276
-0.937862
1.1345
-0.806415
1.12065
-0.556163
0.553891
1.20644
-0.607691
-0.874346
1.2188
-0.539438
1.45763
-0.194293
1.2135
0.175172
0.969492
-0.3384
1.52113
-0.871835
-0.836002
1.13254
0.639963
0.622613
-0.641842
-0.890219
-0.665531
0.965307
-0.163037
-0.722062
-1.77102
1.28268
0.502466
-0.940151
0.909099
1.06559
1.23304
-1.71409
-0.785294
-0.861946
1.28353
1.38106
0.850925
1.28037
0.0804606
1.36609
0.230256
-0.399932
-0.673136
1.21573
1.25177
-0.915332
1.00785
-0.873101
0.981559
-0.808421
1.18002
1.26808
1.28235
-2.09248
1.10696
-0.822644
-0.621429
1.44928
-1.28389
-1.99968
1.33933
-0.652585
1.30239
-1.12891
-0.869993
1.22759
1.12074
1.65977
1.2697
-0.930773
1.40776
1.30096
-1.00941
0.767453
-0.173653
-0.38977
1.76598
-0.512481
1.34531
-0.861039
0.672347
1.27068
-0.708172
1.24001
-1.3965
1.09413
1.23986
1.28773
0.218635
-0.597343
-0.176547
0.921717
0.992244
1.37318
-0.288717
0.985719
-1.96446
-0.329918
-0.977283
1.16728
1.46669
-0.850481
-0.475347
-0.101215
1.48826
-0.26646
0.880781
-0.373664
-0.869132
-0.536625
-0.888041
-1.75322
0.990444
-1.50256
-0.311079
-0.289396
-0.127138
-0.922069
-0.589768
-0.385259
1.21786
1.28696
-0.668632
-0.0407105
1.2367
1.22704
1.28861
-0.908108
1.23259
1.35602
1.2738
1.38579
-1.50476
-0.159645
-0.873923
0.751292
1.27918
1.05387
0.536418
-0.0823558
-2.08938
0.107674
1.5708
-0.204423
0.374804
-0.229747
-0.0965699
-0.561357
0.947247
-0.446202
-0.630909
-0.490325
1.25959
1.27308
1.27097
0.0224201
0.453737
1.5533
-0.10316
1.2723
-0.105411
-0.0283102
0.91715
1.28449
1.28348
0.114727
1.2232
1.2252
-0.771177
-0.0538398
1.27214
1.28633
1.28572
-0.49746
-0.537326
1.28684
0.96189
1.27249
0.296733
-0.0751055
0.179564
-1.83273
-0.550056
-0.868315
-1.11069
-0.565305
1.29061
1.295
0.934149
-0.50382
1.25909
-0.101157
0.195865
0.00439104
1.27268
1.29307
1.28753
1.29685
1.27234
1.26408
1.25217
-0.111042
0.194462
0.0928166
0.134256
0.0165501
0.0549493
0.0125544
-0.109636
-0.103614
-0.0717077
-0.12774
1.26844
1.28539
1.28061
1.30117
1.29764
1.28803
1.2895
1.27609
1.2694
-0.129434
0.192422
1.28709
1.28796
-0.0125825
1.29069
1.28732
0.0966314
0.30714
-0.0836858
-0.764168
-1.80626
1.26843
-0.576183
1.2701
0.963544
1.39806
-0.510943
1.27159
1.18376
1.23204
-0.873921
-0.381384
-0.631184
-0.0645739
0.018289
-0.878408
1.27923
0.224676
1.35822
1.27089
-0.127458
1.38313
1.55001
0.076052
1.08249
1.01513
1.26263
1.28155
1.27957
-0.508957
0.604281
0.142652
1.27078
1.2846
-0.655832
0.278615
1.27138
0.129948
-0.307214
1.27274
-0.866424
1.24185
1.28346
-0.494515
1.28216
0.305473
1.27181
1.31847
-1.58224
1.28957
1.29635
0.178563
0.853506
1.27544
1.2741
0.249757
-0.771088
1.06579
1.65709
1.27961
1.2765
1.27697
0.425504
1.27506
1.269
1.27697
1.27341
1.27436
1.27549
1.36068
-1.12106
-1.65175
1.27693
1.26648
0.398656
-0.899027
-0.901547
-1.2839
1.09755
-0.932877
-1.39815
0.172913
1.27087
1.07205
0.219356
-0.0634874
-0.03501
-0.867648
-0.877366
0.336978
-1.2302
-0.961204
-0.304924
1.27996
0.289671
1.26676
1.15753
-0.495051
1.46897
-0.887411
-0.943495
1.07492
1.33843
0.575317
-0.489357
1.26169
0.191832
1.27684
-0.707615
1.278
-0.582494
1.26759
0.137783
-0.875797
1.2789
1.2958
1.17324
0.0831939
-0.487238
-0.715625
0.144194
1.29453
1.13686
0.219205
1.26485
1.31105
1.25321
0.253055
-1.24246
-0.22838
-1.32435
0.690549
1.271
-0.0864829
1.27466
-1.00945
1.26707
1.30596
1.28145
-0.0167925
-0.0496017
1.30881
-0.552691
1.28374
1.28621
0.403537
-0.561398
1.12784
1.36429
1.26572
1.25531
0.00148363
-0.324192
1.25391
0.781458
1.28138
1.18534
-0.756469
-0.543882
1.06986
1.54011
1.26515
0.716487
-1.34741
0.266899
-1.57852
-1.34465
1.26611
-0.879336
1.24504
-0.896302
-0.503549
-0.834134
0.597568
-0.503788
-0.991019
-0.612585
1.26577
-0.489088
1.09644
-0.519662
0.233259
-0.290902
0.212127
-0.851958
1.22755
0.167867
-0.350675
-0.45158
-0.803339
1.26834
-1.12499
0.184727
-1.06592
1.30712
-0.750897
-0.517293
1.33638
1.26596
1.26011
0.839462
-0.453234
1.26783
1.28875
-1.84817
-0.854304
1.26579
1.14066
1.48443
1.28364
-1.25959
-1.09228
-0.870517
-0.756897
-0.784644
-0.492649
0.0142485
-0.501112
1.14426
0.375755
1.28266
1.45549
1.25988
-0.491742
-0.540354
1.26677
-1.56178
-0.559908
1.25993
0.103507
-0.711652
-1.10719
-0.130169
1.19074
1.15864
-1.69459
1.14894
0.844065
-1.57813
1.26551
-0.782885
1.02501
-0.85382
1.29826
-1.70122
0.789614
1.26852
1.30043
-0.853062
-1.07288
1.04964
1.64033
1.28806
1.22026
-1.41799
1.56298
-0.400827
-0.434195
-0.370122
0.837034
-0.835973
1.37624
1.47564
-0.527299
-1.69903
1.26062
-0.651457
1.18432
1.29693
1.20811
-1.00272
1.26738
0.00880873
1.29972
-0.0478035
-0.589435
-0.0716241
1.27144
0.160243
-0.449606
-0.962404
1.29942
-0.81574
1.4152
0.641586
1.55866
1.18419
-0.701892
1.26466
-0.864575
1.22262
1.2303
-0.348007
-1.0299
1.34274
1.24842
1.44795
1.20572
0.474975
1.20284
1.27206
1.08135
1.27324
-0.452726
-0.854384
-1.52813
1.39229
-1.49492
-0.795338
-0.870309
-1.70213
-0.590402
-0.0501631
1.05495
-0.463788
1.24428
1.30317
-0.854155
-0.580939
-0.691675
-0.779445
-0.818501
-0.863463
1.26459
-1.50979
1.28387
1.54412
1.32799
-0.125112
1.29024
1.1795
-1.18714
1.25404
1.24013
-0.739977
1.24154
1.13956
0.132068
-0.693001
1.74072
-1.62642
-0.825116
-0.594807
0.618329
1.25861
-0.851028
-1.14483
-0.875397
1.39185
-1.14372
1.04366
1.27258
1.27134
-0.927439
1.26674
-0.89483
1.27885
1.29429
-0.382686
1.28564
0.655118
1.27623
1.0543
-0.91785
0.0967546
0.0839217
0.167517
1.48041
-0.141951
1.28464
1.64445
-0.841945
-0.0421325
1.33879
-0.0273019
1.33606
-0.0602762
-0.0857137
1.33002
1.33471
0.795005
-0.698138
0.945078
-0.822771
-0.894255
-0.683066
1.28782
1.28696
1.72436
-0.489956
-1.30219
1.09221
-0.652671
1.32688
1.21059
1.2839
1.25365
1.2443
-1.4034
-0.493487
-0.717722
1.01895
1.16142
-1.10396
-0.859737
-0.514876
1.288
1.31924
-1.32897
-1.04655
1.303
-1.48558
0.355715
0.956751
1.11992
-0.330472
-0.626022
-0.144704
-0.609587
-0.850464
-1.49862
-1.66097
1.68449
1.59897
-0.744447
-0.606765
1.28664
1.26424
-0.814221
0.336235
0.061386
0.827297
1.35743
-0.71746
1.27413
-1.54845
-0.606652
-0.744309
-0.82132
-0.986784
1.27338
-0.602923
-0.85719
1.60772
-0.594954
1.27565
1.46518
-0.856413
1.37804
1.57223
-0.815233
1.46987
-0.587168
-0.599095
1.24844
-0.156223
1.34972
1.2794
-0.577855
1.34894
0.533596
-1.61375
1.30644
1.36671
-0.440163
-0.787897
1.18718
1.26775
-0.54635
-1.0398
1.51264
-0.568043
1.14818
0.0237825
1.24056
-0.466196
-1.84975
-0.523158
-0.796576
1.30763
1.32353
1.60746
1.431
1.18318
1.32608
1.27701
-0.516804
1.35204
1.47143
-0.847299
-0.55852
-0.75595
1.55655
-1.66716
-0.57678
0.246308
1.1394
-0.841928
-0.709874
1.2301
1.35673
-0.530892
-0.859971
-0.568203
0.315256
-0.960935
-0.828846
-0.510685
1.08857
1.23859
-0.868331
-0.410568
-0.411708
1.03523
-0.565778
-0.773872
-0.50586
1.28706
-0.879778
-0.856512
1.64495
1.1988
0.761344
1.52007
-0.236056
1.31993
1.27553
1.41075
1.53302
-0.43828
0.863362
1.22074
0.650019
-0.500638
1.69214
1.26546
1.23059
1.35737
-0.853094
-1.06615
1.17585
1.00841
1.25244
-1.39112
-1.35533
1.26652
-0.500201
1.1515
-0.25248
1.65516
-0.496876
0.922561
1.09405
-0.873691
-0.49333
-0.894967
1.38535
-0.872271
-0.489159
1.05852
0.794982
-0.796542
1.32968
1.17264
-0.870182
-0.664247
1.19542
-1.55307
-0.491289
-0.543657
-0.877024
-0.492578
1.22184
1.29861
-1.7731
0.982642
1.28034
1.60005
0.659984
0.43967
0.148107
1.22599
-0.0219826
-0.875205
-1.46075
-0.534144
-0.876486
1.25106
-0.868376
0.319916
-0.488841
0.721145
0.937101
-0.877058
0.998235
-1.79605
0.869123
-0.8777
0.639866
-0.876425
0.769346
-0.487169
0.548674
-0.87849
1.17012
-0.965153
-0.883042
-0.894554
-0.485179
1.28666
0.487226
-0.927139
-0.49564
0.174541
0.264875
-0.870994
-0.489173
-0.972333
0.291388
-0.510847
-0.00405673
-0.541338
-0.230729
-1.05355
0.132411
1.11978
0.149395
-1.1483
1.23094
0.0504028
-0.117282
0.820515
1.25752
-0.927389
-1.5553
-0.490008
-0.929172
1.20927
1.66924
-1.09425
-0.498666
0.419966
-0.601461
-0.282962
0.0574473
1.216
-0.717632
1.247
-0.791452
1.73065
0.816359
1.72813
-0.863193
1.51589
-0.500977
1.34006
-0.541894
-0.486369
1.40905
1.2806
-0.847483
-0.489826
-0.890032
1.20026
-0.84326
1.24783
-0.789893
-0.526475
-0.525212
1.57079
1.2824
1.44191
1.26143
1.29082
-0.368598
-0.140696
1.43136
-1.43813
-0.609946
1.6587
-0.86361
1.15163
1.27071
1.64948
1.72186
-0.87242
-0.710795
1.3177
0.612394
-0.0276677
-0.846367
-1.39542
-2.01519
-0.856975
0.900218
-0.873429
1.52669
-1.06773
1.26117
1.37473
1.27504
-0.786154
-0.462163
-0.677371
1.36607
-0.653695
1.39612
-0.701231
-0.743063
1.46725
1.62116
-0.484471
0.220885
1.23748
-0.764235
-0.803281
1.01098
1.50414
1.52406
-0.909435
1.11295
1.0448
-0.487389
1.53908
0.434532
-0.86555
-1.22157
-0.134437
0.112146
1.34092
-0.63537
0.408793
0.109453
-0.115502
-0.626481
-0.46853
1.24445
-0.873516
1.26169
0.0136839
0.480362
1.03393
0.635376
-0.478982
-0.577717
-0.69634
-0.14523
0.208482
-0.81767
1.13896
-1.11692
-1.11619
1.24241
-0.674951
-0.846782
1.28627
-0.406643
1.17927
-0.023479
-0.496473
0.0814664
1.12707
-0.336794
-0.850555
1.21583
-0.525009
1.36043
-0.139432
-0.696929
-0.606758
-0.488412
1.78528
-1.13617
1.43598
0.214882
1.25112
1.44532
1.06603
1.32564
1.38091
-0.0392949
-0.948724
1.26231
1.41377
1.66001
-0.598698
1.30239
0.853281
-0.591879
1.13421
1.53346
-0.542611
1.57764
0.277018
-0.726709
1.17892
-0.582285
-0.886857
1.24099
-0.417116
1.34157
1.38974
1.19709
-0.759841
1.12039
1.49071
-0.855552
-0.259912
-1.04525
-1.24248
-0.675485
-0.491248
1.66626
1.10065
-0.807555
1.25306
-0.572757
-0.651852
1.59102
1.45128
-0.907109
-0.848319
-0.487263
-0.514674
1.27918
-0.823464
0.46639
-0.840528
-0.389329
1.34467
-0.552816
1.62735
1.30559
1.20395
1.27387
1.53415
-0.74864
-0.56451
1.32138
1.46089
-0.641198
1.29255
-1.27547
-0.520812
-0.538311
1.29737
1.32963
-0.527744
-0.833993
0.908431
0.323526
-0.853612
1.23765
1.16364
-0.884329
1.20752
1.25422
-0.590606
-0.844728
-0.785824
-0.514855
-0.536432
1.62456
-0.746779
1.11301
-0.838622
1.62619
1.1102
1.05978
1.16515
-1.88481
-1.3076
-0.509009
0.691256
-0.859468
1.26091
0.675069
-0.536778
1.07661
1.34071
1.30908
1.2631
-0.0248219
1.31495
-0.0742133
0.783521
1.01172
-0.541551
-0.851689
-0.989158
-0.689333
1.28461
1.30644
1.28491
-0.876662
-0.353739
-0.503664
-0.819364
1.27682
1.52024
1.29105
-0.855988
-0.659159
-0.786944
-0.51525
-0.488606
-0.488422
-0.131293
1.25119
-0.688488
-0.869537
0.124513
0.306804
0.897697
-1.86444
-0.499173
-0.481609
1.15986
1.70625
0.254522
1.38712
1.74705
0.830856
1.44921
-0.844434
-0.065877
1.70661
-0.495079
0.686402
-0.862527
-0.539337
-0.884445
-0.873202
1.28857
1.0852
1.41375
1.37237
0.0375966
1.12819
0.152847
0.100738
-0.491495
1.39089
0.899794
1.28695
1.30322
-0.151384
0.0140633
1.30654
-0.913564
-0.492088
-0.871502
-0.895501
0.942274
-0.874609
1.24788
1.02502
-0.495356
1.55334
-0.848493
-0.271434
1.26415
-0.635076
-0.638742
-1.17714
0.760407
-0.867648
-0.920183
1.10857
1.29505
-0.167959
0.428886
-1.38224
-0.489046
-0.517289
-0.961637
0.205842
0.962607
-0.725334
-0.876051
1.49276
0.385493
0.497524
-0.877041
-0.545339
1.27474
1.37811
0.682591
0.901573
-0.877276
-0.607132
-0.305931
0.597973
0.815247
-0.877958
1.06508
0.255852
-0.878505
1.68723
-0.885399
-0.956981
-0.53431
-0.824001
1.18854
-0.906024
-0.806604
-0.50076
0.403977
-0.946657
0.0958964
-0.736043
-0.0765922
1.40669
-1.00558
0.233015
-0.52643
-0.102658
1.57488
1.69955
1.45494
1.27894
1.42906
-0.744334
1.26089
-0.846982
1.37441
-0.491435
-0.434653
1.58136
-0.559161
0.837249
-0.944569
1.69159
0.0459232
1.63248
0.758617
0.972536
-0.864896
-0.854898
-0.486665
-0.945013
1.58668
1.42796
1.25483
0.973276
1.27078
1.21142
0.993829
-0.875949
-0.505997
0.385762
0.288277
0.965557
1.27902
0.367057
-0.860694
-0.876657
-0.664428
-0.487384
-1.07798
1.65571
1.29815
1.27386
-0.159609
-0.0197654
1.30281
-1.37108
-0.490721
-1.8373
-0.595786
0.953164
-0.867877
-0.875818
0.0994896
1.25397
-0.907665
-0.532222
1.26891
0.969857
1.04404
1.26199
-0.487896
1.05393
1.48807
1.18448
-0.486086
1.27001
0.731933
0.597552
-0.693744
-0.872655
1.70184
0.619601
-0.817252
0.41411
1.09733
1.19406
-0.609254
-0.798307
-0.0945225
-0.835144
-0.435552
-0.805056
0.00827541
1.25525
-0.878572
1.23439
1.57515
1.42048
1.22138
1.30085
1.36914
1.26718
-0.841812
-0.222954
-0.375317
-0.566399
-0.385838
-0.876986
1.38237
1.25983
-0.57186
1.26919
-0.668988
-0.295803
-0.882452
-0.685346
0.890049
-0.558353
1.24999
1.08981
-0.951889
0.0206548
1.60455
-0.815804
-1.2129
-0.480799
-0.802049
-0.859472
1.32516
0.946211
1.4082
-0.701105
-1.10609
-0.473153
-0.315969
-0.576928
-1.08393
-0.857469
-1.16746
1.0992
-0.284604
1.75377
-1.14838
-0.148273
-0.525983
-0.877277
1.2378
-0.546184
-0.700834
-0.400883
0.0562967
1.40983
1.52701
-1.75333
-1.49436
1.00124
-0.509629
-0.391225
1.41091
-0.833424
-0.854435
-0.904908
0.91982
-0.0195148
-0.582212
1.25559
0.129181
-0.864589
1.25995
-0.673844
-0.912497
-0.885683
-0.973877
0.309713
-0.584145
1.54598
-0.497604
0.536593
-0.492838
0.964645
-0.804969
-0.669352
0.80331
1.09234
1.33175
1.25432
1.41267
-0.904421
1.16171
0.901662
-0.835573
1.15343
-0.333758
-0.831239
-1.03351
1.48793
1.47141
-0.796583
-0.673261
-0.729202
1.20855
-0.700445
0.192919
-0.564032
-0.878867
1.50982
1.21664
-0.86036
-0.762817
-0.86052
-0.866327
1.1326
-0.853343
1.17725
0.345037
0.868741
1.01304
-0.863914
-0.697312
1.1343
-0.879633
0.0322918
1.55234
-0.507172
-0.866074
0.991299
-0.862208
-0.786831
0.199721
-0.622601
1.63397
-0.193727
0.51344
-0.85883
1.61923
-0.850657
-0.750095
0.797953
-0.542306
-0.490971
1.62639
0.830818
1.34134
-0.798712
1.44957
-0.464377
-0.347974
-0.815469
-0.815994
-0.849381
1.48496
0.72347
-0.530906
-0.855134
-0.591358
1.35382
-0.699308
1.5966
-0.49092
0.902221
-0.870869
0.499301
0.682939
0.645327
0.55637
0.565316
-0.720576
1.21462
-0.821633
-0.686906
-0.501576
0.646965
1.63406
0.0863301
-0.78664
-0.855572
-0.870135
0.382465
-1.1351
-0.871498
1.18884
0.562244
-0.861979
1.69399
-0.58606
-0.961494
1.64424
-0.866876
0.256689
-0.69058
-0.879371
-0.874014
1.67013
-0.882614
1.5702
-0.874344
-0.711074
1.40317
0.160572
-0.733901
0.712532
-0.612842
0.109469
-0.00891863
-0.871269
1.13479
-0.517423
-0.868992
-0.878769
-0.881858
-0.499401
1.16728
-0.0807247
-0.0685531
-0.861253
1.59355
-0.414563
-0.776146
-0.844509
0.231597
-1.02576
-0.86922
-0.865301
0.286846
1.46602
-0.847634
-0.489891
-0.912883
-0.283207
-0.168628
-0.504932
1.67704
1.60308
0.546989
-0.715135
-0.496034
0.453656
-0.497775
1.68115
0.321019
1.4028
0.859489
1.60012
0.191055
-1.0321
-0.713253
0.0232292
-0.819761
0.023239
0.282943
-0.87412
1.58338
0.0935641
0.334041
-0.0375346
-0.489492
-0.744149
)
;

boundaryField
{
    frontback
    {
        type            empty;
    }
    Top
    {
        type            zeroGradient;
    }
    outlet
    {
        type            fixedValue;
        value           uniform 0;
    }
    bottom
    {
        type            zeroGradient;
    }
    Inlet
    {
        type            zeroGradient;
    }
    rectangle
    {
        type            zeroGradient;
    }
}


// ************************************************************************* //
