/*--------------------------------*- C++ -*----------------------------------*\
| =========                 |                                                 |
| \\      /  F ield         | OpenFOAM: The Open Source CFD Toolbox           |
|  \\    /   O peration     | Version:  2306                                  |
|   \\  /    A nd           | Website:  www.openfoam.com                      |
|    \\/     M anipulation  |                                                 |
\*---------------------------------------------------------------------------*/
FoamFile
{
    version     2.0;
    format      ascii;
    arch        "LSB;label=32;scalar=64";
    class       volVectorField;
    location    "35.6";
    object      U;
}
// * * * * * * * * * * * * * * * * * * * * * * * * * * * * * * * * * * * * * //

dimensions      [0 1 -1 0 0 0 0];

internalField   nonuniform List<vector> 
2186
(
(1.33202 -0.0747963 2.31522e-19)
(1.63365 -0.959744 -4.50988e-20)
(1.47929 -0.934858 5.23236e-21)
(0.758971 -0.601561 -1.49685e-19)
(-0.0510925 -0.0391563 -1.60711e-19)
(1.93802 -0.63006 0)
(0.737137 -0.681002 0)
(-0.119056 -0.155592 9.76719e-20)
(1.43052 -0.236793 1.3324e-19)
(0.5673 -0.335384 -2.21028e-21)
(0.669372 0.60204 0)
(0.794091 -0.28516 -1.07312e-19)
(-0.151043 -0.210909 -4.00421e-20)
(1.21208 0.0216014 -3.74895e-19)
(1.82052 -0.708628 -5.37041e-20)
(1.01402 -0.00596823 1.75583e-19)
(0.977453 0.0127894 0)
(-0.377031 -0.177531 0)
(1.42464 -0.413519 0)
(-0.144834 0.207872 -7.07193e-20)
(0.483684 0.0637692 -1.14327e-19)
(-0.0813605 0.202178 9.7858e-20)
(1.19762 0.0253804 3.09165e-19)
(-0.209757 -0.0432007 6.22631e-21)
(1.03346 0.00379663 -2.43451e-19)
(0.810588 -0.577782 0)
(0.764673 -0.0477152 1.45692e-19)
(0.624548 -0.603661 -1.75166e-19)
(1.20131 0.700793 0)
(0.963487 0.0228451 -3.31993e-19)
(-0.0878427 0.109525 0)
(1.02661 -0.0143573 1.15034e-20)
(-0.22336 0.0685853 0)
(2.60091 0.0247533 2.29055e-19)
(-0.14901 -0.166744 1.92218e-21)
(1.53274 0.757689 6.56241e-20)
(1.98258 0.187587 1.2489e-19)
(0.507813 0.112468 -3.40543e-19)
(1.90466 0.101456 -2.71699e-19)
(1.46205 -0.481259 8.11324e-21)
(-0.201722 -0.294279 0)
(-0.010434 0.16485 0)
(1.90137 -0.904814 7.17632e-20)
(-0.335756 0.13211 0)
(1.10368 0.271284 1.51343e-19)
(0.61011 -0.316518 2.83283e-19)
(0.938089 -0.80031 0)
(1.21092 -0.807807 1.19221e-19)
(1.88125 0.0974788 0)
(-0.146254 0.0827881 1.5507e-19)
(-0.0838858 0.135695 1.0448e-19)
(0.625391 0.576188 7.86439e-20)
(2.10365 -0.789873 7.57684e-20)
(0.587469 0.249238 -2.7367e-19)
(-0.268808 -0.195468 3.91704e-20)
(0.782144 -0.668192 0)
(1.68017 -0.987819 1.82671e-20)
(0.594149 -0.554114 0)
(2.17099 0.123054 7.36498e-20)
(1.15523 -0.174723 -3.74482e-19)
(1.93805 0.0078398 6.90907e-20)
(1.33382 0.294858 -1.73783e-19)
(1.33344 0.527865 0)
(1.55258 -0.534002 -8.88598e-21)
(1.35272 0.383313 -1.05177e-19)
(1.27357 -0.750952 -1.69066e-19)
(1.15937 0.649858 5.12722e-20)
(0.677074 0.0507477 -5.55367e-19)
(0.820053 0.0397096 0)
(2.14342 -0.237075 -4.79222e-20)
(-0.1525 -0.200919 -1.11486e-19)
(2.41117 0.0792837 -5.4469e-20)
(0.728318 -0.0596981 -2.45025e-19)
(0.894952 -0.536726 0)
(0.82151 0.163414 -9.01414e-20)
(0.563078 -0.525116 -3.00945e-19)
(1.81104 0.073258 0)
(1.00735 0.00896164 3.62757e-19)
(-0.153449 -0.19234 0)
(2.0332 0.251718 0)
(0.240295 -0.244699 5.99441e-20)
(1.30575 -0.516155 -7.63594e-21)
(1.0231 0.00402476 4.04189e-20)
(1.3064 0.397206 2.66059e-20)
(0.971444 0.0219541 4.24128e-19)
(1.04124 0.0251355 -1.00497e-20)
(0.664025 0.153861 -3.30564e-19)
(1.54528 -0.9266 -1.56744e-21)
(1.84146 -0.168484 0)
(-0.0684735 -0.0564504 7.89202e-20)
(0.882056 -0.642099 -1.6897e-19)
(-0.118459 0.0868442 1.31532e-21)
(1.12176 -0.0820565 2.52468e-19)
(0.828516 -0.200725 0)
(0.972085 0.0226408 4.04403e-20)
(1.35368 0.630643 0)
(1.65069 -0.974538 0)
(1.29034 0.218814 0)
(-0.108797 0.0261935 0)
(0.812505 -0.685771 2.97759e-19)
(-0.335481 0.0780575 -1.39168e-19)
(-0.0796665 -0.073435 9.28957e-20)
(1.54055 0.180749 0)
(1.1574 -0.108185 -2.30796e-19)
(1.12445 0.0230007 1.79612e-19)
(-0.182194 0.199019 1.28476e-19)
(0.624694 0.487585 0)
(2.24025 -0.172489 -9.15321e-20)
(0.98347 -0.495694 8.36471e-20)
(-0.431011 0.409218 3.19413e-19)
(1.76786 0.23781 1.30821e-19)
(-0.109331 0.0933718 -2.43892e-19)
(0.83228 -0.756644 0)
(0.554036 0.324401 1.65679e-19)
(1.68701 -0.239732 -3.89922e-19)
(-0.189039 -0.38426 -4.36469e-19)
(1.06151 -0.622008 -8.56405e-21)
(1.45205 0.027044 0)
(-0.0917208 -0.076061 -2.36093e-19)
(0.713276 -0.0933919 7.76317e-20)
(1.55709 0.867834 0)
(-0.191127 0.0611751 -2.07565e-19)
(0.875883 0.750871 -2.65549e-19)
(-0.443725 -0.385572 2.556e-19)
(1.02862 -0.0255054 0)
(0.993315 -0.532596 1.07871e-20)
(-0.0823512 0.0297508 0)
(0.716972 -0.516427 -1.08151e-19)
(-0.414097 -0.294625 -1.40142e-19)
(0.805517 -0.734674 0)
(0.451399 -0.30709 4.1102e-19)
(0.559089 -0.477689 2.80172e-19)
(0.41915 -0.379405 0)
(1.00482 -0.800664 -1.34879e-19)
(0.0908596 -0.121696 0)
(-0.141771 0.0902249 -1.21476e-19)
(0.831003 -0.716361 1.43585e-19)
(2.43311 -0.268432 2.09307e-19)
(1.99036 0.0971945 0)
(-0.091396 -0.0933883 0)
(0.679857 0.631353 -3.29151e-19)
(1.81273 -0.645334 -6.43236e-21)
(-0.0515154 -0.063314 0)
(1.00672 -0.826307 -1.45191e-20)
(1.15999 -0.104761 0)
(1.0932 -0.132047 4.00659e-19)
(2.13633 -0.201661 -8.08446e-20)
(-0.0670027 -0.0480024 0)
(1.24615 -0.569757 -5.8191e-20)
(-0.284215 0.162835 -4.88761e-20)
(-0.0460995 0.0526444 0)
(1.116 -0.833462 1.19963e-20)
(1.00711 0.00504184 -6.05954e-19)
(0.669469 -0.501609 -1.05916e-20)
(0.836564 -0.535897 0)
(1.22443 -0.749045 -9.99897e-20)
(0.649777 0.215427 2.56464e-19)
(1.18099 0.128783 0)
(1.46918 0.0549546 -2.3344e-19)
(1.2202 -0.875715 -2.23392e-19)
(-0.0934547 -0.0933666 -8.76086e-20)
(-0.0746243 -0.441139 -1.35646e-19)
(1.06624 0.00352627 2.25694e-19)
(0.938324 -0.482824 -1.05186e-19)
(1.32349 -0.782063 1.45082e-21)
(0.329166 -0.31346 -1.10604e-19)
(0.71507 -0.117117 9.51838e-20)
(-0.156255 -0.0875517 -2.14791e-19)
(1.96155 -0.0923572 0)
(2.70761 -0.0116908 8.75413e-20)
(1.43442 0.635408 1.27179e-19)
(0.82971 -0.634554 -2.17204e-19)
(0.995911 0.00829031 1.2417e-20)
(0.74067 -0.552433 2.97329e-19)
(1.29436 0.786165 1.17509e-19)
(1.72609 0.017895 1.17561e-20)
(-0.0714371 -0.118239 0)
(1.08123 0.0472604 -2.33298e-19)
(-0.0631762 -0.710469 -1.96733e-19)
(1.05837 0.476359 7.7246e-20)
(0.059741 -0.131826 1.29822e-19)
(1.16448 0.0263911 -4.308e-20)
(-0.24712 0.0376929 -1.69246e-19)
(1.28434 0.568303 -7.24812e-20)
(1.1273 0.875141 0)
(-0.117537 -0.159699 -8.40846e-20)
(-0.0648854 -0.219182 0)
(0.642693 0.548459 -2.70912e-19)
(2.00794 0.0780648 -1.67878e-20)
(-0.196197 -0.298604 1.38634e-19)
(-0.294474 -0.350969 -4.98111e-19)
(0.724731 0.0538061 2.4392e-19)
(1.82957 0.0305808 -2.23774e-20)
(0.999174 -0.362679 -3.06958e-20)
(-0.0446 -0.0428505 0)
(-0.443834 0.332203 5.15356e-19)
(1.32563 0.962349 -1.09102e-20)
(0.839093 0.0574132 -1.3346e-19)
(0.549393 0.514457 1.88276e-19)
(0.527227 0.20001 0)
(-0.122622 -0.38272 -1.6818e-19)
(-0.143406 1.2264 2.85796e-19)
(1.31914 -0.97622 5.25592e-22)
(0.991116 -0.0435802 -1.88952e-19)
(-0.18278 -0.158466 6.75104e-21)
(-0.00851566 0.00728191 1.39691e-19)
(-0.253574 -0.191627 -1.53438e-19)
(1.30325 0.102426 0)
(1.12424 0.0393319 -3.12758e-19)
(2.27788 0.0434721 8.48669e-20)
(1.29883 -0.637191 1.08521e-19)
(1.74789 -0.131933 2.11272e-20)
(0.583555 0.305072 0)
(0.931271 0.737496 -1.56734e-20)
(0.677233 0.621782 1.77963e-19)
(0.918421 -0.583283 1.52659e-19)
(0.671867 0.482686 0)
(1.02284 -0.00194642 8.10533e-21)
(0.903788 -0.68364 2.17529e-19)
(0.826425 0.406148 -4.45283e-19)
(1.23519 -0.108625 0)
(-0.0453676 -0.0926517 -3.25043e-19)
(-0.107696 0.0684644 -1.04194e-19)
(1.57976 0.702436 0)
(1.37525 -0.958885 -4.49852e-22)
(-0.313271 -0.109703 0)
(-0.0484591 0.00511367 1.02622e-19)
(0.724048 0.639623 -9.507e-20)
(0.862708 -0.236582 0)
(-0.211709 -0.111326 0)
(1.60998 -0.479962 0)
(-0.915982 -0.261983 4.11299e-19)
(1.23723 -0.903488 1.4604e-19)
(1.19989 -0.621989 6.46162e-20)
(1.07698 -0.177232 -1.71702e-19)
(0.901309 -0.71399 -1.72117e-19)
(0.189116 -0.193546 0)
(-0.693832 -0.722327 0)
(1.02407 -0.530067 1.81633e-19)
(-0.08663 -0.0976509 0)
(-0.158151 0.0416588 0)
(-0.177125 -0.403981 3.75468e-19)
(0.77937 0.656793 8.24799e-20)
(1.00042 0.781404 0)
(0.682922 0.535948 -8.27254e-20)
(0.834156 -0.0609615 -2.21302e-19)
(0.732363 0.545663 -2.21054e-19)
(0.583447 0.541325 -1.62138e-19)
(-0.159096 -0.210914 3.65995e-22)
(0.73502 -0.659883 0)
(0.89467 0.159225 -3.15706e-19)
(-0.198529 -0.287343 4.94491e-20)
(0.59757 0.553031 3.641e-19)
(0.944639 0.784989 0)
(-1.3073 -0.0203176 3.21749e-19)
(-0.165507 -0.190029 2.60793e-19)
(-0.120971 -0.0615321 -1.31157e-19)
(0.651148 0.553911 -1.43779e-20)
(0.969734 -0.00827243 5.85454e-20)
(-0.216909 -0.341854 0)
(2.36814 -0.101614 -2.40987e-19)
(1.47414 0.218279 -1.53992e-19)
(0.666877 -0.617867 -7.69564e-20)
(-0.488025 -0.39691 7.84333e-21)
(1.1813 0.446001 1.72508e-19)
(0.87433 0.396245 0)
(1.06911 -0.180651 1.96123e-19)
(-0.0647172 -0.229771 -2.90877e-21)
(-0.148827 0.045358 3.91538e-19)
(0.925555 0.0168401 -5.26055e-20)
(1.09196 0.144901 0)
(1.93998 -0.0811968 -1.99483e-19)
(1.73724 0.0231967 0)
(0.537782 0.229819 -4.50109e-19)
(-0.0102945 0.00699994 0)
(-0.136289 -0.173841 2.18295e-19)
(0.720532 0.107004 0)
(0.639863 -0.535792 -1.82318e-19)
(1.1461 0.0156633 2.08496e-19)
(-0.118367 -0.0337986 3.4714e-20)
(1.87694 -0.00328324 -5.15155e-21)
(2.11537 -0.261347 -9.64482e-20)
(1.10404 0.219075 -2.12193e-19)
(-0.20854 -0.321369 -9.66041e-20)
(1.0981 -0.870503 0)
(0.816332 0.0175149 -1.51666e-19)
(0.945964 -0.394421 -2.91709e-19)
(1.752 -0.595248 -1.97457e-21)
(1.78647 0.0294038 1.57623e-19)
(1.07392 -0.00842791 3.75155e-19)
(-0.0338271 -0.26715 -1.18748e-19)
(1.0155 -0.455401 -1.29026e-19)
(0.199576 -0.192166 2.56753e-19)
(1.00805 -0.00798823 0)
(1.00484 -0.0062197 0)
(0.305387 0.577561 3.88583e-20)
(-0.148754 0.132407 -8.86371e-20)
(0.168475 -0.120464 -1.16306e-19)
(1.66075 0.0651428 2.82025e-21)
(0.556867 -0.000321177 0)
(1.67336 0.0326586 -5.17106e-20)
(0.960844 -0.836977 -8.84554e-20)
(1.81342 -0.585655 -5.72297e-20)
(1.09319 0.823659 0)
(0.484431 -0.467194 0)
(0.592399 0.501427 -1.72618e-19)
(1.08526 0.266996 -3.89372e-19)
(2.30766 -0.270821 2.85582e-22)
(0.85687 0.144051 1.35769e-19)
(-0.0220423 -0.379559 -3.35527e-19)
(1.82829 -0.414472 -5.08397e-20)
(-0.15527 -0.429059 0)
(-0.124813 -0.119082 0)
(-0.239111 -0.431361 0)
(1.3649 -0.742934 -9.84914e-20)
(-0.0505695 0.0579386 -2.08816e-19)
(-0.0196625 0.0171364 0)
(1.28363 0.964058 -2.87504e-20)
(1.10589 0.139313 -4.07428e-19)
(2.06195 0.378496 -5.04249e-20)
(1.07223 0.913268 7.50584e-20)
(-0.110422 0.112168 1.25444e-19)
(1.95024 -0.119976 0)
(-0.226882 -0.443288 -2.97102e-19)
(-0.0769131 0.06871 2.36211e-19)
(0.775584 0.0139618 1.8075e-19)
(1.53062 0.929111 9.10824e-21)
(0.775845 -0.113724 5.74176e-20)
(-0.127767 0.0786974 7.02245e-22)
(0.760581 -0.694481 -3.82205e-20)
(1.10184 -0.039768 0)
(1.63096 -0.0138701 0)
(1.07849 0.0444551 0)
(-0.17564 1.16902 -3.83288e-19)
(-0.239175 -0.442631 9.7847e-20)
(1.0342 0.831116 0)
(1.00154 -0.0100088 5.07586e-19)
(0.754201 0.588092 -2.21224e-19)
(-0.964226 0.827089 -3.43406e-19)
(0.860613 0.00290023 -4.06205e-20)
(0.73091 -0.667063 -2.2335e-19)
(1.37448 0.691103 -2.84141e-20)
(0.581016 -0.474118 -2.90218e-19)
(1.12714 -0.00219398 -4.53848e-19)
(0.821135 0.0437839 4.51476e-20)
(1.56575 -0.188384 7.75498e-20)
(2.07254 -0.0211434 -6.61258e-20)
(-0.0384165 -0.0377487 3.30081e-22)
(1.06729 0.455317 -2.57507e-19)
(1.3656 0.611946 8.27622e-20)
(-0.18339 -0.127773 0)
(-0.0239956 -0.412244 1.24911e-19)
(-0.0828727 -0.183398 1.37845e-19)
(-0.173486 -0.132133 -1.0946e-19)
(0.46418 0.288986 0)
(0.945976 0.484715 0)
(-0.0552413 0.0492081 -1.42476e-19)
(-0.195734 -0.310084 -5.08473e-20)
(1.04495 -0.0309954 1.79855e-19)
(-0.0268274 -0.12897 -4.04122e-20)
(0.926092 -0.0177887 -1.42213e-19)
(-0.21403 0.0915643 0)
(0.851234 -0.754889 -3.10523e-19)
(2.06678 -0.0623843 1.31775e-19)
(-0.0915128 -0.521473 1.2624e-19)
(0.715505 0.140128 3.22006e-19)
(0.619644 0.113203 1.04302e-19)
(0.513652 -0.487397 2.02767e-19)
(-0.0623871 -0.0864847 -1.19023e-19)
(1.02463 0.0123876 0)
(0.380728 0.322328 -1.90753e-19)
(1.02726 -0.0168073 -2.86556e-19)
(-0.304658 -0.343238 1.96797e-19)
(1.40682 0.457093 -1.08806e-19)
(-0.102258 -0.122668 -4.40011e-20)
(0.698466 -0.637842 -6.34959e-20)
(0.809774 0.168573 -2.015e-19)
(0.96467 0.410823 2.20682e-20)
(1.16144 -0.145652 3.53105e-20)
(0.617892 -0.254072 -2.97314e-19)
(2.04609 -0.371905 -1.0585e-19)
(1.84425 0.117001 0)
(1.63591 0.540511 -2.18412e-20)
(1.92419 0.11064 -1.45707e-20)
(0.648757 -0.194154 8.55207e-20)
(1.06707 0.355019 -2.04599e-19)
(1.7557 -0.55378 2.62064e-20)
(0.408976 0.37384 -2.46758e-19)
(-0.271191 -0.112394 1.61957e-19)
(1.93717 -0.22429 0)
(0.93316 0.00381909 0)
(0.890371 -0.787698 6.14087e-20)
(-0.161013 -0.213149 -2.85788e-19)
(-0.617071 -0.59368 -1.56009e-19)
(-0.0498858 -0.05215 -1.87594e-19)
(-0.227095 0.00027817 -1.21356e-19)
(-0.168808 -0.462555 0)
(-0.11461 -0.110303 3.29489e-20)
(-0.175594 0.135323 -9.81044e-20)
(-0.0095686 0.00462976 -3.16917e-19)
(0.80968 -0.130099 0)
(1.84355 0.171387 7.82292e-20)
(-0.0630804 -0.10329 0)
(0.99344 0.0240859 3.65339e-19)
(-0.0501164 -0.423685 1.8517e-20)
(0.556338 -0.44577 3.89015e-19)
(-0.273847 -0.725626 3.25075e-19)
(-0.912868 -0.110183 0)
(-0.118442 0.136222 1.02353e-19)
(1.00422 0.0212591 -1.10001e-20)
(-0.105996 -0.129837 0)
(1.00508 -0.00893917 -5.66909e-20)
(0.880947 -0.744342 -2.93969e-19)
(0.356365 0.278625 0)
(0.948097 -0.285986 2.0864e-19)
(-0.181541 0.10233 1.73e-19)
(-0.0422189 -0.0373914 0)
(-0.130162 -0.404017 -4.72747e-21)
(0.744365 -0.651017 -4.27067e-19)
(0.970086 -0.0318437 -2.67819e-19)
(-0.149673 -0.233359 3.40556e-19)
(-0.140746 -0.176491 1.32905e-19)
(-0.168053 -0.444905 0)
(0.945648 0.459572 0)
(-0.0903043 -0.495899 1.49792e-19)
(1.7002 -0.197312 -1.8552e-19)
(1.06487 0.885365 1.73301e-20)
(1.06273 0.203315 -1.20378e-19)
(1.15308 0.00658448 -2.25122e-19)
(1.0597 -0.0728152 -8.18905e-20)
(-0.136315 -0.277096 -3.12738e-19)
(1.58156 0.0248098 2.37306e-19)
(0.658579 0.0340887 2.00814e-19)
(1.97075 -0.135044 1.22605e-19)
(1.05719 -0.157927 0)
(0.576217 -0.00271025 6.15315e-19)
(1.14458 0.0249454 -4.95018e-19)
(1.7371 0.595592 1.03623e-21)
(0.758365 -0.474903 -1.60773e-19)
(-0.0871529 -0.0728716 1.7651e-19)
(0.814938 -0.715776 3.8517e-19)
(1.22607 0.193834 7.1029e-20)
(1.00678 -0.00779839 2.51074e-19)
(-0.0158711 -0.364491 -1.30672e-19)
(1.02095 0.0126399 0)
(1.75742 0.208275 -1.8713e-19)
(-0.062954 -0.0508771 0)
(1.01303 0.012019 -1.48691e-19)
(-1.2949 0.196226 -5.14692e-19)
(1.71378 0.272069 2.99205e-20)
(-0.156803 -0.398453 1.68254e-19)
(1.55685 0.0292454 -3.86487e-21)
(1.01402 -0.0197063 5.19283e-20)
(1.33001 -0.0857572 0)
(1.47074 -0.625852 -1.55159e-19)
(1.01917 0.0275966 -1.52962e-19)
(1.43233 0.774337 -4.55529e-20)
(1.36339 -0.0534009 0)
(2.03807 0.0605514 -8.441e-21)
(-0.0680878 0.0562715 0)
(1.39587 0.0407427 0)
(-0.242953 -0.414723 0)
(1.2292 0.438585 0)
(1.88794 0.184097 4.75809e-20)
(0.728282 0.601299 3.8767e-19)
(0.296473 -0.298141 -2.40005e-19)
(-0.184949 -0.274225 -3.12494e-19)
(-0.0548455 -0.0484535 0)
(2.61675 0.103668 6.61769e-20)
(1.41031 0.513335 0)
(1.44979 0.279341 0)
(-0.228332 -0.476749 1.28963e-19)
(0.799383 0.704489 1.22942e-19)
(1.7263 -0.0330114 0)
(-0.123442 -0.163242 7.70371e-20)
(0.902085 0.205788 1.85258e-19)
(1.91066 0.041396 -7.69682e-20)
(1.23242 0.915118 4.12214e-20)
(0.937324 -0.843655 -3.91636e-20)
(1.93827 0.0562813 -7.12748e-20)
(0.786628 0.709655 1.2588e-19)
(1.1713 0.91553 0)
(1.8411 0.136885 6.04569e-20)
(1.2324 0.571349 0)
(1.88563 0.00106298 1.57868e-19)
(1.20894 0.0831773 2.32785e-19)
(1.00505 -0.0056441 0)
(0.790522 0.578105 6.52105e-19)
(0.898002 -0.187111 4.78601e-20)
(0.646855 -0.430306 0)
(0.684265 -0.402446 2.10581e-19)
(1.2279 0.545241 -3.17912e-20)
(0.469067 0.4412 2.6992e-19)
(-0.00916086 -9.63478e-05 3.72983e-20)
(0.241353 -0.16342 1.06406e-19)
(0.772159 0.0678294 0)
(1.34592 -0.919393 -9.0029e-20)
(1.03033 -0.0441397 3.98962e-19)
(1.58157 0.329986 1.61974e-19)
(-0.149764 -0.216132 6.62073e-20)
(-0.246681 -0.835942 0)
(1.24253 -0.248297 -1.16647e-19)
(-0.0405504 -0.0362261 -1.5148e-19)
(0.765993 -0.372849 -6.06242e-20)
(-0.149801 0.0850506 -1.14077e-21)
(-0.211454 0.1219 3.26347e-19)
(1.29798 -0.770221 5.09616e-20)
(2.44516 -0.0819305 3.2268e-19)
(1.17952 0.444079 -2.78186e-19)
(0.846554 -0.0605925 0)
(1.72269 -0.052052 1.40144e-19)
(1.91767 0.108771 8.72906e-20)
(0.931273 -0.782723 1.45049e-19)
(1.17447 -0.99122 -4.76897e-20)
(0.473966 0.439002 1.80647e-19)
(1.45909 0.0759251 0)
(1.75313 0.544383 3.56977e-20)
(-0.0507404 -0.0478918 -3.08922e-19)
(0.875425 0.762056 0)
(1.12404 -0.286747 0)
(0.29775 -0.297806 -3.62571e-21)
(0.314571 0.284458 0)
(-0.121203 -0.853289 -3.24105e-19)
(-0.027938 0.00508449 -1.09259e-19)
(1.75292 -0.449018 0)
(1.18787 0.0891996 1.72413e-19)
(-0.569599 -0.583684 1.29052e-19)
(0.545433 -0.5179 -4.66311e-19)
(1.98643 -0.107926 -4.11452e-20)
(0.624203 -0.56741 0)
(1.01017 0.124489 0)
(1.3692 -0.265253 0)
(1.11325 0.220086 -2.26439e-19)
(1.32932 0.0978507 3.20462e-19)
(-0.788877 -0.262804 0)
(0.889183 -0.0682133 0)
(1.90331 0.00731873 2.30204e-21)
(-0.0600415 0.0318067 1.06626e-19)
(1.88496 0.00913744 -1.10038e-19)
(1.06974 -0.522654 1.55862e-19)
(1.59638 0.0418589 -1.46977e-19)
(-0.512669 -0.582824 -1.05557e-19)
(1.72827 0.0118151 -1.18519e-19)
(1.01858 -0.028159 4.12543e-19)
(1.50952 0.580651 0)
(-0.072906 0.0516381 2.96249e-20)
(1.02401 -0.846268 1.81517e-19)
(0.860757 -0.030668 4.74805e-20)
(0.651109 -0.453034 0)
(1.93465 -0.553323 2.10917e-21)
(1.22783 -0.198665 1.54372e-19)
(1.72318 0.0572991 0)
(0.619491 -0.575172 4.55881e-19)
(0.874741 0.0271216 -2.9706e-20)
(2.02792 0.0497392 1.93001e-19)
(-0.0432913 0.0347509 -2.14955e-19)
(1.32176 0.605107 1.39056e-19)
(1.13883 0.39581 3.52842e-21)
(0.896628 0.358902 2.18699e-19)
(1.9235 -0.0595738 -2.28004e-19)
(-0.13455 -0.307959 -8.92975e-22)
(0.545796 -0.231785 0)
(-0.146092 -0.110121 2.89761e-19)
(1.10706 -0.96421 0)
(1.08472 -0.670233 2.22802e-20)
(1.05183 -0.167693 -5.30439e-19)
(-0.0553721 -0.467949 7.04408e-20)
(-0.22351 -0.470282 -3.04295e-19)
(0.977866 0.47008 1.69169e-19)
(0.311901 1.02969 4.23577e-19)
(0.687449 -0.0390611 0)
(1.76293 0.0920595 0)
(1.49379 0.145602 1.93972e-20)
(0.784498 -0.016061 0)
(1.38005 -0.214249 -1.58847e-19)
(-0.556822 -0.80305 3.78391e-19)
(1.90831 0.474675 2.29097e-20)
(1.03787 -0.034679 0)
(0.566797 -0.372572 1.04268e-19)
(1.00829 0.0267991 1.95961e-19)
(0.708187 0.856474 -3.48997e-19)
(-0.278909 -0.0702577 0)
(1.13169 -0.493686 5.00246e-19)
(1.99162 -0.00654389 -1.98634e-22)
(1.11869 -0.511628 -2.17665e-19)
(2.21446 0.175879 1.44383e-19)
(1.27861 0.779274 0)
(0.864312 0.0181514 0)
(-0.206512 -0.336723 -1.71306e-19)
(-0.0567809 0.0399562 1.60364e-19)
(0.94014 0.354071 -2.01576e-19)
(0.111407 -0.329069 -1.07856e-19)
(0.637059 0.390142 2.36947e-19)
(1.58693 -0.00264677 0)
(0.548176 -0.509603 0)
(0.332361 -0.463118 -1.34737e-20)
(1.25067 -0.521984 -1.0263e-19)
(0.696375 -0.0305018 1.10877e-20)
(0.739409 -0.173569 1.17198e-19)
(-0.0872409 0.0239999 -2.84084e-19)
(0.992271 -0.112923 1.07145e-19)
(0.655225 0.610128 0)
(1.26092 0.682528 0)
(1.59299 0.248234 0)
(-0.217607 -0.441316 -1.3557e-19)
(1.30079 0.560142 2.23678e-19)
(2.0825 0.0593626 4.01306e-20)
(0.919572 -0.0128071 0)
(2.74721 -0.247861 0)
(1.88464 -0.0513885 -1.84871e-19)
(0.894421 0.852522 4.06515e-19)
(1.00524 0.00418099 -1.95707e-19)
(1.48287 0.472735 0)
(-0.242401 0.00808377 0)
(1.23132 0.305455 2.77202e-19)
(1.0123 0.514853 -1.2522e-19)
(1.06935 0.0199474 0)
(1.61427 -0.154428 0)
(2.02969 0.637148 -3.26593e-19)
(-0.121054 0.0950461 1.00205e-21)
(0.996809 0.0124128 0)
(0.697403 0.456186 -3.24953e-20)
(0.952115 -0.839376 0)
(0.999837 0.0154811 4.55515e-20)
(0.581346 -0.0462747 -3.99311e-19)
(0.917631 -0.337381 3.07677e-19)
(0.528844 -0.52354 2.38295e-19)
(2.19681 -0.163351 2.51279e-19)
(1.37948 0.231266 7.61097e-20)
(0.792221 -0.0334634 0)
(1.01917 0.00773984 0)
(-0.122461 -0.654617 0)
(0.661222 0.632601 -1.81427e-19)
(-0.0638416 0.0206308 1.91147e-19)
(1.1591 0.340454 -4.44822e-19)
(-0.171179 -0.131788 0)
(0.81673 0.628617 1.62664e-19)
(1.02239 -0.347479 0)
(1.0057 -0.00132213 1.14472e-19)
(0.97728 -0.0727015 7.27145e-20)
(1.02407 0.392604 2.47706e-19)
(1.26494 -0.0441122 0)
(2.06409 0.0545585 -5.08641e-20)
(0.831911 -0.126373 -3.60652e-19)
(-0.43424 -0.791429 -4.97583e-19)
(1.47898 0.281121 0)
(0.871955 0.226529 1.71135e-19)
(1.98645 -0.193958 0)
(0.764505 0.505916 3.52294e-19)
(-0.728611 -0.743394 1.9123e-19)
(-0.0346048 0.0171052 0)
(0.585305 0.556084 -6.84928e-20)
(1.04726 -0.658124 -1.56112e-19)
(0.491467 -0.272923 -1.20275e-19)
(1.02147 -0.0193121 0)
(-0.35412 -0.278509 -1.23699e-19)
(0.653244 -0.583987 8.13966e-20)
(0.899237 0.274573 0)
(1.65305 0.214108 6.25894e-20)
(0.97428 0.827769 2.31139e-20)
(0.674919 -0.342239 3.72214e-19)
(0.100117 -0.0366168 -2.06921e-19)
(0.238924 -0.0750487 -5.42794e-19)
(-0.10998 -0.115509 8.10973e-21)
(0.808175 0.341278 2.40192e-19)
(-0.0548749 0.0516072 -5.00604e-21)
(1.4353 -0.664482 3.35502e-21)
(1.02394 0.00442353 -3.40806e-19)
(-0.215204 -0.472465 0)
(1.03183 0.028119 -3.98593e-19)
(2.25815 0.10299 1.89559e-19)
(0.874813 0.676246 2.71662e-19)
(1.14144 -0.0759901 1.60379e-19)
(1.00629 -0.0356494 1.57718e-19)
(-0.0677763 -0.0851661 -6.85219e-20)
(-0.101799 -0.130535 -3.9448e-22)
(1.74936 -0.891451 1.5166e-20)
(1.14443 -0.126282 -8.01628e-20)
(0.83182 0.0495026 9.22311e-20)
(0.923787 -0.308059 8.96921e-20)
(0.600216 0.00495508 0)
(0.949692 0.721187 0)
(0.926625 -0.212403 -8.6625e-20)
(1.88998 0.158733 -1.78678e-20)
(-0.291562 -0.793216 1.37958e-19)
(1.04737 -0.554404 -5.24359e-19)
(0.632402 -0.550763 3.8884e-19)
(1.38576 0.0259497 -1.01699e-19)
(0.0504124 -0.27549 1.28484e-20)
(1.68895 -0.445272 0)
(0.751604 0.0971701 -6.62717e-21)
(1.81744 -0.237493 -3.31311e-19)
(1.02784 0.748309 0)
(1.19385 -0.0173842 0)
(-0.397445 0.107413 0)
(-0.0976616 -0.114534 -5.26377e-20)
(0.0123832 0.169361 0)
(1.88529 0.836178 4.13798e-19)
(1.21024 0.178502 6.17519e-21)
(-0.658451 -0.204313 2.33176e-19)
(1.21811 0.100534 -1.1639e-20)
(1.82294 0.408905 -7.76861e-20)
(2.17349 -0.332976 -2.73632e-20)
(-0.185726 0.0540806 -2.30461e-19)
(-0.136161 -0.42799 3.52214e-21)
(0.964834 0.0304487 0)
(0.673021 -0.0340462 0)
(1.00047 0.000352357 1.88974e-22)
(-0.204257 -0.458548 0)
(1.50538 -0.00342838 -6.48812e-20)
(0.67628 -0.0307863 0)
(1.06454 0.00749059 1.28526e-19)
(0.987154 0.0154438 -4.45537e-20)
(0.824417 0.0225677 7.45852e-20)
(1.0602 -0.0198649 -9.11594e-22)
(0.959859 -0.202646 -5.40694e-20)
(1.02777 -0.0359453 3.67114e-19)
(0.687179 -0.625517 1.84486e-19)
(-0.744345 0.0981094 -2.77999e-19)
(1.58526 -0.164218 -2.28128e-20)
(-0.061972 0.0353471 0)
(1.11492 0.782041 0)
(1.03029 -0.0108964 0)
(1.02284 -0.791728 -1.0898e-19)
(1.05531 -0.904725 5.13587e-20)
(1.21808 -0.235715 2.23851e-20)
(0.407461 -0.301483 -1.20947e-18)
(0.523012 -0.28715 -6.13963e-20)
(0.599651 -0.404282 -6.25649e-19)
(1.69518 0.122608 -4.05239e-20)
(0.0955257 -0.339685 1.4345e-19)
(2.09761 -0.32844 7.77259e-20)
(0.88611 -0.102024 -1.04746e-20)
(-0.124135 -0.163733 -1.12947e-19)
(1.10191 0.540838 1.88841e-19)
(-0.187719 -0.231747 0)
(0.12302 -0.401864 2.6714e-19)
(-0.132927 -0.127778 -6.59886e-23)
(1.02618 -0.0446786 3.27286e-19)
(1.02442 -0.00215365 -8.456e-21)
(1.1079 -0.0121426 -9.05475e-20)
(0.925728 0.197501 -1.80297e-19)
(1.60559 0.306341 5.41703e-20)
(0.409034 -0.384651 -3.11909e-19)
(1.86297 -0.289037 -2.12057e-20)
(1.03603 -0.00222458 -2.42011e-19)
(1.11553 -0.0930204 2.34827e-20)
(1.23523 -0.0220244 0)
(1.09879 0.579214 -3.53648e-19)
(1.00243 -0.00422995 9.34512e-20)
(0.665259 0.592396 2.51611e-19)
(1.57463 -0.39419 1.11347e-20)
(1.0641 -0.0123093 -2.96161e-20)
(1.12472 0.0106658 8.42066e-22)
(1.96722 -0.0165824 8.66836e-21)
(0.714639 -0.131497 0)
(1.04345 -0.040324 0)
(1.04922 -0.0346492 5.74151e-19)
(1.00267 -0.00245844 0)
(-0.0878352 -0.0790722 0)
(0.956661 -0.587855 0)
(1.00109 -0.000273537 -5.43465e-19)
(1.17774 -0.698945 8.83393e-20)
(1.02383 -0.00533999 1.14313e-20)
(1.33755 0.94277 -2.22686e-20)
(1.52528 0.990299 -3.00204e-20)
(0.671259 -0.218446 1.10004e-19)
(1.66481 0.125187 2.45334e-19)
(1.28752 0.374747 0)
(-0.188035 0.116495 0)
(2.14467 -0.164238 3.94786e-19)
(1.0008 0.362219 0)
(0.99991 -0.0046659 -1.68135e-19)
(1.01055 -0.000805348 3.2675e-19)
(1.42715 0.131228 -6.66074e-20)
(-0.00701457 -0.117729 2.25212e-19)
(0.973106 -0.00119061 1.77404e-19)
(1.33086 -0.0813919 -1.89327e-20)
(1.34221 -0.194108 1.59387e-21)
(0.816028 0.213499 -2.04889e-21)
(0.931617 0.0174045 -1.79505e-19)
(1.004 0.00408546 2.11354e-19)
(1.00003 -8.5296e-05 1.24738e-20)
(0.789721 -0.0129059 0)
(0.727898 -0.0266032 0)
(0.723339 -0.0269646 7.72739e-22)
(0.698643 -0.0288461 0)
(1.92589 -0.041259 0)
(1.52184 -0.200965 0)
(0.838534 -0.145855 -2.72788e-20)
(0.947245 -0.21136 1.484e-20)
(1.50144 -0.315576 0)
(0.552091 -0.0290817 1.06533e-19)
(0.625269 0.565704 0)
(1.42633 0.173069 0)
(1.27303 -0.0500463 0)
(1.01977 -0.159912 -1.09689e-21)
(0.543118 0.0289535 3.91083e-20)
(0.779131 0.0221965 0)
(0.78593 0.0197838 0)
(0.969183 0.0199851 -2.2117e-19)
(0.813709 0.00833597 4.123e-19)
(1.00865 -0.00131581 0)
(1.00031 -0.000498244 3.9031e-19)
(1.00018 -0.000678985 -3.0911e-22)
(0.785685 0.021438 3.51186e-19)
(0.993885 -0.00716311 -2.03737e-19)
(1.42946 0.0202477 0)
(1.24454 -0.180312 -1.59479e-21)
(1.00067 -0.000992878 -1.97161e-19)
(0.999596 0.00137528 -3.38548e-19)
(1.40867 0.568399 0)
(0.998829 0.00188044 0)
(0.999787 0.000323028 0)
(1.97709 -0.56676 7.78193e-20)
(-0.010796 -0.0543401 -1.30981e-19)
(1.70036 -0.334396 0)
(-0.0111944 -0.100026 1.87516e-19)
(0.401601 0.538248 -6.40504e-19)
(1.0197 -0.0180837 -2.62753e-19)
(-0.226875 -0.392245 -9.66431e-20)
(1.01826 -0.00034782 -2.1182e-19)
(1.18722 -0.219361 -1.08361e-19)
(0.815155 -0.489824 3.0364e-19)
(-0.0530138 -0.0487556 -7.55136e-20)
(1.03099 0.0102332 0)
(1.04886 -0.0142515 -5.68873e-20)
(0.860553 0.0229742 0)
(-0.134974 0.0565699 2.8427e-19)
(1.12694 0.0747417 0)
(-0.237941 -0.45933 -2.53249e-19)
(1.11341 -0.117908 1.87336e-20)
(1.65112 0.660333 1.42133e-20)
(-0.0934831 0.0537676 0)
(1.05281 -0.0380183 1.77496e-19)
(0.298953 -0.0709286 -1.34647e-20)
(0.927162 -0.0203718 2.78478e-19)
(1.0122 -0.00882178 -1.7886e-19)
(1.67606 0.839762 4.87189e-20)
(0.515227 0.48193 0)
(0.435474 0.383865 1.99271e-19)
(2.5323 -0.39032 -1.31377e-20)
(1.14294 0.121446 1.88115e-19)
(1.10737 -0.728825 0)
(1.0214 0.00156972 0)
(0.999925 -0.0184496 -4.12027e-19)
(1.01894 0.0148542 -4.02367e-19)
(-0.145367 -0.166777 0)
(1.21232 0.808893 -1.19958e-19)
(1.62266 -0.498131 -1.18562e-20)
(1.0161 0.00404754 1.5468e-19)
(1.01218 0.0132382 -1.94207e-19)
(-0.234486 -0.4695 -2.53765e-20)
(0.220875 -0.232499 2.54006e-19)
(1.01812 -0.0170066 6.5945e-19)
(1.75521 -0.778795 0)
(1.86511 0.608851 -5.66194e-20)
(1.01567 -0.0132546 -2.05551e-19)
(2.08199 0.128123 -1.0957e-19)
(1.06123 0.00453194 -4.72552e-22)
(1.0095 -0.00991293 4.10937e-20)
(2.07762 -0.248506 -2.18954e-19)
(1.01626 0.00644793 1.99664e-19)
(-0.0260459 -0.591322 -2.43211e-20)
(1.0188 0.000585344 0)
(0.929264 0.138194 4.84992e-20)
(-0.523513 -0.301158 6.48911e-21)
(1.00099 0.0213406 1.98409e-19)
(1.04176 0.020225 -5.76281e-22)
(1.47069 -0.481803 5.07314e-20)
(1.24943 0.31065 3.93729e-19)
(0.997288 0.0148174 1.3648e-19)
(1.01703 -0.0151875 4.98392e-22)
(1.71476 0.220249 -1.97914e-20)
(1.80865 0.93689 -1.13392e-19)
(0.788512 -0.707844 6.00867e-20)
(0.463489 -0.347592 -3.01851e-19)
(1.00798 -0.011216 0)
(1.02076 0.00191856 4.95948e-20)
(1.01094 -0.00951315 1.04424e-19)
(-0.460572 -0.428674 -1.88476e-20)
(1.01442 0.00448826 -2.07851e-19)
(1.03105 -0.0272156 2.38556e-19)
(1.0084 -0.00774527 -1.95221e-19)
(1.01386 0.00448653 -4.94481e-22)
(1.0132 0.00237893 -3.75598e-22)
(1.02549 0.0131577 1.99064e-19)
(0.899963 0.0748663 5.00817e-19)
(1.83814 0.793097 0)
(0.704954 -0.43727 2.36182e-19)
(1.01126 -0.00484923 0)
(1.02143 -0.0217404 -5.76107e-20)
(1.51953 0.418457 -7.53051e-20)
(1.89347 -0.029786 0)
(1.85453 0.124364 -6.91296e-20)
(1.50529 1.14422 -6.96973e-20)
(0.746357 -0.0186799 0)
(1.8408 -0.196876 0)
(0.392315 1.57663 -2.88173e-19)
(-0.0197365 -0.502958 4.72369e-20)
(1.01727 -0.00571262 -2.09325e-19)
(1.13699 -0.57902 -6.18721e-20)
(1.4461 -0.752111 9.08932e-20)
(0.269786 0.0315755 0)
(1.83456 -0.339564 0)
(1.97049 0.613278 0)
(-0.158276 -0.126279 9.5676e-20)
(-0.351106 -0.707243 -1.65588e-19)
(-0.244198 1.65669 0)
(-0.19894 -0.0123602 -1.89501e-19)
(1.70359 0.950332 -7.15783e-20)
(1.00778 -0.00367289 -4.0924e-19)
(-0.725601 -0.528498 -7.15794e-20)
(1.02199 0.00440502 2.71039e-19)
(0.678891 -0.0420382 0)
(-0.159135 -0.168431 -2.29475e-20)
(0.603026 0.41522 -3.33838e-19)
(1.22304 0.674713 4.68107e-20)
(-0.0456613 0.103409 0)
(0.811778 0.0701266 8.02963e-20)
(0.51444 0.490657 5.03737e-20)
(1.17769 0.873427 -3.21205e-20)
(-0.0646036 -0.0567047 1.11925e-19)
(1.01886 0.00911178 0)
(0.0341122 -0.770775 -2.63562e-20)
(1.01151 -0.00342597 1.53571e-19)
(2.07941 0.021866 0)
(1.01159 0.00702165 2.57652e-19)
(0.151401 -0.363916 -1.25618e-19)
(1.01903 0.00905417 -1.59427e-19)
(0.430462 -0.738496 0)
(2.50669 0.121679 2.14836e-22)
(1.0089 0.00348912 -1.06988e-19)
(0.994519 -0.0359451 2.82368e-19)
(1.08907 0.0891864 -3.11544e-21)
(0.188379 -0.116827 -3.72716e-21)
(-0.133136 -0.108134 2.94341e-19)
(2.02199 0.144709 1.62775e-19)
(-0.24257 -0.121797 -6.05316e-22)
(0.798769 0.0149113 -3.86742e-19)
(0.79918 0.02534 0)
(-0.116052 -0.566804 -9.77579e-20)
(1.02161 -0.0193578 -3.09515e-20)
(0.974461 0.0179458 0)
(1.05107 -0.00208997 -1.96067e-19)
(0.069666 0.206632 1.64549e-19)
(-0.31893 -0.677083 2.34729e-19)
(2.19185 -0.60516 0)
(-1.25665 -0.130902 -5.58087e-19)
(1.53844 -0.354431 0)
(1.03956 -0.0184772 5.75983e-20)
(1.59138 0.297713 7.02756e-21)
(1.01363 -0.00409203 1.66226e-19)
(-0.889035 -0.524311 3.09294e-19)
(1.01854 0.00207441 0)
(0.993715 0.00380205 -3.99316e-19)
(1.00821 0.00778362 2.11302e-19)
(1.26594 -0.28808 0)