/*--------------------------------*- C++ -*----------------------------------*\
| =========                 |                                                 |
| \\      /  F ield         | OpenFOAM: The Open Source CFD Toolbox           |
|  \\    /   O peration     | Version:  2306                                  |
|   \\  /    A nd           | Website:  www.openfoam.com                      |
|    \\/     M anipulation  |                                                 |
\*---------------------------------------------------------------------------*/
FoamFile
{
    version     2.0;
    format      ascii;
    arch        "LSB;label=32;scalar=64";
    class       surfaceScalarField;
    location    "44.2";
    object      phi;
}
// * * * * * * * * * * * * * * * * * * * * * * * * * * * * * * * * * * * * * //

dimensions      [0 3 -1 0 0 0 0];

oriented        oriented;

internalField   nonuniform List<scalar> 
3181
(
-1.08086
0.41975
0.661106
-0.433886
0.401829
0.0320564
0.570841
-0.394974
-0.175867
0.136852
-0.223982
0.0871298
0.0353824
-0.0474889
0.0121065
0.322577
-0.075557
-0.24702
0.165616
-0.158627
-0.00698929
0.0703172
0.00541104
-0.0757282
0.51663
-0.956305
0.439675
-0.0739596
0.15417
-0.08021
-0.00997197
-0.0453807
0.0553526
0.210112
0.0187681
-0.228881
-0.00878072
-0.0601012
0.068882
-1.10927
0.147485
0.961782
-0.347142
0.772574
-0.425432
-1.11689
0.629912
0.48698
0.0868531
-0.932028
0.845175
-0.213445
0.21299
0.000455321
0.851749
-1.54072
0.0356098
-0.0235822
-0.0120276
0.0114704
-0.0703976
0.0589272
-0.0568531
0.0536403
0.00321284
1.07722
-1.04725
-0.0299642
0.0536854
0.0324383
-0.0861237
-0.960024
0.321776
0.638248
-0.115566
0.252418
0.31842
-0.227334
-0.0910858
0.0331287
0.0702998
-0.103428
-0.383234
0.313893
0.0693412
-0.0320514
-0.0277837
0.0178755
0.0099081
-0.0305342
-0.92949
-0.0286587
-0.0497754
0.0784341
-0.0618331
0.856956
-0.795123
-0.0382945
0.0392589
-0.000964385
0.168751
0.256399
-0.425149
0.738879
-0.800712
0.0624867
-0.0510163
1.38975
-0.748662
-0.641089
0.107047
0.21553
-0.11629
0.107509
-0.0601972
0.00334405
-0.460947
0.113805
-0.100375
0.040178
-0.606688
0.133049
0.473639
-0.167195
0.093235
-0.189183
0.194104
-0.0049209
-0.293532
-0.0853254
0.378858
0.105312
1.43828
-1.5436
0.00676463
0.0753277
-0.0820923
0.00782615
-0.0900894
0.0954015
-0.00531209
0.533352
0.239222
-0.0983227
0.120418
-0.0220952
0.123957
-0.152616
-0.188597
0.217953
-0.029356
0.178737
0.0715571
-0.250294
0.122178
-0.128809
0.00663067
1.13557
0.25418
-0.880373
-0.200483
0.125616
-1.62988
1.50427
0.525753
0.211873
-0.737625
-0.422896
-0.187583
0.610479
-0.390495
0.497542
-0.25028
0.776033
-0.34967
-0.113772
0.463443
-0.195936
-0.187298
-0.205079
0.158812
0.0462674
0.100745
0.29865
-0.399395
-0.498494
1.01512
-0.0166428
0.08696
-1.97008
2.09569
0.215045
0.103375
-0.199598
-0.115941
0.315539
-0.274194
0.337738
-0.0635444
-0.0923987
0.100741
-0.00834252
-1.86477
-0.918768
0.00677445
0.911994
-0.0522268
0.0139323
-1.01726
0.711507
0.305751
0.371906
-0.0958353
-0.276071
-0.497622
0.107127
1.10474
-0.957253
-0.673176
1.16267
-0.200885
1.0742
0.147435
-0.18064
0.0332046
0.484211
-0.559768
0.268303
-0.268303
-0.00738385
-0.00287164
0.0102555
-0.234439
-0.0555758
0.290015
-0.0323131
0.000307778
0.0320054
-0.452945
0.860066
-0.40712
0.00519144
-0.268696
0.263505
-1.09275
0.0454942
0.321549
0.054575
-0.376124
0.136955
-0.819865
1.03174
-0.0332011
0.0310249
0.00217619
-0.0179788
-0.170618
-0.386773
-0.182041
0.568814
0.00433695
-0.39111
0.108217
-0.928082
0.346799
-0.799745
0.927766
-0.840913
0.104775
-0.0244949
-0.0802798
0.0696011
0.0476779
-0.117279
-1.27258
-0.256839
1.52942
-0.271217
0.441397
-0.17018
-0.53032
0.835579
-0.305259
-0.437977
-0.57928
0.00941528
-0.00265065
-0.170454
0.163968
0.00648614
-0.0745045
-0.00442877
0.0789333
-0.773452
-0.182853
-0.143285
0.0491905
0.0940947
-1.68346
-0.0638589
1.74732
2.00106
-0.56278
-0.0242972
0.0169133
0.0655078
0.149537
-0.186708
0.355458
0.0372356
0.142076
-0.179311
0.126298
0.0627856
-0.189084
0.130582
0.246007
-0.376589
-0.596568
-0.520323
-1.08829
-0.595173
0.011593
-0.0447941
-0.121989
0.202631
-0.0806418
-0.0828631
0.0271212
0.138495
-0.0595881
0.0836107
-0.0240226
-0.107727
-0.0261361
0.133863
0.086065
-0.086065
-0.203024
0.230145
0.376243
0.112563
0.115569
0.102384
-1.29976
0.801266
-1.46378
0.103001
1.36077
0.0439696
-0.0383934
-0.00557622
-0.0243419
-0.0460011
0.0703429
0.555807
0.000787814
-0.556594
-0.0496121
0.0506248
-0.00101274
-0.219184
0.0161594
0.157722
0.702344
-0.384275
0.541996
0.00540928
-1.27799
0.0388967
-0.0035143
0.522405
-0.326601
-0.195804
-0.0608859
0.0608588
2.70416e-05
0.053584
-0.347116
0.0252334
-0.944002
0.0527316
-0.17472
-0.315164
-0.434996
0.0491127
1.29946
-0.874913
-0.424542
1.01889
0.280561
0.0748643
0.303994
0.0408061
0.00316353
-0.0905517
0.0495383
0.0410135
-0.262461
-0.56825
0.83071
-0.387158
1.33596
-0.451171
-1.08955
0.263798
-0.0159604
0.0046221
0.0113383
-1.57877
0.519013
1.05976
-0.413147
-1.16563
-0.290324
0.611874
-0.906795
-0.0213512
0.00277817
-0.248341
0.245563
1.34557
-1.46403
0.118454
0.0191593
0.0197374
0.552948
-0.815408
0.271673
-0.21578
-0.0558932
-0.281967
-0.10401
0.385976
0.247837
-1.01343
-0.0793181
0.0416318
-0.0536594
-0.518907
0.331324
-0.22886
0.017792
0.211068
-0.0127881
0.0319474
0.0650437
-0.0650437
-0.107154
0.116757
-0.00960336
-0.272646
-1.19113
0.0923061
0.0310935
-0.1234
-0.0737844
0.0228054
0.050979
-0.207564
0.00248459
1.39282
-0.507355
-0.885465
-0.215874
0.480395
-0.264521
0.0221707
-0.021657
-0.000513638
0.487908
-1.01823
-0.172606
-0.00415392
0.176759
-0.193423
0.294168
-0.0905001
0.0889105
0.0015896
0.0726181
0.00839166
-0.0810098
-0.0932495
0.130457
-0.0372071
0.096725
-0.123164
0.0264393
-0.242724
-0.0548753
0.297599
-0.712907
0.662773
0.0501335
-0.0118903
0.0443286
-0.0355952
0.0385487
-0.00295347
-0.0356975
-0.0504262
0.997088
1.00398
0.180318
-0.872553
0.692235
0.0275909
1.96162
-1.98921
0.408633
-0.128592
0.396895
0.0459134
0.188194
-0.0618959
-0.0638973
-0.0261921
0.259964
0.140787
-0.0711862
0.739898
-0.418122
0.0658267
0.224188
0.0356169
-0.147483
0.111866
-0.810079
-0.128399
0.938478
-0.0491576
0.0491576
0.0549992
-0.252568
0.508966
0.0103091
-0.253033
0.16362
0.0493699
-0.0346143
0.0462074
0.122291
-0.132263
-0.347001
0.352192
-0.00775422
0.121402
-0.113648
0.424004
-0.405236
-0.0145224
-0.443063
0.457586
-0.225271
0.300135
0.202002
-0.528604
-0.214672
0.634422
0.181396
-0.0384546
0.0384546
0.153307
0.306058
-0.459365
0.415402
0.0259944
-0.0398752
0.0456562
-0.00578102
-0.0510674
-0.121743
-0.0215426
-0.0465168
0.168808
-0.165777
0.223517
-0.0577399
0.113444
0.0273431
-0.407872
0.180539
0.172707
-0.0592625
-0.0414874
-0.0490127
-0.0685678
0.0653622
0.00320557
0.163865
-0.115839
-0.0480264
0.00832985
0.368493
-0.376823
-0.112197
0.095554
0.0934713
-0.0973867
0.00391544
0.0224172
-0.40726
0.392738
-0.0738848
-0.00413876
0.0780236
-0.078082
0.0216919
0.05639
-0.079811
0.100232
-0.721197
0.620965
-0.0239841
-1.38986
-0.0496179
1.43948
1.05526
1.03198
-2.08724
0.0928219
-0.179023
0.42503
0.254156
0.241306
-0.495462
-0.200469
0.236086
0.15778
-0.919171
0.761391
-0.00226201
-0.0758199
0.0235284
0.0181034
-1.00354
0.450568
0.552974
0.874913
-0.766696
-1.53888
1.28204
-1.34557
1.44857
0.044965
-0.0670602
0.000595708
-0.0361909
0.0183922
0.839182
-0.681403
0.136891
-0.0841598
0.421405
0.741263
-0.00133811
-1.66715
1.69474
-0.787746
-0.512014
-0.237808
-0.36888
-0.00468732
-0.181026
0.23461
-0.582137
-0.405785
0.189911
0.83613
-0.280323
-0.827893
-0.710988
0.733266
0.0853343
-0.0875963
0.310216
0.0438301
-0.0438301
0.673861
0.144981
-0.818842
-0.22188
0.895741
0.505528
-1.72109
1.21556
0.0951076
0.0174557
0.0031952
0.0136732
-0.0168684
-1.62988
-1.3294
0.766618
1.05697
0.33585
-0.0390948
-0.150089
-0.302179
0.835531
-0.182484
-0.0463764
-0.00359136
-0.0888073
-0.0450757
0.0927536
0.360987
-0.227938
-0.782337
-0.265864
-0.0458982
-0.0670214
0.11292
-0.821425
0.692833
-0.100187
0.114914
-0.0147271
0.0478179
-0.00701175
-0.139763
0.0884832
0.0512799
0.0143794
0.449063
-0.0277572
-0.0331287
-0.0158878
-0.0291908
0.0450785
-0.0156807
-0.156925
-0.696198
0.350709
0.345489
0.839535
-0.835437
-0.00409813
0.127629
-0.147207
0.0195777
0.000915699
0.00849958
-0.141771
-0.126532
-0.112144
-0.0276189
0.0259182
-0.0285689
0.134969
-0.321676
-1.07331
1.38199
-0.308679
0.0226861
0.102621
0.0612445
-0.810079
0.0946191
0.00210595
0.125764
-0.0372804
0.0410334
-0.63657
-0.0763368
0.056993
0.115714
0.364744
0.0729624
-0.472357
0.135512
0.326446
-0.271871
-0.135129
0.0274014
0.225772
0.8284
-1.05417
0.102192
-0.730495
0.628303
-0.983197
0.854798
-1.11077
0.571091
0.539679
-0.0224358
0.0232904
-0.000854647
0.150852
-0.432819
0.191895
-0.11292
-0.0789748
0.0560067
-0.0343148
0.0693312
-0.115229
0.0158862
0.0101078
-0.0458053
0.0225667
0.0587683
-0.081335
1.56079
-0.00535587
0.00447391
0.000881959
0.0882197
0.00733429
0.855684
-0.028384
0.0481215
-0.654405
-0.674993
0.00808173
0.0870258
0.00821354
0.0944074
-0.539679
0.126532
0.0134771
-0.0457828
0.0323058
-0.233108
0.052468
0.118076
-0.0848719
-0.00178416
0.102525
-0.044201
0.0998368
-1.17315
-0.0275365
0.0501032
0.737013
-0.250033
-0.121835
0.0480505
0.320155
0.00606569
-0.0459409
-0.0093195
0.0953845
0.154241
0.183497
0.153876
-0.308474
0.154598
0.118982
0.583362
-0.0586833
-0.108511
0.923087
-0.202778
-0.72031
-1.11077
0.144418
0.695117
0.738879
-0.6774
0.772554
-0.095154
0.343276
-0.0750091
-0.268267
-0.0516626
-0.445959
-0.0604999
0.0603792
0.000120652
-0.103464
-0.143941
0.247405
0.1106
-1.06698
0.956379
0.0424203
0.650918
-0.693338
-0.0491194
-0.121334
-0.0118331
-0.0620517
0.500234
-0.346927
-0.0211433
-0.00129249
0.119155
-0.0166928
-0.102463
-0.00817252
-0.0823792
0.00803507
0.0397828
-0.137812
0.113317
0.0348373
0.00371137
0.183705
-0.452401
-0.741967
1.77395
0.029198
0.0199595
-0.996763
-0.0166652
0.118869
-0.0811502
-0.0539784
0.0835491
0.188124
1.01454
-0.394188
-0.620354
0.0950523
-0.0869705
-0.937665
-0.0195878
-0.00313212
-0.646951
0.747184
-0.0196734
0.201069
-0.202808
-1.51828
0.180259
-0.46963
0.289371
-0.0591023
0.201178
0.0122148
-0.0128666
0.000651776
0.000315644
-0.0935651
-0.0235862
-0.147032
0.757718
-0.655526
-0.087653
0.0714279
-0.108359
0.291599
-0.137724
0.0544905
0.869892
0.353238
-1.22313
-0.110972
0.128764
-0.498528
-0.197669
-0.572371
0.642978
-0.62451
-0.0184678
-0.0634845
-0.0241686
-1.66715
0.517691
-0.517691
-1.19693
1.19693
0.839182
0.0575382
-0.971342
0.913804
-0.900814
-0.0959493
0.594058
-0.344229
-0.249829
0.18513
-0.265771
-0.0161885
-0.00810867
-0.857043
-0.0710395
-0.932789
0.211592
0.00927649
-0.0762979
0.698013
-0.121676
-0.576337
0.583036
0.155843
-0.00186781
0.0140826
-0.96763
-0.441391
-0.00167257
-0.0769035
-0.571005
0.647908
-0.105856
-0.815115
-0.64891
0.213587
-0.810155
-0.938478
1.36798
-0.4295
-0.156745
0.304405
-0.147661
-0.012953
0.710966
-0.0987036
-0.972639
0.972639
-2.00463
1.75305
0.251584
-0.00630915
0.000953276
0.101779
-0.41902
0.761883
-0.0503759
-0.0752701
-0.0402387
0.0914253
0.0105824
0.0115883
1.90759
-1.3365
-0.309185
0.381804
-0.607195
0.958467
-0.351272
-0.0119239
-0.10022
0.11319
-0.0504042
0.395339
0.00852805
-0.0686293
0.34776
0.0207328
0.0401532
-0.230651
0.190498
0.155102
0.0390021
0.0888479
0.167782
1.53423
0.561469
0.734453
0.00652242
-0.740975
-1.01452
1.53354
0.187777
-0.147599
0.0816983
-0.769503
0.687804
0.791991
0.155243
-0.502244
-0.0754391
0.147319
-0.0718799
0.152966
-0.228405
-0.422485
-0.0964222
-0.0629741
0.0655133
-0.00253918
0.010086
0.0247513
-0.135214
-0.0174021
0.681403
-0.628303
-0.0530997
-0.318373
0.328682
0.870821
0.585577
-0.2423
-0.0334549
0.0645484
0.177442
-0.393222
0.183523
-0.608184
0.424661
-0.0119346
-0.000932005
-0.200902
0.617057
-0.416154
0.00718135
-0.0122851
0.00510379
-0.0224066
0.015458
0.00694867
-0.255574
-0.304194
-0.273582
-1.11627
-0.181179
-0.766696
1.44857
1.28204
-0.21097
-0.192885
0.13801
-0.0559099
0.0607147
-0.0048048
0.314396
0.588383
-0.902779
0.520049
0.0740084
0.00120182
-0.0131364
0.111265
0.293699
0.0402387
-0.0325712
0.00503462
-0.395014
0.572456
0.031911
-0.0665253
-0.308116
0.73212
1.01889
0.321211
-0.0692618
0.00180674
0.0674551
1.47051
-0.188472
-0.0677668
-0.0610418
-0.924232
0.157536
0.560478
-0.31264
-0.463052
-0.112901
0.575953
0.790958
-0.345878
-0.445079
0.71859
0.295952
-1.69474
0.0648596
0.0220761
0.0248167
-0.0468928
0.161715
1.79991
-0.206786
0.209981
-0.0705313
2.07976
-0.631185
-0.688199
0.0669585
0.62124
0.359306
-0.0188759
-0.33491
0.533951
0.844629
0.759423
0.0854898
-0.0242453
-1.12684
-0.314978
1.44182
1.21868
-0.056822
0.0409343
-0.0448006
-0.34461
0.0879927
-0.288462
0.971611
-0.101718
-0.0876456
0.0241611
0.0374523
-0.714852
-0.0260336
0.0141433
0.12354
-0.16688
0.043339
-0.323827
0.339147
-0.0153197
1.10632
-0.753083
-1.91187
0.998639
0.913235
0.0776231
-0.132326
0.0547033
0.250411
0.0411887
-0.131618
0.226237
-0.645433
0.645433
1.50427
0.583036
-0.730495
0.34004
0.504589
-0.516611
0.0572459
0.869819
-0.34977
0.00463263
-0.860112
0.85548
0.15303
0.00113959
0.0269522
-0.149291
0.0176729
0.060156
-0.176906
-0.131456
0.308362
0.393499
-0.548586
0.37168
-1.02131
-0.269092
-0.6408
-0.0721196
0.00224296
0.00223095
-0.220481
0.142137
-0.0292176
0.0371812
-0.129604
0.0924227
-1.75848
-0.24615
-0.00652896
0.0768287
-0.6203
0.988286
-0.367986
-0.606576
0.410772
-0.245251
0.366653
0.249212
0.0240964
-0.000568058
-0.744595
0.237241
0.0306619
0.0628094
-0.123467
0.0151077
0.183846
0.00804865
-0.406541
0.917989
0.412604
-0.142768
0.869437
-0.787738
0.744916
-0.424761
-0.576978
0.157958
0.146401
-0.785553
0.751016
0.0345371
0.753997
0.217614
-0.187317
-0.121868
0.0330091
-0.0327013
0.955948
-0.837954
-0.117994
-0.163804
0.0926181
0.0297558
0.134212
0.87663
0.335559
-1.11146
0.775904
-0.342222
-0.063563
0.712982
-1.33328
0.34674
1.18268
0.982426
-0.39939
0.177521
0.558373
-0.735894
-0.101676
0.0449972
0.0284075
-0.00431104
-0.490337
-0.0866417
0.0228862
-0.0356743
-0.170902
0.124385
-0.566507
0.301986
-0.991383
-0.656946
-0.278221
-0.368352
1.44159
-0.0808194
-0.271862
0.257044
-0.652058
-0.152592
0.27735
0.0704095
1.13654
-1.02594
-0.172062
0.112799
-0.740429
0.366293
0.374135
0.0365564
-0.0144803
0.0435298
-0.0637047
-0.260122
-0.139798
0.697612
-0.412062
-0.28555
0.281089
0.149449
-0.107198
-0.0422508
0.236178
0.0411726
-0.591223
-1.49602
-0.0879401
0.128973
0.879695
-0.544137
-0.153239
0.209629
-0.0131444
0.0300714
-0.016927
0.00597032
-0.0443637
-0.22571
0.0782272
0.0322899
-0.598866
0.442121
0.00941333
0.051604
0.0260191
-0.689925
0.964366
-1.06608
0.0158061
-0.177404
0.161598
-0.132247
-0.553266
0.685513
0.0902821
-0.726852
-0.78531
-1.12656
-0.0715813
0.000611406
0.0709699
-0.282209
-0.642978
-0.167101
-0.161963
-1.12684
-0.213318
0.151423
-0.857849
-1.07268
-0.429981
0.14456
0.285421
0.283946
0.128549
0.395785
0.179208
-0.574993
0.152413
-0.0670783
0.60232
0.406604
-1.00892
-0.230623
0.437721
1.09581
-0.22402
0.16628
-0.561849
0.999571
0.296518
-0.478559
-0.0316396
0.0500318
-0.0213688
0.225291
-0.36806
0.699507
0.091451
-0.786862
0.886699
0.232482
0.637337
0.983228
-0.0601403
-0.0152253
-0.982426
-0.6408
-0.714675
0.72145
-0.0718629
-0.827893
0.650918
0.625471
-0.933903
0.806055
-0.0107672
-0.774786
-0.314387
0.636424
-0.784849
0.148425
0.0895463
0.0599022
0.363071
0.244492
1.60233
-1.84682
-0.00677789
0.00902085
-0.244959
0.198583
0.726706
0.240963
-0.224804
-0.202204
1.81811
-1.88197
0.272008
0.641796
-0.316499
0.72495
-0.408451
-1.2751
0.96012
0.54131
0.446976
0.200891
1.68631
-1.44182
-0.00684625
0.204798
-0.0576411
-0.0343926
0.153262
0.00658411
-0.0439825
0.0373984
-1.01656
-0.0376105
0.327836
-0.802975
-1.65359
1.87548
-0.221887
0.358057
0.60041
-0.0568578
0.0610224
-0.00416462
-0.268971
2.08708
-0.71789
1.89603
0.139756
-1.79335
0.292358
-0.0875608
-0.587199
-0.404184
-0.588479
0.271979
-0.0643924
-0.87088
-1.76454
-0.224678
1.68631
0.0484112
-0.851387
0.829751
-0.643552
-0.186199
-0.981873
0.394674
0.0186175
0.135229
0.00165954
-0.136888
-0.971517
0.567333
-0.232993
0.911891
-0.931479
0.178638
-0.194319
-0.0886545
0.223623
0.356964
-0.148782
0.00674605
-1.24864
0.0255113
1.73503
-0.975603
-0.55387
-0.517249
1.07112
0.44613
0.0225878
-0.00891455
-0.730949
0.693338
1.4314
-1.70037
-0.396895
0.509986
-0.113091
1.97054
-0.0950542
0.783022
-0.815073
-0.493
-0.451002
-0.470639
-0.500878
0.802778
-0.802778
0.682538
-0.682538
-0.730949
-0.617113
0.617113
-0.509986
0.704894
-1.34825
0.515449
-1.02142
1.02142
1.4314
-1.70037
0.783022
0.769579
-0.769579
0.815073
0.759292
-0.759292
0.507
0.529361
0.482751
0.409976
-0.499122
-0.548998
1.07836
-1.75291
-0.785774
0.197296
0.115761
0.425549
0.0140569
0.0171056
-0.0454896
-0.886931
0.10073
0.786202
-0.111698
0.10701
-0.99933
0.581208
0.955994
-0.615954
-0.130035
0.0177142
-0.0175988
-0.791087
-0.0814655
-0.552974
0.0199383
-0.0018349
1.17318
-0.135865
0.0985845
0.164737
-0.00215482
-0.0100269
0.0121818
-0.808355
0.0659595
0.742395
0.405765
-0.0488008
-0.540708
0.396502
0.144206
0.917539
-0.737468
-0.18007
0.0761295
0.279329
-0.0129426
-0.0500315
-0.0448013
-0.0156986
0.183454
-1.00488
-0.808931
0.106153
-0.735284
0.796817
-0.0615333
0.125829
-0.899568
0.773739
-0.801637
0.908831
-0.107193
-0.0644799
0.0704503
0.0195829
-0.267924
-0.0323955
0.304375
-0.100713
-0.786218
0.919632
-0.0963661
-0.823266
0.105822
-0.117746
0.521526
0.816825
-0.279416
0.432887
-0.358878
0.108508
-0.894725
0.800712
0.39622
-0.784932
0.0101456
1.01799
-0.892165
1.14801
0.823068
0.209775
-1.03284
-0.876083
-0.123247
-0.389136
0.0123135
-1.05928
0.438928
-0.786244
0.786244
-0.579667
-0.0909992
-0.864417
0.126949
-0.880971
0.804068
0.0696875
-0.182607
-0.0642195
0.0729458
0.0106649
0.19359
0.824404
0.817831
0.767777
0.144941
-0.912717
-0.343021
0.76857
-0.7802
-0.113482
0.893682
0.182833
-0.900723
-0.670828
0.890207
-0.7817
-0.113647
0.459287
-0.0472022
-0.412085
-0.265063
0.337966
-0.0729029
-0.466086
-0.327084
0.793171
-0.893847
-0.831274
0.0959897
0.494997
0.249919
-1.92772
-0.0397722
-0.553863
0.553863
-1.08692
-0.161721
0.210841
-0.193168
-0.142892
1.14153
0.776725
-0.220241
0.232152
-0.536346
-0.642994
-0.710833
1.35383
-0.299062
-0.536375
-0.0427599
0.480047
0.366733
-0.364627
0.188303
0.28362
-0.207491
0.778667
-0.88586
1.01511
-0.246539
-0.158866
0.740074
0.563967
-0.563967
-0.0675771
0.0605653
0.098991
-0.0618098
-0.2158
0.553767
0.114208
0.0039854
0.00995018
-0.0139356
-0.658569
0.696157
-0.0375887
1.00388
-0.794102
0.11518
-0.89688
-1.0022
1.35193
-0.349734
0.107745
0.877455
-0.449975
1.45385
-0.751939
0.590944
-0.667281
-0.633596
0.135067
-1.4371
0.0270211
0.120794
-0.62856
-0.808536
0.0101047
-0.585867
0.078991
0.717826
0.701349
-0.110405
0.0808118
0.774872
0.75214
0.68142
-1.43356
-0.483385
0.527415
0.31133
-0.993971
0.753019
0.240952
-0.686144
-0.124011
1.8928
-0.718184
0.371257
-0.0450721
0.486659
0.513341
-0.768362
-0.117498
-0.920424
0.163332
-0.139892
-0.987448
0.399795
0.600205
-0.102492
0.109827
-0.864728
-0.0835158
-0.583765
-0.185148
-0.257575
0.442723
-0.0396527
-0.00454835
0.102473
0.0663351
-0.129178
-0.096532
0.754208
-0.635059
0.715871
-1.46196
0.833401
0.709821
-1.36785
0.658025
-0.749419
-0.200438
0.949857
-0.264366
0.250024
-0.0258357
0.00277296
0.0291744
0.0189852
0.6783
-0.124438
0.143019
0.106193
-0.736669
0.0781004
0.171068
-1.3944
0.59928
-0.141694
0.173565
-0.293482
1.03474
-0.0100592
0.217168
-0.287699
-0.0184935
0.041997
-0.0783198
0.607242
-0.436173
0.579948
0.76191
-1.34186
0.850197
-0.036434
-0.00244571
0.0388797
0.118279
-0.020793
-0.000350254
0.245273
-0.121732
0.857397
-1.00029
-0.500947
1.0809
0.010118
0.315226
-0.605936
-0.862963
1.1515
-0.288538
-0.780722
0.846082
-0.0653604
-0.865574
0.604279
-0.307761
-0.0522839
0.391441
-0.442091
-0.0986168
0.285326
0.479155
0.194304
-0.673459
0.419479
0.0537408
0.642417
-0.575605
0.54535
0.030255
0.460262
-0.612855
0.0478607
-0.0529963
0.0051356
0.691331
-0.00990066
-0.0836905
0.0213968
1.55856
-0.589139
-0.276435
-0.0268415
-0.0435152
-0.0888112
0.0374419
0.030774
-0.068216
0.0264034
-0.0198193
0.862038
-0.455434
0.123195
0.240123
-0.02887
-0.105612
0.206709
0.101954
0.000987493
0.0541587
0.770322
-0.060355
1.01942
-0.95907
1.20188
0.46354
-1.66542
0.645644
0.144746
0.00838015
0.0333742
-0.0417543
-0.35189
-1.31605
0.605215
0.00760486
0.725661
0.70234
0.0922029
-0.259983
0.623054
0.828477
-0.0774314
0.131922
-0.85162
-0.0218966
-0.277136
0.339297
-0.190232
0.68524
0.0850823
0.011702
0.74628
-0.142001
0.142476
0.160609
0.0466691
-0.117067
0.424168
-0.0551884
-0.562699
-0.0829939
0.213415
-0.0617144
1.26359
-0.166014
0.0918745
-0.0758552
-0.112805
0.0265741
-0.000317431
-0.0262566
-0.633921
0.0210664
-0.0188427
0.810409
-0.238371
-0.609009
0.617785
-0.00877528
0.664053
0.76334
-0.472471
1.1305
0.0731858
-0.16184
0.622983
0.140357
0.55905
0.133783
-0.251178
0.684065
-0.781989
0.345816
-0.623659
0.350104
0.273556
0.608424
-0.0713817
0.0471022
0.0543395
-0.0420341
1.05475
0.738259
0.0902178
0.601405
0.229306
-0.860762
-0.0794434
-0.665056
0.675202
-0.018288
-0.630403
0.445256
0.886684
0.676724
0.142551
0.0215481
-0.191022
-0.311222
0.782703
0.181662
-0.878318
-0.0474608
-0.647848
0.993664
0.887886
0.859436
-0.0708049
0.482648
-0.756844
0.942922
-0.186078
-0.412764
-0.210895
0.0478877
-0.0518551
-0.191788
0.649965
-0.0375584
0.00836759
0.629464
0.507729
-0.649423
0.593208
-0.13517
0.259258
0.703397
0.236186
-0.939583
0.278604
-0.922156
-0.138334
-0.92775
-0.193748
0.788398
-0.59465
-0.655388
-0.0345758
0.0373487
-0.0530184
-0.331078
0.0417539
-0.0548983
1.27435
0.104778
-0.19475
0.0899723
-0.00991806
-0.582137
0.0170572
0.20011
-0.371965
-0.00662239
0.00446758
-1.15475
-0.0517208
-0.577276
0.00167114
0.567458
0.319226
0.537237
0.902239
-0.26392
-0.381277
0.645197
-0.557548
-0.616578
0.616578
-0.208502
-0.873524
1.08203
0.0278869
-0.138859
0.698585
-0.131127
-0.234896
-0.14433
0.515587
-0.206724
1.42868
0.453587
0.157804
-0.108691
-1.3485
0.485879
0.0594714
0.03637
0.0261167
-0.935765
-0.696262
-0.581725
0.693304
0.306696
-0.696262
0.693304
-0.284911
-0.000648079
-0.284911
-0.696179
0.696179
0.303821
-0.0158768
0.0758306
-0.0725971
0.170375
0.0259553
-0.438495
0.645396
-0.0521873
0.676684
-0.504837
-0.171847
-0.0722494
0.0759607
-0.00371127
-0.0220899
0.0260753
-0.135328
0.0212703
-0.0300431
-0.436338
-0.329622
0.109141
0.0508144
0.841604
-0.283231
-0.227835
-0.424223
-0.00419973
-0.0563601
-0.0166973
0.667495
0.058166
-0.16481
0.0474862
-0.00240765
0.00694793
0.0887282
0.580472
-0.473866
-0.106605
1.03862
0.534991
-1.16188
0.853054
0.0100087
-0.0560098
0.096997
-0.57998
0.113692
1.06233
-0.358937
0.0148692
-0.0869889
0.640235
-0.822581
0.0268836
-0.0268836
0.0150418
-0.0150418
0.0201609
-0.0201609
0.029198
0.363684
0.454525
0.00176764
-0.769138
0.488815
0.209734
0.0355392
-0.0786796
-0.48794
0.993831
0.108992
-0.795136
-1.45574
-0.0625375
0.103774
0.0172224
-0.0017644
-0.0211229
0.0211229
0.83211
-0.0217343
0.0217343
0.700393
0.0741132
0.0390231
0.00846314
0.00761837
-0.0768802
-0.0260761
0.0260761
0.0134327
-0.0134327
-0.0186929
0.0186929
-0.0178586
0.0178586
0.0890471
-0.28845
-0.091353
0.224913
-0.0176836
0.0176836
-0.369576
0.531414
-0.161838
0.539516
-0.235111
0.405967
-0.633802
0.565246
-0.0240544
0.0613117
0.556473
0.566792
-0.0116364
0.0116364
-0.472571
0.0204643
-0.0204643
-0.0171975
0.0171975
0.728807
-1.04515
0.0361268
0.450736
0.166321
0.00813846
-0.00813846
-0.0150061
0.0150061
0.0158687
-0.0158687
0.0272288
-0.0272288
-0.0198898
0.0198898
0.0306561
-0.0306561
0.466629
-0.0275707
0.0275707
-0.00778821
0.00778821
0.0206735
-0.0206735
0.0129947
-0.0129947
0.0126491
-0.0126491
-0.00380175
-0.0203437
0.0203437
0.451765
-0.00451798
-0.0345715
0.0345715
-0.0100412
0.0100412
-0.0262493
0.0262493
0.0291603
-0.0291603
0.0294672
-0.0294672
0.00845589
-0.00845589
0.0141671
-0.0141671
0.0148198
-0.616901
0.0137526
-0.0137526
-0.00693356
0.00693356
-0.0334836
0.0334836
-0.0319046
0.0319046
-0.0115728
0.0115728
-0.389849
0.62233
0.323786
-0.0281715
0.0281715
-0.0464989
0.0162988
-0.0162988
-0.00615427
0.00615427
0.0425112
-0.0425112
0.16915
-0.0372284
-0.0146074
0.0146074
-0.027304
0.027304
-0.514817
0.0497034
-0.657656
-0.0358806
0.0358806
-0.462885
0.0391038
0.0219186
-0.817174
0.0303117
-0.0324352
0.0324352
-0.182271
0.127083
-0.0470629
-0.00564063
0.00564063
0.0255386
0.0333886
0.260923
-0.331038
-0.305036
0.636074
0.220192
0.0141648
-0.0141648
-0.56683
0.383148
0.183682
0.802052
-0.419173
-0.382879
-0.431252
-0.666626
-0.500248
0.0760255
-0.844895
0.36151
-0.572888
0.00287318
0.193868
-0.567931
0.0100071
-0.0100071
-0.00409254
0.00409254
0.0271677
-0.0271677
0.0299326
-0.0299326
0.00583284
-0.00583284
-0.00316054
0.00316054
0.0548013
-0.150637
0.197247
-0.327282
-0.00822152
0.00822152
-0.0512029
0.0512029
-0.0357317
0.0357317
0.113399
0.0501858
-0.163585
-0.021311
0.340372
-0.578742
0.0102068
-0.0102068
0.0376822
-0.0376822
-0.0771225
-0.590713
0.090465
-0.00381231
0.00381231
0.0726195
0.0212196
0.994208
-0.479302
-0.0608461
0.540148
-0.645713
-0.722743
-0.336538
-0.0442137
0.0442137
-0.689377
0.301402
0.0442721
-0.0442721
-0.609225
0.359396
0.285958
0.11962
0.00345938
-0.00345938
-0.787783
0.00122843
-0.00122843
0.299926
0.41104
-0.0247747
-0.0478939
0.0478939
-0.00395935
0.00395935
-0.0376154
0.0376154
-0.0613745
0.0613745
0.000346474
-0.000346474
-0.0678606
0.0678606
-0.000588196
0.000588196
-0.0406678
0.0406678
0.0131604
-0.0519838
0.0519838
0.00580086
-0.00580086
0.0429897
-0.0429897
-0.00163024
0.00163024
0.054178
-0.054178
0.0674744
-0.00306692
0.00306692
-0.00428112
0.00428112
-0.0564266
0.0953845
-0.0093849
0.0093849
0.00470662
-0.00470662
-0.0531617
0.0531617
0.282049
-0.0163336
0.0163336
-0.0665145
0.0665145
-0.00814084
0.00814084
-0.0603893
0.0603893
-0.0152089
0.0152089
-0.0724391
0.0724391
-0.0193888
0.0193888
-0.109854
0.109854
-0.673863
-0.317197
-0.511078
0.502303
-0.815115
-0.0868903
-0.606541
0.416308
0.0328707
0.248218
0.00346984
-0.00346984
0.228109
-0.750211
0.0338949
-0.00777823
-0.661375
0.817218
-0.425733
0.281941
-0.0567121
-0.0103414
-0.424644
-0.556425
0.0375546
0.389655
-1.11014
-0.00868335
0.00868335
-0.788893
0.0263601
-0.0263601
0.0135937
-0.0135937
0.294216
-0.122067
-0.00292922
0.00292922
0.0218489
0.0166057
0.595579
0.0370283
-0.0245356
-0.0120463
-0.00317902
-0.0777783
0.467282
-0.389504
-0.0427296
-3.03377e-05
0.0198134
0.801767
-0.0150261
0.0739398
-0.403597
0.415911
-0.464444
-0.964575
-0.313415
-0.0612049
0.0161291
-0.746491
0.419407
0.06915
0.00132379
0.00616761
0.760506
-0.582172
-0.0241001
0.0707692
-0.0304955
-0.277337
0.353168
0.43857
0.224204
-0.188282
0.24179
0.0153519
-0.00696026
-0.279762
-0.0139732
-0.139782
-0.0549679
-0.0219115
-0.933456
-0.0694722
0.253906
-0.345495
0.366228
0.308376
-0.676728
0.0437088
-0.0657634
-0.0519823
-0.334603
0.478809
-0.0367676
-0.0849954
0.121763
-0.0232127
0.0232127
0.165452
-0.407752
-0.0472162
0.0700216
-0.066357
0.0480691
-0.0740854
-0.00929913
0.0833845
-0.039088
-0.143038
0.0698842
-0.0201654
-0.304101
-0.380614
0.684715
0.0105927
0.0497866
0.157014
-0.0139948
-0.0677601
0.0549431
-0.141955
0.288356
0.00296122
0.0359185
-0.042067
0.199081
0.00382109
0.241742
-0.0129676
0.0129676
-0.738578
1.62646
0.0754464
-0.15489
-0.0125711
-0.0932853
0.716201
0.737651
-0.0815308
0.0164871
-0.529232
0.0181535
0.358239
0.070416
-0.641445
0.291675
-0.0662918
0.398607
-0.702708
0.204344
0.548675
-0.081045
0.081045
0.00165954
-1.19625
0.1644
1.03185
-0.194213
0.141195
-0.249723
0.363343
-1.11643
-0.101906
0.0412813
-0.0406856
0.931017
0.468584
-0.326033
-0.0671303
-1.38031
-0.413036
-0.0591786
-0.32071
0.85466
0.61551
-0.275139
-0.399754
0.71498
0.488238
0.284316
-0.276757
0.0763992
-0.480823
0.318986
0.145393
-0.145393
0.102531
-0.0636412
-0.0388898
0.00807512
0.00988678
0.0300714
0.305571
-0.657462
0.250623
-0.190229
-0.0603935
0.570296
-1.00785
0.324911
-0.999904
0.708881
-0.140222
-0.18706
-0.060874
-0.0789241
-0.464568
0.0282295
-0.265978
0.00387566
-0.0219115
0.353308
-0.00530194
-0.00608841
0.000175067
0.0134993
-0.00852407
-0.00497526
-0.114231
-0.0161326
-0.153735
0.169868
-0.148859
-0.331964
0.0218489
0.342479
-0.00386205
-0.348485
0.0702647
0.00177149
0.0993048
-0.0975372
-0.0106692
0.0106692
-0.000420361
-0.00157336
-0.0106066
0.00048609
-0.0975665
0.00115268
-0.00119697
0.112866
0.0752586
-0.00333784
0.00333784
0.0833471
0.534478
0.000319808
-0.323883
0.476126
1.07168
-0.483462
0.359318
-0.436214
-0.140158
0.0929419
0.255909
-0.253027
-0.0438486
0.0243421
-0.00535685
-0.00128148
-0.195768
-0.422697
0.911512
0.3153
-0.260499
0.0883267
-0.00149574
0.372491
-0.264746
-0.0012927
0.00217635
0.0221658
0.585188
0.0010879
7.51817e-05
0.691011
-0.636068
-0.239344
-0.467481
0.377243
0.000779296
-0.000440292
-0.0470629
-0.00641334
0.817162
-0.430864
0.490336
-0.418394
0.906901
-0.988096
0.620176
-0.203868
0.667404
0.00117013
0.00305522
0.0141671
-0.113536
0.143279
-0.0785917
0.00850437
-0.00601691
0.0557644
-0.0386409
-0.0171234
0.00044257
0.0767982
-0.0719836
-0.00481463
-0.0851878
0.0105717
-0.000621509
0.00246302
0.444066
-0.412711
-0.0114329
-0.001366
1.34845
-1.18405
0.418896
-0.00526753
0.00154809
0.397656
-0.274461
-0.0293597
-0.143899
-0.0256103
-0.00329652
0.0980184
-0.025244
-0.000523468
0.431894
-0.000573341
-0.00627955
0.00627955
-0.00365769
-0.00838859
-0.00238868
-0.326264
-0.00332288
0.0650754
-0.106598
0.736513
-0.0791483
-0.0659886
-0.00198528
0.0012142
0.488946
-0.00237346
-0.0046279
0.0525156
-0.00188367
-0.00139485
0.124021
-0.00981332
-0.710564
0.474942
-0.897638
-0.171306
-0.00014703
-1.08023
0.0278527
0.16045
0.590803
-0.0171608
0.0293008
-0.00362183
-0.0012824
-0.54902
-0.00305237
-0.000934672
-0.048637
1.06482
-0.645341
-0.00232194
-0.00104204
-0.00526773
-0.00143668
0.0619781
-0.0253757
0.0253757
0.0303881
-0.0319614
-0.00343423
-0.00722763
-0.0427809
0.0366925
-0.148044
0.0766625
-0.00706805
-0.0120498
0.0519381
-0.0131358
0.0533544
-0.0372253
-0.623674
0.562141
-0.0350208
-0.00123678
0.508886
-0.295472
-0.0818412
-0.718684
-0.0913694
-0.137607
-0.0851039
0.0832202
0.650706
-0.000626086
-0.0345108
0.0340705
0.0812913
0.0431269