/*--------------------------------*- C++ -*----------------------------------*\
| =========                 |                                                 |
| \\      /  F ield         | OpenFOAM: The Open Source CFD Toolbox           |
|  \\    /   O peration     | Version:  2306                                  |
|   \\  /    A nd           | Website:  www.openfoam.com                      |
|    \\/     M anipulation  |                                                 |
\*---------------------------------------------------------------------------*/
FoamFile
{
    version     2.0;
    format      ascii;
    arch        "LSB;label=32;scalar=64";
    class       volVectorField;
    location    "12.9";
    object      U;
}
// * * * * * * * * * * * * * * * * * * * * * * * * * * * * * * * * * * * * * //

dimensions      [0 1 -1 0 0 0 0];

internalField   nonuniform List<vector> 
2186
(
(1.30021 -0.0762148 1.6879e-19)
(1.62233 -0.944249 -1.20563e-19)
(1.46662 -0.920228 -1.43641e-21)
(0.745958 -0.589628 -1.17369e-19)
(-0.537458 0.51066 -2.12668e-19)
(1.0731 0.120658 0)
(0.729371 -0.674062 0)
(-0.313224 -0.539457 1.35576e-19)
(1.48197 -0.258142 2.10084e-19)
(0.558758 -0.32115 -2.40356e-21)
(0.67383 0.606359 0)
(0.846118 -0.273678 -1.56815e-19)
(-0.392614 -0.661476 -5.53796e-20)
(1.18552 0.0215159 -2.97589e-19)
(1.81092 -0.687648 -1.26121e-19)
(1.019 -0.000643061 1.4097e-19)
(0.991575 0.0154957 0)
(-0.730852 0.629701 0)
(1.12057 0.0593701 0)
(-0.0675162 0.276413 -7.3678e-20)
(0.481511 0.0783612 -9.74472e-20)
(-0.236918 0.177282 9.94064e-20)
(1.1733 0.0276768 2.46674e-19)
(-0.208586 -0.00149063 4.25185e-21)
(1.03381 0.000247001 -1.93879e-19)
(0.794692 -0.564072 0)
(0.759496 -0.0378002 1.19943e-19)
(0.618374 -0.598555 -1.31047e-19)
(1.20584 0.710984 0)
(0.965664 0.0197564 -2.64901e-19)
(-0.011414 0.0566187 0)
(1.02807 -0.013742 9.15226e-21)
(0.0134281 0.381672 0)
(2.37675 0.207565 2.15047e-19)
(-0.107687 -0.137495 3.30443e-21)
(1.52491 0.780023 2.78635e-20)
(1.75139 0.147966 1.29966e-19)
(0.506912 0.126795 -2.90012e-19)
(1.93783 0.318069 -4.23341e-19)
(1.03087 0.113881 4.14703e-21)
(-0.449212 -0.716542 0)
(-0.209039 0.15408 0)
(1.88999 -0.884654 1.03773e-19)
(-0.41817 0.20654 0)
(1.10414 0.280885 1.23078e-19)
(0.601429 -0.302788 2.35753e-19)
(0.928724 -0.791177 0)
(1.19262 -0.792186 7.22339e-20)
(2.31331 -0.507934 0)
(-0.47772 0.634521 2.34914e-19)
(0.000238451 0.12385 1.08955e-19)
(0.626464 0.577945 6.39624e-20)
(2.07915 -0.764556 1.33307e-19)
(0.59138 0.262739 -2.32458e-19)
(-0.228004 0.255228 3.72251e-20)
(0.770608 -0.658389 0)
(1.67586 -0.973612 1.86458e-20)
(0.589012 -0.549727 0)
(2.39421 0.257247 1.36236e-19)
(1.12296 -0.170512 -2.73451e-19)
(1.62126 -0.100521 1.37178e-19)
(1.34146 0.303147 -1.33503e-19)
(1.33915 0.536289 0)
(0.944151 0.125135 -4.54338e-21)
(1.35107 0.387168 -7.58358e-20)
(1.26044 -0.736342 -9.35303e-20)
(1.16492 0.660744 4.03159e-20)
(0.677533 0.062794 -4.67027e-19)
(0.814297 0.0477955 0)
(2.08478 -0.225331 -7.58116e-20)
(-0.29154 -0.605836 -1.57427e-19)
(1.82936 -0.467012 -1.22593e-19)
(0.72483 -0.0470194 -2.05179e-19)
(0.876534 -0.523511 0)
(0.82903 0.171034 -7.53615e-20)
(0.556652 -0.518355 -2.4194e-19)
(2.27892 -0.359244 0)
(1.00232 0.00518616 2.91676e-19)
(-0.088879 -0.221679 0)
(1.97367 0.461621 0)
(0.885483 0.400816 1.6292e-19)
(0.849454 0.112684 -1.04843e-20)
(1.0353 0.00787178 3.21085e-20)
(1.3173 0.429201 1.98613e-20)
(0.970689 0.0260666 3.36638e-19)
(1.03665 0.0268595 -7.99574e-21)
(0.667586 0.167838 -2.7944e-19)
(1.13692 0.0965458 -3.85001e-22)
(0.266673 -0.0621013 0)
(-0.0706186 -0.0356666 1.12371e-19)
(0.865122 -0.628864 -1.26737e-19)
(-0.0968575 0.603088 -2.88118e-21)
(1.12867 -0.0720568 1.93222e-19)
(0.818794 -0.189786 0)
(0.977354 0.023054 3.23246e-20)
(1.36019 0.651039 0)
(1.63233 -0.957189 0)
(1.29361 0.223098 0)
(-0.559253 0.59559 0)
(0.798686 -0.674393 2.28755e-19)
(0.717525 0.0805226 -4.88906e-19)
(0.862191 0.283118 3.19827e-19)
(1.5216 0.193584 0)
(1.12591 -0.100866 -1.76638e-19)
(1.09754 0.0226845 1.44435e-19)
(0.00382507 0.69334 1.48454e-19)
(0.630718 0.495547 0)
(2.19254 -0.164184 -1.49993e-19)
(0.969784 -0.487054 6.37918e-20)
(-1.39592 0.0775894 2.17003e-19)
(1.71646 0.333915 1.32304e-19)
(-0.381874 0.67444 -3.32501e-19)
(0.823432 -0.748448 0)
(0.559253 0.337186 1.41e-19)
(1.65584 -0.263321 -6.05672e-19)
(-0.578661 -0.471694 -5.2934e-19)
(1.10958 -0.00197684 5.0933e-20)
(1.95581 -0.606758 0)
(-0.0930928 -0.0354469 -3.36414e-19)
(0.709425 -0.0820736 6.48945e-20)
(1.54598 0.883417 0)
(-0.424112 0.7293 -3.70484e-19)
(0.882267 0.757015 -2.17295e-19)
(-0.965895 0.589043 5.49434e-19)
(1.02884 -0.0231114 0)
(1.16881 0.0508099 -6.41724e-20)
(-0.491454 0.62231 0)
(0.70361 -0.50255 -8.62756e-20)
(-0.902668 0.623324 -2.92127e-19)
(0.795926 -0.72672 0)
(0.442741 -0.289773 3.46401e-19)
(0.550517 -0.466387 2.2893e-19)
(0.417188 -0.377637 0)
(0.990787 -0.78786 -8.63111e-20)
(0.928379 0.245372 0)
(-0.257112 0.705142 -1.84272e-19)
(0.818751 -0.706236 1.07182e-19)
(2.39876 -0.257181 3.33466e-19)
(2.27537 0.158418 0)
(-0.0589464 -0.144212 0)
(0.681774 0.633498 -2.65589e-19)
(1.79071 -0.629935 2.78797e-20)
(-0.185579 -0.265133 0)
(0.990952 -0.813254 -9.67e-21)
(1.14611 -0.0960229 0)
(1.1079 -0.117671 3.08166e-19)
(2.10259 -0.177904 -1.48053e-19)
(-0.570075 0.50581 0)
(1.23815 -0.56095 -3.7682e-20)
(-0.191123 0.417716 -4.64837e-20)
(-0.338611 0.667135 0)
(1.10007 -0.8188 1.2451e-20)
(1.00655 0.00501211 -4.872e-19)
(0.658522 -0.489052 -8.54607e-21)
(0.820202 -0.522582 0)
(1.20779 -0.733772 -6.17614e-20)
(0.654706 0.228621 2.178e-19)
(1.2379 0.101262 0)
(1.50563 0.101711 -1.25417e-19)
(1.2051 -0.860239 -1.10221e-19)
(-0.0496651 -0.122429 -1.24289e-19)
(-0.0832754 -0.374998 -2.38184e-19)
(1.06919 0.00602454 1.82038e-19)
(0.919847 -0.471686 -8.02199e-20)
(1.12485 0.100817 3.56458e-22)
(1.19816 0.0487003 -7.83958e-22)
(0.747771 -0.104867 1.39577e-19)
(-0.19981 -0.00224899 -3.04183e-19)
(1.23229 -0.32324 0)
(1.30085 -0.441558 4.99532e-20)
(1.43927 0.655079 8.57562e-20)
(0.814185 -0.621851 -1.66862e-19)
(0.996793 0.00759253 9.98081e-21)
(0.727813 -0.53936 2.37186e-19)
(1.29414 0.800793 8.39128e-20)
(1.89598 0.0698547 2.77308e-20)
(-0.602732 0.416345 0)
(1.07923 0.0529975 -1.88402e-19)
(-1.04415 -0.00309338 -3.24458e-19)
(1.07324 0.492335 6.29448e-20)
(0.0818475 -0.0830045 1.8375e-19)
(1.13737 0.0308564 -3.44981e-20)
(-0.155875 0.278666 -1.79238e-19)
(1.29196 0.589426 -5.31089e-20)
(1.13075 0.883354 0)
(-0.653029 0.430355 -1.11952e-19)
(-0.273919 -0.225323 0)
(0.646991 0.553466 -2.27822e-19)
(2.08207 0.250565 -2.97742e-20)
(-0.524778 -0.683456 1.89331e-19)
(-0.935396 0.298033 -7.67412e-19)
(0.722623 0.0644231 2.05e-19)
(2.19065 -0.137083 -6.92874e-20)
(0.990786 -0.359066 -2.3779e-20)
(-0.0088369 -0.0227014 0)
(-0.924309 -0.0714271 2.84732e-19)
(1.31542 0.969458 9.80513e-21)
(0.839681 0.0625287 -1.11377e-19)
(0.55036 0.515479 1.57861e-19)
(0.395119 0.189498 0)
(-0.0262279 -0.628513 -2.72469e-19)
(-0.541453 -0.0840111 1.41824e-19)
(1.30563 -0.96327 4.77339e-23)
(0.982709 -0.0356539 -1.5137e-19)
(-0.160848 -0.137355 7.52799e-21)
(-0.270474 0.332794 1.72544e-19)
(-0.323107 -0.113754 -2.19707e-19)
(1.95563 -0.586686 0)
(1.12104 0.0429979 -2.5176e-19)
(2.24076 -0.0475613 2.52328e-19)
(1.29191 -0.626347 6.13104e-20)
(0.488406 0.0342455 1.33826e-20)
(0.587512 0.317237 0)
(0.937718 0.74457 -1.27362e-20)
(0.679614 0.624757 1.465e-19)
(0.899762 -0.569634 1.14747e-19)
(0.678917 0.49131 0)
(1.02016 -0.000170883 6.46321e-21)
(0.887483 -0.670599 1.63145e-19)
(0.837394 0.419673 -3.7339e-19)
(1.23796 -0.1221 0)
(-0.269381 -0.288884 -3.50615e-19)
(0.033083 0.566866 -1.11202e-19)
(1.57579 0.730559 0)
(1.35852 -0.943517 -4.08531e-23)
(-0.770852 0.660663 0)
(-0.526346 0.611898 1.34707e-19)
(0.73042 0.644924 -7.92259e-20)
(0.855191 -0.225356 0)
(-0.193791 -0.125052 0)
(1.62418 -0.45565 0)
(-0.627709 -0.523739 5.44591e-19)
(1.2205 -0.889072 7.26214e-20)
(1.18991 -0.610627 4.18452e-20)
(1.03661 -0.158259 -1.20395e-19)
(0.885108 -0.700874 -1.27699e-19)
(0.190141 -0.19429 0)
(-1.26158 0.394938 0)
(1.00803 -0.517887 1.31025e-19)
(-0.115692 -0.240095 0)
(-0.473156 0.632211 0)
(-0.551095 -0.432082 4.50662e-19)
(0.786693 0.662795 6.87369e-20)
(1.00616 0.789139 0)
(0.690326 0.543607 -6.96357e-20)
(0.828204 -0.049997 -1.83157e-19)
(0.739737 0.552628 -1.85568e-19)
(0.585468 0.543017 -1.35944e-19)
(-0.235906 -0.584367 3.07925e-21)
(0.72632 -0.652089 0)
(0.901128 0.164937 -2.62456e-19)
(-0.351101 -0.713055 7.26403e-20)
(0.598276 0.554078 3.02876e-19)
(0.951545 0.7924 0)
(-0.776507 -0.328727 4.90152e-19)
(-0.0480704 -0.442738 3.73653e-19)
(0.0343737 -0.369103 -1.91125e-19)
(0.657181 0.560237 -1.21149e-20)
(0.967693 -0.0100589 4.70413e-20)
(-0.467234 -0.722748 0)
(2.31406 0.00362349 -3.44467e-19)
(1.6169 -0.640181 -1.41725e-19)
(0.659952 -0.612013 -5.81181e-20)
(-0.469014 0.451056 2.01934e-20)
(1.19252 0.466358 1.36697e-19)
(0.884807 0.410894 0)
(1.05334 -0.186766 1.47118e-19)
(0.154222 -0.551312 -1.00866e-20)
(-0.0700112 0.153193 4.16061e-19)
(0.925773 0.0201875 -4.14568e-20)
(1.13087 0.130722 0)
(1.92144 -0.0499322 -3.4874e-19)
(1.96458 0.0895887 0)
(0.540305 0.241662 -3.83438e-19)
(-0.289729 0.395515 0)
(-0.266251 -0.532668 3.08773e-19)
(0.711099 0.0896989 0)
(0.62883 -0.523504 -1.46769e-19)
(1.12064 0.0224365 1.64742e-19)
(-0.600764 0.540634 5.05259e-20)
(2.05171 -0.113775 -4.23864e-21)
(2.0881 -0.264816 -1.54623e-19)
(1.11022 0.2286 -1.72627e-19)
(-0.376775 -0.754142 -1.45381e-19)
(1.08225 -0.856716 0)
(0.804948 0.0181917 -1.19942e-19)
(0.93144 -0.388429 -2.29181e-19)
(1.7348 -0.57551 -1.11593e-20)
(1.7362 0.0364756 3.27409e-19)
(1.07659 -0.00306955 3.02788e-19)
(0.146897 -0.51375 -1.90211e-19)
(1.0068 -0.451102 -9.62191e-20)
(0.20042 -0.193123 2.08075e-19)
(1.00943 -0.00905585 0)
(1.00547 -0.00716318 0)
(1.24632 -0.709394 4.47362e-20)
(-0.164268 0.705198 -1.25565e-19)
(0.187422 -0.119754 -1.62855e-19)
(1.71432 -0.162777 2.14155e-20)
(1.29007 -0.500725 0)
(2.14802 -0.110449 -1.68572e-19)
(0.951294 -0.827394 -4.44486e-20)
(1.80539 -0.555981 -1.00675e-19)
(1.09704 0.832659 0)
(0.480033 -0.462447 0)
(0.597509 0.50772 -1.45959e-19)
(1.09741 0.282755 -3.16655e-19)
(2.25154 -0.253897 5.05081e-22)
(0.86745 0.148897 1.12887e-19)
(0.128343 -0.518385 -5.78862e-19)
(0.978326 0.0287579 -2.79829e-20)
(-0.183759 -0.468638 0)
(-0.0645269 -0.148428 0)
(-0.595123 -0.587664 0)
(1.35082 -0.727292 -3.74252e-20)
(-0.353865 0.688843 -2.57596e-19)
(-0.129343 0.298859 0)
(1.27699 0.971427 -1.48713e-20)
(1.1103 0.145139 -3.29939e-19)
(1.59044 0.459906 -4.46669e-20)
(1.07115 0.917138 5.018e-20)
(-0.322043 0.744329 1.71336e-19)
(0.561746 0.0219912 0)
(-0.600251 -0.488554 -3.96497e-19)
(-0.422462 0.702202 3.19809e-19)
(0.774453 0.022175 1.50363e-19)
(1.51728 0.947893 3.58705e-20)
(1.3854 0.281806 -2.28959e-20)
(-0.162797 0.581528 -3.52558e-21)
(0.752588 -0.687249 -2.7012e-20)
(1.16125 0.00665587 0)
(1.74305 -0.0189349 0)
(1.03321 0.0390612 0)
(-0.820817 0.285482 -1.58554e-19)
(-0.510367 -0.580693 1.47821e-19)
(1.03972 0.838924 0)
(0.995682 -0.00531772 4.06865e-19)
(0.761467 0.595022 -1.8547e-19)
(-1.38586 0.0518618 -1.65716e-19)
(0.857367 0.00955095 -3.34094e-20)
(0.721566 -0.659544 -1.65319e-19)
(1.37364 0.70939 -1.74101e-20)
(0.57141 -0.461118 -2.3916e-19)
(1.11679 0.000524245 -3.64649e-19)
(0.829659 0.0427169 3.4938e-20)
(1.53165 -0.199619 3.07215e-20)
(0.906049 -0.125479 -4.20937e-20)
(-0.0329744 -0.0551053 -4.21509e-23)
(1.08194 0.470008 -2.1018e-19)
(1.28705 0.609253 8.94184e-20)
(-0.0546838 -0.397681 0)
(0.0950605 -0.467574 2.16331e-19)
(-0.373052 -0.395622 1.47047e-19)
(-0.207631 -0.0668464 -1.56106e-19)
(0.467551 0.302133 0)
(1.36635 -0.712429 0)
(0.0132792 -0.00691774 -1.51141e-19)
(-0.277915 -0.749393 -8.34871e-20)
(1.04964 -0.0300192 1.44523e-19)
(-0.524565 0.401515 -5.05117e-20)
(1.68606 -0.536516 -5.75614e-19)
(-0.085799 0.760646 0)
(0.839921 -0.745194 -2.16923e-19)
(0.625619 -0.080236 7.44982e-20)
(-0.556847 -0.17778 2.08001e-19)
(0.719498 0.151797 2.7205e-19)
(0.620167 0.126429 8.86276e-20)
(0.509034 -0.482591 1.62224e-19)
(-0.209167 -0.341086 -1.64687e-19)
(1.35542 0.32801 0)
(0.384378 0.332059 -1.62752e-19)
(1.02789 -0.0146469 -2.30087e-19)
(-1.02234 0.313726 2.98706e-19)
(1.41226 0.49672 -7.33713e-20)
(-0.142213 -0.319229 -6.16134e-20)
(0.694141 -0.633391 -6.9929e-21)
(0.818519 0.178695 -1.68819e-19)
(0.978783 0.424686 1.81808e-20)
(1.13872 -0.14554 2.64172e-20)
(0.610462 -0.240372 -2.47306e-19)
(1.99851 -0.361197 -2.1127e-19)
(1.03475 -0.200907 0)
(1.17115 0.433713 -3.72147e-20)
(1.67003 0.146385 -2.07824e-20)
(0.962406 -0.247886 1.56459e-19)
(0.869057 0.353536 -2.02274e-19)
(0.925578 0.112091 1.91505e-20)
(0.410527 0.378116 -2.0992e-19)
(-0.193493 0.412903 3.4045e-19)
(1.9416 -0.181891 0)
(0.935585 0.0101365 0)
(0.879864 -0.778459 3.91134e-20)
(-0.0441351 -0.5366 -4.08661e-19)
(-0.847976 0.192623 -3.90014e-19)
(-0.0525141 -0.0962124 -2.64708e-19)
(-0.596306 0.711127 -2.13798e-19)
(-0.309137 -0.341943 0)
(-0.0475183 -0.100726 4.69234e-20)
(0.339212 0.664788 -1.1272e-19)
(-0.301236 0.371464 -3.94696e-19)
(0.803173 -0.117585 0)
(1.41958 -0.574371 5.34957e-20)
(-0.336846 -0.407321 0)
(0.999889 0.0209699 2.92999e-19)
(-0.0013574 -0.468528 2.78545e-20)
(0.547441 -0.433276 3.20512e-19)
(-1.011 0.0085171 5.3831e-19)
(-1.45861 -0.263707 0)
(0.260795 0.691345 1.46414e-19)
(1.00539 0.0247533 -8.77242e-21)
(-0.198124 -0.0839116 0)
(1.0049 -0.0111561 -4.56509e-20)
(0.866414 -0.733267 -2.13124e-19)
(1.33097 -0.82199 0)
(0.942455 -0.281349 1.63311e-19)
(0.061249 0.643324 3.09489e-19)
(-0.00391311 0.00134625 0)
(-0.0759527 -0.558662 -7.97505e-21)
(0.732906 -0.641657 -3.32289e-19)
(0.974006 -0.0275691 -2.07094e-19)
(-0.0459217 -0.600576 5.0948e-19)
(-0.193646 -0.47245 1.88445e-19)
(-0.250075 -0.436962 0)
(0.956957 0.472913 0)
(-0.359015 -0.402078 2.62792e-19)
(1.89787 0.072798 -2.43881e-19)
(1.06751 0.892651 1.29116e-20)
(1.06955 0.206956 -9.79465e-20)
(1.14916 0.0137904 -1.68879e-19)
(1.05722 -0.0464058 -5.68451e-20)
(-0.0222451 -0.637458 -4.71816e-19)
(1.95647 0.0150746 5.35852e-19)
(0.698913 0.0232503 1.60442e-19)
(1.90563 -0.0590497 1.56279e-19)
(1.04461 -0.170927 0)
(0.0876657 0.551071 4.48137e-19)
(1.11496 0.0207503 -3.97112e-19)
(1.7337 0.630938 -1.98017e-20)
(0.745115 -0.461325 -1.29385e-19)
(-0.0734145 -0.0270708 2.51583e-19)
(0.804056 -0.706348 2.82497e-19)
(1.22554 0.197216 5.5909e-20)
(1.00646 -0.0106285 2.02257e-19)
(0.168083 -0.566642 -2.11023e-19)
(1.02691 0.0184822 0)
(1.47386 0.184278 -1.88225e-19)
(-0.0153056 -0.0026851 0)
(1.02566 0.0130192 -1.18761e-19)
(-1.27307 -0.285637 -5.91237e-19)
(1.69552 0.33789 6.09054e-21)
(-0.514537 -0.377375 1.87314e-19)
(1.6339 0.0314246 -3.35764e-20)
(1.01812 -0.0197679 4.1764e-20)
(1.33306 -0.0926706 0)
(1.45912 -0.612353 -6.47041e-20)
(1.02169 0.0317066 -1.23711e-19)
(1.42978 0.78989 -1.38528e-20)
(1.38893 -0.0606051 0)
(0.896198 -0.154493 -4.00278e-21)
(0.0138308 -0.00672621 0)
(1.37245 0.0450371 0)
(-0.483488 -0.656836 0)
(1.23513 0.444124 0)
(1.87243 0.337152 6.68646e-20)
(0.734966 0.607213 3.24797e-19)
(0.296631 -0.298586 -1.92027e-19)
(-0.242959 -0.679173 -4.55802e-19)
(-0.00964545 -0.023231 0)
(1.40737 -0.517605 6.93223e-20)
(1.29169 0.519485 0)
(1.447 0.299987 0)
(-0.641812 -0.420924 1.76126e-19)
(0.803634 0.709695 9.95628e-20)
(1.71083 -0.0203574 0)
(-0.415682 -0.597872 1.05671e-19)
(0.907657 0.212718 1.54063e-19)
(1.43692 -0.404031 -4.47671e-20)
(1.23242 0.924743 2.86968e-20)
(0.928515 -0.83513 -1.50976e-20)
(0.654991 -0.178977 -3.57435e-20)
(0.790114 0.713771 1.01184e-19)
(1.16989 0.923424 0)
(1.99097 -0.411508 1.36158e-19)
(1.23612 0.726783 0)
(1.31581 -0.434023 2.12187e-20)
(0.873553 0.11248 2.02418e-19)
(1.00504 -0.0071484 0)
(0.155343 0.234559 3.7785e-19)
(0.889701 -0.174449 3.82495e-20)
(0.635143 -0.415923 0)
(0.673433 -0.388828 1.7264e-19)
(1.23686 0.559348 -2.48858e-20)
(0.468942 0.441377 2.27954e-19)
(-0.345566 0.450526 4.68337e-20)
(0.105512 0.100744 1.08795e-19)
(0.771516 0.063669 0)
(1.33153 -0.904007 -1.4475e-20)
(1.0458 -0.0384289 3.20606e-19)
(1.45347 0.335884 1.60351e-19)
(-0.456692 -0.648253 9.19922e-20)
(-1.0509 -0.0076802 0)
(1.21496 -0.245163 -8.24641e-20)
(-0.000944969 0.000159487 -2.15998e-19)
(0.0548729 0.117586 -5.24225e-20)
(-0.123186 0.0305931 -3.30545e-22)
(-0.19904 0.0822615 3.29391e-19)
(1.20208 0.0737113 -5.48489e-23)
(2.37322 -0.0358081 4.61281e-19)
(1.1932 0.468097 -2.20437e-19)
(0.917743 -0.0296032 0)
(1.91296 -0.070458 3.23443e-19)
(1.83427 0.126832 1.42747e-19)
(0.916986 -0.771326 1.01628e-19)
(1.16433 -0.980282 -2.78771e-21)
(0.473842 0.439093 1.52034e-19)
(1.49029 0.513219 0)
(1.74257 0.594811 5.22989e-20)
(-0.00467014 -0.00786022 -4.40246e-19)
(0.880224 0.768251 0)
(1.19434 0.14247 0)
(0.298015 -0.297785 -3.86289e-21)
(0.316877 0.292454 0)
(-1.41837 0.0344345 -5.05047e-19)
(-0.440283 0.583057 -1.40859e-19)
(1.75489 -0.412844 0)
(1.28921 0.0645588 8.38947e-20)
(-0.682369 0.24722 3.27887e-19)
(0.54041 -0.513938 -3.64222e-19)
(1.94071 -0.0862659 -5.82762e-20)
(0.618233 -0.561963 0)
(1.04179 0.11611 0)
(1.39227 -0.217606 0)
(1.1022 0.228337 -1.82182e-19)
(1.31765 0.108935 2.55551e-19)
(-1.27546 -0.0953621 0)
(0.857121 -0.0527353 0)
(1.90418 -0.120832 1.41695e-20)
(-0.121624 0.307914 1.15917e-19)
(2.42755 -0.23424 -3.34708e-19)
(1.07919 -0.515782 2.28701e-19)
(1.88607 -0.0683243 -3.44362e-19)
(-1.17059 0.433613 -2.479e-19)
(2.01578 0.0909002 -2.74843e-19)
(1.01558 -0.024134 3.28803e-19)
(1.50956 0.61491 0)
(-0.483899 0.625587 3.73305e-20)
(1.00977 -0.834091 1.16808e-19)
(0.852672 -0.0214291 3.90514e-20)
(0.640028 -0.438949 0)
(1.90532 -0.541485 1.1919e-20)
(1.21433 -0.184821 1.04748e-19)
(1.40155 -0.512467 0)
(0.612991 -0.569585 3.21986e-19)
(0.500203 0.0791427 -5.42611e-20)
(2.3875 -0.282394 6.35519e-19)
(-0.179374 0.47099 -2.42754e-19)
(1.32909 0.62272 1.01894e-19)
(1.14745 0.408478 2.85302e-21)
(0.904693 0.372197 1.82595e-19)
(1.96068 0.191487 -2.57568e-19)
(-0.0425415 -0.660926 -7.29977e-21)
(0.95047 -0.184381 0)
(-0.15331 -0.100115 4.17123e-19)
(1.09956 -0.95582 0)
(1.06675 -0.655223 1.55898e-20)
(1.24914 -0.00554874 -7.33865e-19)
(1.18998 -0.0693709 3.07142e-22)
(-0.746583 -0.105462 -5.04617e-19)
(0.988336 0.483196 1.39505e-19)
(-0.0642506 0.264995 1.7544e-19)
(0.710686 -0.042878 0)
(1.41267 -0.195575 0)
(1.27958 0.151557 1.94632e-20)
(0.758901 -0.0146821 0)
(1.36065 -0.213462 -1.07784e-19)
(-1.72123 0.273604 6.95812e-19)
(1.9169 0.508169 5.29967e-20)
(1.05212 -0.0333516 0)
(0.55809 -0.35772 8.45349e-20)
(1.01271 0.0270572 1.57327e-19)
(0.893677 0.809422 -1.85652e-19)
(-0.539165 0.743616 0)
(1.12522 -0.485898 3.56453e-19)
(1.26083 -0.111555 -3.17938e-22)
(1.11668 -0.508454 -1.55464e-19)
(2.38565 0.222302 2.39945e-19)
(1.28063 0.789583 0)
(0.869312 0.0185214 0)
(-0.531365 -0.646807 -2.33484e-19)
(0.0117113 -0.00503629 1.70034e-19)
(0.952322 0.36704 -1.67191e-19)
(0.333935 -0.428673 -1.85835e-19)
(0.643681 0.40096 2.01151e-19)
(0.857451 -0.156377 0)
(0.543502 -0.505689 0)
(1.2412 -0.0517989 2.15495e-21)
(1.25265 -0.517105 -6.81976e-20)
(0.646806 0.0261117 1.51491e-20)
(0.731447 -0.161441 9.70382e-20)
(-0.0689281 0.161403 -3.05818e-19)
(1.51886 0.0921903 3.87511e-19)
(0.657378 0.611881 0)
(1.26416 0.695383 0)
(1.58595 0.256659 0)
(-0.409623 -0.372628 -2.21852e-19)
(1.22464 0.555541 2.29255e-19)
(1.96793 0.0898002 5.68498e-20)
(0.954775 -0.00144824 0)
(1.2009 -0.242867 0)
(2.14004 -0.103639 -4.16315e-19)
(0.859691 0.569939 2.12204e-19)
(1.00621 0.00340351 -1.57212e-19)
(1.48357 0.477054 0)
(-0.452422 0.675394 0)
(1.24085 0.325184 2.19443e-19)
(1.02294 0.527485 -1.02025e-19)
(1.06477 0.0275886 0)
(1.77555 0.289958 0)
(1.94809 0.685645 -3.47535e-19)
(-0.138553 0.724452 -8.04033e-21)
(0.998698 0.0130039 0)
(0.704818 0.466127 -2.74011e-20)
(0.94143 -0.829602 0)
(1.00904 0.0168671 3.64771e-20)
(1.10312 -0.265028 5.47948e-20)
(0.907978 -0.331291 2.4029e-19)
(1.14885 -0.0686655 -4.67032e-20)
(2.17137 -0.125039 4.26399e-19)
(1.10996 0.16707 7.62237e-20)
(0.764891 -0.0243599 0)
(1.01841 0.00752386 0)
(-0.758323 -0.183563 0)
(0.662356 0.633901 -1.48327e-19)
(-0.0346597 0.0860715 2.06498e-19)
(1.16247 0.349472 -3.53362e-19)
(-0.719998 0.456536 0)
(0.824396 0.63545 1.35537e-19)
(1.02284 -0.347288 0)
(1.00664 -0.00198733 9.20075e-20)
(0.474104 0.135143 6.56717e-20)
(1.03727 0.407337 2.02067e-19)
(1.59921 0.107261 0)
(2.20406 0.19104 -1.1238e-19)
(0.823254 -0.114159 -2.94207e-19)
(-1.2948 0.0423454 -6.66321e-19)
(1.25346 0.390637 0)
(0.8798 0.236612 1.43122e-19)
(2.05851 -0.134377 0)
(0.772731 0.515018 2.95834e-19)
(-1.72568 0.167408 2.77683e-19)
(-0.0681115 0.17335 0)
(0.586642 0.556619 -5.72207e-20)
(1.02749 -0.642588 -1.09656e-19)
(0.48447 -0.256999 -1.01973e-19)
(1.01503 -0.0174505 0)
(-0.50926 0.461781 -3.23688e-19)
(0.644327 -0.57563 6.46516e-20)
(0.905824 0.286023 0)
(1.56877 -0.670157 8.06169e-20)
(0.978494 0.834713 1.83176e-20)
(1.13749 -0.216791 -4.02275e-20)
(0.237794 -0.253916 -2.897e-19)
(0.234649 -0.0552291 -4.65596e-19)
(-0.0890663 -0.219961 1.14307e-20)
(0.817654 0.356322 2.0155e-19)
(-0.385332 0.6823 -6.43694e-21)
(1.42901 -0.655124 3.50747e-21)
(1.02439 0.00757771 -2.71487e-19)
(-0.542513 -0.264034 0)
(1.03377 0.0345378 -3.21432e-19)
(2.13791 0.31994 2.14148e-19)
(0.882613 0.682793 2.23846e-19)
(1.11021 -0.0606111 1.24051e-19)
(1.00223 -0.0296361 1.25846e-19)
(1.22881 -0.082792 -3.13488e-22)
(-0.420108 -0.51806 -4.01442e-22)
(1.74046 -0.874477 1.54673e-20)
(1.12575 -0.139792 -5.16565e-20)
(0.802335 0.048343 5.8827e-20)
(0.912465 -0.301202 7.15397e-20)
(0.522005 0.146899 0)
(0.956454 0.727903 0)
(0.858845 0.210004 -7.82854e-20)
(2.07472 0.212076 -4.21481e-20)
(-1.31231 0.120774 2.45244e-19)
(1.03352 -0.544364 -3.84565e-19)
(0.623094 -0.540889 3.1375e-19)
(1.36684 0.27737 -2.05037e-19)
(0.353549 -0.496522 2.14353e-20)
(1.29282 -0.196641 0)
(0.754593 0.106722 -5.56314e-21)
(1.30599 -0.324691 -4.42641e-20)
(1.03357 0.755762 0)
(1.21686 -0.356748 0)
(0.711361 0.0215964 0)
(-0.19122 -0.367409 -7.47508e-20)
(-0.178232 0.169486 0)
(1.57838 0.749625 2.53543e-19)
(1.20775 0.18234 4.92245e-21)
(-1.03544 -0.166008 2.19134e-19)
(1.40236 0.416326 2.54287e-20)
(1.8082 0.49436 -1.00753e-19)
(2.12126 -0.31658 -4.44572e-20)
(-0.168841 -0.00189641 -2.34018e-19)
(-0.0906924 -0.526476 5.94246e-21)
(0.798979 0.104162 0)
(0.692429 -0.0366917 0)
(1.00128 -0.000526612 1.60556e-22)
(-0.482133 -0.337961 0)
(1.5183 0.00459142 -1.50862e-19)
(0.688403 -0.029972 0)
(1.06766 0.00671056 9.93149e-20)
(0.999413 0.0130358 -3.57747e-20)
(1.43242 -0.0568886 2.38384e-19)
(1.0598 -0.0156811 -7.33318e-22)
(0.953608 -0.193667 -4.32126e-20)
(1.02148 -0.0288551 2.91217e-19)
(0.677633 -0.617013 1.44713e-19)
(-0.445133 -0.250323 -1.98912e-19)
(0.985005 0.184032 4.28182e-20)
(0.00946593 0.00798673 0)
(1.11855 0.789836 0)
(1.02709 -0.00458541 0)
(1.00611 -0.777788 -7.32322e-20)
(1.04554 -0.895344 3.00189e-21)
(0.73325 -0.105206 -3.29954e-20)
(0.0335393 0.245938 -8.77407e-19)
(1.20975 -0.118058 2.32151e-21)
(0.591094 -0.390526 -5.17769e-19)
(1.03348 0.368097 -7.10801e-20)
(1.24718 0.0228201 -2.66387e-20)
(2.05432 -0.323207 1.44438e-19)
(0.424972 -0.037511 -5.45583e-20)
(-0.353062 -0.588212 -1.57909e-19)
(1.11516 0.553542 1.51104e-19)
(-0.0752426 -0.335788 0)
(0.282268 -0.444218 4.79828e-19)
(-0.0579213 -0.0797568 3.08973e-23)
(1.04211 -0.0432256 2.62974e-19)
(1.02029 0.00491025 -6.74286e-21)
(1.09827 -0.00961233 -7.27695e-20)
(1.11564 -0.126769 -5.12721e-21)
(1.6164 0.319485 2.90686e-20)
(0.405609 -0.380623 -2.55298e-19)
(0.778747 -0.105949 5.64611e-20)
(1.02918 0.00391647 -1.92081e-19)
(0.799559 0.0501562 -4.40652e-20)
(1.06559 -0.169577 0)
(1.10795 0.59065 -2.82245e-19)
(1.00186 9.89944e-05 7.50807e-20)
(0.66999 0.596738 2.1161e-19)
(1.18205 -0.0282896 5.53753e-22)
(1.06606 -0.00700518 -2.38648e-20)
(1.11376 0.0128546 6.77388e-22)
(2.44826 -0.11521 2.49102e-20)
(0.0782933 0.0209699 0)
(1.06364 -0.0400309 0)
(1.06277 -0.0367417 4.62529e-19)
(1.00392 -0.00111123 0)
(-0.0273594 -0.0489126 0)
(0.964922 -0.584237 0)
(0.998309 -0.00307036 -4.36789e-19)
(1.16235 -0.684475 5.45652e-20)
(1.02425 0.000385491 9.1163e-21)
(1.33342 0.95586 -1.00306e-20)
(1.51288 1.00481 -9.56474e-20)
(1.22933 -0.0225805 -3.96192e-21)
(1.59796 0.333525 2.12801e-19)
(1.01047 0.223058 0)
(0.0540573 0.727218 0)
(2.14324 -0.000338966 5.3575e-19)
(1.22073 -0.565717 0)
(0.997734 -0.00228195 -1.35756e-19)
(1.00895 -0.00106449 2.63458e-19)
(1.41009 0.145345 -5.2428e-20)
(0.00841851 -0.127066 3.2188e-19)
(0.973918 0.000186933 1.42691e-19)
(0.496371 -0.0793452 3.4961e-20)
(0.513105 0.0804112 -1.92378e-20)
(1.10571 -0.124803 -4.28573e-23)
(0.922351 0.0178804 -1.43075e-19)
(0.999932 0.00524021 1.69922e-19)
(1.0023 -8.49069e-05 1.00267e-20)
(0.787793 -0.0118219 0)
(0.725167 -0.0289636 0)
(0.722148 -0.0246424 6.23524e-22)
(0.700636 -0.0299778 0)
(0.305927 -0.0575949 0)
(0.230563 0.00550902 0)
(0.436037 0.0176134 1.32569e-20)
(0.598508 0.0702243 -8.91393e-21)
(1.0699 0.0799977 0)
(1.16021 0.0159909 4.58448e-22)
(1.11608 -0.0766954 0)
(0.469599 -0.0204582 0)
(0.270323 -0.0240715 0)
(0.138328 -0.00256686 8.30418e-21)
(0.198633 0.0530492 1.06165e-19)
(0.792714 0.0239041 0)
(0.808785 0.0213985 0)
(0.9565 0.0256145 -1.76596e-19)
(0.829506 0.00998006 3.3153e-19)
(1.00568 -0.000717326 0)
(1.0007 -0.000495956 3.13772e-19)
(0.999835 -0.00158831 -3.66831e-22)
(0.803006 0.0193522 2.80124e-19)
(0.992108 -0.00531791 -1.6387e-19)
(0.598874 -0.0679137 0)
(0.305586 0.0211815 1.92559e-20)
(1.00069 0.000278367 -1.58627e-19)
(0.9972 0.00165289 -2.72161e-19)
(1.06049 -0.0916193 0)
(1.00127 0.00286475 0)
(0.998896 9.22997e-05 0)
(1.187 -0.0729677 1.4642e-20)
(1.31053 0.0164723 4.3087e-21)
(0.803609 -0.0128209 0)
(-0.485162 0.410234 2.36327e-19)
(-0.466217 0.538537 -3.6759e-19)
(1.02026 -0.014048 -2.10659e-19)
(-0.353757 -0.70953 -1.53033e-19)
(1.0211 0.00367295 -1.69089e-19)
(1.17114 -0.213875 -6.25236e-20)
(0.799632 -0.477363 2.39842e-19)
(-0.0347123 -0.0633191 -1.06991e-19)
(1.02461 0.012728 0)
(1.064 -0.0107278 -4.56856e-20)
(0.865754 0.0188429 0)
(-0.034414 0.0706408 2.99984e-19)
(1.19857 -0.514153 0)
(-0.544661 -0.461742 -3.87899e-19)
(0.440478 -0.0764134 -4.08439e-20)
(1.64316 0.693401 6.52716e-20)
(-0.0450782 -0.0408917 0)
(1.06933 -0.0356016 1.42816e-19)
(1.25491 -0.00259026 4.88543e-22)
(0.922288 -0.011287 2.26961e-19)
(1.01607 -0.00338906 -1.43718e-19)
(1.65857 0.86892 6.96154e-20)
(0.516674 0.483507 0)
(0.438597 0.391151 1.69876e-19)
(1.1248 -0.0572471 -4.47343e-21)
(1.13133 0.124603 1.51349e-19)
(1.08759 -0.712864 0)
(1.02476 0.0017895 0)
(1.00194 -0.0142112 -3.31641e-19)
(1.01618 0.0149454 -3.22158e-19)
(-0.13386 -0.376251 0)
(1.21385 0.818678 -8.56621e-20)
(1.1763 0.0150915 -5.89527e-22)
(1.01655 0.00448575 1.23968e-19)
(1.00977 0.0139729 -1.55976e-19)
(-0.680726 -0.346157 -3.8051e-20)
(1.27163 0.0222528 -1.06064e-20)
(1.01405 -0.0130588 5.29702e-19)
(1.09546 0.0870913 0)
(1.83964 0.669377 -8.29464e-20)
(1.02022 -0.00869711 -1.6489e-19)
(1.92313 0.126177 -1.42533e-19)
(1.05185 0.00615395 -3.80534e-22)
(1.00917 -0.0096535 3.30733e-20)
(2.07589 -0.236215 -3.49397e-19)
(1.01494 0.00869246 1.59956e-19)
(1.28502 0.0956364 5.29275e-21)
(1.02116 0.00411326 0)
(0.933374 0.142969 4.00245e-20)
(-1.31229 -0.0607997 6.14527e-21)
(0.992245 0.0223806 1.59342e-19)
(1.0358 0.0172845 -5.08935e-22)
(1.20446 0.0515139 5.39087e-22)
(1.24319 0.315459 3.05412e-19)
(1.00213 0.011995 1.08961e-19)
(1.01491 -0.0131402 6.10303e-22)
(1.74296 0.26078 -4.0293e-21)
(1.74026 0.937703 -1.14748e-19)
(0.779364 -0.699753 4.17332e-20)
(0.455628 -0.332163 -2.52901e-19)
(1.00111 -0.0140091 0)
(1.02173 0.00448559 3.96789e-20)
(1.01324 -0.00459979 8.38225e-20)
(1.29807 0.00594451 2.93519e-21)
(1.01789 0.0048381 -1.6628e-19)
(1.02648 -0.025804 1.89394e-19)
(1.00971 -0.00694812 -1.56909e-19)
(1.01088 0.00500253 -4.88877e-22)
(1.01206 0.0076843 -3.88947e-22)
(1.01653 0.0183794 1.59266e-19)
(0.905385 0.0818688 4.13285e-19)
(1.73584 0.671628 0)
(0.625313 0.00821715 2.76468e-19)
(1.01182 -0.00259184 0)
(1.02281 -0.0193657 -4.61479e-20)
(1.53329 0.462141 -3.91683e-20)
(1.78084 0.0365049 0)
(1.71877 -0.423783 -7.24071e-20)
(1.38822 0.707224 -3.97974e-20)
(0.785612 -0.0111092 0)
(1.97706 -0.0555017 0)
(0.683273 0.532764 -1.22789e-19)
(1.21212 -0.0154705 -6.03183e-22)
(1.0143 -0.00587601 -1.67692e-19)
(1.12643 -0.568324 -4.35308e-20)
(1.2364 0.0662109 -1.4911e-21)
(1.40941 0.367536 0)
(1.21806 -0.10324 0)
(1.61945 0.524174 0)
(0.276562 0.601576 1.31254e-19)
(1.33523 0.0543573 2.49095e-21)
(-0.0343291 0.134527 0)
(-0.107108 0.631836 -3.99053e-19)
(1.68236 0.97167 -1.02288e-19)
(1.00702 -0.00317599 -3.28011e-19)
(1.31116 -0.0204399 1.17957e-21)
(1.02155 0.00991349 2.16361e-19)
(0.708837 -0.041275 0)
(-0.105387 -0.315312 -3.26047e-20)
(0.609598 0.425588 -2.83074e-19)
(1.69256 0.704757 7.69098e-20)
(0.129311 0.647369 0)
(0.797982 0.0946238 5.57337e-20)
(0.514998 0.491204 4.24641e-20)
(1.17932 0.883215 -2.23608e-20)
(-0.0284358 -0.0092936 1.59536e-19)
(1.01922 0.011089 0)
(1.34809 0.194294 5.77762e-21)
(1.00917 -0.000178 1.2309e-19)
(2.45291 0.0285088 0)
(1.01182 0.00815697 2.06502e-19)
(0.34564 -0.454738 -2.25986e-19)
(1.01351 0.0105639 -1.2766e-19)
(1.28573 0.0676412 0)
(1.63343 -0.501002 3.43892e-22)
(1.0108 0.00562556 -8.58301e-20)
(0.996177 -0.0227526 2.26783e-19)
(1.09051 0.0898311 -2.5089e-21)
(1.29578 0.232827 -1.86415e-20)
(-0.162761 -0.0605401 4.19907e-19)
(2.02588 0.358159 2.52552e-19)
(1.12566 0.258056 2.2146e-20)
(0.817232 0.0190289 -3.10632e-19)
(0.805394 0.0271337 0)
(1.25967 0.0931145 1.66051e-20)
(1.02955 -0.0124663 -2.48341e-20)
(0.974474 0.0317781 0)
(1.04643 -0.0019876 -1.57551e-19)
(0.874402 -0.0731452 -5.34764e-20)
(-1.6112 -0.0204713 2.88014e-19)
(2.15258 -0.581738 0)
(-0.920573 -0.366414 -8.66067e-19)
(1.51969 -0.354591 0)
(1.0352 -0.0180249 4.62552e-20)
(1.00046 -0.139992 5.03168e-22)
(1.0192 -0.00520227 1.3298e-19)
(-1.03699 0.135642 6.26564e-19)
(1.02091 0.00604483 0)
(0.987742 0.0039539 -3.22685e-19)
(1.01139 0.00949343 1.69378e-19)
(0.999271 0.0730262 0)
(0.974682 -0.0726756 -1.53376e-21)
(0.96883 -0.000400689 -1.45594e-19)
(-0.232776 -0.709254 5.06124e-19)