/*--------------------------------*- C++ -*----------------------------------*\
| =========                 |                                                 |
| \\      /  F ield         | OpenFOAM: The Open Source CFD Toolbox           |
|  \\    /   O peration     | Version:  2306                                  |
|   \\  /    A nd           | Website:  www.openfoam.com                      |
|    \\/     M anipulation  |                                                 |
\*---------------------------------------------------------------------------*/
FoamFile
{
    version     2.0;
    format      ascii;
    arch        "LSB;label=32;scalar=64";
    class       volVectorField;
    location    "38.3";
    object      U;
}
// * * * * * * * * * * * * * * * * * * * * * * * * * * * * * * * * * * * * * //

dimensions      [0 1 -1 0 0 0 0];

internalField   nonuniform List<vector> 
2186
(
(1.28252 -0.0668451 2.9447e-19)
(1.53832 -0.899377 6.2716e-20)
(1.39327 -0.876619 1.39081e-20)
(0.700165 -0.538321 -1.84232e-19)
(-0.325074 0.406378 -1.97677e-19)
(1.63765 -0.514539 0)
(0.681486 -0.62872 0)
(0.00866028 0.0237347 3.67935e-20)
(1.32769 -0.199815 1.98055e-20)
(0.5184 -0.252432 -1.78611e-21)
(0.727101 0.6576 0)
(0.742955 -0.266684 -3.14071e-20)
(0.00529945 0.0119542 -1.58139e-20)
(1.20431 0.0268294 -4.39572e-19)
(1.71591 -0.66652 4.9614e-20)
(1.01918 3.81355e-05 2.03009e-19)
(0.977078 0.0138419 0)
(-0.303787 0.197337 0)
(1.54003 -0.68897 0)
(-0.0833273 0.304909 -8.44515e-20)
(0.496353 0.175396 -1.26239e-19)
(-0.113396 0.215331 1.14726e-19)
(1.1933 0.0301801 3.61381e-19)
(-0.179583 -0.0516574 5.56836e-21)
(1.02735 0.0130858 -2.84691e-19)
(0.75117 -0.516941 0)
(0.758865 0.0163859 1.68036e-19)
(0.573819 -0.553126 -2.23585e-19)
(1.27514 0.754399 0)
(0.957811 0.0253522 -3.88033e-19)
(-0.0436134 0.120645 0)
(1.02267 -0.00515869 1.34531e-20)
(-0.129818 0.219041 0)
(2.64307 -0.0377847 1.16669e-19)
(-0.197529 -0.100333 3.63935e-22)
(1.62418 0.808818 6.08288e-20)
(2.07199 0.110383 6.43552e-20)
(0.528034 0.222413 -3.7464e-19)
(2.06916 0.0964825 -3.69841e-19)
(1.66895 -0.521892 1.88943e-20)
(-0.0317037 -0.0364217 0)
(-0.0425501 0.200515 0)
(1.78308 -0.844235 2.0981e-20)
(-0.416498 0.252357 0)
(1.15317 0.306621 1.66715e-19)
(0.5679 -0.235536 3.29706e-19)
(0.870311 -0.742084 0)
(1.13573 -0.753351 1.73473e-19)
(1.52336 -0.447065 0)
(-0.184835 0.406945 2.07033e-19)
(-0.0306249 0.182345 1.24824e-19)
(0.677769 0.625073 8.34143e-20)
(1.978 -0.738409 -1.06166e-20)
(0.62325 0.339149 -2.99304e-19)
(-0.297376 -0.0220002 4.53841e-20)
(0.722217 -0.611388 0)
(1.57148 -0.917625 1.61149e-20)
(0.544129 -0.505287 0)
(2.36931 0.0903414 1.11178e-19)
(1.10878 -0.154051 -4.75637e-19)
(1.43354 0.0827043 7.20719e-21)
(1.40353 0.318826 -1.89055e-19)
(1.40864 0.570933 0)
(1.98299 -0.486076 -2.07002e-20)
(1.42779 0.41033 -1.12275e-19)
(1.20011 -0.696824 -2.56456e-19)
(1.23047 0.69935 5.44164e-20)
(0.683111 0.123562 -6.23414e-19)
(0.825829 0.097845 0)
(1.95371 -0.200767 -4.06448e-21)
(-0.0233425 -0.000639356 -3.98771e-20)
(2.08051 -0.249078 3.29639e-20)
(0.720943 0.013297 -2.77853e-19)
(0.837957 -0.47988 0)
(0.844659 0.223101 -1.00818e-19)
(0.509668 -0.468107 -3.63851e-19)
(1.60622 -0.176893 0)
(1.00684 0.011216 4.21295e-19)
(-0.201652 -0.0967799 0)
(2.16286 0.319857 0)
(0.769675 -0.0541682 1.16107e-19)
(1.85072 -0.342362 -3.23784e-20)
(1.01936 0.00927121 4.73115e-20)
(1.3776 0.431359 2.85605e-20)
(0.963357 0.0260759 4.97405e-19)
(1.03449 0.0324693 -1.17531e-20)
(0.685591 0.234495 -3.66189e-19)
(1.57615 -0.524311 -8.0851e-21)
(2.00034 0.248754 0)
(-0.0673707 -0.0574022 2.42609e-20)
(0.82125 -0.584042 -2.14611e-19)
(-0.117858 0.277608 -2.816e-22)
(1.09007 -0.0613973 3.0542e-19)
(0.79814 -0.141746 0)
(0.968073 0.0241689 4.72017e-20)
(1.43463 0.673654 0)
(1.55152 -0.913122 0)
(1.35484 0.237627 0)
(-0.26729 0.430391 0)
(0.74966 -0.623673 3.72168e-19)
(0.527159 -0.339454 -3.07866e-19)
(0.583913 -0.143947 2.03547e-19)
(1.60829 0.188355 0)
(1.1313 -0.090849 -2.79211e-19)
(1.12508 0.0245134 2.08587e-19)
(-0.0830998 0.275344 1.55541e-19)
(0.68585 0.560185 0)
(2.10729 -0.18712 -5.69909e-22)
(0.928618 -0.441712 1.0431e-19)
(-0.440719 -0.949391 1.70596e-19)
(1.90879 0.237965 1.5101e-19)
(-0.151149 0.4018 -3.11494e-19)
(0.772114 -0.700985 0)
(0.608285 0.41187 1.78825e-19)
(1.55948 -0.197298 -6.06239e-20)
(0.0135729 0.0949534 -2.23231e-19)
(1.03804 0.0824813 -1.15653e-19)
(1.57981 -0.258167 0)
(-0.0896906 -0.076237 -7.2569e-20)
(0.698845 -0.0198286 8.87377e-20)
(1.65254 0.923811 0)
(-0.0872293 0.338441 -2.97605e-19)
(0.942043 0.811379 -2.82692e-19)
(-0.386325 0.121346 3.35647e-19)
(1.03163 -0.0208043 0)
(1.30793 0.134424 1.45737e-19)
(-0.250211 0.420098 0)
(0.660984 -0.451186 -1.3122e-19)
(-0.281838 0.204848 -1.86682e-19)
(0.746563 -0.67946 0)
(0.397185 -0.203826 4.76069e-19)
(0.499745 -0.407732 3.34674e-19)
(0.386224 -0.349082 0)
(0.936305 -0.743556 -1.90852e-19)
(0.614207 -0.232112 0)
(-0.0469808 0.382661 -1.62265e-19)
(0.768343 -0.656467 1.83335e-19)
(2.26175 -0.245268 1.91466e-20)
(2.05827 0.0592479 0)
(-0.0336191 0.00497521 0)
(0.734784 0.682999 -3.48747e-19)
(1.70826 -0.60435 -5.21324e-20)
(0.0423332 0.0462454 0)
(0.938841 -0.766705 -2.00472e-20)
(1.12362 -0.0908599 0)
(1.06602 -0.108813 4.84113e-19)
(2.01227 -0.177523 1.63181e-20)
(-0.325999 0.412274 0)
(1.17592 -0.527145 -8.09104e-20)
(-0.188203 0.295916 -5.66321e-20)
(-0.202244 0.360835 0)
(1.0475 -0.775083 1.06444e-20)
(1.0069 0.00611582 -7.03678e-19)
(0.611885 -0.432837 -1.2747e-20)
(0.779392 -0.4743 0)
(1.15158 -0.695798 -1.43935e-19)
(0.685919 0.29433 2.80686e-19)
(1.23883 0.134434 0)
(1.56396 0.0531699 -2.34452e-19)
(1.14751 -0.816598 -3.59094e-19)
(-0.0478201 -0.0027653 -2.76183e-20)
(-0.0914928 -0.383678 -3.75498e-20)
(1.08319 0.016396 2.59122e-19)
(0.882441 -0.427845 -1.31186e-19)
(1.48751 -0.688098 7.48425e-21)
(0.601183 -0.451222 4.17021e-20)
(0.662647 -0.116503 2.8543e-20)
(-0.144565 -0.0843671 -6.81148e-20)
(1.34374 0.426275 0)
(1.98946 0.398805 -8.5857e-20)
(1.51361 0.680305 1.31688e-19)
(0.76972 -0.574624 -2.7141e-19)
(0.995423 0.00975314 1.44199e-20)
(0.68061 -0.48953 3.60859e-19)
(1.37476 0.839378 1.21315e-19)
(1.82572 -0.0268641 1.63598e-20)
(-0.342514 0.371755 0)
(1.09572 0.0622037 -2.67147e-19)
(-0.542207 -0.486166 -9.68994e-20)
(1.11995 0.520966 8.33872e-20)
(0.0700576 -0.134389 4.11775e-20)
(1.1626 0.0300994 -5.01956e-20)
(-0.192763 0.196355 -2.03976e-19)
(1.36019 0.611289 -7.60133e-20)
(1.20283 0.935777 0)
(-0.326523 0.352467 -9.1527e-20)
(0.0970937 0.196206 0)
(0.702652 0.608538 -2.90232e-19)
(2.136 0.0824474 -2.23141e-20)
(-0.00858366 -0.00361787 5.90489e-20)
(-0.369378 0.135902 -4.47405e-19)
(0.732099 0.12944 2.73856e-19)
(2.03785 -0.342264 -3.38168e-20)
(0.948836 -0.316612 -3.76684e-20)
(-0.014967 0.00212154 0)
(-0.563793 -0.47601 3.10174e-19)
(1.41365 1.02677 -3.76098e-21)
(0.85133 0.117992 -1.49967e-19)
(0.599242 0.562979 2.01726e-19)
(0.549632 0.2046 0)
(-0.139669 -0.186153 -5.29435e-20)
(-0.527012 -0.700592 2.54707e-19)
(1.23653 -0.914198 1.13797e-21)
(0.982168 -0.0120709 -2.20915e-19)
(-0.156591 -0.146843 5.29704e-21)
(-0.190591 0.225321 1.71952e-19)
(-0.223075 -0.183964 -5.00969e-20)
(1.16357 -0.413118 0)
(1.14616 0.0494743 -3.57154e-19)
(2.2466 -0.268551 9.03501e-20)
(1.22583 -0.590411 1.6284e-19)
(2.21647 -0.0673234 1.36495e-20)
(0.630372 0.393517 0)
(0.998121 0.79556 -1.66577e-20)
(0.732427 0.674792 1.89502e-19)
(0.859023 -0.526111 1.93036e-19)
(0.731813 0.551611 0)
(1.01904 0.00782384 9.45652e-21)
(0.841347 -0.625308 2.76195e-19)
(0.877414 0.466331 -4.8373e-19)
(1.1709 -0.104147 0)
(0.060972 0.104461 -1.71194e-19)
(-0.0511455 0.213296 -1.26175e-19)
(1.67218 0.750496 0)
(1.2891 -0.898112 -9.73678e-22)
(-0.331412 0.206817 0)
(-0.297538 0.432955 1.26693e-19)
(0.785156 0.699463 -1.01715e-19)
(0.834139 -0.181467 0)
(-0.200459 -0.00545568 0)
(1.50127 -0.451116 0)
(-0.91734 -1.33152 3.4559e-19)
(1.15766 -0.844527 2.34412e-19)
(1.13141 -0.572314 8.9877e-20)
(1.02809 -0.159133 -2.2161e-19)
(0.835664 -0.655275 -2.20645e-19)
(0.17034 -0.173475 0)
(-0.519856 -0.193609 0)
(0.963551 -0.480461 2.34891e-19)
(-0.00108745 0.0213991 0)
(-0.204912 0.386084 0)
(-0.0295601 0.117438 1.94128e-19)
(0.841521 0.716196 8.82812e-20)
(1.06887 0.839613 0)
(0.743555 0.602576 -8.88844e-20)
(0.826576 -0.00184719 -2.53377e-19)
(0.792352 0.609311 -2.37953e-19)
(0.636254 0.593923 -1.73552e-19)
(-0.0567047 -0.026775 5.05572e-22)
(0.679826 -0.60899 0)
(0.919492 0.210201 -3.5217e-19)
(-0.0600879 -0.0560402 1.77233e-20)
(0.649014 0.602262 3.88829e-19)
(1.01263 0.844807 0)
(-0.703267 -0.922469 2.98591e-19)
(-0.184937 -0.0685693 7.84331e-20)
(-0.186204 0.0315691 -3.56148e-20)
(0.712223 0.61916 -1.54103e-20)
(0.970002 -0.00622748 6.77586e-20)
(-0.0537457 -0.0519061 0)
(2.22111 -0.177917 -3.31002e-20)
(0.492852 0.091679 2.71655e-19)
(0.611955 -0.564495 -9.75857e-20)
(-0.126661 0.144937 1.25738e-20)
(1.2458 0.486117 1.86009e-19)
(0.924986 0.453817 0)
(1.02669 -0.154581 2.41543e-19)
(-0.149917 -0.121298 -2.85973e-21)
(-0.123503 0.178943 4.72362e-19)
(0.910829 0.0206598 -6.209e-20)
(1.14558 0.162391 0)
(1.83105 -0.0727217 4.45106e-20)
(1.83458 -0.0199487 0)
(0.572336 0.32342 -4.91922e-19)
(-0.202836 0.255924 0)
(-0.0144804 0.00738824 7.75068e-20)
(0.681426 0.0982591 0)
(0.579972 -0.467664 -2.20004e-19)
(1.13502 0.0207771 2.45415e-19)
(-0.315945 0.380829 4.32508e-20)
(1.70516 -0.0719247 -1.29502e-20)
(1.97728 -0.242614 -6.24954e-21)
(1.14969 0.250445 -2.35812e-19)
(-0.0721419 -0.0743914 -3.59667e-20)
(1.02679 -0.811019 0)
(0.805149 0.016893 -1.78359e-19)
(0.897336 -0.341453 -3.53866e-19)
(1.65598 -0.561402 1.05929e-20)
(1.67718 0.0238399 -1.02893e-19)
(1.09475 0.000432097 4.29382e-19)
(-0.120402 -0.128734 -3.20948e-20)
(0.962591 -0.405642 -1.62715e-19)
(0.1786 -0.171251 3.08662e-19)
(1.00841 -0.00501119 0)
(1.00485 -0.00318332 0)
(-0.385423 0.0542633 -5.04775e-20)
(-0.0457216 0.371836 -1.15395e-19)
(0.170626 -0.11385 -4.21455e-20)
(1.01068 -0.11925 2.18929e-20)
(1.00064 -0.67606 0)
(1.9675 -0.362165 -4.36548e-20)
(0.893253 -0.776396 -1.42044e-19)
(1.70731 -0.553232 8.01727e-21)
(1.16539 0.88232 0)
(0.435675 -0.414979 0)
(0.653199 0.569327 -1.85049e-19)
(1.13537 0.30076 -4.28654e-19)
(2.17815 -0.264244 -4.67422e-23)
(0.878297 0.193638 1.51943e-19)
(-0.115259 -0.197289 -8.58363e-20)
(1.94056 0.160661 -4.35337e-20)
(-0.148967 -0.274329 0)
(-0.0868687 -0.0194491 0)
(-0.0835084 -0.0421729 0)
(1.28546 -0.69342 -1.71835e-19)
(-0.19257 0.361382 -2.60431e-19)
(-0.145084 0.214871 0)
(1.36748 1.02863 -2.72275e-20)
(1.14859 0.165947 -4.54773e-19)
(2.31242 0.438727 -6.36896e-20)
(1.14674 0.977779 7.55187e-20)
(-0.143453 0.389834 1.60552e-19)
(2.09955 0.0323312 0)
(-0.0920242 -0.0173572 -1.39783e-19)
(-0.203445 0.422507 3.00606e-19)
(0.780882 0.0752918 2.05441e-19)
(1.625 0.988435 2.13345e-20)
(1.61946 0.596048 4.1828e-20)
(-0.133889 0.26501 3.13592e-22)
(0.702532 -0.640576 -5.07346e-20)
(1.18464 -0.0471153 0)
(1.72847 0.0445059 0)
(0.994178 0.0489302 0)
(0.0962971 -0.099536 -3.29947e-19)
(-0.129483 -0.108943 4.0811e-20)
(1.10566 0.891445 0)
(0.993566 0.0143245 5.92668e-19)
(0.815917 0.651969 -2.37072e-19)
(-0.532408 -0.521744 -1.96777e-19)
(0.865988 0.0525589 -4.65032e-20)
(0.675612 -0.613341 -2.87074e-19)
(1.45556 0.739295 -2.84152e-20)
(0.521161 -0.397158 -3.44283e-19)
(1.13511 0.00272966 -5.23932e-19)
(0.799231 0.049086 5.40578e-20)
(1.48357 -0.176006 1.31774e-19)
(1.57332 0.173736 6.69752e-20)
(0.00935439 0.0218674 5.32082e-22)
(1.12594 0.505329 -2.79852e-19)
(1.46229 0.663153 1.0034e-19)
(-0.243959 0.0111916 0)
(-0.105722 -0.266984 3.34062e-20)
(0.0693513 0.194287 7.40611e-20)
(-0.16336 -0.126961 -3.39447e-20)
(0.524672 0.39116 0)
(0.286158 0.283782 0)
(-0.0478618 0.0557442 -1.71772e-19)
(-0.100784 -0.0915911 -1.8441e-20)
(1.05058 -0.026555 2.07723e-19)
(-0.345708 0.420512 -4.65293e-20)
(1.45158 -0.723079 -1.99861e-19)
(-0.0244509 0.357032 0)
(0.789666 -0.69859 -4.15637e-19)
(1.81324 0.139967 -1.1777e-19)
(-0.254772 -0.461613 5.40253e-20)
(0.740184 0.212517 3.5679e-19)
(0.639201 0.206717 1.15062e-19)
(0.464412 -0.436767 2.46062e-19)
(0.0435271 0.0421307 -4.4291e-20)
(1.78288 0.851325 0)
(0.440854 0.416927 -2.04633e-19)
(1.03047 -0.0108683 -3.31322e-19)
(-0.428196 0.136666 1.77573e-19)
(1.48731 0.491939 -1.12689e-19)
(-0.00954402 0.0159745 -1.51017e-20)
(0.644167 -0.587865 -1.35846e-19)
(0.842856 0.226243 -2.22904e-19)
(1.01724 0.46153 2.40409e-20)
(1.12261 -0.119132 4.38082e-20)
(0.582899 -0.172317 -3.4621e-19)
(1.92959 -0.340328 5.33566e-20)
(1.00558 0.018299 0)
(2.03384 0.546801 -2.37417e-20)
(2.07037 -0.1163 -1.1183e-21)
(0.371179 -0.115166 1.27905e-20)
(1.14871 0.375277 -2.33836e-19)
(2.17358 -0.340216 7.0697e-20)
(0.464256 0.441816 -2.64659e-19)
(-0.144796 0.0898719 2.49842e-19)
(1.71273 -0.194906 0)
(0.943776 0.00676578 0)
(0.82635 -0.729769 8.72226e-20)
(-0.172951 -0.0800675 -8.59484e-20)
(-0.640023 -0.338588 -2.33773e-19)
(0.0107535 0.0245235 -6.10867e-20)
(-0.204263 0.324043 -1.63755e-19)
(-0.204109 -0.359989 0)
(-0.0838264 -0.028168 1.01782e-20)
(0.0905771 0.222606 -1.18545e-19)
(-0.209328 0.240013 -3.9106e-19)
(0.785511 -0.0692035 0)
(1.34631 0.310582 -1.18374e-19)
(0.0557949 0.112312 0)
(0.990941 0.0249495 4.25298e-19)
(-0.0806057 -0.339788 9.30815e-21)
(0.497601 -0.368132 4.61669e-19)
(-0.697664 -0.390451 1.60408e-19)
(-0.911931 -0.733759 0)
(0.113749 0.337792 1.36592e-19)
(0.999221 0.0274186 -1.28381e-20)
(-0.110801 -0.0725937 0)
(1.00489 -0.00744482 -6.55708e-20)
(0.817805 -0.686327 -3.83418e-19)
(0.481403 -0.763825 0)
(0.910215 -0.23646 2.52557e-19)
(0.055108 0.308852 2.48278e-19)
(-0.0347097 -0.022849 0)
(-0.134932 -0.207299 -1.47846e-21)
(0.685142 -0.592076 -5.29739e-19)
(0.94494 -0.025945 -3.20886e-19)
(-0.182285 -0.0938774 9.92436e-20)
(-0.0454089 -0.0116784 4.54367e-20)
(-0.161957 -0.287562 0)
(0.99961 0.511924 0)
(-0.14641 -0.486491 4.90776e-20)
(1.52484 -0.28469 -5.70306e-20)
(1.1373 0.948635 1.79573e-20)
(1.09647 0.233399 -1.35627e-19)
(1.12026 0.0109736 -2.7727e-19)
(1.00594 -0.0628546 -1.06133e-19)
(-0.160838 -0.12317 -9.55057e-20)
(1.4867 -0.0740496 2.35143e-19)
(0.695075 0.0391302 2.26129e-19)
(1.94486 -0.152499 4.00783e-20)
(1.01076 -0.13402 0)
(0.471667 -0.64511 3.36189e-19)
(1.14431 0.027446 -5.76131e-19)
(1.83157 0.635583 -6.34783e-21)
(0.702973 -0.410035 -1.93014e-19)
(-0.086556 -0.0714951 5.428e-20)
(0.754561 -0.659562 4.98368e-19)
(1.28221 0.213712 7.86877e-20)
(1.00713 -0.00729149 2.90241e-19)
(-0.133634 -0.190761 -3.81294e-20)
(1.03249 0.0278092 0)
(2.00108 0.181198 -1.09843e-19)
(-0.0569389 -0.0331884 0)
(1.01094 0.0161433 -1.7344e-19)
(-0.846012 -0.943052 -4.09703e-19)
(1.82584 0.300731 2.66669e-20)
(0.00181565 0.191757 1.03431e-19)
(1.65303 0.0570783 -1.19848e-20)
(1.01684 -0.0158501 5.99638e-20)
(1.25989 -0.0879848 0)
(1.38798 -0.587609 -2.61882e-19)
(1.0293 0.0482911 -1.75476e-19)
(1.51892 0.826609 -4.0088e-20)
(1.28977 -0.0654456 0)
(1.38124 -0.504083 4.28345e-20)
(-0.0555287 0.0638179 0)
(1.29464 0.0447388 0)
(-0.101353 -0.104393 0)
(1.29354 0.478713 0)
(2.03797 0.186345 6.15639e-20)
(0.790294 0.662134 4.15472e-19)
(0.267624 -0.268103 -2.91389e-19)
(-0.0932675 -0.070162 -1.08435e-19)
(-0.0288235 -0.000713576 0)
(1.95238 0.277509 -9.12746e-20)
(1.5077 0.543893 0)
(1.53544 0.297642 0)
(-0.134857 -0.0314517 6.04991e-20)
(0.860807 0.760341 1.30417e-19)
(1.61488 -0.0282334 0)
(0.0273823 0.0383077 3.05581e-20)
(0.936186 0.258239 2.06478e-19)
(1.18231 0.347989 7.49398e-20)
(1.31221 0.976217 4.20549e-20)
(0.869104 -0.781678 -6.91918e-20)
(1.36797 0.142261 5.60994e-20)
(0.847945 0.765812 1.33256e-19)
(1.24897 0.977324 0)
(1.33506 -0.0606083 -3.65974e-20)
(1.13691 -0.197043 0)
(1.38409 0.620385 -1.80908e-20)
(1.25083 0.0997921 2.61063e-19)
(1.00557 -0.00186404 0)
(0.678467 -0.276849 4.19302e-19)
(0.86904 -0.133802 5.67898e-20)
(0.592418 -0.357668 0)
(0.633798 -0.329499 2.48899e-19)
(1.29832 0.58885 -3.39076e-20)
(0.517319 0.490014 2.88975e-19)
(-0.234878 0.291512 4.57351e-20)
(0.409904 -0.0961106 1.29766e-19)
(0.743019 0.0662215 0)
(1.26666 -0.860409 -1.85503e-19)
(1.03809 -0.0417122 4.60259e-19)
(1.66774 0.338733 1.85003e-19)
(0.0218289 0.0293878 2.61872e-20)
(-0.694147 -0.551423 0)
(1.18934 -0.223535 -1.50346e-19)
(-0.029551 -0.0168525 -4.60543e-20)
(0.426673 -0.654627 -2.65743e-20)
(-0.162249 0.0824682 -1.15966e-21)
(-0.235294 0.131115 3.86686e-19)
(1.01106 -0.167133 1.83671e-20)
(2.24969 -0.154514 4.43289e-20)
(1.24633 0.481519 -2.99984e-19)
(0.916477 -0.0697691 0)
(1.77224 -0.00383276 1.7357e-19)
(1.79872 0.0760431 -7.04937e-21)
(0.866189 -0.724782 1.93781e-19)
(1.09572 -0.922811 -1.05569e-19)
(0.521002 0.485078 1.9349e-19)
(1.32865 -0.361317 0)
(1.85904 0.577212 4.71832e-20)
(-0.0364167 -0.016232 -9.44855e-20)
(0.939069 0.819839 0)
(1.37315 0.376228 0)
(0.267046 -0.266091 -3.17037e-21)
(0.373044 0.375242 0)
(-0.752373 -0.573825 -2.06156e-19)
(-0.268516 0.384932 -1.36161e-19)
(1.65119 -0.426212 0)
(1.2555 0.0751783 1.72034e-19)
(-0.234729 0.00843801 1.97386e-19)
(0.496916 -0.469401 -5.76602e-19)
(1.88486 -0.0808709 -6.5257e-21)
(0.571854 -0.516554 0)
(1.06205 0.141012 0)
(1.29195 -0.241189 0)
(1.15728 0.252667 -2.52682e-19)
(1.38014 0.107006 3.59011e-19)
(-1.10892 -0.894434 0)
(0.853803 -0.0565628 0)
(1.56664 -0.0339034 1.78315e-20)
(-0.135468 0.212588 1.29496e-19)
(1.83732 -0.210406 -1.18353e-19)
(0.997446 -0.47605 4.08836e-20)
(1.30024 -0.116657 -1.08753e-19)
(-0.547135 -0.0303805 -1.53516e-19)
(1.78646 -0.0294215 -1.44021e-19)
(1.01373 -0.0117358 4.81623e-19)
(1.59928 0.619947 0)
(-0.244029 0.417155 3.68505e-20)
(0.954159 -0.787122 2.56257e-19)
(0.854232 0.0219424 5.43546e-20)
(0.594147 -0.381741 0)
(1.82228 -0.514913 -1.13112e-20)
(1.17338 -0.178414 2.03272e-19)
(0.55738 0.581571 0)
(0.570096 -0.527767 6.05313e-19)
(1.01021 0.179819 1.01088e-20)
(1.84149 -0.315002 2.49286e-19)
(-0.15371 0.257751 -2.63025e-19)
(1.3994 0.65047 1.45888e-19)
(1.19923 0.435907 3.82936e-21)
(0.944015 0.414872 2.39375e-19)
(1.54785 -0.221558 -8.93854e-20)
(-0.160976 -0.135969 4.2786e-22)
(0.30565 -0.136363 0)
(-0.13649 -0.102275 8.84246e-20)
(1.02941 -0.895132 0)
(1.01607 -0.617469 2.96715e-20)
(0.707146 -0.239687 -1.50255e-19)
(-0.293282 -0.826375 2.88123e-20)
(-0.349778 -0.261555 -1.3991e-19)
(1.03671 0.521624 1.82578e-19)
(0.267988 -0.154579 3.64351e-19)
(0.70521 -0.0404133 0)
(0.931088 -0.0674507 0)
(1.91237 0.0834353 1.53574e-20)
(0.761998 -0.0163812 0)
(1.32197 -0.196304 -2.09165e-19)
(-0.752769 -0.358673 3.56588e-19)
(2.00543 0.494586 3.602e-20)
(1.05523 -0.03181 0)
(0.512387 -0.290441 1.2494e-19)
(1.00704 0.0271752 2.2794e-19)
(0.8954 -0.104161 -3.02553e-19)
(-0.123487 0.22114 0)
(1.07021 -0.452393 6.52767e-19)
(1.44116 0.154929 2.06347e-22)
(1.05863 -0.463241 -2.8356e-19)
(2.34972 0.116162 1.96182e-19)
(1.35544 0.835188 0)
(0.884225 0.0235426 0)
(-0.0245922 0.0022286 -7.31545e-20)
(-0.0512243 0.0589939 1.93346e-19)
(0.989281 0.402616 -2.20813e-19)
(-0.0469634 -0.183233 -2.06694e-20)
(0.689133 0.465774 2.55708e-19)
(1.05861 -0.470278 0)
(0.501358 -0.465545 0)
(-0.0354272 0.417305 -5.79717e-21)
(1.18266 -0.477968 -1.39699e-19)
(0.648311 0.0134866 2.63574e-21)
(0.722735 -0.0999495 1.3554e-19)
(-0.113371 0.169195 -3.44397e-19)
(1.58583 -0.325289 2.37839e-19)
(0.711089 0.663789 0)
(1.33725 0.731841 0)
(1.66997 0.259625 0)
(-0.199041 -0.252382 -5.18848e-20)
(1.39687 0.614484 2.66565e-19)
(1.9905 0.00178888 6.36533e-21)
(0.969337 -0.0172074 0)
(2.16231 0.293719 0)
(1.85566 -0.0820508 -1.89241e-19)
(1.1843 0.216533 3.62817e-19)
(1.00505 0.00786898 -2.27134e-19)
(1.56721 0.50833 0)
(-0.162434 0.27891 0)
(1.29347 0.33636 3.03184e-19)
(1.07284 0.565715 -1.3512e-19)
(1.08132 0.0312455 0)
(1.44144 -0.384502 0)
(2.16523 0.681452 -3.85476e-19)
(-0.115754 0.319755 -1.11565e-21)
(0.994005 0.0162057 0)
(0.75368 0.526995 -3.50643e-20)
(0.884018 -0.778367 0)
(0.998575 0.0187472 5.30753e-20)
(-0.125517 1.21991 -8.82531e-20)
(0.873267 -0.28663 3.74947e-19)
(-0.000957776 1.04683 9.33365e-20)
(2.06267 -0.149715 -1.46861e-20)
(1.73895 0.230794 4.72853e-20)
(0.765194 -0.0292584 0)
(1.0016 0.0133296 0)
(-0.418336 -0.469931 0)
(0.715512 0.685538 -1.92847e-19)
(-0.099641 0.140431 2.31748e-19)
(1.21453 0.376929 -4.8725e-19)
(-0.348766 0.282563 0)
(0.879376 0.690106 1.74386e-19)
(0.974594 -0.299656 0)
(1.00573 0.00140208 1.32719e-19)
(0.890563 -0.347074 3.53086e-20)
(1.07925 0.437095 2.69118e-19)
(1.7452 -0.135298 0)
(2.18259 0.0285908 -6.96933e-20)
(0.818033 -0.0680517 -4.18593e-19)
(-0.85287 -0.705795 -2.80905e-19)
(1.37108 -0.120766 0)
(0.907313 0.280077 1.89048e-19)
(1.82794 -0.228574 0)
(0.822393 0.570646 3.79197e-19)
(-0.925559 -0.574443 1.34744e-19)
(-0.118661 0.175495 0)
(0.637726 0.607845 -7.33351e-20)
(0.98242 -0.603993 -2.06512e-19)
(0.438914 -0.172623 -1.38926e-19)
(1.01924 -0.00574941 0)
(-0.16191 0.0353872 -2.13169e-19)
(0.596589 -0.525723 9.92565e-20)
(0.939925 0.32743 0)
(1.2853 0.0327603 -1.38657e-19)
(1.04289 0.888342 2.43848e-20)
(-0.270237 0.998739 8.08539e-20)
(-0.0261209 0.0498931 -4.87058e-20)
(0.193652 0.0979392 -6.09167e-19)
(-0.0438295 0.00459004 2.65854e-21)
(0.858813 0.402891 2.61359e-19)
(-0.207527 0.385095 -6.27639e-21)
(1.35427 -0.617852 3.0687e-21)
(1.01986 0.0204193 -3.97866e-19)
(-0.289048 -0.301712 0)
(1.04242 0.0463534 -4.57917e-19)
(2.04579 -0.164603 7.43203e-20)
(0.938822 0.735962 2.90424e-19)
(1.11971 -0.0600997 1.92041e-19)
(0.999462 -0.0141623 1.84139e-19)
(-0.16495 -0.875138 -2.64215e-20)
(0.0519367 0.0613238 4.69718e-22)
(1.64605 -0.833872 1.34556e-20)
(1.08635 -0.121162 -1.08111e-19)
(0.767392 0.0490729 1.2547e-19)
(0.884885 -0.259252 1.0712e-19)
(1.2542 0.215908 0)
(1.01602 0.780624 0)
(0.791061 -0.606996 -4.20612e-20)
(1.96369 0.174789 -2.48659e-20)
(-0.8078 -0.440457 1.16653e-19)
(0.987963 -0.502219 -6.71989e-19)
(0.574988 -0.488163 4.6854e-19)
(1.68934 0.00550398 -1.61983e-19)
(-0.118863 -0.166957 2.81488e-21)
(1.06368 0.384352 0)
(0.764727 0.167829 -7.42886e-21)
(0.902872 0.59291 -4.61757e-21)
(1.09638 0.806282 0)
(0.281574 0.921678 0)
(0.237537 -0.300985 0)
(0.00980416 0.0318534 -1.83395e-20)
(-0.0308226 0.158115 0)
(1.83831 0.126834 4.00205e-19)
(1.25857 0.197591 6.89628e-21)
(-1.16924 -1.09805 1.73168e-19)
(1.85121 0.798655 1.50981e-20)
(1.9319 0.439283 -9.69102e-20)
(2.05463 -0.320369 -1.07981e-21)
(-0.204364 0.0447166 -2.73458e-19)
(-0.149454 -0.251655 1.1015e-21)
(1.41306 0.140569 0)
(0.686191 -0.0344803 0)
(1.00054 0.00218224 1.6448e-22)
(-0.216145 -0.270636 0)
(1.42806 -0.0157527 6.40421e-20)
(0.68606 -0.030811 0)
(1.0418 0.0169126 1.54133e-19)
(0.986474 0.0175258 -5.18279e-20)
(1.49497 -0.323856 1.47086e-19)
(1.07295 -0.012512 -1.04872e-21)
(0.926806 -0.161073 -6.41596e-20)
(1.01843 -0.0178205 4.30848e-19)
(0.629247 -0.564775 2.27118e-19)
(-0.854469 -0.837676 -1.84481e-19)
(1.71153 0.604389 8.88592e-21)
(-0.0598993 0.0784543 0)
(1.18693 0.83961 0)
(1.01988 0.00873995 0)
(0.957439 -0.733992 -1.49243e-19)
(0.981745 -0.842626 1.13641e-19)
(0.761012 -0.122172 5.28113e-20)
(-0.000656702 -0.833187 -6.63884e-19)
(0.226357 0.281664 -4.86627e-20)
(0.54247 -0.323068 -7.3705e-19)
(1.82982 0.715425 -4.3134e-20)
(0.330075 0.637271 -1.9274e-20)
(1.97138 -0.297074 -2.35456e-20)
(0.627878 0.0829152 -2.16724e-21)
(0.02205 0.0292252 -4.23937e-20)
(1.16519 0.590753 2.02718e-19)
(-0.272112 -0.112299 0)
(-0.00252801 -0.30708 6.12907e-20)
(-0.122604 -0.0573531 1.71144e-22)
(1.03066 -0.0420522 3.77889e-19)
(1.01927 0.0119534 -9.86578e-21)
(1.11328 -0.0083231 -1.04643e-19)
(0.378997 -0.627813 5.08027e-20)
(1.69597 0.323387 5.46369e-20)
(0.360748 -0.334456 -3.71947e-19)
(1.17848 -0.252286 -1.03095e-19)
(1.02661 0.0132319 -2.83892e-19)
(1.05416 0.29157 -9.14916e-21)
(0.763673 -0.594425 0)
(1.16506 0.628683 -3.79039e-19)
(1.00265 -0.00159673 1.08366e-19)
(0.725426 0.653197 2.69462e-19)
(1.21316 0.303041 1.20723e-20)
(1.07994 -0.0027305 -3.39848e-20)
(1.13784 0.0182372 9.6873e-22)
(1.99242 -0.243543 1.25331e-20)
(0.094038 0.0507356 0)
(1.04594 -0.0385365 0)
(1.04934 -0.033545 6.63329e-19)
(1.00268 -0.00102405 0)
(-0.0605999 -0.0168866 0)
(0.893429 -0.536371 0)
(1.001 0.00142006 -6.30348e-19)
(1.10693 -0.64606 1.27157e-19)
(1.02164 0.000720547 1.33414e-20)
(1.42245 1.00401 -2.06486e-20)
(1.61949 1.05405 -6.13862e-20)
(0.349238 0.237442 8.36311e-20)
(1.38748 -0.201993 1.29206e-19)
(1.84298 0.287156 0)
(-0.0149328 0.297662 0)
(1.86267 -0.185783 1.13746e-19)
(0.145072 0.788103 0)
(0.999716 -0.00383698 -1.94279e-19)
(1.01049 -0.000632215 3.77853e-19)
(1.48385 0.13873 -7.37909e-20)
(0.00457094 -0.11246 7.31526e-20)
(0.980175 0.000690092 2.04833e-19)
(0.852417 -0.235016 -3.01633e-20)
(2.13613 -0.126371 -2.11871e-20)
(0.232151 -0.451517 1.11415e-22)
(0.923732 0.0190002 -2.0997e-19)
(1.00363 0.00504549 2.454e-19)
(0.999958 0.000682402 1.44644e-20)
(0.790589 -0.0127123 0)
(0.731516 -0.0261751 0)
(0.728405 -0.0265572 9.59e-22)
(0.705901 -0.0286472 0)
(1.75049 0.271389 0)
(2.09034 -0.00323781 0)
(1.69597 -0.178141 6.86728e-21)
(1.93043 -0.147578 -6.24914e-21)
(1.55251 -0.678039 0)
(0.731649 -0.511521 -2.1721e-20)
(-0.151554 0.0108515 0)
(0.91585 -0.163469 0)
(0.502249 -0.0698959 0)
(0.133696 0.0430097 1.91603e-20)
(0.606149 0.218512 -6.06042e-21)
(0.772835 0.0233691 0)
(0.783296 0.0196812 0)
(0.963698 0.0218991 -2.58317e-19)
(0.813188 0.00810927 4.78972e-19)
(1.00872 -0.00125244 0)
(1.00034 -0.000297069 4.52879e-19)
(1.00022 -0.000400197 -2.10032e-22)
(0.781461 0.0219009 4.10513e-19)
(0.998381 -0.00573276 -2.35309e-19)
(1.10526 -0.171805 0)
(1.99241 -0.135445 2.12014e-20)
(1.00078 -0.000139982 -2.28326e-19)
(0.999722 0.00256892 -3.92819e-19)
(0.636136 -0.199861 0)
(0.998858 0.00214905 0)
(0.999747 0.0006777 0)
(1.55296 0.0130032 8.27613e-20)
(0.200353 0.470718 -7.72409e-20)
(1.49769 0.0575923 0)
(-0.347672 0.398861 2.20061e-19)
(0.450486 -0.417683 -4.14072e-19)
(1.02182 -0.00976067 -3.04781e-19)
(-0.112543 -0.134207 -3.66406e-20)
(1.01663 0.0105697 -2.46511e-19)
(1.12587 -0.202715 -1.56436e-19)
(0.760853 -0.428051 3.69456e-19)
(-0.00428659 0.0182645 -2.40126e-20)
(1.0265 0.0178168 0)
(1.07228 -0.0088612 -6.51006e-20)
(0.844515 0.0291987 0)
(-0.108957 0.137654 3.41669e-19)
(-0.0096142 0.912098 0)
(-0.169587 -0.155968 -1.07151e-19)
(0.684979 -0.295173 7.8278e-21)
(1.75045 0.702467 3.48066e-20)
(-0.0860681 0.0282786 0)
(1.05389 -0.036722 2.0512e-19)
(0.195601 0.166084 -7.17682e-21)
(0.929574 0.0193756 3.20282e-19)
(1.01433 -0.00321456 -2.07133e-19)
(1.77547 0.894568 6.37881e-20)
(0.568491 0.537408 0)
(0.495608 0.465782 2.13728e-19)
(2.16354 0.145721 -5.24795e-21)
(1.18525 0.139312 2.09935e-19)
(1.03913 -0.673804 0)
(1.0239 0.0101697 0)
(1.00094 -0.0159415 -4.76379e-19)
(1.01713 0.0199554 -4.68266e-19)
(-0.0787534 -0.0248932 0)
(1.28828 0.866256 -1.2382e-19)
(1.09525 -0.186541 -1.28533e-20)
(1.01653 0.0105711 1.7944e-19)
(1.01112 0.0168686 -2.25719e-19)
(-0.198974 -0.0872083 -1.16197e-20)
(0.447582 0.596396 9.96664e-20)
(1.02053 -0.0104072 7.63784e-19)
(1.72179 -0.328613 0)
(1.98231 0.655621 -7.484e-20)
(1.01692 -0.00650218 -2.3842e-19)
(2.04103 0.0155845 -3.67081e-20)
(1.07123 0.0135999 -5.447e-22)
(1.01015 -0.00703457 4.75293e-20)
(1.93362 -0.233704 -1.38025e-20)
(1.01554 0.00971205 2.32293e-19)
(0.49873 0.656425 -2.1389e-20)
(1.01801 0.009904 0)
(0.956336 0.180921 5.43962e-20)
(-0.74911 -0.91147 3.49165e-21)
(0.997658 0.0231141 2.30965e-19)
(1.03997 0.0216412 -4.95659e-22)
(1.06533 -0.0100745 4.0635e-20)
(1.31286 0.337642 4.29841e-19)
(0.993219 0.0197619 1.59271e-19)
(1.01854 -0.0095483 5.76367e-22)
(1.81923 0.225612 -1.76392e-20)
(1.93432 1.00876 -1.33755e-19)
(0.730041 -0.654048 8.08219e-20)
(0.405111 -0.25203 -3.52532e-19)
(1.0096 -0.00724149 0)
(1.01935 0.00661442 5.76704e-20)
(1.01154 -0.00467394 1.21056e-19)
(0.00308542 0.470762 -4.00031e-20)
(1.0132 0.0116211 -2.41795e-19)
(1.02335 -0.013326 2.79482e-19)
(1.00965 -0.00341372 -2.26164e-19)
(1.01403 0.0109209 -5.45032e-22)
(1.01339 0.00788936 -4.2801e-22)
(1.02255 0.0193624 2.31861e-19)
(0.915205 0.124365 5.67091e-19)
(2.28665 0.679458 0)
(0.580002 -0.518769 8.55076e-20)
(1.00964 0.00185625 0)
(1.02445 -0.0110888 -6.68452e-20)
(1.60507 0.449258 -7.61866e-20)
(1.91661 -0.15098 0)
(1.18376 0.170024 9.53473e-20)
(1.63519 0.378678 -7.69651e-20)
(0.78658 -0.0204622 0)
(1.67088 -0.243462 0)
(1.0521 0.549736 -4.03626e-19)
(0.146968 -0.561515 4.59886e-20)
(1.01756 0.00214971 -2.43098e-19)
(1.07247 -0.53138 -8.16268e-20)
(0.829455 -0.198469 4.91476e-20)
(0.869914 0.795555 0)
(1.43176 0.366088 0)
(2.34772 0.604745 0)
(-0.0511869 0.192403 1.27229e-19)
(0.290619 0.411705 8.9359e-20)
(0.378921 0.477095 0)
(-0.0142769 0.273979 -2.92793e-19)
(1.80342 1.01125 -9.3685e-20)
(1.0068 0.00123019 -4.7567e-19)
(0.171543 0.273797 -4.5087e-20)
(1.02069 0.0171304 3.15429e-19)
(0.705594 -0.0452905 0)
(-0.123527 -0.0439115 -7.15427e-21)
(0.659005 0.492291 -3.60565e-19)
(1.94419 0.536294 1.92832e-19)
(0.0452317 0.294765 0)
(0.75692 0.068336 1.04033e-19)
(0.564269 0.541973 5.39113e-20)
(1.25328 0.933209 -3.27598e-20)
(-0.0646776 -0.0499574 3.41063e-20)
(1.02432 0.0230899 0)
(0.554724 0.768271 6.11265e-20)
(1.01133 0.00314163 1.7829e-19)
(2.17974 -0.184596 0)
(1.0105 0.0127262 2.99489e-19)
(0.00302974 -0.234982 -2.69949e-20)
(1.01939 0.0173874 -1.85255e-19)
(0.957755 0.286546 0)
(1.98167 -0.037774 -2.23195e-22)
(1.00874 0.00838655 -1.24249e-19)
(0.995098 -0.00766668 3.27439e-19)
(1.12451 0.110679 -4.41221e-21)
(1.12571 1.01294 -1.54545e-20)
(-0.123792 -0.106049 9.09747e-20)
(2.17859 0.188622 2.2379e-19)
(0.418167 0.959853 1.31841e-20)
(0.797365 0.0146472 -4.50008e-19)
(0.825922 0.0302634 0)
(-0.031487 0.755916 -1.64939e-20)
(1.02599 -0.00593863 -3.58766e-20)
(0.97338 0.0482484 0)
(1.05777 0.00537294 -2.26449e-19)
(0.0472662 1.1186 6.95523e-20)
(-0.843337 -0.764065 1.05142e-19)
(2.06354 -0.563504 0)
(-0.935562 -1.00067 -5.18635e-19)
(1.45396 -0.329588 0)
(1.04225 -0.0149487 6.66188e-20)
(1.07167 -0.493146 -2.09957e-21)
(1.01162 0.0051009 1.93373e-19)
(-0.635173 -0.447941 3.54544e-19)
(1.01989 0.00910828 0)
(0.993782 0.00387878 -4.60876e-19)
(1.00743 0.0119841 2.45566e-19)
(1.51413 -0.52867 0)
(1.46064 -0.276486 1.32377e-20)
(0.956521 -0.000887925 -2.09798e-19)
(-0.130888 -0.146207 1.14765e-19)