/*--------------------------------*- C++ -*----------------------------------*\
| =========                 |                                                 |
| \\      /  F ield         | OpenFOAM: The Open Source CFD Toolbox           |
|  \\    /   O peration     | Version:  2306                                  |
|   \\  /    A nd           | Website:  www.openfoam.com                      |
|    \\/     M anipulation  |                                                 |
\*---------------------------------------------------------------------------*/
FoamFile
{
    version     2.0;
    format      ascii;
    arch        "LSB;label=32;scalar=64";
    class       volScalarField;
    location    "18.9";
    object      p;
}
// * * * * * * * * * * * * * * * * * * * * * * * * * * * * * * * * * * * * * //

dimensions      [0 2 -2 0 0 0 0];

internalField   nonuniform List<scalar> 
2186
(
0.910058
-0.218547
0.0854179
1.20295
-0.752223
-0.0485654
0.805761
-0.882488
-0.921585
1.45076
1.17905
-0.802678
-0.894193
1.14945
-0.446045
1.1533
1.17727
-1.12959
0.0117907
-0.722004
1.54893
-0.703407
1.15766
-0.88074
1.14953
1.17797
1.37114
1.0311
0.710199
1.14929
-0.708747
1.14977
-0.661829
-1.16436
-0.810061
0.225871
-1.08686
1.5383
-0.635922
-0.13018
-0.908609
-0.686226
-0.554681
-0.801518
1.02431
1.43444
0.475397
0.646178
-1.43385
-0.84937
-0.714142
1.02202
-0.554846
1.47106
-0.680482
1.08104
-0.603556
1.10845
-0.7289
0.946808
-1.0021
0.749213
0.669003
-0.113688
0.684369
0.587524
0.787114
1.4374
1.33243
-0.953661
-0.886929
-1.07011
1.40606
1.13396
1.31981
1.28895
-1.22926
1.17192
-0.816498
-0.631938
-1.29783
-0.190448
1.14451
0.734459
1.13821
1.14543
1.44352
0.00394395
-0.0143035
-0.825898
1.08343
-0.717024
1.06465
1.30702
1.15795
0.533805
-0.0385618
0.698743
-0.819022
1.12258
-1.44253
-1.43732
0.753845
1.08728
1.17899
-0.717965
1.35916
-0.689423
1.0684
-1.91771
-0.605695
-0.795631
0.671199
1.46939
-0.874578
-0.821537
-0.0462827
-1.55522
-0.827258
1.40809
0.0919141
-0.991461
0.981092
-1.31016
1.15821
-0.0245235
-0.781831
1.28072
-1.18003
0.786507
1.52264
1.37358
0.366487
0.77856
-1.35733
-0.866781
1.05207
-0.957959
-0.587776
-0.845383
0.923912
-0.0869697
-0.865328
0.830827
1.0549
1.09399
-0.611381
-0.769946
0.741078
-0.757013
-0.74604
0.708804
1.17478
1.31956
1.17967
0.65634
1.44019
0.541391
0.442643
0.550398
-0.846378
-1.15428
1.12502
1.12388
-0.00106835
0.0251815
-0.726098
-0.78191
-0.256452
-0.283201
0.473644
1.12847
1.17794
1.24583
0.54325
-0.24697
-0.749556
1.1253
-1.38333
0.984444
-0.779898
1.16349
-0.716323
0.663882
0.649587
-0.780949
-0.722367
1.27667
-0.497036
-0.894324
-0.914725
1.40591
-1.3315
1.11615
-0.841353
-1.85918
0.201169
1.32406
1.20929
-0.709447
-0.988615
-1.30278
0.207891
1.17986
-0.821422
-0.746905
-0.82113
-1.41912
1.08947
-1.14631
0.649997
-0.007273
1.45553
0.952564
1.05149
1.08518
1.3301
1.15272
1.03098
1.2428
0.503466
-0.775992
-0.690938
0.212219
0.315482
-1.12553
-0.772329
1.17679
1.27865
-0.80604
-0.755766
-1.65972
0.498992
0.78531
0.921867
1.03212
1.25671
-1.43279
1.02151
-0.854222
-0.857328
-0.809304
1.13593
0.852243
1.29663
1.32675
1.25449
1.23196
-0.873633
0.958708
1.25849
-0.903183
1.12228
0.900695
-1.74943
-0.821958
-0.796711
1.29834
1.17554
-0.914373
-1.21809
-0.790302
1.0897
-1.35311
0.872432
1.21108
1.00546
-0.850559
-0.712859
1.12766
0.740113
-0.646496
-0.479024
1.49621
-0.748309
-0.873911
0.985426
1.32316
1.14023
-0.809204
-1.00066
-0.801582
1.04538
-0.92058
0.676347
1.12443
1.16148
-0.0831401
-0.479867
1.10799
-0.908889
1.06826
1.33352
1.17155
1.16856
-1.0929
-0.830102
-0.888254
-1.06174
-1.71611
-1.35555
0.507315
-0.447314
0.729435
1.30887
1.35588
1.04929
-0.649651
1.29056
-1.03449
-0.0721893
-1.06321
-0.844295
-0.90929
0.480805
-0.74569
-0.730757
0.282965
1.06182
-0.387721
0.501477
-0.784248
-0.0199115
-0.885285
-0.780179
1.36854
0.101007
0.0157673
-0.705611
0.923064
0.666693
-0.359101
0.663924
-1.09734
-0.942844
0.783441
1.17546
1.21651
-1.56918
1.30119
1.02427
0.492495
1.38443
1.1484
1.08515
0.494416
-0.46824
-0.851583
0.998999
-0.804848
-0.810036
-1.07681
-0.74323
-0.829145
1.52193
-0.854463
-0.714505
-0.909312
1.14785
-0.727533
-1.66431
-0.819012
0.894293
-0.184304
-1.23891
1.40577
1.46843
1.26538
-0.871795
-0.0935403
1.53804
1.15282
-0.957952
0.566997
-0.861312
0.301314
1.32798
1.12164
1.02061
1.44793
-0.423788
-0.592475
-0.367675
-0.948808
-1.30757
-0.692511
-0.178561
1.46549
-1.17823
-1.18184
1.13915
0.715996
-0.831284
-1.44645
-0.855234
-1.00379
-1.14174
-0.836775
-0.703243
-0.740127
1.33931
-0.657443
-0.793986
1.16552
-1.1389
1.40269
-1.32094
-1.81998
-0.82336
1.14816
-0.778152
1.17397
0.983691
-1.33529
1.18815
-1.02601
-0.834796
-1.00096
1.15061
1.09004
-0.857806
-0.863239
-1.07743
1.12084
-1.2606
-1.74785
0.632539
1.0856
1.02503
0.846972
-0.877121
-0.951676
0.959449
-1.00904
0.951334
-2.19614
1.17131
0.0717726
1.27277
-0.828292
0.988628
0.821669
1.18109
-1.00783
1.14498
-0.859345
-0.832667
1.15152
-1.5861
0.236682
-0.772255
-0.0783091
1.1556
0.206345
0.420389
1.15257
0.357832
-0.0616932
-0.0737494
-0.714813
0.358486
-0.940869
0.8262
-0.562486
1.21515
1.27396
-0.888241
-0.841407
-0.581884
-0.699819
0.542913
-0.892094
0.967012
0.0442765
-0.888931
1.24567
-0.526535
0.493165
0.42623
-0.284928
0.928349
0.465284
-1.05897
-1.78049
-0.273655
-0.635898
1.16615
-2.08793
1.25619
1.37017
1.35766
0.774665
1.31649
-0.743423
-0.631502
1.04416
0.34711
1.14029
-0.688943
-0.882121
-1.53111
0.936166
-0.834506
-2.19484
-0.724744
-0.76278
0.069049
-1.06064
0.861431
0.82938
-0.615296
-0.844886
0.88568
0.203467
1.28444
-2.05121
-0.0706316
-0.836402
0.890311
-0.0628811
1.31333
1.55355
-1.56684
-0.75622
-0.732625
0.398607
-1.42282
1.17715
-0.892473
1.13282
0.885359
-0.850805
1.00377
0.96476
-1.71208
1.02359
-1.04938
-0.717933
-1.24596
-0.790016
-1.0002
-1.33905
-0.750465
1.15152
0.329076
-0.772857
0.724169
1.29875
1.35618
-0.238519
0.896427
-0.51265
0.912969
-0.137383
-1.32114
-0.724484
0.617087
0.943408
1.20622
-1.78267
-0.894265
-1.2633
-0.8307
0.0132021
0.867157
-1.83379
0.0755708
-1.08605
1.08016
-1.28922
1.09902
-0.878519
-0.71648
1.09762
0.798252
-1.43101
-0.0682869
1.11099
1.43648
1.17291
-1.11246
-1.15802
0.939083
-0.774465
0.926019
-0.507045
0.565406
1.10793
-0.888863
-0.713813
1.1627
-1.0461
1.39429
-0.13389
1.01434
0.273138
0.760196
-0.688824
1.38533
-0.716671
-1.29642
1.10203
0.643394
0.612612
-1.0553
-0.713882
-0.967505
0.906038
-0.103173
-0.887529
-1.23016
1.16673
0.507341
-1.0374
0.871637
1.02977
1.13115
-1.97369
-0.633545
-0.71926
1.16484
1.32625
0.624092
1.16102
0.02123
1.20063
0.244471
-0.800163
-0.552838
1.07211
1.11944
-1.37274
0.987774
-0.719388
0.937503
-0.824827
1.14379
1.09652
1.16727
-2.1422
1.06178
-1.223
-0.709224
1.318
-1.7142
-1.83209
1.2649
-1.16314
1.25372
-1.58918
-0.724486
1.18944
0.918573
1.50482
1.15014
-1.31453
1.22468
1.23299
-0.930257
0.766455
0.00318055
-0.77017
1.6431
-0.854793
1.28439
-0.751562
0.433922
1.15078
-1.11562
1.13752
-1.62336
1.06454
1.10014
1.16449
0.0896901
-0.860118
-0.482013
0.720074
0.803528
1.21385
-0.230862
0.964942
-2.19383
-0.324781
-1.35879
0.973761
1.28859
-0.811306
-0.919426
-0.079371
1.38909
-0.166838
0.867984
-0.193523
-1.39539
-0.872393
-0.72238
-1.17683
0.933755
-1.75954
-0.146573
-0.20376
-0.46983
-0.741864
-1.06903
-0.311476
1.11716
1.17004
-1.0673
-0.371171
1.13257
1.08574
1.17022
-1.41803
1.13006
1.20472
1.1476
1.2009
-1.42811
-0.113824
-0.714493
0.748895
1.15334
0.844455
0.285481
-0.0926594
-2.25872
0.124568
1.40395
-0.142187
0.355909
-0.594642
-0.0874305
-0.880612
0.919646
-0.80563
-1.1736
-0.830002
1.15064
1.15268
1.1612
0.00430463
0.464412
1.37966
-0.140736
1.1484
-0.0968929
-0.024123
0.895265
1.16958
1.24092
0.0357235
1.12402
1.12322
-1.11927
-0.0759183
1.16168
1.17408
1.17102
-0.838968
-0.871104
1.1715
0.746462
1.15309
0.335112
-0.0011189
0.198321
-1.90285
-0.454105
-0.729423
-1.55672
-0.559326
1.17713
1.18182
0.883705
-0.836376
1.15071
-0.132578
-0.0957566
0.000462062
1.15013
1.17572
1.17212
1.1846
1.16153
1.1548
1.14514
-0.0671915
-0.0176304
-0.138208
-0.177277
-0.0118306
0.0183233
0.012253
-0.100125
-0.13757
-0.111118
-0.101749
1.14472
1.1651
1.15968
1.18249
1.18003
1.17209
1.17545
1.15439
1.15915
-0.135652
-0.133035
1.17249
1.17178
-0.0093333
1.17392
1.17241
0.00324805
0.261096
-0.121096
-0.71469
-1.74854
1.15467
-0.952503
1.1528
0.770004
1.22123
-0.851322
1.1522
1.09058
1.0998
-0.712706
-0.299382
-0.978839
-0.091049
0.0768204
-0.708878
1.16762
0.169134
1.24329
1.15826
-0.0525161
1.33397
1.48783
-0.024358
1.01535
0.803589
1.15115
1.16931
1.16162
-0.849966
0.61394
0.0371199
1.1571
1.16704
-0.940595
0.195348
1.15869
-0.0436595
-0.219657
1.15853
-1.09768
1.13694
1.17044
-0.931327
1.16394
0.319196
1.15504
1.23104
-2.00714
1.1698
1.17715
0.0911036
0.821151
1.15603
1.16095
0.28542
-0.620277
0.85623
1.49622
1.16667
1.15795
1.16238
0.318078
1.15836
1.14482
1.16381
1.15831
1.16017
1.1569
1.26231
-0.774955
-2.11328
1.15949
1.1534
0.40921
-1.0889
-0.812667
-0.860217
1.01802
-1.42961
-0.686273
0.0834025
1.15525
0.869448
0.118641
0.128671
-0.0598277
-0.598757
-0.741369
0.262588
-0.784824
-1.18248
-0.209803
1.1629
0.171345
1.15036
1.06804
-0.835899
1.40751
-0.503862
-0.940216
0.900421
1.29275
0.589381
-0.829872
1.15286
0.240326
1.16093
-0.921614
1.16114
-1.12224
1.15284
0.158123
-0.860855
1.16317
1.17844
1.09598
0.221464
-0.825142
-0.599218
0.263232
1.1753
1.05116
0.260155
1.15271
1.19664
1.14531
0.337488
-1.7242
-0.551413
-1.57368
0.455804
1.15944
-0.0746091
1.15716
-1.5285
1.15432
1.19312
1.1649
-0.0663777
-0.0514824
1.18999
-0.945434
1.16682
1.17033
0.141904
-0.88158
1.09706
1.29813
1.15064
1.14685
0.409224
0.203609
1.12592
0.549627
1.16519
0.98681
-0.766197
-0.870834
0.99515
1.39904
1.15444
0.480676
-0.771653
0.477488
-1.66211
-0.691337
1.14007
-1.15212
1.13898
-1.23393
-0.844348
-0.751653
0.58841
-0.927338
-0.527125
-0.536673
1.15138
-0.82791
1.06764
-0.857622
-0.0399489
0.108517
0.106936
-0.532288
1.12497
0.196512
-0.696293
-0.25135
-0.899355
1.14413
-0.707965
0.0892721
-1.4724
1.24248
-0.327243
-0.854815
1.22352
1.14109
1.13168
0.621802
-0.792284
1.15838
1.18533
-1.45474
-0.735263
1.15047
0.937421
1.41556
1.17159
-1.25735
-0.855367
-0.751044
-1.11817
-0.875963
-0.833545
-0.0260927
-0.980941
0.941937
0.112363
1.16182
1.37039
1.14994
-0.828029
-0.985782
1.15269
-1.22325
-0.633302
1.13398
-0.212837
-0.690285
-1.58406
0.105251
1.1008
1.07126
-1.2586
0.987141
0.828732
-1.52911
1.1394
-1.31679
0.961424
-0.658722
1.13434
-1.68198
0.561894
1.15401
1.25703
-1.61543
-1.456
0.980259
1.52906
1.17431
1.18031
-1.05407
1.39017
-0.787766
-0.355848
-0.693219
0.609481
-1.73574
1.26627
1.3072
-0.862123
-1.44855
1.15022
-0.772658
0.998428
1.18386
1.11904
-1.53154
1.15441
-0.0525155
1.1817
-0.0372287
-0.244944
0.00226541
1.15742
-0.0884103
-0.344757
-0.442466
1.15436
-0.426676
1.35505
0.399199
1.49088
1.14931
-0.764709
1.13577
-0.72229
1.1265
1.12691
-0.2321
-0.459076
1.28958
1.14182
1.39085
1.10832
0.2187
1.11141
1.14288
1.01973
1.16164
-0.877021
-0.84691
-1.25247
1.25263
-1.55456
-0.727855
-0.717663
-1.63237
-0.223812
-0.0274276
1.02955
-0.0100323
1.10986
1.163
-0.739691
-1.1083
-0.833867
-1.27453
-0.848469
-0.724085
1.15778
-1.69816
1.17123
1.38403
1.21216
-0.0681659
1.17796
1.08682
-1.47087
1.11435
1.13675
-0.7805
1.13651
1.10583
-0.0691265
-0.972915
1.61103
-1.81987
-1.09361
-0.965683
0.373687
1.13228
-1.12425
-0.82903
-0.707802
1.29342
-0.953332
1.01755
1.16951
1.13913
-1.29704
1.12393
-1.76214
1.1677
1.18208
-0.300972
1.17236
0.663653
1.14439
0.854756
-1.50766
0.0406436
0.0342197
0.0905329
1.40359
-0.144343
1.18493
1.5578
-0.665908
-0.059466
1.22043
-0.0748269
1.21723
-0.0382502
-0.0522729
1.2177
1.2221
0.563818
-1.25546
0.926695
-0.614654
-0.791196
-0.543991
1.17774
1.15195
1.57021
-0.82976
-1.04439
0.884298
-0.983242
1.23288
1.15214
1.14478
1.14554
1.11248
-1.89422
-0.834354
-1.14612
0.969136
1.07614
-1.75859
-0.72875
-0.859026
1.17047
1.18823
-1.29374
-1.49204
1.19211
-1.28159
0.36071
0.940344
1.09035
-0.21949
-1.01402
-0.0959058
-0.867137
-0.653119
-1.99177
-1.6279
1.51897
1.53629
-0.686401
-0.818635
1.17037
1.1468
-0.874983
0.0655228
-0.22559
0.817984
1.25365
-1.29487
1.16276
-1.36527
-1.00196
-0.822104
-1.05878
-0.799789
1.13832
-0.853756
-1.42259
1.52847
-0.869132
1.16334
1.39422
-0.729268
1.19204
1.39903
-0.740069
1.41596
-0.881838
-1.02205
1.18358
0.179654
1.16198
1.16542
-0.885245
1.21376
0.28418
-2.03005
1.19907
1.17988
-0.768194
-1.20145
1.10277
1.15628
-0.874248
-1.49638
1.45607
-0.884107
1.06627
0.0954409
1.09617
-0.801331
-2.12267
-0.861491
-0.729024
1.26469
1.18789
1.43648
1.3792
1.14884
1.21832
1.23512
-0.856686
1.3056
1.2924
-0.746888
-0.883625
-0.8306
1.49689
-1.70448
-0.996968
0.145312
1.1084
-0.749869
-0.654601
1.19214
1.16905
-0.866581
-0.735979
-0.966228
0.172642
-1.51438
-0.745388
-0.851485
1.06162
1.04141
-0.726269
-0.306423
-0.737254
1.01295
-0.882995
-0.712876
-0.847055
1.09405
-1.43942
-0.739682
1.47645
1.0511
0.534803
1.34562
0.0797633
1.12928
1.16907
1.27777
1.35843
-0.209278
0.85458
1.1791
0.406695
-0.842071
1.58587
1.11864
1.06443
1.21748
-0.744161
-1.74926
1.00853
0.965207
1.12084
-1.9236
-1.8464
1.14428
-0.842754
0.978495
-0.0110098
1.58705
-0.838262
0.908751
0.885591
-0.71863
-0.834974
-1.13217
1.21138
-0.721006
-0.829695
0.848326
0.792051
-1.10692
1.2264
0.989875
-0.723175
-0.597675
1.11318
-2.09729
-0.832215
-0.946955
-0.709102
-0.883822
1.13968
1.16685
-2.11203
0.765891
1.16204
1.50736
0.420646
0.467434
0.193749
1.034
-0.316385
-0.716778
-1.51764
-0.433316
-0.714806
1.15022
-0.712277
0.358372
-0.82974
0.724544
0.71679
-0.712195
0.785146
-2.07618
0.6434
-0.710008
0.650197
-0.717861
0.535528
-0.82696
0.566965
-0.708042
0.968984
-1.46986
-0.709753
-0.717499
-0.826479
1.17251
0.2323
-0.746227
-0.831571
0.226346
0.27311
-0.707837
-0.833449
-0.788883
0.0211482
-0.845649
0.0645745
-0.877452
-0.14008
-0.866445
-0.148825
1.04575
-0.149352
-1.68657
1.13936
0.0724126
-0.111683
0.596431
1.12691
-1.33989
-1.98886
-0.827457
-1.29423
1.04578
1.58517
-0.991117
-0.154266
0.160567
-0.85642
-0.244164
-0.231552
1.13131
-0.712036
1.11132
-1.22509
1.65328
0.600037
1.56793
-0.732608
1.34039
-0.388161
1.16382
-0.950622
-0.8255
1.22501
1.15219
-1.50764
-0.82983
-0.713834
1.13458
-0.728651
1.14237
-0.969659
-0.908997
-0.862438
1.46767
1.19929
1.26204
1.17643
1.17305
-0.0195447
-0.489313
1.3782
-2.03921
-0.812481
1.58598
-0.730714
1.06771
1.10859
1.52983
1.57951
-0.739501
-1.29817
1.1939
0.368251
-0.322071
-0.670167
-1.10455
-2.31745
-0.732419
0.697075
-1.18651
1.35148
-1.26976
1.21495
1.29869
1.1999
-1.14924
-0.80905
-0.943238
1.24591
-0.83911
1.34628
-0.561762
-0.920762
1.41035
1.45451
-0.818932
0.264911
1.10198
-1.08806
-0.949589
0.811464
1.44597
1.37794
-0.912307
1.03606
1.01353
-0.824568
1.389
0.458564
-0.728908
-1.15051
-0.0986307
-0.0845747
1.28516
-0.752405
0.436963
0.108484
-0.0778028
-0.67078
-0.818158
1.14857
-1.45278
1.184
0.0703118
0.225659
0.840958
0.392704
-0.814734
-0.452513
-1.03916
-0.103355
0.118082
-1.10397
1.10386
-1.68687
-1.71879
1.17368
-1.02478
-0.748312
1.17049
-0.868958
1.14019
-0.0181241
-0.844978
-0.215883
0.940962
-0.709725
-1.48269
1.04045
-0.886122
1.23015
-0.442368
-0.89299
-0.839179
-0.827653
1.63573
-1.63541
1.27798
0.162321
1.11935
1.3477
0.870877
1.18066
1.33116
-0.0100822
-1.57303
1.12765
1.24484
1.51159
-0.861752
1.20765
0.840123
-0.878822
0.935379
1.35767
-0.421888
1.51671
0.307588
-0.671105
0.981304
-0.884176
-0.713195
1.10006
-0.311047
1.21536
1.20375
1.1203
-0.701545
1.07031
1.43562
-0.948572
-0.186663
-1.54043
-1.04722
-0.88725
-0.831412
1.49922
0.895123
-0.736474
1.05735
-0.886164
-0.794235
1.4188
1.39842
-1.44004
-1.22539
-0.828038
-0.869252
1.13086
-0.74401
0.208338
-0.674465
-0.317825
1.22242
-0.88097
1.56208
1.20593
1.03211
1.18368
1.47637
-0.968183
-0.88778
1.17061
1.29548
-0.639579
1.16472
-1.75681
-0.860197
-0.866898
1.25456
1.28493
-0.86549
-0.757712
0.693998
0.0486585
-1.03112
1.14018
1.13092
-1.22393
1.17136
1.21433
-1.14934
-0.74865
-0.721881
-0.855265
-0.868471
1.46091
-0.626595
1.08415
-0.750902
1.45637
1.03326
1.03534
1.10951
-2.17643
-1.17616
-0.850128
0.692942
-0.739141
1.06581
0.433195
-0.453695
1.0265
1.15161
1.19655
1.167
-0.0693371
1.19607
-0.0430154
0.556307
0.957892
-0.427989
-0.746692
-0.804984
-0.54498
1.16867
1.11463
1.16816
-1.53038
-0.671436
-0.845222
-0.651874
1.16567
1.45711
1.17931
-0.743112
-0.714988
-1.04735
-0.398054
-0.828757
-0.828565
-0.059034
1.15335
-0.633178
-0.725283
0.0724073
0.0372984
0.886077
-2.08398
-0.841172
-0.983958
1.10091
1.58656
0.134319
1.25896
1.64778
0.824942
1.3711
-0.751141
0.07689
1.54328
-0.836997
0.449283
-0.735325
-0.873033
-0.709861
-0.720117
1.13345
0.876219
1.36298
1.32441
0.0168618
0.923552
0.193217
0.0471512
-0.83326
1.26804
0.887808
1.17438
1.19087
-0.112196
-0.150304
1.18786
-1.18472
-0.830169
-0.722625
-0.72032
0.734033
-0.717849
1.11784
0.812224
-0.836594
1.37887
-0.739438
-0.178978
1.13954
-0.705918
-0.844201
-1.85297
0.760445
-0.728469
-0.974561
1.07984
1.18249
-0.106686
0.162728
-2.02735
-0.830538
-0.782006
-1.19789
-0.0823484
0.743842
-0.964813
-0.715939
1.43388
0.418069
0.52021
-0.713803
-0.878457
1.15798
1.19167
0.689321
0.678361
-0.710916
-0.847937
-0.661809
0.611947
0.585401
-0.708545
0.9943
0.300132
-0.706095
1.61356
-0.710358
-1.57552
-0.868517
-0.660785
0.987345
-0.727316
-0.735343
-0.835815
0.143036
-0.764148
0.155052
-0.684467
-0.0864032
1.34398
-0.820754
-0.0415734
-0.861504
-0.024422
1.5114
1.54328
1.40017
1.16466
1.37665
-0.568633
1.15022
-0.742511
1.18924
-0.828247
-0.842089
1.40995
-1.02481
0.618519
-1.30732
1.55087
0.0850976
1.48761
0.758599
0.926177
-0.731465
-0.734022
-0.826462
-0.875531
1.46729
1.36014
1.1481
0.773856
1.15288
1.01218
0.974822
-0.707981
-0.863727
0.411105
0.169585
0.949342
1.1674
0.103952
-0.7273
-0.705704
-1.25119
-0.825754
-1.48031
1.48989
1.18552
1.16148
-0.0834808
-0.126097
1.18394
-1.11003
-0.831035
-2.20582
-0.871309
0.937526
-0.722876
-0.712048
-0.186055
1.1623
-1.52304
-0.867184
1.15264
0.752138
0.862913
1.15106
-0.828925
1.02566
1.33936
0.983389
-0.826344
1.14755
0.494899
0.611133
-0.850436
-0.719056
1.60714
0.376468
-0.940577
0.143037
1.06277
1.1255
-0.834938
-1.17819
-0.0834718
-0.668458
-0.766285
-0.739174
0.0247687
1.1463
-0.905167
1.14517
1.42826
1.23775
1.14681
1.24706
1.3088
1.15522
-1.18132
-0.53271
-0.27036
-0.902305
-0.803477
-0.710946
1.30961
1.21122
-0.880507
1.11616
-0.661648
-0.143394
-0.710773
-0.387452
0.677411
-1.10828
1.14317
1.06219
-1.10973
-0.269801
1.49393
-1.42401
-1.11219
-0.974322
-0.743409
-0.682549
1.19768
0.923864
1.24414
-1.03218
-0.925722
-0.802365
-0.224862
-0.881501
-1.44562
-1.11012
-1.83461
1.06648
-0.654409
1.59981
-0.954296
-0.471477
-0.860326
-0.710449
1.08082
-0.88334
-0.991999
-0.843477
-0.262337
1.35877
1.37027
-2.20143
-1.277
0.974997
-0.844904
-0.787037
1.25553
-1.04869
-1.54561
-0.865059
0.900809
-0.329025
-0.881304
1.1467
0.153483
-0.757166
1.15897
-0.695222
-1.25212
-0.958483
-0.782195
0.0226703
-0.880498
1.48191
-0.838885
0.283499
-0.829368
0.943228
-0.573357
-0.796073
0.799335
0.908371
1.21183
1.1162
1.33922
-0.724348
0.99622
0.691156
-1.01859
1.0861
-0.235529
-0.584097
-1.6947
1.32897
1.3157
-0.63944
-0.758912
-1.01371
1.17199
-0.723919
0.192581
-1.13061
-0.716103
1.4455
1.17084
-0.732595
-0.706642
-0.733575
-0.726503
1.05204
-0.756519
1.13603
0.37665
0.859306
0.987267
-0.69298
-0.779543
1.09546
-0.712893
0.0286693
1.43568
-0.847786
-0.723616
0.9727
-1.01749
-0.72319
-0.0961024
-0.850578
1.50796
-0.530951
0.255216
-0.734546
1.45006
-0.737521
-0.701681
0.794518
-1.08763
-0.828433
1.48791
0.824619
1.15263
-0.732091
1.39609
-0.265316
-0.751772
-0.739995
-0.743936
-0.740655
1.42895
0.726439
-0.863683
-0.73829
-0.876479
1.28549
-0.650786
1.42643
-0.828789
0.86295
-0.721507
0.521321
0.689289
0.654731
0.573358
0.317989
-0.676404
1.16589
-0.742275
-0.550321
-1.01391
0.406395
1.46709
-0.224786
-0.728119
-0.753245
-0.723142
0.414835
-0.949493
-0.720039
0.988283
0.313369
-0.727648
1.53225
-0.878639
-1.34821
1.51166
-0.724366
0.300632
-0.67
-0.710325
-0.718636
1.50711
-0.704579
1.42886
-0.717338
-0.758162
1.33394
-0.151416
-0.69936
0.71639
-0.85235
0.166719
-0.326218
-0.719987
0.954041
-0.929386
-0.720118
-0.711517
-0.711718
-0.834352
0.992915
-0.00565217
-0.403715
-0.729998
1.457
-0.741905
-0.716693
-0.694472
-0.0439718
-0.838598
-0.697093
-0.728311
-0.00666189
1.41111
-0.743081
-0.824145
-1.02056
-0.6636
-0.0864884
-0.839767
1.54335
1.47798
0.564506
-0.825685
-0.831557
0.479452
-0.831532
1.55661
0.358924
1.2184
0.850942
1.43165
0.241061
-0.850739
-0.864044
0.0881858
-0.742463
0.0886824
0.0110021
-0.717593
1.45324
-0.230586
0.370079
-0.374995
-0.821452
-0.855205
)
;

boundaryField
{
    frontback
    {
        type            empty;
    }
    Top
    {
        type            zeroGradient;
    }
    outlet
    {
        type            fixedValue;
        value           uniform 0;
    }
    bottom
    {
        type            zeroGradient;
    }
    Inlet
    {
        type            zeroGradient;
    }
    rectangle
    {
        type            zeroGradient;
    }
}


// ************************************************************************* //
