/*--------------------------------*- C++ -*----------------------------------*\
| =========                 |                                                 |
| \\      /  F ield         | OpenFOAM: The Open Source CFD Toolbox           |
|  \\    /   O peration     | Version:  2306                                  |
|   \\  /    A nd           | Website:  www.openfoam.com                      |
|    \\/     M anipulation  |                                                 |
\*---------------------------------------------------------------------------*/
FoamFile
{
    version     2.0;
    format      ascii;
    arch        "LSB;label=32;scalar=64";
    class       volVectorField;
    location    "9.1";
    object      U;
}
// * * * * * * * * * * * * * * * * * * * * * * * * * * * * * * * * * * * * * //

dimensions      [0 1 -1 0 0 0 0];

internalField   nonuniform List<vector> 
2186
(
(1.30692 -0.0427734 1.71395e-19)
(1.601 -0.933498 -1.10839e-19)
(1.4483 -0.911543 -8.28261e-22)
(0.730142 -0.571727 -1.16689e-19)
(-0.529385 0.627672 -2.3638e-19)
(1.04617 0.00938048 0)
(0.717559 -0.662795 0)
(-0.26682 -0.482028 1.28618e-19)
(1.51606 -0.262173 2.00912e-19)
(0.545527 -0.304916 -2.26513e-21)
(0.679388 0.611202 0)
(0.847579 -0.272786 -1.4874e-19)
(-0.345674 -0.599866 -5.23606e-20)
(1.14645 0.02643 -2.8945e-19)
(1.78759 -0.676768 -1.16071e-19)
(1.01765 0.00131558 1.36113e-19)
(0.990721 0.0174451 0)
(-0.78187 0.406784 0)
(1.05356 0.00223439 0)
(-0.0442802 0.272367 -8.74997e-20)
(0.482355 0.101585 -9.42642e-20)
(-0.241413 0.168084 1.18349e-19)
(1.13935 0.0181852 2.39472e-19)
(-0.222362 0.00731046 4.23046e-21)
(1.03871 0.000534362 -1.87945e-19)
(0.780555 -0.546428 0)
(0.761713 -0.0259898 1.16889e-19)
(0.60692 -0.586407 -1.31273e-19)
(1.21811 0.719414 0)
(0.989418 0.0205684 -2.57134e-19)
(0.00182274 0.0350968 0)
(1.0252 -0.0154303 8.88257e-21)
(0.00485862 0.333325 0)
(2.06269 0.333982 1.47456e-19)
(-0.120947 -0.139117 3.71907e-21)
(1.55038 0.777936 7.12295e-22)
(1.5391 0.164503 8.41752e-20)
(0.508299 0.149839 -2.79718e-19)
(1.98642 0.222654 -4.48465e-19)
(1.05028 0.00746198 -6.24102e-22)
(-0.412791 -0.670318 0)
(-0.208499 0.162423 0)
(1.86018 -0.86944 9.80176e-20)
(-0.472061 0.234733 0)
(1.0986 0.275035 1.14531e-19)
(0.589576 -0.287685 2.31654e-19)
(0.913488 -0.778725 0)
(1.1792 -0.784276 7.43195e-20)
(1.91156 -0.661523 0)
(-0.370108 0.699632 2.62916e-19)
(0.0233592 0.105989 1.29386e-19)
(0.632532 0.582799 5.76982e-20)
(2.04722 -0.749079 1.24259e-19)
(0.592561 0.280682 -2.22884e-19)
(-0.279352 0.178422 4.43327e-20)
(0.757043 -0.643686 0)
(1.64762 -0.955957 1.80019e-20)
(0.576921 -0.537259 0)
(2.37677 0.177548 1.40148e-19)
(1.11818 -0.152545 -2.77215e-19)
(1.20968 -0.131493 7.00352e-20)
(1.35382 0.298178 -1.1809e-19)
(1.34208 0.541306 0)
(1.0775 0.0126546 6.83766e-22)
(1.36485 0.385598 -6.30177e-20)
(1.24578 -0.728405 -9.74974e-20)
(1.17822 0.668822 3.52205e-20)
(0.678489 0.0798844 -4.52366e-19)
(0.825828 0.0611051 0)
(2.13468 -0.193845 -7.18058e-20)
(-0.250621 -0.553194 -1.49539e-19)
(1.55809 -0.506216 -6.74178e-20)
(0.726485 -0.032911 -1.99531e-19)
(0.866939 -0.508719 0)
(0.823962 0.192199 -7.23944e-20)
(0.543013 -0.503736 -2.39717e-19)
(1.88543 -0.400336 0)
(1.00472 0.00473534 2.8291e-19)
(-0.102856 -0.220439 0)
(2.03745 0.418426 0)
(1.07999 0.260452 1.80838e-19)
(0.982602 0.0158952 7.22952e-22)
(1.03334 0.0174765 3.12405e-20)
(1.32337 0.418513 1.70476e-20)
(0.979418 0.0295306 3.27419e-19)
(1.04033 0.0398747 -7.76012e-21)
(0.664548 0.186199 -2.68861e-19)
(1.06308 0.00603051 1.70406e-22)
(0.596369 0.0205614 0)
(-0.0617849 -0.0180035 1.06316e-19)
(0.852947 -0.612266 -1.26755e-19)
(-0.0789694 0.523032 -1.81776e-21)
(1.08732 -0.0885387 1.90476e-19)
(0.814571 -0.184453 0)
(1.00391 0.021843 3.12569e-20)
(1.37764 0.649611 0)
(1.61048 -0.946386 0)
(1.30097 0.222315 0)
(-0.511589 0.708818 0)
(0.784227 -0.657709 2.28164e-19)
(0.830408 -0.299073 -4.52531e-19)
(0.997644 -0.0365584 3.34029e-19)
(1.4896 0.177408 0)
(1.09306 -0.121833 -1.7414e-19)
(1.0835 0.0250219 1.40009e-19)
(0.002571 0.614632 1.64776e-19)
(0.637269 0.5059 0)
(2.16409 -0.165615 -1.45203e-19)
(0.962594 -0.474427 6.33632e-20)
(-0.560969 0.522593 8.1297e-20)
(1.78706 0.27335 1.53838e-19)
(-0.262069 0.758629 -3.70985e-19)
(0.810475 -0.736783 0)
(0.564534 0.352739 1.3455e-19)
(1.67292 -0.268328 -5.75383e-19)
(-0.554594 -0.449281 -4.99726e-19)
(1.04595 -0.037295 -7.40089e-23)
(1.69698 -0.687586 0)
(-0.0873333 -0.0100265 -3.1891e-19)
(0.707872 -0.0671537 6.33617e-20)
(1.57276 0.884496 0)
(-0.283205 0.754373 -4.19189e-19)
(0.889983 0.763103 -1.97639e-19)
(-1.01241 0.297335 5.79476e-19)
(1.03331 -0.0209139 0)
(1.06728 -0.0560537 9.32414e-23)
(-0.422352 0.738326 0)
(0.687643 -0.485633 -8.55024e-20)
(-0.971637 0.345016 -3.17973e-19)
(0.783597 -0.715194 0)
(0.430123 -0.269736 3.405e-19)
(0.535334 -0.450366 2.26307e-19)
(0.40918 -0.370377 0)
(0.977902 -0.77722 -8.81889e-20)
(1.05213 0.0490544 0)
(-0.0940317 0.788856 -2.06256e-19)
(0.805038 -0.69123 1.07373e-19)
(2.35745 -0.24669 3.23149e-19)
(2.17654 0.101122 0)
(-0.0247414 -0.10726 0)
(0.688445 0.638953 -2.37433e-19)
(1.77642 -0.62454 2.37922e-20)
(-0.154287 -0.228408 0)
(0.978455 -0.801527 -9.83098e-21)
(1.10438 -0.119935 0)
(1.07379 -0.127213 3.03305e-19)
(2.09281 -0.160521 -1.41054e-19)
(-0.569818 0.604466 0)
(1.21525 -0.546512 -3.834e-20)
(-0.216796 0.400889 -5.53372e-20)
(-0.276258 0.646001 0)
(1.08839 -0.80893 1.20742e-20)
(1.00191 0.0107698 -4.72412e-19)
(0.642604 -0.472759 -8.45665e-21)
(0.806707 -0.506047 0)
(1.19509 -0.7236 -6.33037e-20)
(0.654764 0.245296 2.0882e-19)
(1.24339 0.0864567 0)
(1.53387 0.0881201 -7.74543e-20)
(1.19176 -0.851805 -1.16914e-19)
(-0.0159693 -0.0904964 -1.19137e-19)
(-0.0779191 -0.662874 -2.70653e-19)
(1.05943 0.0162181 1.74677e-19)
(0.915387 -0.462468 -7.9683e-20)
(1.055 0.00961853 -1.57763e-22)
(1.06264 0.00555785 -1.44094e-21)
(0.741985 -0.107681 1.32857e-19)
(-0.218214 0.00573888 -2.84836e-19)
(1.01531 0.0147223 0)
(1.09719 -0.0571023 2.24242e-20)
(1.44501 0.652735 6.28524e-20)
(0.8 -0.604274 -1.66418e-19)
(0.993002 -0.000589174 9.68153e-21)
(0.711498 -0.522606 2.35116e-19)
(1.31102 0.803851 6.44882e-20)
(1.86543 -0.00912823 2.85953e-20)
(-0.636313 0.471113 0)
(1.05185 0.0633174 -1.80584e-19)
(-0.987854 -0.130074 -3.99456e-19)
(1.07873 0.494928 5.76928e-20)
(0.0786247 -0.0762156 1.72047e-19)
(1.11169 0.0372639 -3.33255e-20)
(-0.141518 0.252496 -2.10721e-19)
(1.30703 0.588373 -4.29308e-20)
(1.1431 0.889533 0)
(-0.688686 0.453337 -1.20779e-19)
(-0.238522 -0.136106 0)
(0.653548 0.560246 -2.13736e-19)
(2.04316 0.175821 -3.02759e-20)
(-0.481678 -0.636067 1.78605e-19)
(-1.0566 0.0602962 -8.10576e-19)
(0.725823 0.0835564 1.98504e-19)
(2.15078 -0.393811 -5.61663e-20)
(0.975226 -0.3519 -2.3531e-20)
(0.0167637 -0.00189162 0)
(-0.15732 0.269622 2.61687e-20)
(1.33682 0.976201 2.88993e-20)
(0.839716 0.0827463 -1.07283e-19)
(0.555419 0.52018 1.47529e-19)
(0.458122 0.185273 0)
(-0.0788172 -0.785745 -2.66773e-19)
(0.244529 0.0967339 -5.02354e-20)
(1.2877 -0.952 8.59818e-23)
(0.973513 -0.036929 -1.46863e-19)
(-0.163154 -0.129423 7.32846e-21)
(-0.242855 0.313385 1.93953e-19)
(-0.353616 -0.0932218 -2.09337e-19)
(1.62712 -0.687806 0)
(1.10546 0.05074 -2.41076e-19)
(2.03541 -0.270251 1.75857e-19)
(1.26978 -0.614309 6.37053e-20)
(0.836212 0.0258095 8.88527e-22)
(0.591163 0.333714 0)
(0.947282 0.751436 -1.14881e-20)
(0.685541 0.629541 1.34043e-19)
(0.890099 -0.553441 1.14494e-19)
(0.6864 0.501339 0)
(1.01514 -0.010018 6.25131e-21)
(0.874668 -0.654162 1.63156e-19)
(0.845513 0.426415 -3.5226e-19)
(1.25709 -0.105845 0)
(-0.234218 -0.236342 -3.27469e-19)
(0.0222203 0.495398 -1.29292e-19)
(1.59372 0.724883 0)
(1.34064 -0.933224 -7.35824e-23)
(-0.802389 0.471787 0)
(-0.496394 0.72027 1.50232e-19)
(0.736815 0.651116 -7.35693e-20)
(0.852635 -0.221433 0)
(-0.234662 -0.162956 0)
(1.60925 -0.444929 0)
(-0.321718 -0.34353 2.04443e-19)
(1.20479 -0.879233 7.69081e-20)
(1.17585 -0.597477 4.25804e-20)
(1.07383 -0.147213 -1.21054e-19)
(0.872102 -0.686299 -1.28023e-19)
(0.184564 -0.188374 0)
(-1.25187 0.0657429 0)
(0.999779 -0.506264 1.30996e-19)
(-0.0798161 -0.193858 0)
(-0.35425 0.710214 0)
(-0.541781 -0.427554 4.25558e-19)
(0.794224 0.66957 6.38321e-20)
(1.01656 0.795732 0)
(0.697261 0.552493 -6.55165e-20)
(0.833573 -0.0425776 -1.78135e-19)
(0.748067 0.561686 -1.74296e-19)
(0.590611 0.548082 -1.27035e-19)
(-0.196062 -0.532798 2.63926e-21)
(0.714649 -0.640697 0)
(0.894003 0.179703 -2.50451e-19)
(-0.32369 -0.674324 6.89625e-20)
(0.603819 0.558892 2.80442e-19)
(0.960271 0.798537 0)
(-0.682269 -0.174081 3.26505e-19)
(-0.0740172 -0.426173 3.57387e-19)
(-0.0122936 -0.360179 -1.79077e-19)
(0.663484 0.567721 -1.13956e-20)
(0.980338 -0.00961548 4.58091e-20)
(-0.438663 -0.703568 0)
(2.24173 0.150313 -3.16753e-19)
(1.22525 -0.385414 -3.69785e-20)
(0.647197 -0.5987 -5.81472e-20)
(-0.734715 0.1946 2.11388e-20)
(1.19198 0.464558 1.22009e-19)
(0.894668 0.416143 0)
(1.07114 -0.204648 1.44599e-19)
(0.12489 -0.569801 -1.14256e-20)
(-0.0356536 0.12534 4.8867e-19)
(0.930873 0.0234781 -4.01678e-20)
(1.13878 0.11582 0)
(1.87087 -0.00607516 -3.0303e-19)
(1.90449 0.0257433 0)
(0.5427 0.260878 -3.68713e-19)
(-0.250955 0.366424 0)
(-0.22194 -0.478301 2.93279e-19)
(0.78221 0.0754486 0)
(0.613394 -0.506975 -1.45354e-19)
(1.08646 0.0235957 1.59993e-19)
(-0.570097 0.609942 5.67514e-20)
(1.81562 -0.0947728 -1.28239e-20)
(2.10706 -0.245792 -1.46643e-19)
(1.1038 0.222016 -1.61887e-19)
(-0.350635 -0.730728 -1.38279e-19)
(1.06907 -0.84661 0)
(0.792627 0.0201886 -1.16573e-19)
(0.92896 -0.387502 -2.26312e-19)
(1.70218 -0.562065 -9.98179e-21)
(1.69999 0.000533062 2.85302e-19)
(1.05919 0.00154285 2.90085e-19)
(0.14764 -0.631276 -1.83025e-19)
(0.995153 -0.442625 -9.56565e-20)
(0.19426 -0.186963 2.05976e-19)
(1.00206 -0.0163948 0)
(1.00584 -0.00884603 0)
(1.16713 -0.584864 -7.36388e-21)
(-0.00410112 0.751284 -1.38667e-19)
(0.187161 -0.117994 -1.54327e-19)
(1.26186 -0.193242 1.96886e-20)
(1.40974 -0.78171 0)
(2.15122 -0.391352 -1.11439e-19)
(0.936167 -0.814587 -4.70324e-20)
(1.78881 -0.541786 -9.38366e-20)
(1.10909 0.838601 0)
(0.46723 -0.448963 0)
(0.603978 0.516448 -1.37933e-19)
(1.09222 0.276205 -2.94511e-19)
(2.20194 -0.232094 4.78932e-22)
(0.859072 0.169367 1.08016e-19)
(0.1002 -0.728233 -5.98324e-19)
(0.972886 0.0603432 -1.68826e-21)
(-0.252914 -0.702548 0)
(-0.0315714 -0.116364 0)
(-0.592957 -0.640825 0)
(1.3334 -0.720106 -4.18372e-20)
(-0.291403 0.656602 -2.9084e-19)
(-0.0967707 0.246459 0)
(1.2956 0.977698 -4.54092e-21)
(1.1055 0.147033 -3.09965e-19)
(1.21372 0.256585 -2.05155e-20)
(1.08448 0.925085 3.40457e-20)
(-0.228313 0.770475 1.91312e-19)
(0.814322 0.0630927 0)
(-0.603079 -0.572421 -3.77874e-19)
(-0.3464 0.777598 3.56813e-19)
(0.780181 0.0377745 1.45957e-19)
(1.5418 0.946714 6.24856e-20)
(1.0953 -0.0640177 5.37892e-22)
(-0.141428 0.498553 -3.12229e-21)
(0.740105 -0.675152 -2.72617e-20)
(1.22981 0.00982188 0)
(1.70943 0.046756 0)
(1.12969 0.0246325 0)
(0.244374 0.361355 2.2143e-20)
(-0.513999 -0.693062 1.43159e-19)
(1.05005 0.845226 0)
(0.98558 -0.00917041 3.94704e-19)
(0.769629 0.603709 -1.7346e-19)
(-0.32571 0.0601755 -2.01701e-20)
(0.868687 0.019161 -3.23805e-20)
(0.709477 -0.646506 -1.65809e-19)
(1.39276 0.710494 -1.03314e-20)
(0.556133 -0.444104 -2.36092e-19)
(1.10345 -0.00503746 -3.51656e-19)
(0.841777 0.04013 3.41085e-20)
(1.50876 -0.172726 3.47048e-20)
(0.773959 0.00655312 -3.40078e-20)
(-0.0121976 -0.0349342 -1.33414e-22)
(1.08183 0.473039 -1.93613e-19)
(1.35203 0.621917 1.09623e-19)
(-0.127 -0.384421 0)
(0.0682439 -0.733753 2.24814e-19)
(-0.327968 -0.320777 1.37337e-19)
(-0.223665 -0.050827 -1.47658e-19)
(0.475653 0.320698 0)
(1.18744 -0.398592 0)
(0.0394529 -0.0252464 -1.78205e-19)
(-0.256015 -0.738206 -8.0255e-20)
(1.0563 -0.0219418 1.39462e-19)
(-0.573083 0.496719 -5.51833e-20)
(1.67225 -0.790606 -3.73284e-19)
(-0.0167962 0.765623 0)
(0.827419 -0.733189 -2.19275e-19)
(0.760424 0.0540801 5.46064e-20)
(-0.457098 -0.434583 2.53035e-19)
(0.71632 0.171618 2.61648e-19)
(0.621266 0.147396 8.54553e-20)
(0.496189 -0.469295 1.60881e-19)
(-0.174407 -0.299479 -1.5617e-19)
(1.09023 -0.0726371 0)
(0.392661 0.348448 -1.55689e-19)
(1.03302 -0.00889903 -2.22157e-19)
(-1.15633 0.0261867 3.14994e-19)
(1.42767 0.479972 -5.37762e-20)
(-0.103709 -0.269746 -5.87495e-20)
(0.68068 -0.62134 -1.14729e-20)
(0.81431 0.197114 -1.61216e-19)
(0.984752 0.42841 1.6894e-20)
(1.11677 -0.130501 2.63104e-20)
(0.600948 -0.225916 -2.43036e-19)
(2.00132 -0.346367 -1.97193e-19)
(0.568773 -0.0814036 0)
(1.04205 0.117538 -2.19775e-20)
(1.28222 0.232795 -1.6233e-20)
(1.22167 -0.340966 1.81053e-19)
(0.98885 0.353179 -2.37523e-19)
(1.05225 0.0318347 -1.17352e-21)
(0.41765 0.388385 -1.99917e-19)
(-0.23553 0.278848 3.8368e-19)
(2.03607 -0.144571 0)
(0.93961 0.00561299 0)
(0.866306 -0.766568 4.0002e-20)
(-0.0656158 -0.522192 -3.90902e-19)
(-1.21487 0.0238472 -3.89398e-19)
(-0.0275658 -0.0703443 -2.53018e-19)
(-0.50915 0.678564 -2.41953e-19)
(-0.363488 -0.680189 0)
(-0.0131995 -0.0725266 4.50498e-20)
(0.313887 0.562993 -1.25488e-19)
(-0.274752 0.358242 -4.43486e-19)
(0.803084 -0.109294 0)
(1.19778 -0.251785 1.29841e-20)
(-0.298341 -0.344097 0)
(1.02088 0.0212901 2.83799e-19)
(-0.0664689 -0.720845 3.08907e-20)
(0.532403 -0.416609 3.16423e-19)
(-1.04705 -0.255104 6.62301e-19)
(-1.344 -0.28812 0)
(0.32696 0.709304 1.57382e-19)
(1.01282 0.0299782 -8.50147e-21)
(-0.225801 -0.100652 0)
(1.00722 -0.0125747 -4.41552e-20)
(0.853938 -0.719474 -2.14331e-19)
(1.20562 -0.593411 0)
(0.926493 -0.274124 1.60774e-19)
(0.187448 0.681126 3.50198e-19)
(0.023244 0.0266826 0)
(-0.164154 -0.729523 -8.01871e-21)
(0.718612 -0.625868 -3.30931e-19)
(0.981195 -0.042823 -2.02265e-19)
(-0.0795219 -0.633389 4.82379e-19)
(-0.152036 -0.419396 1.79659e-19)
(-0.32442 -0.733893 0)
(0.967212 0.478696 0)
(-0.371414 -0.682538 3.22717e-19)
(2.18268 0.361603 -2.29416e-19)
(1.07875 0.898888 1.04196e-20)
(1.06218 0.211011 -9.27824e-20)
(1.15509 -0.00992359 -1.65986e-19)
(1.04442 -0.06718 -5.64984e-20)
(-0.0315161 -0.677959 -4.47207e-19)
(1.75189 -0.0430425 4.08853e-19)
(0.745977 0.0383955 1.50318e-19)
(1.80486 0.0247317 1.22396e-19)
(1.0397 -0.147673 0)
(0.142613 0.680022 3.05439e-19)
(1.09523 0.0261818 -3.84935e-19)
(1.74625 0.619156 -3.77552e-20)
(0.72798 -0.445785 -1.27877e-19)
(-0.0623704 0.000744471 2.386e-19)
(0.791374 -0.69343 2.83686e-19)
(1.22679 0.19323 5.10438e-20)
(1.00664 -0.0143734 1.95713e-19)
(0.175245 -0.772774 -2.05582e-19)
(1.04167 0.0206632 0)
(1.20735 0.115267 -1.1416e-19)
(0.0165122 0.0254322 0)
(1.03353 0.013147 -1.14863e-19)
(-0.80417 -0.221571 -2.02775e-19)
(1.69688 0.313314 -5.78622e-21)
(-0.489978 -0.333361 1.78891e-19)
(1.61499 0.0507771 -3.99381e-20)
(1.00895 -0.0208907 4.02588e-20)
(1.32618 -0.0711518 0)
(1.43461 -0.605905 -7.13047e-20)
(1.02681 0.0406142 -1.18979e-19)
(1.44869 0.791938 9.80142e-21)
(1.36013 -0.0126385 0)
(1.05015 -0.0198864 1.50302e-21)
(0.0473808 -0.0288669 0)
(1.41962 0.0443374 0)
(-0.484689 -0.711897 0)
(1.2356 0.448423 0)
(1.9254 0.260299 7.32094e-20)
(0.742336 0.614414 3.0363e-19)
(0.28844 -0.289928 -1.9046e-19)
(-0.214952 -0.657216 -4.33451e-19)
(0.0195604 -0.00044723 0)
(1.22597 -0.233841 3.67762e-20)
(1.37537 0.516925 0)
(1.4669 0.292746 0)
(-0.662857 -0.562239 1.68228e-19)
(0.810771 0.714809 8.94128e-20)
(1.70341 -0.000824718 0)
(-0.367852 -0.535192 1.00043e-19)
(0.908474 0.227398 1.46997e-19)
(1.11846 -0.12405 -2.03919e-20)
(1.24714 0.929799 2.09064e-20)
(0.912734 -0.821344 -1.67404e-20)
(0.433342 -0.0196807 -2.31561e-20)
(0.797281 0.71916 9.00262e-20)
(1.18438 0.928915 0)
(1.58175 -0.41516 7.4878e-20)
(1.45531 1.03881 0)
(1.14336 -0.0525528 4.25921e-21)
(0.988773 0.089548 2.45334e-19)
(1.00955 -0.00537993 0)
(0.320793 0.687599 1.28359e-19)
(0.891624 -0.169106 3.74963e-20)
(0.619838 -0.400448 0)
(0.658451 -0.374255 1.70138e-19)
(1.24044 0.562348 -2.17429e-20)
(0.473988 0.446651 2.14932e-19)
(-0.3188 0.455448 5.23729e-20)
(0.141839 0.0165967 1.28574e-19)
(0.80289 0.0686363 0)
(1.31536 -0.896125 -2.05918e-20)
(1.05134 -0.0379981 3.08697e-19)
(1.5284 0.316737 1.88145e-19)
(-0.409626 -0.585595 8.67758e-20)
(-1.10376 -0.174951 0)
(1.19154 -0.239159 -8.33156e-20)
(0.0266306 0.0239319 -2.06747e-19)
(0.433249 0.53845 -5.10446e-20)
(-0.135402 0.0300892 -5.35436e-22)
(-0.215123 0.0929147 3.94284e-19)
(1.06057 0.0103436 -6.91398e-22)
(2.30361 0.00609601 4.24219e-19)
(1.20087 0.465616 -1.96752e-19)
(1.00606 -0.0361106 0)
(1.79631 0.017478 2.82863e-19)
(1.79322 0.132148 1.24123e-19)
(0.904568 -0.759008 1.02695e-19)
(1.14532 -0.964876 -6.43469e-21)
(0.47863 0.443668 1.42656e-19)
(1.7745 0.901152 0)
(1.7789 0.568861 6.93874e-20)
(0.0262141 0.0171054 -4.21779e-19)
(0.887914 0.773523 0)
(1.05587 -0.0724955 0)
(0.289234 -0.288807 -3.67258e-21)
(0.325957 0.308568 0)
(-1.38088 0.101877 -5.54364e-19)
(-0.400521 0.639565 -1.58046e-19)
(1.73208 -0.399228 0)
(1.3115 0.0196329 4.93425e-20)
(-0.784133 0.0700707 3.29355e-19)
(0.528385 -0.501224 -3.62531e-19)
(1.86251 -0.0537335 -4.87425e-20)
(0.605622 -0.549027 0)
(1.05604 0.119317 0)
(1.36733 -0.219947 0)
(1.11292 0.228005 -1.70297e-19)
(1.30103 0.106212 2.38085e-19)
(-0.877136 -0.0446026 0)
(0.853405 -0.0723647 0)
(1.58339 -0.107218 1.88064e-20)
(-0.0903259 0.254185 1.34889e-19)
(2.12005 -0.34068 -2.32925e-19)
(1.05823 -0.503663 2.15955e-19)
(1.58635 -0.106633 -2.26771e-19)
(-1.32121 0.105757 -2.58826e-19)
(1.90316 0.0188371 -2.39976e-19)
(1.01337 -0.0133662 3.19125e-19)
(1.53465 0.601241 0)
(-0.401955 0.722772 4.20891e-20)
(0.99638 -0.823051 1.19287e-19)
(0.859287 -0.0140023 3.78482e-20)
(0.624088 -0.423065 0)
(1.89908 -0.534585 1.06607e-20)
(1.19739 -0.191724 1.06211e-19)
(1.12424 -0.141426 0)
(0.602341 -0.559041 3.24935e-19)
(0.66373 -0.067222 -2.55914e-20)
(2.10499 -0.485793 4.65623e-19)
(-0.14283 0.398137 -2.79385e-19)
(1.33698 0.623969 8.23706e-20)
(1.15117 0.411197 2.60548e-21)
(0.916242 0.37809 1.72263e-19)
(2.01393 0.462733 -2.20287e-19)
(-0.047477 -0.725064 -7.98538e-21)
(1.19579 -0.173114 0)
(-0.156277 -0.0928918 3.94597e-19)
(1.07998 -0.939078 0)
(1.05597 -0.642063 1.57218e-20)
(1.58617 0.278937 -7.78065e-19)
(1.0607 -0.00350718 -1.33252e-21)
(-0.794994 -0.448376 -5.59538e-19)
(0.999028 0.48945 1.29041e-19)
(0.344639 0.528484 -2.42262e-20)
(0.741863 -0.0385504 0)
(0.892308 -0.197374 0)
(0.785 0.159657 8.393e-21)
(0.754235 -0.012748 0)
(1.35495 -0.221861 -1.09287e-19)
(-1.86119 0.132653 7.18774e-19)
(1.91228 0.48553 7.68546e-20)
(1.05473 -0.0181436 0)
(0.543824 -0.341337 8.35602e-20)
(1.0259 0.0260988 1.52777e-19)
(1.05945 0.936665 -3.0039e-20)
(-0.483995 0.604154 0)
(1.10905 -0.472462 3.56811e-19)
(0.906989 -0.0659918 -1.81399e-22)
(1.09665 -0.491526 -1.55565e-19)
(2.32914 0.141877 2.50214e-19)
(1.29439 0.796726 0)
(0.892792 0.0295404 0)
(-0.499377 -0.627605 -2.20345e-19)
(0.0350576 -0.0217423 2.00448e-19)
(0.959952 0.370616 -1.56725e-19)
(0.389801 -0.674706 -1.84981e-19)
(0.648347 0.413302 1.91417e-19)
(0.991133 -0.0247591 0)
(0.532816 -0.495209 0)
(1.09678 0.00266631 1.00601e-21)
(1.22332 -0.501095 -6.90201e-20)
(0.624734 0.00534559 1.42426e-20)
(0.730316 -0.149451 9.49964e-20)
(-0.0362849 0.12566 -3.5794e-19)
(1.62889 -0.155995 3.52326e-19)
(0.663071 0.616896 0)
(1.27927 0.701217 0)
(1.56973 0.245296 0)
(-0.488067 -0.650111 -2.23343e-19)
(1.28723 0.571545 2.77102e-19)
(1.88957 0.152072 4.75612e-20)
(1.00647 -0.00481629 0)
(1.06178 0.0509553 0)
(1.96208 -0.0749892 -3.24269e-19)
(1.08596 0.890232 2.99025e-20)
(0.998006 -0.00114372 -1.52573e-19)
(1.49173 0.479444 0)
(-0.357087 0.630715 0)
(1.24391 0.320065 2.00345e-19)
(1.03339 0.534182 -9.351e-20)
(1.04382 0.0268243 0)
(2.04134 0.670572 0)
(2.02456 0.671631 -4.16274e-19)
(-0.106663 0.627922 -5.26025e-21)
(1.0015 0.0171896 0)
(0.711568 0.476811 -2.58885e-20)
(0.926609 -0.816989 0)
(1.01642 0.0191771 3.52372e-20)
(1.10863 -0.022958 2.76896e-20)
(0.899558 -0.330325 2.37444e-19)
(1.08479 0.00755477 -1.97902e-20)
(2.1523 -0.0802651 4.09977e-19)
(0.873009 0.0929256 4.73185e-20)
(0.761882 -0.03155 0)
(1.00232 -0.00125341 0)
(-0.781733 -0.448608 0)
(0.668599 0.63934 -1.34634e-19)
(-0.00503533 0.0595289 2.4134e-19)
(1.16123 0.346486 -3.23521e-19)
(-0.75005 0.409605 0)
(0.833673 0.644194 1.26034e-19)
(0.996826 -0.335369 0)
(1.00425 -0.00756814 8.91344e-20)
(0.923117 0.824358 5.56702e-20)
(1.04174 0.408831 1.86046e-19)
(1.81188 -0.125214 0)
(2.13508 0.126697 -1.01969e-19)
(0.824996 -0.106954 -2.86976e-19)
(-1.30069 0.0709964 -6.77852e-19)
(1.34492 0.847358 0)
(0.881292 0.248831 1.36252e-19)
(2.16568 -0.0421128 0)
(0.781473 0.524591 2.77929e-19)
(-1.70191 0.0925228 2.62973e-19)
(-0.0410931 0.136281 0)
(0.591766 0.561684 -5.32423e-20)
(1.01811 -0.62847 -1.10318e-19)
(0.47191 -0.237575 -1.00229e-19)
(1.00718 -0.0163259 0)
(-0.524734 0.303279 -3.58661e-19)
(0.63015 -0.560375 6.41646e-20)
(0.914271 0.295055 0)
(1.30533 -0.443859 2.11028e-20)
(0.987841 0.840396 1.60176e-20)
(1.10336 0.00764561 -2.19954e-20)
(0.176718 -0.224068 -2.714e-19)
(0.225596 -0.0211316 -4.54682e-19)
(-0.0516904 -0.176084 1.09332e-20)
(0.824216 0.36359 1.90382e-19)
(-0.310888 0.693204 -7.202e-21)
(1.40101 -0.643763 3.23038e-21)
(1.0129 0.0144701 -2.63608e-19)
(-0.616996 -0.623988 0)
(1.03143 0.0437852 -3.08725e-19)
(2.09292 0.553827 1.83152e-19)
(0.892806 0.691715 2.05471e-19)
(1.07918 -0.078299 1.2133e-19)
(1.00187 -0.0345438 1.21773e-19)
(1.06033 -0.00206672 1.21656e-21)
(-0.378089 -0.459341 -3.46984e-22)
(1.71638 -0.861454 1.5028e-20)
(1.13628 -0.151808 -5.13041e-20)
(0.855725 0.0360616 5.86865e-20)
(0.909126 -0.30109 7.0362e-20)
(0.351891 0.0228147 0)
(0.967793 0.737178 0)
(0.956185 0.614789 -6.63653e-20)
(2.02661 0.206092 -4.34636e-20)
(-1.37572 -0.0302824 2.7001e-19)
(1.02472 -0.529911 -3.84145e-19)
(0.608338 -0.525165 3.10646e-19)
(1.5024 0.183302 -2.07681e-19)
(0.355707 -0.625577 2.09538e-20)
(1.08808 0.0477198 0)
(0.750457 0.127316 -5.37433e-21)
(1.09643 0.017381 -6.73469e-21)
(1.04596 0.764926 0)
(1.13508 -0.0104479 0)
(0.688104 -0.360617 0)
(-0.153149 -0.318398 -7.10471e-20)
(-0.162245 0.140835 0)
(1.34841 0.717421 6.84038e-20)
(1.20957 0.180951 4.56536e-21)
(-0.555762 0.262049 7.13677e-20)
(1.10877 -0.0435193 6.09763e-21)
(1.84041 0.455998 -1.26022e-19)
(2.08142 -0.294875 -4.23179e-20)
(-0.182147 -0.0101656 -2.80255e-19)
(-0.214412 -0.779072 5.97464e-21)
(0.693627 0.0365437 0)
(0.703971 -0.0316993 0)
(1.00816 0.00221052 2.61589e-22)
(-0.521647 -0.646024 0)
(1.47348 0.0630962 -1.32055e-19)
(0.692441 -0.0251413 0)
(1.04331 0.000850888 9.68769e-20)
(0.992375 0.00667645 -3.47181e-20)
(1.65687 -0.379224 2.11895e-19)
(1.04954 -0.0167061 -7.05229e-22)
(0.936447 -0.184754 -4.23612e-20)
(1.02815 -0.0285539 2.83333e-19)
(0.663529 -0.601199 1.43896e-19)
(-0.0219301 -0.211784 -1.64055e-20)
(0.996557 -0.075494 7.38608e-21)
(0.0354357 -0.00926075 0)
(1.13259 0.798765 0)
(1.02344 -0.0205141 0)
(0.994966 -0.766155 -7.43385e-20)
(1.0284 -0.88187 6.92849e-21)
(0.983336 -0.0435252 -1.13379e-21)
(0.453938 1.13376 -5.92056e-19)
(1.08028 0.0129623 3.49594e-21)
(0.575747 -0.373768 -5.10351e-19)
(0.970562 -0.0240451 -3.29954e-20)
(1.08516 -0.000264105 -1.34645e-20)
(2.06492 -0.30538 1.35789e-19)
(0.749352 -0.0600463 -1.71479e-20)
(-0.30755 -0.527894 -1.49642e-19)
(1.11806 0.558819 1.35582e-19)
(-0.130578 -0.347216 0)
(0.310007 -0.692364 5.43199e-19)
(-0.0342356 -0.0587535 1.78174e-22)
(1.03271 -0.0374273 2.53732e-19)
(1.01555 0.00267805 -6.52179e-21)
(1.08408 -0.00529013 -7.0161e-20)
(1.06169 -0.011662 2.41903e-21)
(1.61937 0.309269 1.70018e-20)
(0.392986 -0.367873 -2.52347e-19)
(1.02455 -0.0232231 1.2659e-21)
(1.0309 0.0141334 -1.86917e-19)
(0.96808 -0.0821106 -7.60108e-21)
(1.06949 -0.0198216 0)
(1.11657 0.597995 -2.52242e-19)
(1.00501 0.00516609 7.25863e-20)
(0.675923 0.603032 1.98551e-19)
(1.07434 0.0349301 -2.53951e-22)
(1.04678 -0.00512275 -2.29085e-20)
(1.09598 0.0266968 6.51441e-22)
(2.21743 -0.250832 2.05416e-20)
(0.497074 -0.0146673 0)
(1.06161 -0.0307566 0)
(1.07055 -0.0275637 4.48042e-19)
(1.00092 -0.0016417 0)
(0.00839223 -0.0222994 0)
(0.947619 -0.570886 0)
(1.0004 -0.00155885 -4.2282e-19)
(1.15008 -0.673902 5.5928e-20)
(1.02235 0.00588772 8.83473e-21)
(1.35135 0.958348 -7.33633e-22)
(1.53659 1.00703 -1.61987e-19)
(1.07789 0.012277 -5.9043e-21)
(1.64774 0.771298 1.57004e-19)
(0.544728 0.101447 0)
(0.0885082 0.651968 0)
(2.17134 0.118251 5.33366e-19)
(1.15898 -0.161018 0)
(0.998056 -0.00697192 -1.31092e-19)
(1.00137 0.00192066 2.54729e-19)
(1.3829 0.134774 -4.78652e-20)
(0.0107878 -0.124328 3.04453e-19)
(0.984444 -0.00708993 1.37842e-19)
(0.823043 -0.0227392 2.44197e-21)
(0.843146 0.0227304 -1.02821e-21)
(1.06396 -0.00898909 1.97608e-23)
(0.907816 0.0070492 -1.38981e-19)
(1.00606 0.00358216 1.64659e-19)
(1.00149 0.00260157 9.68861e-21)
(0.784151 -0.00930009 0)
(0.728605 -0.0235079 0)
(0.732472 -0.0177792 5.46591e-22)
(0.712455 -0.0381807 0)
(0.446635 0.000483355 0)
(0.615324 0.0156091 0)
(0.676691 0.000691655 -9.57222e-22)
(0.840918 0.0103209 5.31255e-22)
(1.05395 0.00666846 0)
(1.06048 0.000352228 8.58476e-22)
(1.056 -0.00555085 0)
(0.71196 -0.00483828 0)
(0.61529 -0.00199995 0)
(0.577813 -0.00804712 1.43577e-21)
(0.392567 -0.0100187 4.15371e-20)
(0.821733 0.0293337 0)
(0.812189 0.0212454 0)
(0.947327 0.0220957 -1.7103e-19)
(0.831599 0.0164937 3.22021e-19)
(1.00347 -0.00123294 0)
(0.999245 -0.0012568 3.03491e-19)
(0.999651 0.00132689 -3.89436e-22)
(0.816602 0.0276993 2.71755e-19)
(1.00129 -0.0115508 -1.58243e-19)
(0.842767 -0.0167511 0)
(0.645905 -0.00436893 1.02911e-21)
(1.00209 -0.00245611 -1.53531e-19)
(1.00394 0.00680448 -2.63242e-19)
(1.06526 -0.00780896 0)
(0.994276 0.00165269 0)
(1.00048 1.88092e-05 0)
(1.05895 0.0305211 -2.66195e-22)
(1.07794 -0.00119521 4.42207e-21)
(1.00899 -0.0668789 0)
(-0.533171 0.523302 2.59481e-19)
(-0.0114622 0.543697 -1.18989e-19)
(1.01332 -0.0165445 -2.03285e-19)
(-0.374474 -0.751612 -1.46823e-19)
(1.00512 0.0113112 -1.63849e-19)
(1.17737 -0.223941 -6.55482e-20)
(0.787324 -0.462949 2.37515e-19)
(-0.00886954 -0.0403597 -1.02363e-19)
(1.02482 0.0175177 0)
(1.05852 0.000598488 -4.39027e-20)
(0.864122 0.0198315 0)
(-0.000121783 0.0487688 3.53923e-19)
(1.12794 -0.088992 0)
(-0.587738 -0.658786 -3.80643e-19)
(0.8031 -0.0359824 -3.7543e-21)
(1.67526 0.680883 1.10779e-19)
(-0.0386439 -0.086526 0)
(1.07361 -0.0322244 1.37745e-19)
(1.07673 0.00961101 6.18754e-22)
(0.928187 -0.0112688 2.19205e-19)
(1.01522 0.000913069 -1.3846e-19)
(1.68756 0.862326 9.51354e-20)
(0.522094 0.489595 0)
(0.446177 0.404115 1.6227e-19)
(1.05861 0.0800842 -5.90633e-22)
(1.14358 0.129514 1.41475e-19)
(1.07758 -0.700819 0)
(1.01893 0.0113582 0)
(1.007 -0.01777 -3.2128e-19)
(1.01627 0.0127505 -3.1163e-19)
(-0.0968179 -0.322462 0)
(1.22883 0.825818 -6.583e-20)
(1.06052 0.0217476 2.70366e-22)
(1.02004 0.00678992 1.19683e-19)
(1.00735 0.0205826 -1.51218e-19)
(-0.743247 -0.566066 -3.76669e-20)
(1.07456 0.00873169 -9.64347e-21)
(1.02596 -0.00410136 5.10763e-19)
(1.05428 0.0221561 0)
(1.88361 0.650028 -1.1005e-19)
(1.01852 -0.0169859 -1.59096e-19)
(1.78693 0.187619 -1.12226e-19)
(1.04783 0.0139485 -3.65581e-22)
(1.0042 -0.00577104 3.20141e-20)
(2.11243 -0.193646 -3.36579e-19)
(1.01969 0.000298246 1.54634e-19)
(1.08334 -0.0248902 9.15787e-22)
(1.02803 0.0165101 0)
(0.926018 0.154239 3.81787e-20)
(-0.775018 0.0903222 4.97612e-21)
(0.984412 0.0265462 1.54331e-19)
(1.02314 0.0186913 -7.14281e-22)
(1.06876 0.017536 -1.08931e-21)
(1.25535 0.312036 2.72818e-19)
(1.00929 0.00517313 1.05394e-19)
(1.0301 -0.0141536 4.91096e-22)
(1.75115 0.226683 3.82766e-21)
(1.80481 0.951188 -1.35793e-19)
(0.767229 -0.688296 4.22218e-20)
(0.441837 -0.313307 -2.48985e-19)
(1.00764 -0.0344064 0)
(1.02557 0.00194444 3.83669e-20)
(1.01798 -0.00563173 8.08527e-20)
(1.06887 -0.0107068 6.6274e-22)
(1.0196 0.00667294 -1.60992e-19)
(1.03735 -0.0153593 1.84077e-19)
(1.01765 -0.000945549 -1.51329e-19)
(1.00801 0.00404131 -5.02471e-22)
(1.01354 0.00299584 -4.60602e-22)
(1.01122 0.0162579 1.54191e-19)
(0.901631 0.0888902 3.97579e-19)
(1.31211 0.43843 0)
(0.909376 0.355268 2.94239e-19)
(1.00398 -0.00314482 0)
(1.01583 -0.0193868 -4.46062e-20)
(1.54428 0.442738 -2.27884e-20)
(1.53583 0.0993628 0)
(1.30609 -0.296682 -3.84139e-20)
(1.24282 0.664956 -7.68141e-21)
(0.843987 -0.0193964 0)
(2.16811 0.11527 0)
(1.01488 0.676095 1.36145e-20)
(1.0658 0.00327778 -1.39835e-21)
(1.01791 -0.00412642 -1.62085e-19)
(1.11156 -0.554639 -4.36935e-20)
(1.06341 0.000491103 -2.12079e-21)
(1.11213 -0.0210966 0)
(1.08361 0.0418986 0)
(1.22797 0.302059 0)
(0.275025 0.563882 1.38632e-19)
(1.07799 -0.0130326 8.41808e-21)
(0.565353 0.284379 0)
(-0.0194808 0.626091 -4.49608e-19)
(1.71241 0.969647 -1.39772e-19)
(1.0041 -0.00476685 -3.17413e-19)
(1.06693 -0.00393461 1.86238e-21)
(1.01092 0.0089413 2.09653e-19)
(0.762786 -0.0397288 0)
(-0.0776313 -0.272367 -3.13608e-20)
(0.61515 0.437751 -2.69142e-19)
(1.26799 0.351549 1.14981e-20)
(0.203901 0.665765 0)
(0.832704 0.136102 5.54064e-20)
(0.520007 0.496436 3.99287e-20)
(1.19296 0.888478 -1.62896e-20)
(-0.00467271 0.0204341 1.5207e-19)
(1.02314 0.00954643 0)
(1.09242 -0.0296699 6.09701e-21)
(1.00954 -0.000209338 1.18987e-19)
(2.3265 -0.125383 0)
(1.01201 0.0160696 1.99782e-19)
(0.43757 -0.67349 -2.5378e-19)
(1.01737 0.00938184 -1.23224e-19)
(1.07221 -0.0419855 0)
(1.37854 -0.403109 1.96217e-22)
(0.996766 0.00973937 -8.31351e-20)
(0.991339 -0.0237805 2.19409e-19)
(1.09149 0.102459 -2.95119e-21)
(1.09537 -0.0275825 -9.82149e-21)
(-0.172738 -0.0404042 3.96948e-19)
(2.07309 0.298398 2.68692e-19)
(1.10209 -0.0123571 1.13654e-20)
(0.825646 0.0127089 -3.01115e-19)
(0.842514 0.0337515 0)
(1.0883 -0.00801798 7.13371e-21)
(1.02269 -0.00295824 -2.39834e-20)
(0.963213 0.0321737 0)
(1.03936 -0.00382497 -1.52033e-19)
(1.0949 -0.00239159 -1.88697e-20)
(-1.54163 0.0674832 3.08936e-19)
(2.12782 -0.567652 0)
(-0.682771 -0.523857 -5.46158e-19)
(1.49208 -0.332628 0)
(1.03506 -0.0201151 4.46055e-20)
(1.04989 -0.00144302 -6.72384e-23)
(1.00449 -0.00141852 1.28751e-19)
(-1.01243 -0.151647 5.6799e-19)
(1.01506 -0.00385394 0)
(0.982225 0.00439579 -3.1225e-19)
(1.02048 0.00860849 1.63924e-19)
(1.0484 0.00632825 0)
(1.03807 -0.00749374 1.66968e-22)
(0.966251 -0.00170934 -1.40804e-19)