/*--------------------------------*- C++ -*----------------------------------*\
| =========                 |                                                 |
| \\      /  F ield         | OpenFOAM: The Open Source CFD Toolbox           |
|  \\    /   O peration     | Version:  2306                                  |
|   \\  /    A nd           | Website:  www.openfoam.com                      |
|    \\/     M anipulation  |                                                 |
\*---------------------------------------------------------------------------*/
FoamFile
{
    version     2.0;
    format      ascii;
    arch        "LSB;label=32;scalar=64";
    class       volScalarField;
    location    "50";
    object      p;
}
// * * * * * * * * * * * * * * * * * * * * * * * * * * * * * * * * * * * * * //

dimensions      [0 2 -2 0 0 0 0];

internalField   nonuniform List<scalar> 
2186
(
1.06452
0.227641
0.477076
1.36771
-2.09903
-0.0826263
1.06014
-0.63179
0.19929
1.53713
0.896695
-0.286617
-0.72391
1.14135
0.0375333
1.10443
1.15501
-2.3558
-0.117422
-1.93033
1.46555
-1.84266
1.14461
-0.343047
1.13623
1.34701
1.35012
1.24019
0.307321
1.14015
-1.88999
1.13636
-1.96921
0.0422742
-0.375936
-0.352319
0.19401
1.42942
-1.07093
0.232279
-0.72451
-1.79505
-0.0507655
-2.00699
0.795698
1.51598
0.799795
0.931567
0.216703
-2.06718
-1.91515
0.692207
-0.0568026
1.31758
-1.99455
1.27736
-0.0956862
1.30021
-1.0242
1.08183
0.20433
0.427102
0.281515
0.206928
0.340711
0.882627
0.41076
1.37673
1.27176
0.247567
-0.620204
0.262461
1.39313
1.30295
1.20342
1.43905
0.101166
1.1468
-0.373558
-1.44105
-1.73034
0.157428
1.13314
0.398652
1.13617
1.13573
1.32951
-0.199571
0.554951
-0.276315
1.27326
-1.89175
1.13851
1.36286
1.14385
0.0828924
0.375856
0.374663
-2.08055
1.30877
-1.08555
-1.36997
0.455292
1.15122
1.15793
-1.87494
1.12806
0.327482
1.24276
-1.66979
-1.42628
-2.00399
0.954144
1.27832
0.0691119
-1.12778
-0.234111
0.20261
-0.277711
1.41282
-0.55348
-2.20107
0.642544
-2.26602
1.11218
-0.238337
-2.03078
1.42322
-2.32381
1.04617
1.599
1.50364
0.706847
1.03928
-1.42309
-2.08688
1.25472
0.186718
-0.509342
-0.267734
0.565607
0.347467
-0.59255
1.07972
1.14649
1.17469
0.274123
-2.09497
0.998034
-1.96491
-1.93053
0.98192
1.15029
1.45483
1.34141
0.938874
1.29719
0.221227
0.0976675
0.856106
-0.229367
-0.387705
1.0399
1.28754
-0.224852
-0.292697
-0.274337
-0.456577
0.502806
0.553283
0.0149595
1.3097
1.15477
1.40035
0.0782196
-0.454511
-2.12806
1.03877
-0.830318
0.691087
-0.423476
1.14652
-1.91193
0.256577
0.202375
-2.07777
-1.61273
1.01997
-0.587748
-0.81716
-1.61247
1.33792
-0.457315
1.26137
-0.186446
-1.82365
-0.432047
1.24587
0.934876
-1.94566
-0.543874
-1.63006
0.576493
1.17856
-0.27334
-1.99276
-0.350876
0.30007
0.983097
-0.166719
0.929911
0.545105
1.27591
0.607003
0.732275
1.26923
1.09558
1.13486
1.2349
1.02143
0.828402
-1.25729
-1.90662
-0.357634
0.665891
-2.38467
-2.03331
0.895668
1.34411
-0.535001
-0.256499
-0.921597
0.814915
1.03409
1.06967
1.23842
1.41578
-1.90525
1.21196
-0.393493
-2.11116
-1.21004
0.844865
0.476584
1.05175
1.31885
1.00167
0.963648
-0.5348
1.18188
1.12968
-0.655021
0.823585
0.538875
-0.806483
-0.329585
-0.337889
1.04914
1.13745
-0.758015
0.226408
0.387018
1.28573
-2.28724
0.550641
0.983496
1.11267
-0.321002
-1.90914
1.14062
0.465087
0.29474
-0.492599
1.35611
-1.98323
-0.560503
1.09082
1.46213
1.14043
-2.09841
-0.129448
0.124806
0.83803
-0.697518
0.957731
1.13118
1.29814
0.366289
0.34593
1.00899
-0.314181
1.23248
1.4734
1.13583
1.13381
0.0990053
-1.97487
-0.334024
0.140204
0.147295
-0.227096
0.823689
0.0549528
0.312513
1.45389
1.11928
0.823456
0.163473
1.18115
-0.28135
0.3339
-0.528923
-0.228509
-0.853257
0.79869
-1.92644
-1.91189
-0.306508
0.875265
0.0503536
0.00152514
-1.95747
0.586423
-0.918495
-1.98422
1.32096
-0.554236
-0.048469
-1.88564
1.15485
0.376152
-0.502417
0.925188
-1.65344
-0.76473
0.382901
1.16667
0.950073
-1.67325
1.2568
1.23343
0.0199707
1.50858
1.09405
1.13059
0.82255
0.507426
-0.25785
0.715408
-2.03331
-0.423411
-0.34178
-1.42294
-0.320905
1.33341
0.243406
-1.90681
-0.63591
1.09531
-2.20586
-0.00399811
-1.96243
1.13192
0.593904
-0.549607
1.29616
1.36588
1.42163
-0.614939
0.000433062
1.34034
1.10633
-1.73179
0.151278
-0.429406
0.653826
1.19191
0.880467
1.12811
1.50871
0.16991
0.492029
0.0258729
0.20072
0.366317
-1.83858
0.251488
1.24829
-2.40683
0.368229
1.07805
0.989521
-0.362595
-1.83219
-0.293198
-2.26083
-0.490512
-0.214555
-1.80829
-2.00034
1.37138
0.423146
-1.16112
1.14732
-0.283443
1.52081
-0.976241
-1.30651
-1.94836
1.13321
-0.495133
1.13667
1.19973
0.20527
1.28618
-2.18215
-0.198285
-0.559779
1.32969
1.13283
-0.422481
-0.464601
-0.547472
0.86857
-0.349509
0.00660077
0.17669
0.917125
1.11396
1.02721
-0.485222
-0.16654
0.769418
0.27811
1.08235
-1.65202
1.15148
-0.538557
1.41001
-0.271369
1.20476
0.551717
1.14272
-0.379835
1.07691
0.305308
-0.198912
1.13599
-1.305
-0.170878
-1.36678
-0.361667
1.10993
0.658499
0.754489
1.08431
-0.173612
0.531564
0.0830992
-1.90901
0.74553
-0.736974
0.520271
-1.26628
0.944348
1.42962
-0.576881
-0.180737
0.546404
-1.90431
0.156
-0.934241
0.621504
0.576851
-0.755383
1.09306
0.52973
-0.0106113
0.758475
0.598211
0.57138
-0.0474321
0.321344
-1.56225
0.293126
-1.8481
1.13446
-1.77899
1.31549
1.48837
1.47028
0.412045
1.06708
-2.02523
-1.86958
1.11289
0.692541
1.08032
-1.65616
-0.818865
-0.825011
1.09915
-0.178626
-0.87144
-1.98618
-2.04901
-0.515274
0.284694
0.537558
0.583092
-0.395482
0.247858
1.12361
0.573932
1.02628
-1.17071
-0.729542
-0.173666
0.522621
-0.0721056
1.45892
1.35681
-1.08091
-2.01953
-0.242964
0.0234561
-2.06084
1.35339
0.251381
1.31869
0.658702
-0.462373
0.796419
0.76226
-1.10554
1.10806
0.0381928
-1.90216
-0.0927659
-0.248387
-0.0294913
-2.03624
-0.381463
1.13951
-0.184363
-1.99344
0.995993
1.27773
1.48143
0.246743
1.07056
0.333376
1.14682
-0.0494918
-0.108256
-1.90359
0.189902
0.652222
0.990644
-0.232824
-0.526572
0.37315
-0.283587
0.416067
1.10446
0.0267593
-0.321424
-0.816415
0.807496
-1.79602
1.00377
0.310463
0.299879
1.13301
1.01232
-1.64811
-0.681482
1.02728
1.53656
1.15289
-1.4796
-2.40655
1.14634
0.387932
1.13124
-0.924757
0.113458
1.0221
-0.863504
-1.90609
0.940748
-0.0527538
1.19298
0.0139766
1.22771
-0.900342
1.00803
-0.434349
1.40958
-1.90318
-0.733332
0.797186
0.221403
0.25539
-0.639472
-1.95747
0.262081
0.702342
0.467165
-0.266838
-1.36488
1.13696
0.100589
-2.27003
0.59578
0.74305
1.05652
-0.524153
-1.7153
-1.88561
1.14415
1.09941
0.916837
1.14228
-0.348111
1.31811
-0.715605
0.315301
0.297555
1.12753
1.14293
-0.558011
0.647034
-1.90846
0.680038
-2.07266
0.858022
1.23428
1.13479
-1.25695
0.804052
-0.995398
-0.585857
1.33205
-1.13928
-1.26991
1.10214
0.346964
1.00797
-1.37559
-1.9075
0.909796
1.14242
1.57699
1.13075
-2.36748
1.38871
1.04986
0.453559
0.357005
-0.381135
-0.307209
1.59443
-0.307269
1.07772
-1.94168
0.764899
1.13204
-0.692588
1.0649
-0.213069
0.756695
1.14661
1.15717
-0.537263
-0.921721
0.00719223
0.956353
1.00115
1.31369
0.0839008
0.626968
-0.93571
-0.515588
-1.32498
1.17463
1.43693
-1.44199
-0.158353
-0.03832
1.30079
0.196007
0.501759
0.0606704
-1.02382
-0.521857
-1.88629
-0.882948
0.719369
-1.45117
0.0273512
-0.853571
0.196299
-2.014
-0.475949
0.153032
1.03846
1.14365
-0.672113
0.388435
1.06609
1.13538
1.14906
-0.751547
1.05818
1.2808
1.15012
1.37061
-1.29989
0.000171919
-1.90739
0.345366
1.15356
1.08937
0.640969
-0.0823109
-1.69003
-0.663278
1.51557
-0.129115
-1.22845
0.116881
0.00103049
-0.680974
0.605872
-0.459117
-0.122961
-0.232647
1.09892
1.13641
1.11281
-0.332489
0.0420177
1.51136
-0.054726
1.14452
-0.0202282
-0.163195
0.559905
1.1372
0.975634
-0.557356
1.04147
1.04855
-0.259417
0.00957474
1.11484
1.13299
1.13761
-0.179519
-0.331652
1.14058
1.0092
1.13449
-0.22835
-0.71403
-0.956178
-0.769075
0.311623
-1.8807
0.118153
0.179661
1.1407
1.1442
0.649682
-0.290292
1.09769
-0.00461319
0.643459
-0.141955
1.14193
1.15048
1.1413
1.1439
1.11569
1.10433
1.08775
0.644115
0.660515
0.393451
0.554543
-0.10217
-0.103925
-0.0482651
0.15571
0.0357724
0.00466627
-0.0302188
1.14008
1.14971
1.14619
1.16195
1.15588
1.1429
1.14046
1.1436
1.11143
0.0995735
0.544909
1.13914
1.14368
-0.026916
1.1471
1.14025
-0.235982
-1.06088
0.0334121
-2.25487
-1.91409
1.11887
-0.693798
1.12794
0.99261
1.36874
-0.239818
1.13322
0.988112
1.12192
-1.9027
0.0872246
-0.738676
-0.030867
-0.548187
-1.92428
1.12427
-1.05162
1.2083
1.11858
-0.755843
1.08882
1.27805
0.267168
0.833172
1.05496
1.10848
1.12868
1.13846
-0.352269
0.167155
-0.574795
1.12054
1.14287
-0.880649
-1.1701
1.1191
-0.17491
-0.969962
1.12395
0.19926
1.07197
1.13189
0.25914
1.14144
-1.03312
1.12814
1.10975
-1.4587
1.1526
1.15765
-0.777932
0.524504
1.13771
1.12328
-0.20979
-1.69496
1.1006
1.58527
1.12806
1.13693
1.12936
-1.20192
1.13196
1.14202
1.12608
1.12686
1.12515
1.13541
1.17549
-0.300504
-0.241325
1.13497
1.11513
-0.00932353
0.183331
0.478038
-0.650336
0.87199
0.234387
-1.13991
-0.416571
1.1248
1.09648
-0.812713
-0.348269
-0.0793163
0.059953
-1.93899
-1.05132
-1.28084
-2.30958
-1.01331
1.13732
-1.00874
1.12287
0.95275
-0.289434
1.19961
-0.148945
-2.07729
1.05481
1.03699
0.122599
-0.240409
1.10076
-0.762049
1.13177
-0.531702
1.13483
-0.02497
1.11985
-0.636546
0.419741
1.13317
1.15255
0.942441
-0.641565
-0.288905
-1.32992
-0.718123
1.15685
0.924918
-1.01974
1.11109
1.16124
1.09074
-0.570344
-1.25145
-0.0372181
-0.948719
0.801964
1.11634
0.00804475
1.13306
-1.53445
1.11531
1.15449
1.13778
-0.099506
0.0327796
1.16819
-0.649961
1.14073
1.1401
0.537725
-0.647651
0.793075
1.10814
1.11887
1.09398
-0.572629
-0.475107
1.13391
0.856234
1.13629
1.19952
-1.99057
-0.543979
0.835825
1.43874
1.10845
0.800197
-0.76595
-0.854686
-0.566138
-1.09956
1.14227
0.0197254
1.07763
-1.91252
-0.189687
-2.03037
0.225123
-0.334347
-0.469498
-0.593746
1.11738
-0.286526
0.757047
-0.322055
0.370078
-0.542
-0.694952
-0.787926
1.05336
-0.713593
-0.391756
-0.466897
-0.948903
1.14034
-1.03406
-0.681043
-0.698573
1.04885
-0.226477
-0.334834
1.18261
1.13791
1.14055
0.900835
-0.331223
1.1077
1.11553
-0.839074
-1.92587
1.11902
1.1636
1.23081
1.12969
0.427121
-0.960646
-1.93464
-0.92671
-1.95196
-0.201405
-0.247779
-0.021464
1.16581
0.498523
1.1469
1.23917
1.10133
-0.281591
-0.495157
1.1168
-0.573626
-0.211736
1.13691
0.454976
-2.12109
-1.38296
-0.267891
0.988071
0.950298
-0.704034
1.10474
0.470756
-1.00943
1.14319
-0.202785
0.7655
-1.88041
1.24967
-0.551415
0.86212
1.12016
0.994132
-0.491963
-1.3059
0.802604
1.47188
1.13805
0.906694
-1.16958
1.51883
-0.29526
-0.210804
-0.180122
0.904359
-0.237959
1.21544
1.42852
-0.398472
-0.563546
1.10316
-0.536217
1.17866
1.14567
1.00438
-0.436509
1.11589
0.0447872
1.15865
0.0132468
-0.488314
-0.712906
1.12154
0.153784
-1.16816
-0.463418
1.21352
-0.671815
1.14486
0.733816
1.29834
0.858941
-0.83202
1.14747
-1.8977
1.03339
1.057
-0.090694
-0.749415
1.05801
1.08198
1.16962
1.01935
0.597075
1.0042
1.1547
0.813584
1.11835
-0.19921
-2.1254
-0.972056
1.29317
-0.327022
-0.462209
-1.90573
-0.549008
-0.268812
-0.285914
0.707395
-0.308075
1.13921
1.20734
-1.93161
0.338854
-0.636894
0.289137
-1.32389
-1.90645
1.09892
-0.0846397
1.13073
1.47879
1.18168
-0.576141
1.13765
0.982345
-0.0537607
1.15925
1.06773
-1.8666
1.07242
0.811851
-0.079507
-0.351846
1.59778
0.0713921
-1.52889
-0.697991
0.713442
1.13631
-1.94611
-0.17149
-1.90654
1.20523
-0.59354
0.697868
1.09871
1.16045
0.143177
1.17928
-0.24841
1.12336
1.14065
-0.873561
1.13514
0.217957
1.16406
1.07537
-1.32621
-0.211728
-0.164296
-0.500714
1.24587
-0.0092417
1.10328
1.42065
0.169992
-0.0188311
1.19874
0.028046
1.1962
0.120025
0.250917
1.17747
1.18247
0.86801
-0.071884
0.580271
-1.81774
-1.94645
-1.51883
1.12898
1.18249
1.63066
-0.252786
-0.410903
1.12381
-0.786741
1.13226
0.937558
1.18814
1.09105
1.13329
-0.886067
-0.232561
-0.609741
0.728814
0.948213
-0.670075
-1.91026
-0.435301
1.14638
1.20506
-0.0844402
-1.42705
1.14593
-0.217573
-0.0306794
0.586725
0.782374
-0.151701
-0.680816
-0.532094
-0.935813
-1.60856
-0.187422
-0.248544
1.61578
1.32425
-2.37782
-1.08699
1.14246
1.12183
-2.09046
0.495808
0.216215
0.4395
1.18504
0.389074
1.11928
0.324146
-0.665497
-0.87229
-1.72467
-2.09543
1.1689
-0.981136
0.380248
1.36992
-0.892234
1.12248
1.21728
-1.91376
1.3649
1.52805
-2.09221
1.18405
-0.822114
-0.628753
0.98978
-0.377533
1.3408
1.12991
-0.753605
1.24206
0.64634
-1.07143
1.1419
1.35556
-0.23549
-0.65659
0.973069
1.11325
-0.55171
-0.744596
1.23118
-0.686841
0.927349
-0.420844
1.15613
-0.449719
-1.19968
-0.333733
-2.1608
1.00034
1.21794
1.55664
1.14167
0.856923
1.16254
0.967683
-0.269324
1.05231
1.44304
-1.97847
-0.625949
-1.84627
1.27955
0.0706097
-0.628232
-0.502602
0.805181
-2.01045
-2.50508
0.911995
1.3474
-0.405803
-1.92949
-0.669638
-1.0337
-1.06542
-2.04331
-0.215137
0.744901
1.24879
-1.91223
-1.05525
-0.194529
0.680103
-0.675247
-2.26154
-0.181255
1.28914
-0.197905
-1.94081
1.58628
1.11877
0.852771
1.48127
-0.458163
1.31687
1.10928
1.29761
1.49394
-0.118216
0.473617
0.911058
0.742729
-0.163984
1.50681
1.18601
1.18828
1.26025
-1.95745
0.0344849
1.13986
0.701417
1.14074
-0.635908
-1.3013
1.13493
-0.342191
1.12697
-0.0750022
1.38351
-0.16588
0.545963
1.12637
-1.90809
-0.175935
-1.85939
1.35127
-1.90875
-0.286935
1.09472
0.389682
-1.16989
1.15653
1.16188
-1.9095
-2.85093
0.975632
-0.419383
-0.201906
-0.626428
-1.92272
0.305539
1.00152
1.18538
-1.59582
1.03059
1.13935
1.39361
0.751592
-0.0536223
-0.357852
1.2283
0.147214
-1.90767
0.209772
-1.14163
-1.90754
1.07235
-1.91767
-0.206428
-0.223789
0.29834
0.991639
-1.90682
1.04112
-0.462957
0.933069
-1.90887
0.197642
-1.90726
0.846915
-0.265537
0.0832814
-1.91698
1.18918
-0.412886
-1.93522
-1.96764
-0.281505
1.13724
0.59765
-2.01739
-0.291561
-0.395068
-0.126054
-1.92694
-0.302548
-2.06825
0.424109
-0.30272
-0.630255
-0.33114
-0.935894
-2.15339
0.278807
0.883468
0.328083
-0.591383
1.03226
-0.276977
0.365814
0.884788
1.14344
-2.14257
-1.3326
-0.286065
-1.23125
1.1664
1.43786
0.169756
-0.0886309
0.550747
-0.951349
-0.602417
0.22705
1.00055
-2.00227
1.146
-0.444605
1.45341
0.889167
1.64303
-1.92168
1.4793
-1.22052
1.31176
0.308519
-0.280085
1.39141
1.16022
-1.39488
-0.248018
-1.98086
0.944861
-1.96687
1.08019
-0.729622
-0.571918
-0.371885
1.39003
1.06455
1.41633
1.04801
1.15027
-0.0856937
0.306844
1.1448
-0.126086
-1.11259
1.40056
-1.90124
0.937142
1.21879
1.4972
1.60729
-1.89242
0.114131
1.18868
0.714521
0.13867
-1.95353
-0.340065
-1.24905
-1.91716
0.950668
-1.52636
1.48928
0.0512947
0.961701
1.14118
1.03852
-0.973578
-0.375833
-0.964879
1.2271
-1.12967
1.1033
-1.45263
-1.46985
1.18797
1.56238
-0.399919
-0.317768
1.13208
-1.01354
-1.94425
1.03712
1.22596
1.43383
-2.19376
0.88069
0.710837
-0.336136
1.4555
-0.041315
-1.91522
0.378505
-0.2023
0.0309487
1.06209
-1.4314
-0.0850869
-0.677471
-0.212778
-2.04925
-0.404716
1.05546
-1.76432
1.03122
-0.498827
0.594291
1.05268
0.756535
-0.386586
-1.41465
-0.47813
0.0342658
-0.806024
-0.704252
0.814358
-0.37725
0.158136
0.992485
-0.756478
-1.97079
1.14117
0.0073199
0.863859
-0.240801
-0.391958
0.282301
1.12456
-0.226967
0.297294
1.19075
-0.549715
1.24313
0.0321397
-1.19492
-1.02708
-0.28001
1.67302
-1.25479
1.37162
-0.910507
1.138
1.25595
1.08029
1.23927
1.08784
-0.392091
0.0189953
1.15829
1.36986
1.56472
-0.931628
1.10983
0.476072
-0.854023
1.15045
1.49605
-1.33578
1.30172
-0.196651
-2.46962
1.19173
-0.787825
-1.94886
1.14908
-1.16876
1.21656
1.37609
0.964715
-2.3251
0.828451
1.20686
-2.1973
-0.756323
-1.063
-2.36884
-1.08851
-0.216485
1.60293
1.12874
-2.12608
1.26033
-0.720143
-1.26965
1.54393
1.16381
-1.83809
-0.964495
-0.249602
-0.487768
1.20099
-2.06393
0.603522
-1.68407
-0.815313
1.2111
-0.586088
1.35503
1.12349
1.17291
1.07163
1.25444
-1.33802
-0.655154
1.24601
1.40907
-2.44219
1.17128
-1.2211
-0.304142
-0.507667
0.989857
1.02629
-0.373792
-2.07067
0.956899
0.496913
-1.63709
1.05143
0.833507
-1.33808
0.885426
0.940557
0.173625
-1.99165
-2.20718
-0.23993
-0.465
1.5607
0.188972
0.773916
-2.03255
1.57187
0.879343
0.710107
0.886099
-1.08998
-0.0626068
-0.191004
0.275541
-1.93623
1.26708
0.765708
-1.00869
0.78566
1.33442
1.15694
1.07444
0.0929872
1.17486
0.163325
0.855475
0.732036
-1.21053
-1.96755
-2.07578
-1.5133
1.13973
1.3059
1.14119
0.192791
-0.166119
-0.165525
-1.89527
1.12094
1.25247
1.13673
-1.94949
-1.69617
-1.34152
-1.27531
-0.241842
-0.261759
-0.745152
1.06588
-2.56394
-1.91105
-0.608281
0.44627
0.515507
-1.90306
-0.157578
0.157617
0.889828
1.5459
-0.851117
1.26479
1.52251
0.43358
1.21842
-1.98795
-0.336561
1.63166
-0.165061
0.776197
-1.92626
-0.487588
-1.97443
-1.90901
1.22272
1.11884
1.12263
1.07583
-0.080658
1.15372
-0.324836
-0.532423
-0.18732
1.25717
0.518494
1.13477
1.15064
0.222457
0.18191
1.16692
0.142262
-0.305857
-1.90974
-1.96396
0.985525
-1.90848
1.13235
1.06602
-0.185274
1.51251
-1.93734
-0.974905
1.13825
-1.64403
-1.06426
0.057139
0.346986
-1.91436
-2.05693
0.769119
1.14283
0.175398
0.592945
-0.243979
-0.211182
-0.0202204
-2.24742
0.403534
1.01424
-1.17253
-1.90846
1.21683
-0.122359
0.0194728
-1.90703
-0.513315
1.13058
1.36589
0.250604
0.961241
-1.90662
-1.00561
-0.131516
0.145323
0.88619
-1.90958
0.820226
-0.288851
-1.92184
1.42151
-1.94607
0.319517
-0.452117
-1.84974
1.20664
-1.98836
-2.11108
-0.29474
0.523491
-2.04235
-0.49794
-2.38588
-0.0785641
1.14214
-2.10254
0.371173
-0.316732
-0.762369
1.30429
1.61121
1.17132
1.13091
1.14092
-1.76698
1.10424
-1.96133
1.36017
-0.290091
-0.249503
1.53331
0.32508
0.908656
-2.19742
1.58007
-0.40486
1.53289
0.345227
0.676588
-1.91859
-1.92795
-0.275861
-1.97888
1.4382
1.17407
1.0893
1.00399
1.12864
1.22573
0.630797
-1.92094
-0.463191
-0.050216
-0.99719
0.59516
1.12484
0.490708
-1.9049
-1.94588
0.197161
-0.283924
0.0387467
1.5913
1.14582
1.12089
0.169936
0.124808
1.16282
-0.223611
-0.221744
-0.49425
-0.87346
0.581138
-1.90699
-1.90443
0.262523
1.05495
-0.0776598
-0.444556
1.12379
1.01961
1.04001
1.10534
-0.23827
0.713162
1.40425
1.2029
-0.258886
1.13907
0.814961
0.14612
-1.32486
-1.90581
1.48839
0.744809
-1.20035
0.59584
0.771153
0.944032
-1.04195
-0.816532
-0.162582
-1.84102
-0.20802
-2.12482
-0.503073
1.09496
-2.18879
1.02937
1.48406
1.4004
0.98415
1.01816
1.10003
1.11359
-1.17795
-0.0388989
-1.13197
-0.35718
-0.0147285
-1.90784
1.14167
0.965917
-0.716533
1.20117
-2.15762
-0.373825
-1.9328
-0.0712951
0.947871
0.219192
1.08481
0.747642
-2.10484
0.178616
1.43791
0.0808166
-0.0872332
0.206418
-2.13173
-1.94003
1.20396
0.590161
1.356
-0.847738
0.0628469
-0.245444
-0.991653
-0.748358
0.0683302
-2.07199
-0.222443
0.768951
-0.0975052
1.65396
-2.27196
0.055896
-0.304718
-1.90976
1.18061
-0.3053
-0.952727
-0.0315534
0.361451
1.11918
1.45651
-0.565718
-0.278915
0.655075
-0.297562
-0.185263
1.34244
-1.27008
-0.290851
-1.77399
0.556514
0.19351
-0.782717
1.09485
-0.264489
-1.6075
1.08129
-1.89137
-1.70385
-2.25406
-2.10211
0.528783
-0.792589
1.27864
-0.170024
0.674614
-0.285451
0.607313
-1.63259
-1.37803
0.400624
1.09194
1.19412
1.15653
1.17261
-2.00431
1.1218
0.949958
-2.07187
0.900811
-1.0604
-1.87276
-0.0711703
1.42347
1.40151
-1.55572
-1.54765
-1.07066
0.887346
-1.86955
-0.140409
0.426133
-1.9039
1.24491
0.916749
-1.92242
-2.30068
-1.91546
-1.91161
0.910789
-1.98553
0.866607
-0.152994
0.480799
0.666143
-1.91617
-1.61835
0.817797
-1.90464
-0.473945
1.40037
-0.20611
-1.90567
0.626669
-2.2316
-2.18565
0.420121
-1.00377
1.49633
0.0117853
0.677658
-1.92606
1.56404
-1.93961
-2.3209
0.39391
0.426105
-0.287961
1.51487
0.434338
1.33413
-2.14508
1.16327
0.00170541
0.0443874
-2.08602
-2.08453
-1.95039
1.20295
0.301939
-0.47651
-1.93602
-0.844658
1.10334
-2.50622
1.54525
-0.281521
0.587928
-1.90752
0.0235226
0.252086
0.205868
0.0952954
0.670159
-2.39497
0.920956
-2.05991
-1.55694
0.253546
0.750772
1.574
0.341616
-2.1932
-1.96162
-1.90835
-0.124667
-2.21397
-1.90645
1.20607
0.686972
-1.91304
1.61788
-0.809148
-1.63487
1.52022
-1.9081
-0.286171
-2.26291
-1.91374
-1.90697
1.6
-1.99779
1.4678
-1.90684
-1.7809
1.15325
0.467598
-2.25516
0.28838
-0.974258
-0.477857
0.230179
-1.90599
1.12529
-0.486209
-1.90401
-1.90952
-1.92174
-0.289841
1.14415
-0.728666
0.293755
-1.91673
1.48033
-0.186408
-2.2324
-1.77678
0.380585
-2.11843
-1.93596
-1.91344
0.537725
1.18227
-1.94942
-0.280625
-2.32317
0.0381223
-0.839223
-0.292344
1.55229
1.46528
0.0846305
-1.56558
-0.286812
-0.0332754
-0.279221
1.53579
-0.20293
1.38616
0.468824
1.54587
-0.370885
-2.09606
-1.42697
-0.590655
-2.05996
-0.591786
0.426879
-1.90381
1.45766
0.458548
-0.183812
0.38744
-0.256022
-1.67974
)
;

boundaryField
{
    frontback
    {
        type            empty;
    }
    Top
    {
        type            zeroGradient;
    }
    outlet
    {
        type            fixedValue;
        value           uniform 0;
    }
    bottom
    {
        type            zeroGradient;
    }
    Inlet
    {
        type            zeroGradient;
    }
    rectangle
    {
        type            zeroGradient;
    }
}


// ************************************************************************* //
