/*--------------------------------*- C++ -*----------------------------------*\
| =========                 |                                                 |
| \\      /  F ield         | OpenFOAM: The Open Source CFD Toolbox           |
|  \\    /   O peration     | Version:  2306                                  |
|   \\  /    A nd           | Website:  www.openfoam.com                      |
|    \\/     M anipulation  |                                                 |
\*---------------------------------------------------------------------------*/
FoamFile
{
    version     2.0;
    format      ascii;
    arch        "LSB;label=32;scalar=64";
    class       surfaceScalarField;
    location    "50";
    object      phi;
}
// * * * * * * * * * * * * * * * * * * * * * * * * * * * * * * * * * * * * * //

dimensions      [0 3 -1 0 0 0 0];

oriented        oriented;

internalField   nonuniform List<scalar> 
3181
(
-0.96802
0.368157
0.599864
-0.356332
0.333456
0.0228761
0.474811
-0.327986
-0.146825
0.0991
-0.169282
0.0701821
-0.105703
0.145901
-0.0401975
0.163511
2.07634
-2.23985
0.129754
-0.124361
-0.0053926
-0.0767053
-0.0235677
0.100273
0.413558
-0.644708
0.23115
-0.0781489
0.113734
-0.035585
-0.0116902
-0.0603062
0.0719964
0.113758
0.0454782
-0.159236
0.0432259
0.0606673
-0.103893
-1.09159
0.157833
0.933754
-0.295341
0.639704
-0.344363
-1.12936
0.650095
0.479262
0.0817858
-0.928066
0.846281
0.0280018
-0.0214799
-0.0065219
-2.18916
0.835212
-0.0114939
0.0751183
-0.0636244
0.0783042
-0.111309
0.0330048
0.00536587
-0.0189417
0.0135759
1.05492
-1.03695
-0.0179752
0.0615917
0.0112141
-0.0728058
-0.954318
0.335497
0.618821
-0.10069
0.19979
0.293099
-0.275592
-0.0175069
0.0251478
0.0532573
-0.0784051
-0.460315
0.377197
0.083118
-0.0366623
-0.00485613
-0.00612975
0.0109859
-0.0480024
-0.906316
0.168905
-0.114308
-0.0545971
0.190889
1.3589
-1.54978
-0.109076
0.0440464
0.0650299
0.212897
0.297003
-0.509899
1.49768
-1.30679
0.0867404
-0.00843615
1.60621
-0.993728
-0.612482
-1.35845
1.52196
0.13013
-0.086904
-0.0156923
0.0210581
-0.371899
0.0765575
-0.151784
0.136091
-0.679848
0.12682
0.553028
-0.121985
0.0438365
-0.149402
0.152747
-0.00334511
-0.24169
-0.0724155
0.314105
-0.172688
0.693039
-0.520351
0.0309312
0.182621
-0.213552
-0.0163501
-0.117352
0.12462
-0.00726843
0.46511
0.174594
-0.0925786
0.173933
-0.0813543
0.0766652
0.09224
-0.149167
0.171108
-0.0219405
0.145582
0.0527877
-0.198369
0.0926133
-0.0977999
0.00518661
0.950876
0.655334
-0.807595
-0.160425
-0.0231392
-0.519612
0.542751
0.600651
0.251791
-0.852442
-0.492624
-0.225034
0.717658
-1.91145
0.553002
-0.291301
0.891952
-0.288547
-0.0997527
0.3883
-0.231345
-0.22897
-0.169744
0.18051
-0.0107655
0.186456
0.263677
-0.450133
-0.222935
0.636494
0.0461706
-0.122876
-0.74895
0.725811
0.145598
0.147501
-0.14783
-0.108469
0.256299
-0.264289
0.387339
-0.123051
-0.065535
0.0741547
-0.00861975
-0.921638
-0.921392
0.0141841
0.907208
0.0318115
-0.140888
-1.31142
0.79977
0.51165
0.663086
-0.915862
0.252776
-1.3627
-0.548757
1.09662
-0.938787
-0.783925
1.13499
-0.201233
1.04862
0.200681
-0.165185
-0.0354963
1.97191
0.104422
1.95538
-1.95538
-0.00958033
-0.00648165
0.016062
-0.181417
-0.0524007
0.233818
0.118655
-0.0865047
-0.0321504
-0.457699
0.797074
-0.339376
-0.0574909
-0.186924
0.244415
-1.07692
0.0399712
0.377963
0.0711818
-0.449145
0.118479
-0.923237
1.17503
0.0925551
0.140388
-0.232943
-0.0183728
-0.130795
-0.63779
1.01532
-0.377526
-1.03044
0.392647
0.12057
-1.04381
0.296047
-0.753746
0.923084
-0.841299
0.0437538
0.0505486
-0.0943024
0.104986
0.0596956
-0.164681
-1.1865
-0.103635
1.29013
-0.207452
0.369059
-0.161606
0.469882
-0.547025
0.0771424
-0.509475
-0.801946
0.147083
-0.116152
-0.134773
0.129734
0.00503908
-0.0833125
-0.0282992
0.111612
-0.52528
-0.119428
0.142691
-0.0453244
-0.0973665
-0.0611002
-0.193939
0.255039
0.722777
-0.0297377
-0.0379949
0.0284145
-0.00558226
0.15118
-0.220454
0.43335
-0.124331
0.158031
-0.0337008
0.158667
0.0790207
-0.237688
0.0382505
-0.301099
0.262849
-0.592729
-0.536629
-0.409364
0.348264
-0.0884297
0.180985
-0.0815211
0.158287
-0.076766
0.0662523
0.0213077
0.108446
-0.0537529
0.0511199
0.00263303
-0.0787191
-0.0147435
0.0934626
0.0651749
-0.0651749
-0.164996
0.186303
-0.367351
0.0582903
0.0898901
0.0812178
-1.10142
0.878486
-1.28598
-0.111662
1.39764
-0.0524175
0.0314909
0.0209266
-0.0313024
-0.0607557
0.0920581
0.483583
-0.0127802
-0.470803
0.0942431
-0.0913734
-0.00286969
-0.176458
0.0114625
0.174126
0.622948
-0.334392
0.508519
-0.0968211
-1.08968
-0.21664
0.110937
0.440558
-0.267615
-0.172943
0.159497
-0.138497
-0.0210001
0.0448072
-0.286497
0.0211714
-0.942563
0.0453419
-0.126863
-0.24852
-0.360963
0.108102
1.4539
-0.985364
-0.468532
1.09023
0.363669
0.0617152
0.25239
-0.0701964
0.0177788
-0.0580713
0.145115
-0.0870435
-0.242395
-0.615054
0.857449
-0.315921
-0.217243
1.97729
-1.14208
0.17535
0.0300008
0.008319
-0.0383198
-0.60614
-0.692958
1.2991
0.347639
-0.953779
-0.35067
0.728633
-0.906895
-0.010995
0.00153465
-0.299412
0.297878
1.31309
-1.52755
0.214466
-0.140166
-0.0764749
0.597427
-0.839822
-0.145254
-0.214463
0.359717
-0.321019
-0.138873
0.459892
0.205351
-1.00761
-0.0693113
-0.0315648
-0.0320596
-0.621078
0.396045
-0.280968
0.02262
0.258348
0.0883469
-0.228512
-0.111866
0.111866
-0.140421
0.154825
-0.0144044
-0.0204841
-1.26549
-0.0772317
-0.0467997
0.124031
-0.00324962
-0.0733854
0.076635
-0.246171
0.0764262
1.06512
0.20415
-1.26927
-0.152465
0.403431
-0.250966
-0.0213518
0.0148168
0.00653496
0.177461
0.292422
-0.218197
-0.00361228
0.22181
-0.144249
0.330704
-0.120202
0.118209
0.00199206
0.0869326
0.0582373
-0.14517
-0.0307047
-0.0103294
0.0410341
-0.278913
-0.406822
0.685734
-0.198365
-0.0450314
0.243396
-0.665261
0.662554
0.00270725
-0.0245503
0.0357644
0.0444995
-0.0462635
0.001764
-0.0555684
-0.0172375
0.32495
0.397827
0.167081
-0.907728
0.740647
-0.231472
1.23148
-1.00001
0.340805
0.299989
1.65539
0.0906204
0.233219
-0.074552
-0.0840547
-0.0332974
0.203898
0.185166
-0.0801798
0.730264
-0.394767
0.0556012
0.178216
0.0707245
-0.194409
0.123684
-0.69916
-0.117297
0.816457
0.0745701
-0.0745701
-0.0705544
-0.316659
0.613662
0.00984717
-0.208212
0.00540534
-0.0268853
0.0646536
-0.153083
0.158449
-0.170139
-0.34824
0.290749
-0.00669038
0.0024625
0.00422788
0.357133
-0.311655
-0.0964441
0.800538
-0.704094
-0.184192
0.245907
0.173107
-0.440722
-0.194586
0.562742
0.145491
-0.0274082
0.0274082
-0.574297
-0.0215121
0.595809
0.338015
0.0310436
0.0598856
-0.0723983
0.0125128
-0.0731641
0.153446
-0.0107548
-0.055238
0.213687
-0.20571
0.275276
-0.0695656
0.15531
0.0298551
-0.367337
0.0917454
0.222043
-0.0667327
-0.0535862
-0.0666153
0.0843136
-0.0775916
-0.00672195
0.128343
-0.0917416
-0.0366013
-0.0553696
0.440093
-0.384723
0.127144
-0.0809732
0.122875
-0.128025
0.00515007
0.0275092
0.742162
-0.838606
-0.0582065
0.127338
-0.0691311
-0.0276448
0.205791
-0.178146
-0.110566
0.0940889
-0.719522
0.625433
0.0528982
-1.26975
-0.445242
1.71499
-0.511631
0.770443
-0.258812
0.0706727
0.2017
-0.502799
0.309895
0.278944
-0.588839
-0.220521
0.291245
0.117142
-0.832003
0.714861
-0.216397
0.188752
-0.040646
0.00908117
-0.968019
0.435317
0.532703
0.985364
-0.864794
-1.45715
1.35351
-1.31309
1.20143
0.0320981
-0.113452
0.00840659
0.0360929
-0.0385623
0.732591
-0.615449
0.101591
-0.0562495
0.404944
0.730042
-0.122006
-0.945098
0.713626
-0.62686
-0.474562
-0.249377
-0.43047
0.0402399
-0.146784
0.191591
-0.563075
-0.327796
0.175331
0.705124
-0.221541
-0.776462
-0.680687
0.764508
-0.204369
-0.012028
0.241825
0.0302949
-0.0302949
0.66602
0.154139
-0.820159
-0.230302
0.896323
0.678025
-0.279236
-0.398789
0.118366
-0.0600761
0.0039436
0.00869245
-0.0126361
-0.519612
-0.558827
0.529089
0.264063
0.801054
-0.0312512
-0.118151
-0.226632
0.691742
-0.224219
-0.0567496
-0.00207623
-0.0634587
-0.0664833
0.126179
0.405806
-0.278986
-0.723681
-0.319658
-0.102632
0.129745
-0.0271127
-1.49254
1.79253
-0.0571732
0.0623581
-0.00518487
-0.00504842
-0.0651479
0.123895
-0.0703901
-0.0535052
0.0113423
0.376958
0.1089
0.0505967
0.0199764
0.0241657
-0.0441422
-0.0232089
-0.194988
-0.772745
0.405251
0.367494
0.27367
-1.31901
1.04534
0.158338
-0.184032
0.0256939
-0.0145599
0.161643
-0.653992
-1.30139
0.0849248
0.0389705
-0.165137
0.0489854
0.173287
-0.393741
-0.736198
-0.0127083
0.748907
0.0481007
0.0807484
0.0475945
-0.69916
-1.06296
0.784052
-0.104502
0.0341117
0.0510572
-0.643762
-0.0214984
0.0689002
0.153143
-0.229361
-0.00620507
-0.443928
0.106366
0.396813
-0.325631
-0.0909004
0.0121813
0.21746
0.850975
-1.06843
0.108631
-0.687195
0.578564
-0.858307
0.74101
-0.708434
-0.245319
0.953752
0.0413768
-0.0467157
0.00533895
0.197
-0.51802
0.280049
-0.166544
-0.113505
0.0721734
0.133618
-0.0731412
-0.0294911
-0.0372963
0.0038526
-0.059421
0.0187396
0.109452
-0.128192
0.166394
0.00604272
-0.00669179
0.000649076
-0.0830536
0.00208041
0.867555
0.0923322
-0.168807
0.227527
-0.786354
0.146942
-0.0285757
0.00594098
0.0748075
-0.953752
1.30139
0.200117
-0.183744
-0.0163726
-0.28408
0.118895
0.121889
-0.157385
-0.000810446
0.0749652
0.0706754
-0.89309
0.156892
-0.0664001
0.0851397
0.745247
-0.265985
-0.101811
0.0985616
0.366988
-0.015422
0.0753076
-0.00700391
0.0721788
0.135204
0.252135
0.162711
-0.369904
0.207193
0.0927335
0.530215
-0.0108405
-0.111145
0.830476
-0.208836
-0.62164
-0.708434
-0.586376
0.860045
1.49768
0.0217258
0.11513
-0.136856
0.496549
-0.0524046
-0.444144
0.242215
-1.60491
-0.0923809
0.0943559
-0.00197492
-0.0910845
0.294166
-0.203081
0.396637
-0.750169
0.353532
0.037466
0.673338
-0.710804
-0.0395195
-0.0952533
-0.144466
0.0862592
-0.694101
0.119804
0.0472255
-0.00584872
0.11938
-0.0738146
-0.0455654
0.035421
-0.0934923
0.0302008
-0.0352492
0.169441
-0.118893
-0.0427668
-0.00349677
0.216876
-0.403799
0.475047
0.295395
-0.0415157
-0.0330544
-0.987023
-0.0205861
0.0719736
-0.0603751
-0.0305253
-0.264649
0.119395
-0.658323
-0.234602
0.892926
-0.0450927
0.192035
-0.934529
-0.00425764
0.00162862
-0.651481
0.74557
-0.014624
0.160115
-0.187038
-0.0921979
0.194382
-0.405508
0.211126
0.240182
-0.082151
0.00592394
-0.00925
0.00332606
-0.032867
0.00216228
-0.0169077
-0.113887
0.725313
-0.616682
0.0442861
-0.0930137
-0.0217522
0.347008
-0.184297
0.113073
1.09235
-0.546422
-0.545923
-0.138495
0.161115
-0.523109
-0.249636
-0.535956
0.550366
-0.538005
-0.0123612
-0.0439276
0.0882137
-0.945098
0.583645
-0.583645
-1.56986
1.56986
0.732591
0.922724
-0.140392
-0.782332
-0.899076
-0.0879466
0.713219
-0.392336
-0.320883
0.129107
-0.205873
-0.0222206
-0.0157742
-0.951596
-0.0922113
-0.933663
0.214141
0.0882435
0.0415016
0.697583
-0.0886163
-0.608966
1.02885
0.46883
-0.0168451
0.0227691
-0.952504
0.781627
0.0189112
-0.160883
-0.607571
0.768454
0.116149
-0.861221
-0.666333
0.226366
-0.819095
-0.816457
1.21176
-0.395302
-0.130462
0.255381
-0.124919
-0.0474504
0.745033
-0.113087
-0.896828
0.896828
-0.41935
-0.286766
0.706116
-0.00135856
0.00740128
-0.0516036
-0.47403
1.03993
-0.240159
-0.101239
-0.0282187
-0.0897756
-0.0217759
0.000424105
0.478732
-0.72405
-0.44226
0.529192
-0.706496
1.10715
-0.400654
-0.0224083
0.107333
0.144151
-0.0651299
0.314932
-0.0204266
0.0810939
0.368449
0.0716443
0.0514159
-0.283575
0.232159
0.122885
0.0298619
0.112848
0.209754
0.694041
0.0317695
-0.331773
1.40658
-1.0748
-1.08569
0.392734
0.496207
-0.360116
0.0683731
-0.762913
0.69454
0.590951
0.0879998
-0.43624
-0.0744075
0.114682
-0.0402742
0.0986927
-0.1731
-0.499995
-0.121083
-0.0863634
0.0902497
-0.00388632
-0.00975414
-0.0330126
0.301653
-0.209413
0.615449
-0.578564
-0.0368849
-0.263732
0.273579
0.888441
0.86959
-0.373041
0.0345503
-0.08135
-0.552463
0.338
0.14403
-0.529598
0.385568
-0.0126223
0.00337228
0.919602
-0.541082
-0.37852
0.0241242
-0.0315595
0.0074353
-0.0444769
0.0376598
0.00681715
-1.79616
1.90058
-0.0996009
-1.17015
-0.221051
-0.864794
1.20143
1.35351
-0.170517
-0.153577
0.108546
-0.0758453
0.08288
-0.00703467
-0.745294
1.38793
-0.642632
0.578682
0.134538
-0.0183037
0.00568146
0.140357
-0.422072
0.0282187
-0.0707813
0.00438124
-0.0934444
-0.459019
-0.0729012
0.137555
-0.221993
0.579127
1.09023
-0.492401
-0.0508255
0.00039718
0.0504283
1.66946
-0.315944
-0.0522387
-0.0455612
-1.03996
0.17517
0.421176
-0.215825
-0.503113
-0.155874
0.658987
0.865416
-0.390812
-0.474604
-0.918643
0.26032
-0.713626
0.194014
-0.0132008
-0.0548901
0.0680908
0.503861
0.727624
-0.153642
0.157586
0.241336
1.47752
-0.276097
-0.663165
0.0322649
0.6309
0.411974
0.0158478
-0.373542
0.478492
0.743894
-0.790296
0.0655631
-0.0179686
-0.230411
0.0674158
0.162996
0.767924
0.0870405
-0.067064
-0.0531004
-0.391839
0.132882
-0.353403
0.487632
0.604713
0.06346
-0.107388
0.171444
-0.149718
-0.0355501
0.0109997
0.0984406
-0.130996
0.0325555
-0.26862
0.277854
-0.00923357
0.122491
-0.668913
-0.0405605
-1.09112
1.13169
0.0175943
-0.0603168
0.0427226
0.307469
0.0395397
-0.179592
-0.883373
-0.683503
0.683503
0.542751
1.02885
-0.687195
0.289739
0.454155
0.300051
0.295758
1.03577
-0.457091
0.0134515
-0.895658
0.882206
0.100649
0.0130845
0.0240084
-1.47152
1.29192
-0.0856791
-0.162841
-0.100901
0.263742
-0.165683
-0.462681
0.29984
-1.01421
-0.324096
-0.670052
0.0705262
-0.00600062
-0.000691178
-0.237021
-0.0710798
0.0439671
0.0296355
-0.173358
0.143723
-0.0119172
-0.407433
-0.00467892
0.0579362
-1.09881
0.00121952
1.09759
-0.512086
0.339144
-0.174433
0.176895
0.211293
-0.011111
-0.0295349
-0.973996
1.17815
0.0403821
0.0824926
-0.0103766
-0.0113756
0.266869
0.0131807
-0.456319
0.645106
0.532426
-0.0649404
0.862675
-0.794302
0.858286
-0.491297
-0.668578
0.194548
0.168596
-0.805537
0.790763
0.0147734
1.26707
-0.779438
-0.281659
-0.160601
-0.107816
0.0213116
0.944792
-0.838421
-0.106372
-0.215519
0.135339
0.0238525
0.105881
0.875481
1.65272
-0.426469
-1.22626
-0.301223
-0.0265734
-1.58078
0.481973
0.127749
1.16239
0.816787
0.212064
0.154492
0.544802
-0.699294
0.175973
0.0594905
-0.0213459
0.0102349
-0.5509
-0.117678
0.210606
-0.122259
-0.215765
0.160527
-0.482741
0.231775
-0.993216
-0.885685
-0.310827
-1.34135
1.22215
0.175486
-0.312054
-0.734624
0.641179
0.313123
0.338092
0.0303567
1.07917
-0.682528
-0.221017
0.154285
0.660119
-0.849802
0.189683
-0.0288841
0.0156833
0.0579033
-0.0601335
-0.208487
-0.0893379
0.698213
-0.434115
-0.264098
-0.208633
0.112454
-0.0819767
-0.0304773
0.254235
0.0838573
0.195692
-0.454504
-0.110556
0.161613
0.668965
0.98376
-0.0946209
-0.0835253
-0.034456
0.0013359
0.0331201
-0.0467562
0.078247
-0.272272
0.077863
-0.0895115
-0.503657
0.373195
0.0350481
0.0239562
-0.00636198
-0.70367
1.63175
-1.02703
0.0169164
-0.220812
0.203896
-0.152472
-0.512879
0.665351
0.0510662
-0.694829
-0.964894
0.924333
0.0785149
0.000619753
-0.0791346
-0.226317
-0.550366
-0.148794
-0.106841
-0.230411
-0.263319
0.188767
0.0339168
-1.05103
-0.0307148
0.304042
-0.273327
0.237114
0.0929716
0.265186
0.767292
-1.03248
-0.18547
-0.0188982
1.62987
-1.07879
-0.551078
-0.207654
-0.93591
1.32864
-0.274191
0.204626
-1.33357
0.397664
0.468193
0.547124
0.048668
-0.0872303
-0.0713463
1.57099
-1.63593
0.776426
0.0889905
-0.917398
0.0243083
0.353058
0.682715
0.846055
-0.0155792
-0.0203527
-0.816787
-0.670052
-0.710272
0.724456
0.0135796
-0.776462
0.673338
0.572841
-0.926367
0.800619
0.00326282
-0.808799
-0.317508
0.63993
-0.751216
0.111286
0.0687492
0.0437048
-0.21045
0.0563079
0.667312
-0.72362
-0.00017625
-0.00582437
-0.298271
0.241521
0.690996
0.196499
-0.185037
-0.160581
0.104618
-0.298557
-0.474358
-0.307975
1.19995
0.253622
-1.45357
-0.631896
0.699312
0.970687
-0.969468
0.122374
0.219304
-0.162996
-0.00362022
0.238841
0.0764013
0.133584
-0.0616099
0.0460785
-0.0514281
0.0053496
-1.03576
-0.0326721
0.296149
-0.809396
0.565114
0.747295
-1.31241
0.410671
0.69648
-0.0391779
0.0415278
-0.00234993
-0.0416845
0.146302
-0.718951
0.24524
0.879928
-0.314814
0.352428
-0.113587
-0.581391
-0.411825
-0.521365
1.72131
-0.0490587
-0.892395
-1.33007
0.330054
0.219304
0.0526235
-0.86202
0.831799
-0.648326
-0.183473
-0.981875
0.400484
0.00842487
0.100854
0.00094771
-0.101802
-0.971434
0.55961
-0.187856
0.91278
-0.917037
0.215398
-0.238607
-0.106189
0.279477
1.35121
0.624439
-0.122878
-1.14469
0.598763
0.317213
-1.10751
-0.551854
-0.519302
1.07116
0.448146
0.0179901
-0.00929763
-0.743477
0.710804
0.124303
-0.165987
-1.65539
1.21884
0.436554
-0.593372
1.34067
0.764308
-0.80097
-0.49423
-0.448334
-0.472611
-0.498823
0.804946
-0.804946
0.690853
-0.690853
-0.743477
-0.670082
0.670082
-1.21884
-1.26715
0.679248
-1.45034
-0.322634
0.322634
0.124303
-0.165987
0.764308
0.760999
-0.760999
0.80097
0.757577
-0.757577
0.50577
0.527389
0.480698
-0.198332
-0.501177
-0.551666
1.07906
0.506756
-1.56001
1.03864
0.304123
0.666564
-0.0533164
-0.0324178
0.12475
-0.88364
0.0823729
0.801267
0.0874513
-0.0472115
-0.990607
0.59584
0.84012
-0.550381
-0.119413
-0.0257891
0.00646375
-0.833147
-0.074581
-0.532703
-0.0138015
0.0228827
-1.01636
0.0671757
-0.033064
0.221326
0.000903785
-0.027434
0.0265302
-0.815496
0.0693795
0.746116
0.941547
0.409667
-0.519455
0.44249
0.0769646
0.915226
-0.750712
-0.164515
0.105653
0.327697
-0.0156132
-0.0707502
-0.0797009
-0.0126801
-0.0698642
-1.42267
-0.893925
0.0899977
-0.753103
0.794836
-0.0417336
0.116578
-0.900784
0.784206
-0.805713
0.898091
-0.0923786
0.0488233
-0.0955794
0.0252265
-0.324639
0.334823
1.38649
-0.0844904
-0.79915
0.912084
-0.0849631
-0.827121
-0.0768654
0.0544571
1.24567
0.830736
-1.90502
0.556229
-0.421691
0.0916604
-0.89081
1.30679
0.263064
-0.801327
-0.00747274
1.01629
-0.899709
1.00624
0.591195
-0.70979
0.118595
-0.887205
-0.103402
-0.450309
0.0655851
0.811202
0.0817234
-0.781585
0.781585
-0.657894
-0.077023
-0.863012
0.1123
-1.06015
0.899266
0.0748084
-0.241353
-0.0495535
0.0383626
0.0127573
0.180654
0.835633
0.821068
0.77851
0.129996
-0.908506
-0.20921
0.875774
-0.786353
-0.0943885
0.880741
0.153425
-0.872376
-0.682358
0.883215
-0.791554
-0.0959689
0.463907
0.0145209
-0.478428
0.337895
1.31626
-1.65415
0.62303
-0.403446
-0.219584
-0.882322
-0.828312
0.0752095
0.549172
0.309113
-0.528358
1.90889
-0.612121
0.612121
-0.633924
-0.510763
-0.475044
1.76697
-1.73119
0.640066
0.788826
-0.17698
2.0813
-0.180726
0.998093
-0.522439
-0.475653
0.188366
-1.50738
0.124349
0.381985
-0.644695
1.42875
0.0371012
0.357075
-0.251422
0.784445
-0.876824
-0.272977
1.14875
-0.13596
0.7318
0.608922
-0.608922
0.00732384
-0.0724718
0.130376
-0.10074
1.58637
-0.270111
0.109884
0.00178979
0.0186983
-0.0204881
-0.684792
0.691474
-0.00668255
-0.26813
-0.44166
0.0978763
-0.889431
-0.876843
0.797641
0.0792021
0.0625037
0.871199
-0.621517
0.353387
-0.759435
0.622698
-0.644197
-0.700393
0.177283
0.556433
0.0322671
0.427448
-0.721069
1.2775
-0.0031993
-0.850873
0.0546276
0.740209
0.681806
-0.059108
0.0655614
0.801994
-1.46612
1.15416
0.311966
-0.0745044
0.469749
-0.176481
-0.86876
0.66171
0.20705
-0.684605
-0.13449
0.593162
0.841572
-0.721768
-0.027045
0.485517
0.514483
-0.773584
-0.10324
-0.25481
-0.595481
-1.09992
0.122094
0.401125
0.598875
0.058826
-0.0567455
-0.858547
-0.0419963
-0.602201
-0.149314
-0.220824
0.370139
0.0672434
0.00343199
0.130286
0.0834012
-0.129468
-0.142804
0.767797
-0.65718
0.722742
0.641564
-1.36263
0.824557
0.792351
-1.61691
-0.741167
-0.177606
0.918773
-0.215443
0.204672
-0.0264555
-0.1272
-0.101312
-0.0427054
0.754141
-0.142019
0.0917406
0.119553
-0.734971
0.0501791
1.43384
0.426629
-0.0164869
-0.687607
1.12227
-0.275103
1.00514
0.000667149
0.074795
0.166541
0.0325957
-0.0826553
0.0762155
-0.389632
1.82348
-1.61669
0.778927
0.837762
0.843006
-0.0703795
0.0187927
0.0515868
0.147202
0.0457932
0.0014323
0.195011
-0.0965707
-0.939223
-0.791967
-0.733309
-0.88338
0.00328675
0.246743
1.57128
-1.19557
1.09743
0.0981383
-0.773514
0.816108
-0.042594
0.695438
-0.387985
0.856178
-0.099168
1.19674
-0.480829
-0.0386262
0.263977
0.420756
0.166981
-0.587737
0.363301
0.0181509
0.673323
-0.571397
0.591141
-0.0197436
1.65116
-1.33804
-0.0539619
0.064436
-0.0104741
0.707046
-0.0104017
-0.0827377
0.0163036
0.356719
-0.405848
1.10129
0.0943404
0.000482522
-0.0607994
0.183198
-0.0936078
-0.08959
0.0361997
0.00987888
0.302632
-1.38142
-0.141503
0.19427
-0.0224503
-0.0639281
0.254099
0.0880668
-0.00328291
0.0311722
0.761674
-0.400028
0.186698
0.213329
0.785842
-1.35287
0.567032
0.638502
0.120366
-0.0613279
-0.0954338
0.156762
-0.00822986
0.546796
-1.06924
-0.0206946
0.785203
0.737448
0.0152269
-0.330592
0.120142
0.791928
0.190643
-0.0775699
-0.930923
0.18276
-0.271615
-0.347078
-0.162852
0.704759
0.0569142
0.0162646
0.674907
-1.06289
-0.489733
0.170496
-0.00580851
-0.105501
0.419675
-0.0626218
0.279886
-0.0539214
0.0822741
1.44283
-0.656989
-0.137061
0.902434
-0.00143775
-0.10718
-0.058306
-0.000566281
0.0588722
-1.65413
0.316093
0.00523779
0.946054
-0.220856
-0.632752
0.677268
-0.0445161
-0.262273
0.754939
-0.939565
-0.677343
0.0953352
-0.201524
0.648474
0.106465
1.16836
0.624168
-0.277555
0.833785
0.700672
1.1228
-0.566726
0.35422
0.212506
-1.82295
-0.0717966
0.0376957
0.0811528
-0.0560284
1.12636
0.731354
0.0605737
0.653446
0.204002
-0.889108
-0.085678
-0.690962
0.683489
-0.0343056
-0.530657
0.381343
0.84264
0.666625
-0.102423
0.0886003
-0.107509
-0.328732
1.02969
0.602056
-0.515112
0.0385559
1.49318
-0.370376
0.25601
-0.000971208
-0.0904859
0.815837
-0.712298
0.907466
-0.195168
-0.41546
-0.151266
-0.0749619
-0.113676
0.0692107
0.92052
0.0301738
-0.00600805
0.625873
-0.416147
-0.27146
0.624629
-0.129264
0.200978
0.722629
0.34121
-1.06384
0.275351
-0.923677
0.267438
-1.29447
-0.149743
0.732242
-0.582499
-0.688897
-0.039113
-0.0880875
-0.0602855
-1.66281
-0.0110874
-0.0233685
0.112942
0.0282049
-0.0858267
0.0576218
0.0358477
-0.563075
0.0736064
0.00118865
-1.46579
-0.0116297
0.0125334
0.586174
-0.0594234
-0.617337
0.0459396
0.566334
0.276306
1.01928
0.695709
-0.21062
-0.392867
0.603487
0.630974
-0.621474
0.621474
-0.0969034
-1.02392
1.12083
0.035662
-0.174157
0.655132
-0.0887987
-0.212246
0.183416
-0.905184
1.31931
-0.318658
-1.15094
0.207201
-0.0990981
-0.210249
0.482183
0.108958
0.0960935
-0.00935313
-1.29532
-0.396694
-0.230909
0.692858
0.307142
-0.396694
0.692858
-0.522078
-0.628767
-0.522078
-0.696588
0.696588
0.303412
-0.0122699
0.129033
-0.0854242
0.286795
0.101567
-0.559215
0.633165
-0.00853609
0.62608
-0.505389
-0.120691
-0.0336359
0.0252545
0.00838142
-0.0381473
0.0399371
0.772872
0.0160096
-0.00968974
-0.435788
-0.394261
0.15724
0.0317799
0.81185
-0.267049
-0.0172742
0.658454
-0.0866773
-0.0998543
0.00212812
0.705126
0.0800765
-0.207632
-0.0441602
1.80428e-05
-0.0441904
0.0800866
0.535468
-0.484214
-0.0512543
1.96095
0.574057
0.0262918
0.959843
0.0137545
-0.0745102
0.123783
0.228149
-0.0444396
1.18457
-0.461939
-0.0136284
0.0841546
0.745521
-0.320787
0.0138103
-0.0138103
0.0272846
-0.0272846
-0.00558313
0.00558313
-0.0415157
0.368783
0.467702
0.0609384
-0.651543
0.430002
0.168493
0.0265184
-0.0936449
-0.479866
0.524976
0.115904
-0.800509
-0.189982
0.0977843
-0.00859189
0.0299979
0.00766186
0.0292494
-0.0292494
0.0142126
0.0286296
-0.0286296
0.701143
0.124463
-0.0344928
-0.00966747
0.00545007
-0.0562755
-0.0173627
0.0173627
-0.00917246
0.00917246
-0.0272268
0.0272268
0.0246554
-0.0246554
-0.0137768
-0.310404
-0.0691463
0.213965
0.0268588
-0.0268588
-0.384202
0.480339
-0.0961366
0.453014
-0.197632
-0.91479
0.897516
0.554313
-0.116227
0.0964375
0.58083
0.564751
0.0297112
-0.0297112
0.648546
0.0307485
-0.0307485
0.0302735
-0.0302735
0.801564
-0.273254
0.0456751
-0.106012
-0.43507
-0.0260334
0.0260334
0.00840993
-0.00840993
0.0219886
-0.0219886
0.0172899
-0.0172899
-0.0285073
0.0285073
0.0421202
-0.0421202
0.515687
-0.0382533
0.0382533
0.0246011
-0.0246011
0.0290233
-0.0290233
-0.0085498
0.0085498
-0.0268415
0.0268415
-0.132721
-0.0327234
0.0327234
-0.207845
-0.0116145
-0.0472703
0.0472703
0.0067858
-0.0067858
0.0103834
-0.0103834
0.0402453
-0.0402453
0.0210706
-0.0210706
-0.0254671
0.0254671
-0.00584772
0.00584772
-1.06494
0.831962
-0.0102826
0.0102826
0.0192621
-0.0192621
-0.0457083
0.0457083
-0.023392
0.023392
0.00384399
-0.00384399
-0.418831
0.771889
0.234143
-0.0384398
0.0384398
0.0636232
-0.00574751
0.00574751
0.0124555
-0.0124555
0.0311243
-0.0311243
-0.304157
0.226587
0.00700146
-0.00700146
-0.0161936
0.0161936
-0.448005
0.0372131
-0.914289
-0.0259377
0.0259377
-0.419563
0.0262457
0.0152821
0.085984
-1.00338
-0.0443488
0.0443488
-0.229918
0.167296
-0.035313
0.00592057
-0.00592057
-0.0369129
0.0699177
0.269094
-0.318852
-0.238115
0.556966
0.151607
-0.00793263
0.00793263
-0.00629876
0.301877
-0.295578
0.719645
-0.349856
-0.369789
-0.509517
-0.651725
0.553647
0.104807
0.833067
-0.907571
-0.576227
-0.0882556
0.190047
-0.912344
0.0229033
-0.0229033
-0.000184999
0.000184999
0.0371747
-0.0371747
0.0220794
-0.0220794
-0.00233889
0.00233889
-0.00355728
0.00355728
-0.802008
-0.113854
0.14059
-0.260003
0.00294534
-0.00294534
-0.038089
0.038089
-0.0487115
0.0487115
0.0579831
0.0269248
-0.0849079
0.0358213
0.272926
-0.493782
-0.00348655
0.00348655
-0.031071
0.031071
-0.119562
0.417988
0.135659
-0.00688335
0.00688335
-0.0157114
0.0149284
0.846441
-0.495706
-0.109408
0.605114
-0.604905
0.58037
0.230832
-0.0326964
0.0326964
-0.666129
0.252039
0.0606012
-0.0606012
-0.721087
0.400204
0.234942
0.107139
-0.00190675
0.00190675
-0.898849
-0.00121558
0.00121558
0.33722
0.407814
0.0866566
-0.0658989
0.0658989
-0.00916432
0.00916432
-0.051273
0.051273
-0.0458889
0.0458889
-0.00186465
0.00186465
-0.050928
0.050928
-0.00359911
0.00359911
-0.0553838
0.0553838
-0.0139778
-0.0386581
0.0386581
0.0120884
-0.0120884
0.0586481
-0.0586481
-0.00657914
0.00657914
0.040048
-0.040048
-0.128184
-0.00977863
0.00977863
-0.010913
0.010913
-0.0548658
0.0721788
-0.0183483
0.0183483
0.00487924
-0.00487924
-0.0736362
0.0736362
0.352272
-0.0251655
0.0251655
-0.0497285
0.0497285
-0.00651019
0.00651019
-0.0839238
0.0839238
-0.0116883
0.0116883
-0.101175
0.101175
-0.0271242
0.0271242
-0.0822841
0.0822841
-0.716642
0.442807
-0.560452
0.515936
-0.861221
-0.777566
-0.511433
0.348581
0.457814
-0.666448
0.00545603
-0.00545603
0.0393933
-0.668708
0.0586161
-0.0679692
-0.974475
1.44331
1.28272
0.23219
0.0648865
0.133543
-0.357143
-0.615268
-0.16264
0.394587
-0.939213
-0.0350686
0.0350686
-0.691326
0.00971731
-0.00971731
-0.00495987
0.00495987
0.414954
-0.323707
-0.00560675
0.00560675
0.0156206
0.0117876
0.602197
-0.35806
-0.0193545
-0.0250869
0.00473426
-0.123226
0.536284
-0.413059
0.500523
-0.376174
-0.00540773
1.17664
0.0477486
0.0231251
-0.416957
0.482542
-0.526365
-0.878007
-0.211672
-0.0876283
0.021145
0.043115
-0.446561
-0.0783787
-0.0121652
-0.0134759
0.817525
-0.50973
-0.0589624
0.0531539
-0.0447234
0.145214
-0.0161814
0.402605
0.259949
-0.157462
0.191369
0.0849757
-0.0267384
-1.45056
0.0299432
0.103146
-0.188972
-0.0150128
-1.28235
-0.075633
0.282492
-0.361985
0.433629
-0.237423
-1.10392
0.0644865
0.0893553
-0.0348982
-0.368647
0.445611
-0.0267027
0.123281
-0.0965783
-0.0329096
0.0329096
0.12696
-0.500002
-0.105388
0.0320029
-0.100417
0.0661117
-0.0514471
-0.00122711
0.0526742
-0.0555573
-0.178343
0.0584656
0.00897161
-0.275201
-0.315341
0.590542
0.021073
0.0732829
0.145233
-0.053492
-0.146979
0.0849222
-0.179222
0.347818
0.00988223
0.0417045
-0.00295621
0.148189
0.00644842
0.291429
0.00447784
-0.00447784
0.0639466
0.192064
0.110904
-0.196582
-0.018367
0.134516
0.112693
0.240694
0.130312
-0.0184456
-0.541222
-0.0192303
-0.850461
0.120557
-0.752476
0.295385
-0.0544063
0.340713
-0.615914
0.1879
0.47381
-0.114956
0.114956
0.00094771
-0.494678
0.678535
-0.183858
-0.241325
0.181039
0.314623
-0.344992
-0.323921
0.00388986
-0.0617079
0.0701145
0.928393
0.102885
-0.205308
-0.074029
0.215369
-0.530183
-0.00199633
-0.255121
0.733613
0.527586
-0.254661
-0.308372
0.555115
-0.194578
0.309708
-0.262007
-0.042027
-0.44363
0.347494
0.108802
-0.108802
-0.0626526
-0.0493382
0.111991
-0.0122664
0.0177164
0.0013359
-0.655481
0.647251
0.196242
-0.183909
-0.0123332
0.505827
-1.12827
-0.247573
-0.538781
0.670894
-0.0903344
-0.169669
-0.00836415
-0.0809738
-0.518004
0.0822166
-0.322614
-0.00397419
-0.0150128
0.431883
-0.00543882
0.00480028
0.00220337
0.0326939
-0.0161429
-0.016551
-0.0883945
-0.0280547
-0.196747
0.224802
-0.0922798
-0.351351
0.0156206
0.355478
-0.000164384
-0.414538
0.103711
0.0035217
0.130829
-0.0698907
-0.0150999
0.0150999
-0.00238323
-0.00076253
-0.00773233
0.0034147
0.104914
-7.2838e-05
-0.00128053
0.177026
-0.057631
-0.00799201
0.00799201
-0.0862173
0.481601
-0.00111012
-0.2702
0.798445
1.25437
-0.460927
0.29496
-0.444148
-0.0845466
-0.0208416
0.188319
-0.197515
0.099241
-0.0540348
0.0113294
-0.00718241
-0.172289
-0.355559
0.78556
0.085266
-0.887274
0.142539
-0.00187492
-0.00835856
0.0708623
-0.00266242
-0.00708532
-0.0469495
-0.941115
0.00156204
-0.00109629
0.760428
-0.675505
-0.257298
0.462446
0.986477
-0.00680659
0.00115374
-0.035313
-0.00486708
0.817895
-0.434523
0.543481
-0.82639
0.906017
-0.506673
0.525959
-0.177378
0.747977
0.000617168
0.00195875
0.0280392
-0.0850479
0.134091
-0.200877
0.00700032
0.0136294
0.0793444
-0.0684728
-0.0108716
0.000931177
-0.116071
0.165854
-0.049783
-0.127331
0.0198706
-0.00117232
0.0040964
0.549023
-0.453753
0.0206876
0.000357438
0.388075
0.29046
0.350668
-0.00717411
-0.00610557
-0.0561284
-0.085375
-0.0602814
-0.0720689
-0.00194848
-0.00436266
0.155001
0.0758469
-0.00409302
0.368497
0.000887848
0.0183818
-0.0183818
-0.0103873
-0.0146997
0.000606448
-0.321411
-0.0044023
0.084884
-0.108358
-0.199443
0.273388
-0.0647187
0.000541211
0.00113438
0.418252
0.000432142
-0.00266423
-0.0722977
-0.00256151
0.000633847
-0.380541
0.490425
-0.709537
0.423598
-0.779157
-0.0285729
-0.00228097
-0.374083
0.413671
-0.37657
0.53044
-0.0131925
-0.0701799
-0.00529765
-0.00195318
-0.559664
-0.00411087
-0.00173446
0.0526201
0.873187
-0.509886
-0.00326424
-0.00298002
-0.00773728
-0.0031995
0.106268
-0.0187131
0.0187131
-0.046583
0.0458205
-0.00163095
-0.0102876
0.0754151
-0.0706148
-0.190516
0.118719
-0.00517816
-0.0172511
0.0278876
-0.0215165
0.0751525
-0.0540075
-0.625773
0.584039
0.0367101
0.000576785
0.324737
-0.242462
-0.0539942
-0.625383
-0.0530875
-0.0918142
-0.110323
0.107761
0.750105
0.000482034
0.0256566
-0.0245029
0.119982
0.0823755
-0.136735
0.0543597
-0.0660531
-0.615649
0.794867
-0.524616