/*--------------------------------*- C++ -*----------------------------------*\
| =========                 |                                                 |
| \\      /  F ield         | OpenFOAM: The Open Source CFD Toolbox           |
|  \\    /   O peration     | Version:  2306                                  |
|   \\  /    A nd           | Website:  www.openfoam.com                      |
|    \\/     M anipulation  |                                                 |
\*---------------------------------------------------------------------------*/
FoamFile
{
    version     2.0;
    format      ascii;
    arch        "LSB;label=32;scalar=64";
    class       volVectorField;
    location    "50";
    object      U;
}
// * * * * * * * * * * * * * * * * * * * * * * * * * * * * * * * * * * * * * //

dimensions      [0 1 -1 0 0 0 0];

internalField   nonuniform List<vector> 
2186
(
(1.24309 -0.0541126 2.52069e-19)
(1.48307 -0.852418 4.46057e-20)
(1.33972 -0.832003 1.17514e-20)
(0.655805 -0.489325 -1.63455e-19)
(-0.639187 0.921043 -4.32565e-19)
(2.01749 -1.13455 0)
(0.639876 -0.588477 0)
(0.528309 0.546232 8.01269e-20)
(1.20334 -0.0210937 -2.50774e-20)
(0.481278 -0.187854 -1.3893e-21)
(0.784287 0.708926 0)
(0.782916 -0.258986 -3.91158e-20)
(0.584268 0.537581 -3.58968e-20)
(1.19901 0.0299234 -3.6385e-19)
(1.65835 -0.633324 3.3389e-20)
(1.02518 0.00315406 1.65179e-19)
(0.975748 0.015582 0)
(0.033414 -0.0197138 0)
(1.3571 -0.867857 0)
(0.00322682 0.252862 -1.55344e-19)
(0.510885 0.267918 -1.05768e-19)
(0.0198973 0.0268183 2.14583e-19)
(1.19099 0.0336185 2.98859e-19)
(-0.111895 -0.209719 5.90995e-21)
(1.02113 0.0188082 -2.35279e-19)
(0.706698 -0.469486 0)
(0.756992 0.0690544 1.4296e-19)
(0.533887 -0.512551 -1.98204e-19)
(1.35246 0.797182 0)
(0.94994 0.0268243 -3.2087e-19)
(-0.0518915 -0.0119648 0)
(1.01939 0.000250886 1.11106e-20)
(-0.0872162 0.471349 0)
(2.48922 0.0584008 4.88876e-21)
(-0.512184 0.0912759 -1.81272e-20)
(1.74286 0.818233 -7.03059e-20)
(1.66372 0.0887609 -2.9805e-20)
(0.54914 0.312728 -3.10857e-19)
(2.13208 -0.299793 -5.08156e-19)
(1.30037 -0.847857 -2.92154e-20)
(0.5372 0.466261 0)
(0.0541467 0.0217674 0)
(1.72202 -0.795567 2.48873e-20)
(-0.371308 0.317417 0)
(1.19194 0.330971 1.19177e-19)
(0.535657 -0.170935 2.8951e-19)
(0.824131 -0.699925 0)
(1.08409 -0.70963 1.52192e-19)
(0.984712 -0.360941 0)
(-0.0918924 0.563826 3.97071e-19)
(0.0361425 0.0849218 2.29669e-19)
(0.73393 0.675187 5.17838e-20)
(1.9202 -0.681169 1.60199e-21)
(0.656507 0.412536 -2.43585e-19)
(-0.426857 0.402132 8.19372e-20)
(0.67671 -0.567036 0)
(1.5176 -0.866852 1.5272e-20)
(0.504264 -0.465885 0)
(2.16243 -0.258113 1.30916e-19)
(1.07579 -0.140086 -4.07171e-19)
(0.677181 0.0176038 -2.90828e-20)
(1.46474 0.324522 -1.08431e-19)
(1.47179 0.607985 0)
(1.60224 -0.835674 3.20001e-20)
(1.47506 0.421653 -5.01743e-20)
(1.15112 -0.654287 -2.23967e-19)
(1.30392 0.72916 2.92005e-20)
(0.691096 0.183169 -5.2309e-19)
(0.833867 0.143129 0)
(1.84546 -0.0681498 1.05711e-20)
(0.506131 0.556675 -8.22124e-20)
(1.05411 -0.0473389 4.80378e-20)
(0.716155 0.0713877 -2.35946e-19)
(0.795565 -0.434777 0)
(0.865973 0.270462 -8.22691e-20)
(0.466832 -0.422028 -3.23326e-19)
(0.798528 -0.224707 0)
(1.00673 0.0132299 3.47385e-19)
(-0.51354 0.230387 0)
(2.47086 0.0176936 0)
(1.72697 -1.06482 1.59916e-19)
(1.64469 -0.825958 3.09308e-20)
(1.01619 0.0129833 3.91005e-20)
(1.45004 0.423359 1.43909e-20)
(0.954982 0.0287946 4.11801e-19)
(1.02757 0.0372675 -9.70658e-21)
(0.705906 0.301428 -3.01352e-19)
(1.52352 -1.39609 -6.75812e-21)
(1.6973 0.0650721 0)
(-0.107438 -0.150177 2.92464e-20)
(0.776476 -0.538846 -1.89889e-19)
(-0.14937 0.41186 1.14827e-23)
(1.07108 -0.0441697 2.58056e-19)
(0.776152 -0.0941085 0)
(0.961373 0.0252229 3.90139e-20)
(1.52361 0.684003 0)
(1.49183 -0.86277 0)
(1.41583 0.250645 0)
(-0.415981 0.839129 0)
(0.70258 -0.575751 3.29985e-19)
(0.988646 -1.32793 -1.97193e-19)
(1.43704 -1.29631 2.23054e-19)
(1.64087 0.164635 0)
(1.10974 -0.0799485 -2.35917e-19)
(1.1255 0.0253259 1.72475e-19)
(-0.0444019 0.166735 2.76517e-19)
(0.741313 0.620435 0)
(1.88124 -0.0736539 5.12101e-20)
(0.887778 -0.398659 9.17409e-20)
(0.327126 -0.833715 2.49201e-19)
(2.16479 0.0662617 2.47649e-19)
(-0.131972 0.67507 -5.97004e-19)
(0.728851 -0.65934 0)
(0.657644 0.483944 1.42681e-19)
(1.52297 -0.00517175 3.68952e-20)
(0.437776 0.745796 -5.73403e-19)
(0.251946 0.271243 7.71781e-20)
(0.866849 -0.131817 0)
(-0.142613 -0.208972 -8.67059e-20)
(0.689412 0.0393156 7.62515e-20)
(1.78421 0.964276 0)
(0.336194 0.253931 -5.5184e-19)
(1.00931 0.867354 -1.83071e-19)
(0.192867 -0.749738 6.49697e-19)
(1.0346 -0.0167359 0)
(0.314604 0.422031 -9.7275e-20)
(-0.425996 0.812219 0)
(0.618813 -0.400315 -1.16339e-19)
(-0.0449904 -0.365878 -3.83161e-19)
(0.703137 -0.637086 0)
(0.355304 -0.123287 4.20338e-19)
(0.45324 -0.352696 2.97513e-19)
(0.364965 -0.329052 0)
(0.887373 -0.699957 -1.67863e-19)
(1.38631 -1.07779 0)
(0.162496 0.498684 -3.11085e-19)
(0.721046 -0.610009 1.62407e-19)
(2.05652 -0.156497 -6.70521e-20)
(1.93078 -0.198126 0)
(0.0754488 0.412589 0)
(0.796575 0.738258 -2.076e-19)
(1.65437 -0.55963 -4.30401e-20)
(0.484258 0.479681 0)
(0.89034 -0.721047 -1.76664e-20)
(1.0971 -0.0781782 0)
(1.04623 -0.0911699 4.12085e-19)
(1.88371 -0.116888 5.36772e-20)
(-0.633148 1.01224 0)
(1.12468 -0.490918 -7.09228e-20)
(-0.0360912 0.39916 -1.02399e-19)
(-0.284 0.600612 0)
(0.998985 -0.73045 9.70415e-21)
(1.00654 0.00745651 -5.80277e-19)
(0.5678 -0.379341 -1.13069e-20)
(0.73607 -0.425858 0)
(1.10084 -0.653202 -1.26295e-19)
(0.718606 0.359513 2.28399e-19)
(1.28639 0.17384 0)
(1.56216 -0.0149319 -2.39666e-20)
(1.0975 -0.771685 -3.12918e-19)
(-0.0617884 0.370319 -2.39904e-20)
(-0.190232 -0.351441 -5.3368e-20)
(1.09649 0.0247373 2.071e-19)
(0.84129 -0.384003 -1.1539e-19)
(1.74351 -1.43458 6.25449e-21)
(1.45949 -1.59232 1.18162e-19)
(0.710832 -0.207639 4.06299e-20)
(0.0933662 -0.1518 -1.32763e-19)
(0.779902 0.601118 0)
(1.32077 0.339588 -8.63698e-20)
(1.60547 0.70741 2.08028e-20)
(0.724967 -0.528375 -2.40597e-19)
(0.995595 0.0106911 1.18998e-20)
(0.634979 -0.440727 3.20074e-19)
(1.47241 0.869471 2.69853e-20)
(1.70083 -0.121342 2.57412e-20)
(-0.644359 1.03157 0)
(1.10535 0.069243 -2.11406e-19)
(-0.431738 -0.775015 -1.75911e-19)
(1.17624 0.548712 5.60575e-20)
(0.276857 -0.185292 8.02688e-20)
(1.16194 0.0329549 -4.14389e-20)
(-0.067742 0.303657 -3.76056e-19)
(1.44169 0.619589 -2.59016e-20)
(1.29011 0.992451 0)
(-0.494554 1.10027 -2.15388e-19)
(0.466071 0.744996 0)
(0.758467 0.660134 -2.15789e-19)
(1.91593 -0.157008 -3.01681e-20)
(0.510166 0.51364 1.37798e-19)
(-0.308514 0.42476 -9.88213e-19)
(0.740166 0.18949 2.29446e-19)
(1.53724 -0.663646 -1.26263e-20)
(0.910107 -0.278774 -3.29478e-20)
(0.0278662 0.191058 0)
(0.462166 -0.113507 4.27102e-19)
(1.54286 1.09533 9.04739e-20)
(0.862673 0.166743 -1.23298e-19)
(0.64865 0.608987 1.47675e-19)
(0.877624 0.240279 0)
(-0.14503 0.0259719 -1.22576e-19)
(0.685967 0.694351 2.94954e-19)
(1.18378 -0.86877 9.70992e-22)
(0.975872 0.0102476 -1.83403e-19)
(-0.0579758 -0.224082 2.96202e-21)
(-0.244385 0.268808 3.4963e-19)
(-0.0528841 -0.338759 -6.90929e-20)
(0.766481 -0.278329 0)
(1.16364 0.0547615 -2.78281e-19)
(1.38881 -0.441163 2.54758e-20)
(1.17595 -0.550477 1.42297e-19)
(1.90868 0.0782871 -2.71749e-20)
(0.672435 0.466883 0)
(1.06578 0.84586 -1.0378e-20)
(0.790934 0.727931 1.2602e-19)
(0.815114 -0.481276 1.70359e-19)
(0.786743 0.608225 0)
(1.01533 0.0133876 7.79595e-21)
(0.795349 -0.580296 2.44321e-19)
(0.924559 0.513985 -3.67923e-19)
(1.11834 -0.0951335 0)
(0.340055 0.425995 -4.69219e-19)
(-0.244044 0.342773 -2.32439e-19)
(1.79055 0.764668 0)
(1.23381 -0.851271 -8.30636e-22)
(0.185538 0.018857 0)
(-0.590455 0.816777 2.64082e-19)
(0.843469 0.752581 -7.23487e-20)
(0.813776 -0.136961 0)
(-0.0436495 0.201509 0)
(1.49617 -0.436619 0)
(-0.218331 -0.950677 3.58475e-19)
(1.1045 -0.799023 2.04351e-19)
(1.08421 -0.531699 7.88043e-20)
(0.993139 -0.147048 -1.90062e-19)
(0.787461 -0.610096 -1.95364e-19)
(0.154592 -0.15657 0)
(-0.00429471 -1.39922 0)
(0.919235 -0.440362 2.05985e-19)
(0.316271 0.508812 0)
(-0.105227 0.651483 0)
(0.346615 0.820185 5.0649e-19)
(0.901256 0.767901 6.28157e-20)
(1.1412 0.889841 0)
(0.799207 0.658158 -6.68503e-20)
(0.821509 0.0451156 -2.1442e-19)
(0.848031 0.66196 -1.77604e-19)
(0.687814 0.642524 -1.26932e-19)
(0.288601 0.528714 9.05436e-21)
(0.63785 -0.569008 0)
(0.941329 0.2489 -2.80234e-19)
(0.41981 0.463723 4.00495e-20)
(0.701855 0.650623 2.73001e-19)
(1.08366 0.899929 0)
(0.0373599 -1.53854 2.14747e-19)
(-0.522148 0.394344 1.23262e-19)
(-0.441982 0.419641 -6.09556e-20)
(0.768571 0.67463 -1.15836e-20)
(0.97 -0.00434769 5.53919e-20)
(0.509653 0.496447 0)
(2.05304 -0.165475 7.3606e-20)
(0.470515 0.400743 1.42935e-19)
(0.56855 -0.52158 -8.65692e-20)
(0.339393 -0.701442 2.02762e-20)
(1.31209 0.505985 1.11059e-19)
(0.971745 0.498318 0)
(0.996218 -0.14125 2.04986e-19)
(-0.683842 0.243086 -1.08802e-20)
(-0.0785849 0.212562 8.71304e-19)
(0.898277 0.0216439 -5.15847e-20)
(1.19765 0.189395 0)
(1.70668 -0.108699 1.33082e-19)
(1.60731 -0.116679 0)
(0.60429 0.398432 -4.04183e-19)
(-0.287475 0.331966 0)
(0.41964 0.548398 1.55934e-19)
(0.64871 0.102771 0)
(0.533955 -0.414715 -1.95389e-19)
(1.12603 0.024081 2.03538e-19)
(-0.476285 0.837658 9.34609e-20)
(1.02584 -0.111462 -1.21946e-20)
(1.86137 -0.108433 1.26908e-20)
(1.1901 0.270372 -1.73582e-19)
(0.454653 0.468276 -8.26001e-20)
(0.977202 -0.765726 0)
(0.798262 0.0178465 -1.47838e-19)
(0.861528 -0.298808 -3.09208e-19)
(1.57855 -0.522386 8.71662e-21)
(1.4803 0.0672046 -1.73648e-19)
(1.11417 0.00557559 3.38871e-19)
(-0.643238 0.281633 -5.32155e-20)
(0.923212 -0.365307 -1.42381e-19)
(0.160618 -0.153234 2.74508e-19)
(1.00872 -0.00189016 0)
(1.00486 3.11331e-05 0)
(0.408363 0.600882 3.59389e-22)
(0.203957 0.360129 -2.11085e-19)
(0.187828 -0.102335 -4.94002e-20)
(0.518676 -0.0544224 1.38049e-20)
(0.535837 -0.470152 0)
(1.39754 -0.75467 8.32799e-22)
(0.846856 -0.732046 -1.2396e-19)
(1.64535 -0.524171 -1.20945e-21)
(1.24573 0.931977 0)
(0.396087 -0.372376 0)
(0.708492 0.626104 -1.41799e-19)
(1.17995 0.317151 -3.05824e-19)
(2.03095 -0.174299 -1.25838e-22)
(0.897744 0.231803 1.22133e-19)
(-0.347132 -0.071371 -1.14224e-19)
(1.64335 0.0485059 4.86426e-20)
(-0.0480522 -0.215942 0)
(-0.157586 0.351957 0)
(0.374999 0.528747 0)
(1.23194 -0.652055 -1.48856e-19)
(-0.278966 0.607252 -4.9091e-19)
(-0.184172 0.28667 0)
(1.4846 1.09579 2.32579e-20)
(1.18558 0.182783 -3.35423e-19)
(1.64547 0.718125 -1.71729e-21)
(1.24154 1.04944 -3.28339e-21)
(-0.0995601 0.590705 3.0547e-19)
(1.61435 0.268074 0)
(0.32976 0.606319 -3.29087e-19)
(-0.311854 0.746273 5.81263e-19)
(0.787292 0.124486 1.72924e-19)
(1.76848 1.02015 1.51524e-19)
(0.738226 0.593926 -3.66885e-20)
(-0.136161 0.42931 9.7894e-22)
(0.658233 -0.598211 -4.48406e-20)
(1.16843 -0.101234 0)
(1.53123 0.0917032 0)
(0.934256 0.0403203 0)
(1.1782 0.91693 -3.62162e-19)
(0.310318 0.398194 8.69841e-20)
(1.18347 0.947588 0)
(0.98836 0.032358 4.9232e-19)
(0.873223 0.705639 -1.73854e-19)
(0.376835 -0.125098 -2.60544e-19)
(0.871925 0.0915255 -3.88682e-20)
(0.633171 -0.570948 -2.54242e-19)
(1.54933 0.754442 5.93803e-21)
(0.474627 -0.337261 -3.05815e-19)
(1.14388 0.00487862 -4.24575e-19)
(0.774993 0.0620699 4.52844e-20)
(1.42649 -0.148732 1.16897e-19)
(0.958999 0.148396 8.66355e-20)
(0.217331 0.33854 5.09862e-21)
(1.18068 0.544515 -1.92423e-19)
(1.74446 0.730717 1.98427e-19)
(-0.557071 0.481706 0)
(-0.187992 -0.291992 4.94986e-20)
(0.384501 0.912664 2.05967e-19)
(-0.142257 -0.311779 -4.41496e-20)
(0.577593 0.476199 0)
(0.578613 0.618025 0)
(-0.0394423 0.0356759 -3.17375e-19)
(0.234865 0.430624 -4.93072e-20)
(1.05625 -0.0231639 1.68376e-19)
(-0.700896 1.18181 -1.16145e-19)
(0.96189 -0.581805 -1.78514e-20)
(0.22104 0.297807 0)
(0.743671 -0.654813 -3.67254e-19)
(1.26288 0.235667 -1.76217e-19)
(-0.331899 -0.536065 1.04605e-19)
(0.764293 0.270534 2.9315e-19)
(0.656507 0.284028 9.54715e-20)
(0.424669 -0.395614 2.18678e-19)
(0.536006 0.498945 -9.37341e-20)
(0.745265 0.444884 0)
(0.49365 0.4927 -1.64078e-19)
(1.03291 -0.00614229 -2.69571e-19)
(-0.349659 0.272887 3.94059e-19)
(1.57717 0.470864 -1.78046e-20)
(0.338226 0.532083 -2.58377e-20)
(0.610266 -0.55523 -1.15962e-19)
(0.873035 0.271485 -1.77889e-19)
(1.06473 0.500826 1.7211e-20)
(1.0959 -0.0983204 3.73482e-20)
(0.555903 -0.107884 -3.04064e-19)
(1.85876 -0.263908 5.29267e-20)
(0.78564 0.0885613 0)
(1.08368 0.591241 -7.19628e-21)
(1.78128 0.211277 -8.79486e-21)
(0.29571 -0.217486 -2.6984e-20)
(1.75355 0.277277 -4.13299e-19)
(1.93991 -0.805408 -4.36784e-20)
(0.512235 0.497496 -2.09042e-19)
(0.434859 -0.151147 4.55279e-19)
(1.53672 -0.174969 0)
(0.946893 0.00771626 0)
(0.780291 -0.685929 7.67609e-20)
(-0.551084 0.427865 -1.35285e-19)
(0.188939 -1.35833 -3.30132e-19)
(0.275119 0.410626 -6.91229e-20)
(0.11994 0.382105 -3.44437e-19)
(-0.270568 -0.215784 0)
(-0.188066 0.234713 9.81448e-21)
(0.424822 -0.0234993 -2.11167e-19)
(-0.272486 0.299454 -8.0106e-19)
(0.766091 -0.0201572 0)
(0.88689 0.463363 -6.08576e-20)
(0.359849 0.590701 0)
(0.986225 0.0262406 3.51276e-19)
(-0.265601 -0.323422 2.67748e-20)
(0.451916 -0.30717 4.10168e-19)
(-0.474719 -0.723889 2.90744e-19)
(-0.374181 -1.55555 0)
(0.334769 0.248388 2.39339e-19)
(0.994067 0.0319271 -1.05833e-20)
(0.0764567 -0.0229006 0)
(1.00579 -0.00574576 -5.37797e-20)
(0.771111 -0.641641 -3.39234e-19)
(0.155297 0.1178 0)
(0.881221 -0.195798 2.1871e-19)
(0.373621 0.18918 4.60327e-19)
(-0.110461 -0.047011 0)
(-0.101518 -0.0692211 -3.10093e-21)
(0.639937 -0.546066 -4.70486e-19)
(0.93255 -0.0293702 -2.69055e-19)
(-0.627448 0.404695 1.91767e-19)
(0.213163 0.539172 8.52392e-20)
(-0.104984 -0.193885 0)
(1.05001 0.551198 0)
(-0.378837 -0.46229 7.09385e-20)
(1.51184 -0.420956 1.74702e-20)
(1.22428 1.01388 5.72483e-21)
(1.12212 0.250811 -1.04332e-19)
(1.09673 0.0218496 -2.35313e-19)
(0.960195 -0.0660433 -9.09604e-20)
(-0.374516 0.385495 -2.03514e-19)
(1.05541 -0.153198 9.54955e-20)
(0.732148 0.0333118 1.63308e-19)
(1.73236 -0.117358 -3.58132e-20)
(0.978234 -0.13296 0)
(1.17958 -0.479143 4.21161e-19)
(1.14455 0.0292369 -4.7589e-19)
(1.94955 0.622472 -9.17074e-20)
(0.660415 -0.359165 -1.70447e-19)
(-0.16219 -0.210376 6.53584e-20)
(0.708826 -0.615624 4.41233e-19)
(1.33611 0.232775 5.07153e-20)
(1.00758 -0.00671819 2.38132e-19)
(-0.47055 -0.128243 -7.90546e-20)
(1.04182 0.0374392 0)
(1.4222 0.178541 8.1327e-20)
(-0.172728 -0.0610543 0)
(1.0084 0.0197951 -1.43025e-19)
(-0.193187 -1.44704 -4.53903e-19)
(1.79533 0.193434 -2.54358e-20)
(0.352297 0.968814 2.82036e-19)
(1.58601 0.0610192 -4.85585e-20)
(1.02 -0.0131912 4.87972e-20)
(1.19967 -0.0807005 0)
(1.33111 -0.551849 -2.27889e-19)
(1.03621 0.0615028 -1.41022e-19)
(1.62401 0.863124 7.39484e-20)
(1.23344 -0.0467933 0)
(0.462378 -0.671208 2.21554e-20)
(-0.0543585 0.0360084 0)
(1.20321 0.030946 0)
(0.430293 0.367046 0)
(1.33712 0.510387 0)
(2.30247 -0.097664 9.7061e-20)
(0.84845 0.713835 3.04045e-19)
(0.243454 -0.242589 -2.59061e-19)
(0.169538 0.473156 -2.34307e-19)
(-0.0377902 0.178238 0)
(1.10228 0.243792 -8.45447e-20)
(1.93464 0.521174 0)
(1.59684 0.281878 0)
(0.218893 0.551507 1.39419e-19)
(0.926129 0.814452 7.93671e-20)
(1.49689 -0.0264362 0)
(0.55276 0.528951 7.02698e-20)
(0.966865 0.297983 1.64154e-19)
(0.473607 0.409852 7.82608e-20)
(1.4118 1.03131 4.03059e-21)
(0.822852 -0.737806 -5.99909e-20)
(1.03863 0.135042 9.70605e-20)
(0.914813 0.82277 7.74926e-20)
(1.34897 1.03904 0)
(0.584142 0.00235987 -5.33252e-20)
(2.04902 0.591082 0)
(1.10161 0.744701 -4.12782e-20)
(1.49956 0.0617453 4.51854e-19)
(1.00547 0.00216045 0)
(1.08845 0.0982565 4.86933e-19)
(0.846343 -0.0907372 4.8843e-20)
(0.550981 -0.300817 0)
(0.594469 -0.271958 2.19494e-19)
(1.36818 0.61997 -1.82611e-20)
(0.562835 0.534082 2.19414e-19)
(-0.329025 0.382044 9.67979e-20)
(0.912713 -0.060083 2.46641e-19)
(0.715281 0.0753647 0)
(1.21458 -0.815471 -1.59071e-19)
(1.04301 -0.0401454 3.71625e-19)
(1.93409 0.2453 3.25893e-19)
(0.521018 0.534427 5.97236e-20)
(-0.409546 -1.08517 0)
(1.15553 -0.201587 -1.30084e-19)
(-0.0880675 0.00138143 -3.4581e-20)
(0.588161 -0.998563 -3.00554e-20)
(-0.247269 0.178944 -2.27644e-21)
(-0.305582 0.234046 7.16425e-19)
(1.74142 -1.09474 4.91216e-20)
(2.05933 -0.0781908 -9.86149e-20)
(1.31085 0.488048 -1.7913e-19)
(0.90705 -0.0873467 0)
(1.33929 0.0833279 1.30889e-19)
(1.52096 0.110331 -4.5827e-20)
(0.818669 -0.680416 1.71263e-19)
(1.04546 -0.874864 -8.99423e-20)
(0.566583 0.528083 1.44043e-19)
(1.94836 -0.00944392 0)
(1.99856 0.515026 1.29833e-19)
(-0.0978881 0.0557111 -7.33303e-20)
(1.00873 0.876594 0)
(0.478483 0.469411 0)
(0.241088 -0.239096 -2.79522e-21)
(0.423573 0.448525 0)
(-0.273668 -1.204 -3.32255e-19)
(-0.48409 0.632857 -2.73837e-19)
(1.61999 -0.412713 0)
(1.27844 0.0877042 1.50786e-20)
(0.406566 -1.43435 2.82668e-19)
(0.458039 -0.429804 -5.12078e-19)
(1.72474 -0.102776 1.51816e-20)
(0.530306 -0.475639 0)
(1.1153 0.150485 0)
(1.32829 -0.211022 0)
(1.19258 0.277811 -1.82961e-19)
(1.40335 0.101857 2.5522e-19)
(-0.31817 -1.66621 0)
(0.83855 -0.0596595 0)
(0.802372 -0.0535606 1.40119e-20)
(-0.174959 0.297481 2.39546e-19)
(1.16301 -0.355734 -3.15146e-20)
(0.974325 -0.44362 5.17467e-20)
(0.770025 -0.0972 -1.29646e-20)
(-0.109696 -0.693628 -2.83263e-19)
(1.43819 -0.177784 -1.06203e-19)
(1.01054 -0.00144381 3.97317e-19)
(1.70396 0.601485 0)
(-0.376442 0.748034 7.41676e-20)
(0.904573 -0.742346 2.25602e-19)
(0.851114 0.0650383 4.54292e-20)
(0.550681 -0.326185 0)
(1.76707 -0.459217 -9.30524e-21)
(1.13379 -0.167097 1.75785e-19)
(0.665291 0.715609 0)
(0.53247 -0.490692 5.34873e-19)
(0.277046 0.0198116 -6.38083e-21)
(1.26465 -0.559892 6.08774e-20)
(-0.200281 0.383966 -4.89012e-19)
(1.48559 0.67849 4.9733e-20)
(1.25576 0.461254 2.52852e-21)
(0.986949 0.45827 1.82438e-19)
(1.69823 -0.335252 -3.63643e-20)
(-0.382054 0.316478 -1.02529e-22)
(0.194128 -0.150815 0)
(-0.0914758 -0.173638 1.08466e-19)
(0.982311 -0.849889 0)
(0.966937 -0.57586 2.61489e-20)
(0.973468 -0.497576 -1.36212e-20)
(0.803006 -1.48891 9.40041e-20)
(-0.183113 -0.00590747 -2.95322e-19)
(1.09103 0.560661 1.27885e-19)
(1.06036 0.726875 3.99848e-19)
(0.71448 -0.0394706 0)
(0.562323 0.0159713 0)
(1.36107 0.14673 -6.47534e-22)
(0.751884 -0.0214278 0)
(1.27841 -0.17236 -1.80882e-19)
(-0.0898079 -1.23809 5.66275e-19)
(2.10061 0.428788 1.51459e-19)
(1.0651 -0.0298982 0)
(0.470473 -0.226525 1.10721e-19)
(1.00447 0.0280875 1.88289e-19)
(1.92278 1.21934 -2.81854e-19)
(0.370524 -0.0619508 0)
(1.02834 -0.418226 5.72643e-19)
(0.75413 0.136434 2.54773e-22)
(1.01389 -0.423231 -2.48759e-19)
(2.12608 -0.119192 2.6339e-19)
(1.44132 0.880837 0)
(0.895621 0.0262085 0)
(0.496244 0.570422 -1.71557e-19)
(-0.0347617 0.0413348 3.57151e-19)
(1.03403 0.437787 -1.64234e-19)
(-0.304202 -0.0454271 1.49009e-20)
(0.73645 0.528153 2.01734e-19)
(0.350581 -0.342773 0)
(0.464521 -0.430318 0)
(1.10973 0.70407 -1.7482e-20)
(1.13291 -0.439567 -1.22173e-19)
(0.814433 0.084506 6.05684e-21)
(0.711244 -0.0408895 1.17172e-19)
(-0.114549 0.226194 -6.36538e-19)
(1.51043 -1.06478 1.35368e-19)
(0.768956 0.716521 0)
(1.41921 0.756331 0)
(1.71346 0.238732 0)
(0.0130533 -0.00792794 -1.06349e-19)
(1.65345 0.696389 5.05038e-19)
(1.70779 0.019015 -1.48162e-20)
(0.974691 -0.0236571 0)
(1.59662 0.465826 0)
(1.28367 -0.0785004 -8.37931e-20)
(1.52259 0.723756 3.30879e-19)
(1.0047 0.012223 -1.86747e-19)
(1.61183 0.523051 0)
(0.235194 0.246397 0)
(1.34979 0.342432 1.98504e-19)
(1.13038 0.602235 -9.08073e-20)
(1.09093 0.0354874 0)
(1.73866 -0.372832 0)
(2.42974 0.63394 -7.28925e-19)
(-0.13623 0.485224 -2.39985e-23)
(0.992102 0.0199064 0)
(0.805104 0.585396 -2.68353e-20)
(0.83587 -0.732696 0)
(0.996479 0.0220813 4.38161e-20)
(1.17513 1.18679 -1.32472e-19)
(0.839633 -0.245915 3.27666e-19)
(1.29174 1.06998 2.41333e-19)
(1.88249 -0.133592 -1.42654e-19)
(1.01845 0.182342 -4.55212e-20)
(0.754511 -0.0361029 0)
(0.986373 0.0185355 0)
(-0.520574 -0.714644 0)
(0.775057 0.741057 -1.23442e-19)
(-0.0896402 0.159336 4.28076e-19)
(1.25448 0.399419 -3.23223e-19)
(-0.454992 0.811678 0)
(0.93855 0.741924 1.24703e-19)
(0.937785 -0.259779 0)
(1.00615 0.00422774 1.08984e-19)
(1.13715 -0.396927 3.91896e-20)
(1.13049 0.465525 1.84587e-19)
(1.80665 -0.851747 0)
(1.87243 -0.202804 -6.14117e-20)
(0.808907 -0.020609 -3.56192e-19)
(-0.304007 -1.58148 -4.00756e-19)
(1.66372 0.158947 0)
(0.938954 0.320963 1.49196e-19)
(1.60567 -0.20966 0)
(0.875931 0.623944 2.83333e-19)
(-0.171085 -1.61837 1.79859e-19)
(-0.136505 0.215588 0)
(0.69005 0.657163 -5.26887e-20)
(0.935234 -0.561053 -1.81608e-19)
(0.39625 -0.0961587 -1.22878e-19)
(1.01809 0.00302506 0)
(0.639759 -0.822605 -3.50083e-19)
(0.552395 -0.479599 8.81321e-20)
(0.976467 0.367643 0)
(0.503173 0.212867 -7.11783e-20)
(1.12107 0.948531 1.29905e-20)
(1.30106 1.18821 1.3212e-19)
(-0.228477 0.448135 -9.26338e-20)
(0.142218 0.233059 -5.25422e-19)
(0.102615 0.459685 3.43534e-21)
(0.905149 0.451698 1.99909e-19)
(-0.310269 0.654585 -1.20676e-20)
(1.29942 -0.576704 2.71325e-21)
(1.01781 0.0302103 -3.28013e-19)
(-0.18797 -0.0568281 0)
(1.05264 0.0568292 -3.6654e-19)
(2.06804 -0.0291326 3.02357e-20)
(1.0006 0.786547 1.96306e-19)
(1.10264 -0.0520221 1.61313e-19)
(0.994727 -0.000214925 1.52045e-19)
(0.753665 -1.27812 -8.57898e-20)
(0.436001 0.489584 1.78326e-21)
(1.59085 -0.785353 1.26684e-20)
(1.03804 -0.120627 -9.30132e-20)
(0.723408 0.0582713 1.08247e-19)
(0.856828 -0.219999 9.30212e-20)
(0.245726 0.0299294 0)
(1.08213 0.831196 0)
(1.19885 -0.777181 -4.66632e-20)
(1.98482 0.0634751 -3.91264e-20)
(-0.358371 -0.976436 2.06019e-19)
(0.944019 -0.460407 -5.90655e-19)
(0.530185 -0.438886 4.16214e-19)
(2.20442 -0.572846 -1.78089e-19)
(-0.672026 0.146097 1.6111e-21)
(1.35983 0.951198 0)
(0.777342 0.225758 -6.17414e-21)
(0.99288 0.883394 7.83563e-20)
(1.16735 0.854918 0)
(1.18428 1.01692 0)
(1.08209 -1.348 0)
(0.488733 0.551742 -3.60136e-20)
(0.373284 0.0341919 0)
(2.2353 1.17686 2.27273e-19)
(1.29755 0.214654 4.84189e-21)
(-0.0860049 -0.839973 2.04071e-19)
(1.0776 0.260189 -2.721e-21)
(2.06822 0.327189 -2.1977e-19)
(1.93133 -0.228912 6.28854e-21)
(-0.275923 0.139098 -5.16305e-19)
(-0.19699 -0.164605 2.30912e-21)
(0.5392 0.271771 0)
(0.695747 -0.0345246 0)
(1.00055 0.00443018 1.39044e-22)
(-0.0431558 -0.0482999 0)
(1.34687 -0.029804 9.36757e-20)
(0.695876 -0.0307374 0)
(1.02581 0.0300475 1.29057e-19)
(0.985003 0.0202461 -4.27953e-20)
(1.54097 -0.949741 9.19817e-20)
(1.08451 -0.00767929 -8.39227e-22)
(0.902699 -0.127703 -5.51827e-20)
(1.01283 -0.00347122 3.57632e-19)
(0.584225 -0.516815 2.01579e-19)
(0.104682 -0.309929 -2.64082e-19)
(0.746769 -0.0278005 1.46236e-21)
(-0.0414526 0.061948 0)
(1.26473 0.887172 0)
(1.01213 0.0206082 0)
(0.910988 -0.689718 -1.31496e-19)
(0.933799 -0.79907 9.67849e-20)
(0.208421 0.155369 -1.22952e-20)
(0.687236 -0.704505 -8.27365e-19)
(1.26543 0.607711 -1.03886e-19)
(0.497886 -0.260335 -6.52581e-19)
(0.988529 0.149627 -2.87489e-20)
(1.09314 0.41424 3.85226e-19)
(1.89004 -0.202286 -3.07084e-20)
(0.27786 -0.0714661 -2.38102e-21)
(0.563963 0.541144 -9.133e-20)
(1.22419 0.628898 1.23968e-19)
(-0.479471 0.205663 0)
(-0.181528 -0.358381 4.39261e-20)
(-0.329544 0.0836397 2.89675e-21)
(1.03374 -0.0395162 3.0654e-19)
(1.01496 0.0218645 -8.13342e-21)
(1.11993 -0.00594407 -8.52525e-20)
(0.731173 -1.15076 -1.42414e-19)
(1.75251 0.30776 3.36995e-22)
(0.32125 -0.293115 -3.30667e-19)
(0.131372 0.0153787 2.3247e-20)
(1.01792 0.0214506 -2.35535e-19)
(0.530008 0.237855 -1.50479e-21)
(0.401245 -0.961493 0)
(1.23128 0.663992 -2.27537e-19)
(1.00233 0.00110495 8.9119e-20)
(0.782227 0.706659 2.00422e-19)
(1.76438 0.0790041 1.07657e-20)
(1.09441 0.0033957 -2.69819e-20)
(1.14823 0.0209277 7.75219e-22)
(1.44206 -0.462327 5.83819e-21)
(0.194047 0.000812416 0)
(1.04791 -0.0366355 0)
(1.04922 -0.0321369 5.43435e-19)
(1.00277 0.000428355 0)
(-0.120948 0.186626 0)
(0.871007 -0.509584 0)
(1.00146 0.00313831 -5.18273e-19)
(1.05818 -0.603857 1.1157e-19)
(1.01914 0.00506887 1.09982e-20)
(1.53841 1.05346 2.46162e-20)
(1.75596 1.10858 -3.86893e-19)
(1.46538 0.273683 1.61264e-19)
(1.71442 -0.206509 9.68224e-20)
(0.964132 0.19556 0)
(0.0943106 0.395828 0)
(1.76137 -0.318932 -2.00937e-20)
(0.836919 0.851383 0)
(1.0003 -0.00294586 -1.59507e-19)
(1.01016 -0.000390115 3.10243e-19)
(1.50428 0.124018 -4.75608e-20)
(0.0219454 -0.0996811 8.72374e-20)
(0.981182 0.000995327 1.66358e-19)
(0.209127 0.0672977 1.85034e-22)
(1.69727 -0.305017 9.52244e-20)
(0.627083 -1.15501 -1.08399e-21)
(0.915627 0.0208363 -1.73674e-19)
(1.00354 0.00590142 2.0239e-19)
(0.999602 0.00137313 1.1893e-20)
(0.791753 -0.0121242 0)
(0.737082 -0.0257705 0)
(0.735994 -0.0262385 1.11737e-21)
(0.715342 -0.0284252 0)
(1.35614 0.0899651 0)
(1.786 -0.108338 0)
(0.687175 -0.209813 -1.2071e-19)
(1.0963 -0.26442 7.94844e-20)
(1.07509 -0.422118 0)
(1.27987 -1.24428 -6.45498e-20)
(0.84276 -1.20621 0)
(0.250315 0.108141 0)
(0.111759 0.00345842 0)
(0.0972887 0.049531 2.10825e-21)
(0.132956 0.0233429 8.97832e-21)
(0.769021 0.0223982 0)
(0.78152 0.0200137 0)
(0.957947 0.0234025 -2.13572e-19)
(0.812694 0.00835437 3.96225e-19)
(1.00907 -0.00137312 0)
(1.00053 -0.000142476 3.72727e-19)
(1.00007 -0.000197733 -1.24776e-22)
(0.779025 0.0217933 3.3949e-19)
(0.998968 -0.00548815 -1.91468e-19)
(0.342443 -0.228521 0)
(1.45183 -0.361139 -9.52714e-20)
(1.00051 0.000597361 -1.87531e-19)
(0.9998 0.00387373 -3.23297e-19)
(0.835792 -1.10126 0)
(0.998863 0.00245615 0)
(0.99992 0.000999202 0)
(1.80475 0.25707 1.25185e-20)
(1.01234 -0.151271 -2.00281e-19)
(0.324404 0.1499 0)
(-0.661085 0.937009 5.47245e-19)
(1.18797 0.145396 -4.80625e-19)
(1.02426 -0.0046375 -2.49386e-19)
(0.354682 0.286125 -8.1473e-20)
(1.01519 0.0168263 -2.02386e-19)
(1.07162 -0.19186 -1.37791e-19)
(0.719857 -0.379131 3.25749e-19)
(0.16425 0.350596 -2.20022e-20)
(1.02206 0.0243908 0)
(1.08377 -0.00529097 -5.09128e-20)
(0.830097 0.035861 0)
(-0.0512108 0.124418 6.29038e-19)
(1.01426 1.02625 0)
(0.201585 0.274142 -2.25829e-19)
(0.310671 -0.0276987 -2.18638e-21)
(1.88045 0.682552 2.52806e-19)
(-0.170867 -0.0377173 0)
(1.05461 -0.0351476 1.67792e-19)
(1.28455 -0.162308 -2.20065e-20)
(0.933143 0.048835 2.64753e-19)
(1.01639 0.0021803 -1.69179e-19)
(1.92874 0.901062 1.8818e-19)
(0.618077 0.586179 0)
(0.548291 0.532023 1.70574e-19)
(1.77405 0.500253 7.53974e-21)
(1.21999 0.149316 1.52017e-19)
(0.989746 -0.63056 0)
(1.02543 0.0161814 0)
(1.00162 -0.0136324 -3.89698e-19)
(1.01577 0.0245354 -3.85736e-19)
(-0.0202825 0.496116 0)
(1.3745 0.912283 -2.75363e-20)
(1.8233 -0.430378 -1.14639e-20)
(1.01749 0.0171269 1.46837e-19)
(1.01053 0.0202072 -1.86043e-19)
(0.0790298 0.444678 -2.48711e-20)
(1.30885 -0.662905 4.48791e-19)
(1.02272 -0.00650345 6.24089e-19)
(1.74057 -0.889062 0)
(2.17402 0.616952 -2.05952e-19)
(1.01831 -0.00134935 -1.95292e-19)
(1.74751 0.0695652 3.68695e-20)
(1.0802 0.0170695 -4.39227e-22)
(1.01162 -0.0038314 3.89208e-20)
(1.75076 -0.148642 7.91574e-20)
(1.01409 0.0133859 1.91369e-19)
(0.703408 0.487723 -2.40563e-20)
(1.01747 0.0162718 0)
(0.980328 0.212494 4.30717e-20)
(-0.0152208 -1.47504 4.65896e-21)
(0.994619 0.0242591 1.90987e-19)
(1.0389 0.022361 -4.28492e-22)
(1.73774 -0.814579 5.44624e-20)
(1.36181 0.353169 2.55827e-19)
(0.9896 0.0238372 1.31395e-19)
(1.01992 -0.0050711 6.37873e-22)
(1.85718 0.166558 1.68208e-20)
(2.21291 1.09332 -2.36334e-19)
(0.686274 -0.612292 7.14339e-20)
(0.35892 -0.176995 -3.12384e-19)
(1.01142 -0.00392204 0)
(1.01738 0.0107909 4.75401e-20)
(1.01187 0.000100629 9.90795e-20)
(0.935132 -0.336134 -2.77509e-20)
(1.01183 0.0173058 -1.98823e-19)
(1.01775 -0.00259477 2.3124e-19)
(1.01079 0.00136677 -1.85123e-19)
(1.01441 0.0165753 -6.08471e-22)
(1.01439 0.0137078 -4.82532e-22)
(1.01996 0.0249985 1.90972e-19)
(0.928986 0.162275 4.62496e-19)
(1.82824 1.1177 0)
(0.536387 -0.874782 7.03152e-20)
(1.00798 0.00716246 0)
(1.02815 -0.00491439 -5.46648e-20)
(1.6861 0.420071 3.96518e-21)
(1.69217 0.0425777 0)
(0.425402 0.12949 8.83157e-20)
(1.72813 1.17498 -4.15102e-20)
(0.803267 -0.0161097 0)
(1.50427 -0.304865 0)
(1.30966 1.31224 -2.44811e-19)
(1.02611 -1.457 1.07315e-19)
(1.0175 0.00824581 -1.99377e-19)
(1.02648 -0.492605 -7.16892e-20)
(1.53412 -1.33948 1.73096e-19)
(0.566246 0.879155 0)
(1.50458 0.625068 0)
(1.47095 0.726034 0)
(0.459983 -0.134979 2.34632e-19)
(0.629069 -0.120341 -3.94934e-19)
(0.923252 1.3462 0)
(0.762083 -0.317944 -5.34617e-19)
(1.95536 1.05317 -2.76214e-19)
(1.0059 0.00606026 -3.91348e-19)
(0.946184 -0.887165 -1.46797e-19)
(1.01954 0.0255102 2.58968e-19)
(0.716808 -0.0430629 0)
(-0.276836 0.433793 -9.08355e-21)
(0.710012 0.555915 -2.83508e-19)
(1.74973 1.13104 3.98779e-20)
(0.602738 -0.118463 0)
(0.720093 0.0684616 8.91406e-20)
(0.611967 0.588645 4.04527e-20)
(1.34258 0.984581 -3.13861e-21)
(-0.181523 -0.156714 3.44974e-20)
(1.02737 0.0312483 0)
(0.458456 0.567662 -1.69002e-19)
(1.01086 0.0089995 1.46278e-19)
(1.81052 -0.483127 0)
(1.00889 0.018341 2.46338e-19)
(-0.146257 -0.291748 -1.12721e-20)
(1.02019 0.0238791 -1.5174e-19)
(0.395022 0.487598 0)
(1.07347 0.192167 -2.75606e-22)
(1.00844 0.0135697 -1.02212e-19)
(0.995187 0.0113247 2.69332e-19)
(1.15603 0.122957 -5.5798e-21)
(0.646152 0.888409 1.29479e-19)
(-0.0875445 -0.253641 1.15478e-19)
(2.36606 -0.182794 3.03317e-19)
(0.742467 1.13143 -1.42482e-19)
(0.796213 0.0149646 -3.72122e-19)
(0.844704 0.0291929 0)
(0.872669 0.612353 -2.1112e-19)
(1.03086 0.00149324 -2.93048e-20)
(0.974348 0.0696488 0)
(1.06456 0.00829962 -1.83554e-19)
(1.17986 1.23686 9.24784e-20)
(-0.0469263 -1.59566 1.60882e-19)
(2.01129 -0.490315 0)
(-0.186967 -1.44697 -3.84216e-19)
(1.38471 -0.305718 0)
(1.04515 -0.0116705 5.43353e-20)
(0.67017 -0.71912 -2.4715e-22)
(1.00954 0.011492 1.59006e-19)
(0.0119256 -1.67625 4.16603e-19)
(1.02095 0.0154379 0)
(0.993732 0.00391388 -3.78865e-19)
(1.00629 0.0167395 2.02048e-19)
(0.885761 -0.0826575 0)
(0.99129 -0.832554 1.82716e-20)
(0.956759 -0.000508726 -1.73446e-19)
(0.12743 0.271524 2.69559e-19)
(1.00296 0.00529937 -1.97043e-19)
(0.998566 0.0542885 -4.63437e-19)
(1.52209 -0.537368 -3.41386e-20)
(0.482085 0.450064 -7.55396e-20)
(0.922358 0.798392 -1.23838e-19)
(0.87532 0.452055 0)
(1.02336 0.00325975 4.13013e-19)
(1.04569 -0.00212463 2.13704e-19)