/*--------------------------------*- C++ -*----------------------------------*\
| =========                 |                                                 |
| \\      /  F ield         | OpenFOAM: The Open Source CFD Toolbox           |
|  \\    /   O peration     | Version:  2306                                  |
|   \\  /    A nd           | Website:  www.openfoam.com                      |
|    \\/     M anipulation  |                                                 |
\*---------------------------------------------------------------------------*/
FoamFile
{
    version     2.0;
    format      ascii;
    arch        "LSB;label=32;scalar=64";
    class       surfaceScalarField;
    location    "46.3";
    object      phi;
}
// * * * * * * * * * * * * * * * * * * * * * * * * * * * * * * * * * * * * * //

dimensions      [0 3 -1 0 0 0 0];

oriented        oriented;

internalField   nonuniform List<scalar> 
3181
(
-1.1026
0.434039
0.668566
-0.429633
0.402085
0.0275476
0.572911
-0.39442
-0.178491
0.140769
-0.228866
0.0880961
0.0321877
-0.0743419
0.0421542
0.0989416
0.671175
-0.770117
0.164874
-0.157921
-0.00695238
-0.00746822
-0.00144294
0.00891116
0.60114
-0.933767
0.332627
-0.0730564
0.157286
-0.0842298
-0.0102549
-0.0452177
0.0554727
0.163866
0.042668
-0.206534
0.00380546
0.00217977
-0.00598522
-1.10883
0.144342
0.964484
-0.357608
0.77275
-0.415143
-1.11816
0.627884
0.490279
0.0860083
-0.931066
0.845058
-0.0709777
-0.0950347
0.166012
0.18609
-0.508634
0.0208597
0.0284866
-0.0493464
0.00649784
-0.067616
0.0611181
-0.0132254
0.0246683
-0.0114429
1.0784
-1.04598
-0.0324232
0.0405243
0.0423268
-0.0828511
-0.958125
0.317031
0.641094
-0.116004
0.256774
0.320487
-0.222836
-0.0976509
0.0329581
0.0695143
-0.102472
-0.379136
0.308293
0.0708424
-0.0304244
-0.0327629
0.0317318
0.00103114
-0.0258191
-0.932306
0.0365006
-0.0887658
0.0522652
-0.168017
1.08001
-0.911997
-0.0552435
0.0480034
0.00724018
0.173576
0.247586
-0.421161
0.760727
-0.928744
0.0609913
-0.0544935
1.36932
-0.794486
-0.574832
-0.274183
0.373124
-0.0771401
0.0809456
0.00308479
-0.0163102
-0.455812
0.0982045
-0.095721
0.0988058
-0.602055
0.136648
0.465407
-0.170676
0.0976198
-0.187689
0.192508
-0.00481866
-0.297068
-0.0843106
0.381379
0.53413
0.542766
-1.0769
0.0534111
-0.118092
0.0646811
-0.0119032
-0.0908007
0.0962367
-0.00543595
0.556152
0.216598
-0.0992957
0.116481
-0.0171854
0.0672344
-0.0307338
-0.190792
0.22036
-0.0295682
0.181375
0.0648045
-0.24618
0.121683
-0.128265
0.00658241
0.943857
0.42546
-0.897221
-0.205384
-0.173578
-1.46162
1.6352
0.519988
0.204957
-0.724945
-0.422314
-0.179753
0.602066
-0.593986
0.319803
-0.24062
0.760608
-0.354732
-0.111204
0.465936
-0.195778
-0.183358
-0.207974
0.156574
0.0514003
0.0925562
0.302155
-0.394711
-0.421947
1.02309
-0.0284575
0.0209892
-1.9765
1.80293
0.220884
0.0996023
-0.204286
-0.115684
0.319971
-0.275286
0.33381
-0.0585245
-0.0926157
0.100634
-0.00801811
-1.44237
-0.919409
0.00799247
0.911416
-0.0457819
-0.00946165
-1.03303
0.693633
0.339393
-0.0691999
-0.17981
0.24901
-0.766113
0.172128
1.10273
-0.958387
-0.662933
1.16447
-0.199984
1.07691
0.143393
-0.182801
0.0394083
0.488684
0.182492
0.496947
-0.496947
-0.00792787
-0.00176443
0.0096923
-0.239229
-0.0548509
0.29408
0.0121773
-0.0560564
0.0438791
-0.449627
0.864796
-0.415168
0.0114685
-0.275731
0.264262
-1.09235
0.0463696
0.312587
0.0592012
-0.371788
0.143279
-0.807885
1.01284
-0.00181187
-0.0924522
0.0942641
-0.0175447
-0.173247
0.157125
-0.109049
-0.0480756
-0.0533948
0.21052
0.102628
-0.910513
0.353348
-0.802975
0.926407
-0.840399
0.132663
-0.0776688
-0.0549945
0.0661845
0.0473259
-0.11351
-1.3839
-0.237074
1.62098
-0.276902
0.446286
-0.169384
0.207725
0.975862
-1.18359
-0.422628
-0.610399
-0.0170631
0.0704742
-0.169664
0.163287
0.00637709
-0.0743178
-0.0022215
0.0765393
-0.723183
-0.210584
-0.126004
0.00312469
0.122879
-1.34871
0.743326
0.605385
1.25527
-0.712507
-0.02052
0.0125921
0.0715861
0.149298
-0.182637
0.356213
0.160942
-0.197642
0.0366997
0.124201
0.0626565
-0.186858
0.311285
-0.45011
0.138825
-0.598882
-0.519281
-0.383926
-0.964785
0.0626748
-0.0644866
-0.126124
0.206159
-0.080035
0.240307
0.0273097
0.137564
-0.0593675
0.0860379
-0.0266704
-0.109655
-0.0267544
0.136409
0.0841419
-0.0841419
-0.204248
0.231558
-0.122595
0.0428498
0.117483
0.102878
-1.37397
0.952023
-1.28938
0.0283724
1.26101
0.0115201
-0.0167812
0.00526113
-0.0244985
-0.0468057
0.0713042
0.576976
-0.0137056
-0.56327
0.0282073
-0.0290379
0.000830583
-0.221159
0.0169109
0.153646
0.71115
-0.390991
0.544636
-0.0501202
-1.33378
0.121422
-0.0892347
0.52806
-0.333843
-0.194217
-0.0646707
0.0461378
0.0185329
0.0530349
-0.350103
0.0243717
-0.943781
0.0528218
-0.178946
-0.320291
-0.439043
0.0440972
1.25684
-0.841827
-0.415013
0.97061
0.28623
0.0738182
0.307561
0.00679072
0.00472935
-0.314678
0.192989
0.121689
-0.266624
-0.563186
0.82981
-0.392587
0.674774
-0.0229262
-0.485707
0.20439
0.0206748
-0.0493485
0.0286737
-2.07803
0.754126
1.3239
-0.461879
-1.61615
-0.294212
0.606799
-0.906695
-0.0227061
2.48432e-05
-0.245
0.244975
1.20599
-1.35539
0.149404
0.0524328
0.0689895
0.548653
-0.815277
-0.270659
0.129108
0.141551
-0.28092
-0.0990633
0.379983
0.225065
-1.01183
-0.0805146
0.0266264
-0.0759727
-0.511149
0.331396
-0.2274
0.0184858
0.208914
-0.112895
0.165328
0.0561448
-0.0561448
-0.105619
0.114867
-0.00924863
-0.159264
-1.13012
0.0811696
-0.0127026
-0.0684669
-0.221284
0.235279
-0.0139946
-0.204504
-0.00347024
0.906587
-0.167715
-0.738873
-0.222928
0.486853
-0.263925
0.000463592
-0.001788
0.00132441
1.05881
-0.851088
-0.175076
-0.00338698
0.178463
-0.199108
0.291664
-0.0907923
0.0891553
0.00163708
0.0674989
0.0282616
-0.0957604
-0.237664
0.246393
-0.00872938
-0.95586
-0.0239847
0.979844
-0.241992
-0.0555318
0.297524
-0.717752
0.661439
0.0563127
-0.0123093
0.0546361
-0.0538077
0.055505
-0.00169726
-0.0210895
-0.0617616
1.19821
0.0570621
0.182775
-0.865396
0.682621
0.0379934
1.49037
-1.52836
0.416856
0.444785
0.0521621
0.0421632
0.186139
-0.0619377
-0.0644808
-0.02632
0.26512
0.137456
-0.0712716
0.740038
-0.423007
0.0660616
0.228018
0.0316287
-0.1434
0.111771
-0.834966
-0.136911
0.971876
0.00237261
-0.00237261
0.0438975
-0.2592
0.506786
0.0124298
-0.254422
-0.18719
0.0921557
-0.0265886
0.0892634
0.119941
-0.130196
-0.346424
0.357893
0.042231
0.0956282
-0.137859
0.429859
-0.387191
0.202205
-1.07158
0.869378
-0.226837
0.300655
0.201957
-0.5358
-0.217504
0.651543
0.183544
-0.0370991
0.0370991
-0.444204
0.224378
0.219826
0.422261
0.0240252
-0.00886228
0.00149081
0.00737147
-0.0277712
-0.180352
0.0543476
-0.0464234
0.166364
-0.163498
0.22148
-0.0579819
0.109739
0.0277172
-0.412333
0.189497
0.169157
-0.0594183
-0.0414476
-0.0493447
-0.00768778
0.0397871
-0.0320993
0.163461
-0.115918
-0.0475431
0.0147758
0.362525
-0.377301
-0.0932929
0.0648355
0.0938358
-0.0978626
0.00402676
0.0226409
-0.447223
0.649427
-0.106097
0.0218477
0.084249
-0.107768
0.0630718
0.0446966
-0.0779017
0.0996732
-0.721204
0.62153
0.00402942
-1.525
-0.139755
1.66475
0.152089
1.56953
-1.72162
0.0921143
-0.328635
-0.121475
0.246055
0.24299
-0.489045
-0.200055
0.231683
0.160176
-0.933405
0.773228
-0.0248455
-0.0829228
-0.00459493
0.0312213
-1.00983
0.450878
0.558951
0.841827
-0.739199
-1.64956
1.41248
-1.20599
1.23436
0.046187
-0.0633724
-0.0116068
-0.0422009
0.0133015
0.855856
-0.69568
0.139268
-0.0864458
0.424154
0.740314
0.00502944
-1.34522
1.38321
-0.787102
-0.586868
-0.237493
-0.364562
-0.0123473
-0.182509
0.235544
-0.585675
-0.412881
0.189952
0.844036
-0.267061
-0.885483
-0.764073
0.731428
0.140544
-0.165389
0.317469
0.0424871
-0.0424871
0.673215
0.146022
-0.819237
-0.222898
0.896112
1.03187
-1.31266
0.280794
-0.0555097
0.0983595
0.00775014
0.00574865
-0.0134988
-1.46162
-0.446103
-0.266404
0.75431
0.152278
-0.0386957
-0.148993
-0.284184
0.840337
-0.180195
-0.0472055
-0.00364207
-0.0889736
-0.0436857
0.0910116
0.358285
-0.221637
-0.837222
-0.26051
-0.163443
-0.0545801
0.218023
-0.495213
0.939998
-0.23493
0.271622
-0.0366921
0.0309502
-0.0241595
-0.222886
0.215895
0.00699124
0.0114032
0.454533
-0.0591948
-0.00547585
-0.0258075
-0.00955045
0.0353579
-0.0178235
-0.157253
-0.690068
0.344544
0.345524
0.470067
-0.811499
0.341431
0.1273
-0.147413
0.0201132
0.0583576
-0.0754207
0.513452
-1.0104
-0.125162
-0.0977242
0.0696895
0.000784662
0.13939
-0.322027
-0.586977
0.88329
-0.296313
0.0560748
0.10259
0.0608715
-0.834966
-1.14409
0.18823
0.201565
0.0143297
0.0412856
-0.635516
-0.082236
0.056776
0.112381
1.03483
0.0808397
-0.475551
0.135836
0.327127
-0.267926
-0.138689
0.0290344
0.230207
0.825364
-1.05557
0.100435
-0.739168
0.638733
-1.00922
0.87231
-1.61606
0.143779
1.47228
0.0048013
-0.00660362
0.00180232
0.145426
-0.426346
0.21064
-0.126435
-0.0842047
0.084612
-0.0215402
0.0672851
-0.230728
0.0585174
0.0175197
-0.0386092
0.0232721
0.0547611
-0.0780332
1.18396
0.00879719
-0.00960221
0.000805025
0.097802
-0.0329666
0.858091
-0.0507467
0.119736
-0.360086
-0.0860165
-0.173626
0.118116
0.00838016
0.0942098
-1.47228
1.0104
0.176486
0.12475
-0.301236
-0.229669
0.0468682
0.117866
-0.0784576
-0.00174593
0.10238
0.0267644
-0.0132039
-0.573773
-0.0251753
0.0484473
0.737185
-0.246905
-0.05013
-0.171154
0.307854
-0.0166991
0.00783686
-0.0089676
0.0931095
0.156242
0.177568
0.154665
-0.303558
0.148894
0.123992
0.587158
-0.0629524
-0.107724
0.96769
-0.242748
-0.724942
-1.61606
0.0267486
0.443319
0.760727
-0.47263
0.686774
-0.214144
0.37565
-0.0680517
-0.307598
-0.386492
-0.379621
-0.0591156
0.0588239
0.000291679
0.302536
-0.197657
-0.104879
0.263545
-1.14361
0.880067
0.0443427
0.645781
-0.690124
-0.0490485
-0.120616
-0.0546417
-0.051455
-0.0996025
-0.344602
0.00892081
-0.00411951
-0.152045
0.114468
0.0375774
-0.0671385
-0.247539
0.0111541
0.019796
-0.0751525
-0.00251628
0.0478459
0.0076591
0.181094
-0.456825
-0.424168
1.9937
-0.0150911
0.0127185
-0.995369
-0.0164649
0.260274
-0.0825818
-0.0561071
-0.233068
-0.0375918
0.671288
0.155003
-0.82629
-0.0607779
-0.112848
-0.93517
-0.023217
-0.00711758
-0.647865
0.747538
-0.0199173
0.203462
-0.973273
-0.339388
0.177286
-0.473878
0.296591
-0.162039
-0.0356025
0.00232085
-0.00310046
0.000779613
-0.0408941
-0.19677
-0.0240466
-0.149201
0.766059
-0.665624
-0.137565
0.023088
-0.302068
0.287623
-0.132958
0.298175
1.23183
0.172773
-1.4046
-0.110617
0.129102
-0.498189
-0.191879
-0.580057
0.659908
-0.638353
-0.0215554
-0.14858
0.0110157
-1.34522
0.502194
-0.502194
-1.3832
1.3832
0.855856
0.742008
-1.42549
0.68348
-0.899602
-0.0957664
0.592881
-0.332014
-0.260868
0.190263
-0.270298
-0.0159264
-0.00459358
-0.844162
-0.0663507
-0.933368
0.212164
0.0566328
-0.111213
0.699155
-0.127884
-0.571272
0.32264
0.438087
-0.00528931
0.00761015
-0.967594
-1.13086
0.0592821
-0.108303
-0.538125
0.646427
-0.121834
-0.767025
-0.58837
0.211253
-0.810135
-0.971876
1.42139
-0.449516
-0.152523
0.304623
-0.1521
-0.00773768
0.706893
-0.0940341
-1.02106
1.02106
-1.80741
0.627975
1.17944
-0.000996681
0.00979387
0.205595
-0.416879
0.803886
-0.110253
-0.0734199
-0.038845
0.0657027
-0.00140792
0.00187151
2.04032
-1.89654
-0.333707
0.401206
-0.597829
0.935624
-0.337795
0.110264
-0.235427
0.113199
-0.0505429
0.40033
-0.0079174
0.0100972
0.346565
0.0159598
0.0412617
-0.230171
0.188909
0.154187
0.0383206
0.0887009
0.168561
1.85554
-0.0526161
0.645364
0.670765
-1.31613
-1.43227
2.18639
0.324087
-0.225281
0.0807151
-0.768711
0.687996
1.38737
0.160961
-0.507385
-0.0747462
0.149912
-0.0751656
0.157767
-0.232514
-0.418744
-0.0924047
-0.0630528
0.0656139
-0.00256109
0.00518064
0.0426653
0.0626748
-0.0934086
0.69568
-0.638733
-0.0569466
-0.318964
0.331394
0.869707
0.647909
-0.272259
-0.000562061
-0.0121406
-0.0608398
0.189948
0.192021
-0.61877
0.426749
-0.00408022
0.000979758
-0.0592037
0.834027
-0.774824
0.0109721
-0.015911
0.00493891
-0.0238552
0.0172662
0.00658904
-0.784783
0.967274
-0.268857
-1.25614
-0.175754
-0.739199
1.23436
1.41248
-0.212779
-0.191452
0.135921
-0.0563653
0.0613958
-0.00503054
0.352068
1.00724
-1.35931
0.49917
0.0937115
-0.00348967
-0.000590544
0.111342
0.499364
0.038845
-0.0306237
0.00544845
0.0765963
-0.137436
0.062431
-0.0890196
-0.280557
0.710416
0.97061
-0.428238
-0.0684729
0.00179724
0.0666757
1.65206
-0.239575
-0.067827
-0.0604379
-0.899787
0.160588
0.496537
-0.271472
-0.461996
-0.107051
0.569047
0.776881
-0.336537
-0.440343
0.701759
-0.0304718
-1.38321
-0.0784148
0.0242516
-0.0167401
-0.00751152
-0.0304175
1.52079
-0.194934
0.202684
0.363203
1.71495
-0.480586
-0.693301
0.0730582
0.620243
0.347599
0.00520293
-0.331493
0.559852
0.860586
0.56143
0.0846328
-0.0237613
-0.405813
-0.104456
0.51027
0.723892
-0.027139
0.00133155
-0.0403922
-0.343619
0.0832619
-0.283316
1.35827
-0.126446
-0.122156
-0.0264239
0.178
-0.65063
-0.0279394
0.0156301
0.122675
-0.16453
0.0418555
-0.326539
0.343222
-0.0166827
1.17925
-1.00648
-0.560353
-0.238083
0.798436
0.255967
-0.199171
-0.0567967
0.245031
0.0425915
-0.607805
-0.536284
-0.635244
0.635244
1.6352
0.32264
-0.739168
0.350791
0.509795
-0.0548276
0.274654
0.866352
-0.367182
0.00201011
-0.853226
0.851216
0.157747
-0.00046118
0.0268052
-0.986176
0.378371
0.115346
-0.175971
-0.13592
0.311891
0.0191462
-0.55471
0.378739
-0.95375
-0.267901
-0.633234
-0.0614757
-0.0100426
0.000440373
-0.220296
0.146927
0.0710962
0.0384924
-0.126526
0.0880336
-0.717483
-1.08993
-0.00627528
0.0757895
-1.31059
1.54854
-0.237945
-0.61241
0.418194
-0.172994
0.268622
0.25268
0.0202608
-0.0248557
-0.412578
0.244863
0.0304428
0.063393
-0.265834
-0.0362341
0.19807
0.0125693
-0.397593
1.83735
0.369733
-0.315411
0.869306
-0.788591
0.730667
-0.422813
-0.567294
0.150416
0.145968
-0.786247
0.747116
0.0391308
1.18087
0.177399
-0.212606
-0.121101
0.0300038
-0.0860602
0.955469
-0.837314
-0.118155
-0.16
0.0887283
0.0299885
0.133299
0.874954
0.573765
-1.29563
0.721866
-0.345355
-0.0675256
0.599455
-1.91005
0.308892
1.31208
0.379065
-0.0564246
0.180217
0.559577
-0.739794
0.266301
0.0456938
0.0113906
0.00887021
-0.48688
-0.080414
-0.115587
0.00269243
-0.167758
0.121334
-0.572957
0.309032
-0.991609
-1.07342
-0.277452
-0.535172
1.23225
0.028759
-0.267328
0.105799
-0.0292027
-0.308889
0.272241
0.0743239
1.34083
-1.07728
-0.168411
0.108992
-0.119763
-0.0941629
0.213926
0.0218407
0.00241091
0.0439375
-0.0624321
-0.264107
-0.143597
0.697317
-0.406893
-0.290424
-0.319132
0.151181
-0.108543
-0.0426375
0.235843
0.0363976
0.0218519
-1.74347
-0.0876848
0.12897
1.54384
-0.970072
-0.0648152
0.109512
-0.0111639
0.030837
-0.0196731
-0.0194099
0.0026287
-0.222348
0.0789482
0.0469224
-0.603673
0.45115
0.00401622
0.0214619
0.234506
-0.691069
1.20947
-1.33592
0.0163706
-0.174644
0.158274
-0.129056
-0.557012
0.686068
0.0968731
-0.732389
-1.05578
0.495429
0.0212997
-0.00236723
-0.0189325
-0.274437
-0.659908
-0.175057
-0.168069
-0.405813
-0.210377
0.14844
-1.13262
-0.980716
-0.021662
0.199082
-0.17742
0.286341
0.131249
0.235001
0.436125
-0.671126
0.0984674
0.0420764
0.710646
0.925317
-1.63596
-0.23314
0.974179
1.21221
-0.221302
0.16332
-0.891339
1.86552
-0.394669
0.285619
0.017381
-0.00407955
-0.0433834
0.659131
-0.974542
0.683574
0.0933066
-0.215599
0.202395
0.259512
0.60684
1.00018
-0.0324856
-0.0128831
-0.379065
-0.633234
-0.713497
0.72149
-0.244372
-0.885483
0.645781
0.637003
-0.933081
0.196787
-0.0149529
-0.771294
-0.312917
0.634475
-0.788837
0.154362
0.0900763
0.0611046
1.09411
0.235343
0.312308
-0.54765
-0.00891635
-0.00112624
-0.24262
0.195414
0.731348
0.243967
-0.227056
-0.20042
1.22403
-0.480701
-0.313257
0.996737
0.0992447
1.35531
-1.45455
-0.449711
0.345255
1.01561
0.53293
0.162953
0.745612
-0.51027
0.00292594
0.20423
-0.0532471
0.0544809
0.205793
0.0124676
-0.0392462
0.0267787
-1.01624
-0.0393269
0.333145
-0.804991
-0.129627
1.49021
-1.36059
0.353581
0.582043
-0.0565712
0.0604978
-0.00392662
0.383636
0.84039
-0.715779
0.811672
1.10665
-1.23627
0.288183
-0.083953
-0.585944
-0.405665
-1.01151
1.11076
-0.0681608
-0.868179
-1.39731
-0.131054
0.745612
0.0472295
-0.85222
0.83065
-0.644351
-0.186299
-0.982011
0.396068
0.00974623
0.130129
-0.000698354
-0.129431
-0.971508
0.565843
-0.237086
0.90939
-0.932607
0.176737
-0.194561
-0.0869054
0.226295
1.11736
-0.178435
0.0631214
-1.5333
0.128703
1.82509
-1.26366
-0.553183
-0.517851
1.07103
0.446817
0.0150715
-0.00932281
-0.729451
0.690124
1.46022
-1.07658
-0.0521621
0.291071
-0.238909
0.864035
0.626178
0.785659
-0.816084
-0.493532
-0.450249
-0.471371
-0.500137
0.803112
-0.803112
0.682221
-0.682221
-0.729451
-0.463199
0.463199
-0.291071
0.225335
-0.461599
-0.260856
-2.05272
2.05272
1.46022
-1.07658
0.785659
0.769714
-0.769714
0.816084
0.759374
-0.759374
0.506468
0.528629
0.482149
-0.592505
-0.499863
-0.549751
1.07838
-1.0393
-1.62904
0.617526
-0.40847
1.42408
0.330971
0.0415318
-0.0922785
-0.889103
0.10534
0.783762
-0.195214
0.182867
-0.999809
0.576802
0.980778
-0.629987
-0.130028
-0.0013425
-0.0229163
-0.783055
-0.0823405
-0.558951
0.00584708
0.0253742
0.933752
-0.264573
0.278903
0.174772
-0.0114371
-0.00321737
0.0146545
-0.80896
0.0654085
0.743552
1.22572
-0.10836
-0.544464
0.392529
0.151935
0.919632
-0.736808
-0.182824
0.0837711
0.272441
-0.0131099
-0.0499429
-0.0428482
-0.0162674
0.918392
-1.41361
-0.798533
0.106136
-0.731696
0.798378
-0.0666822
0.125632
-0.899682
0.774049
-0.80087
0.908854
-0.107983
-0.0536399
0.03423
0.0212566
-0.266257
0.217615
0.893142
-0.1038
-0.785303
0.919025
-0.0956313
-0.823394
0.315517
-0.205253
0.81725
0.815832
-0.552502
0.443303
-0.349592
0.110834
-0.896137
0.928744
0.454457
-0.785963
0.0146687
1.01919
-0.89356
1.26092
1.04915
0.504351
-1.5535
-0.871881
-0.127928
-0.384161
0.00686058
-0.597892
-0.228398
-0.786179
0.786179
-0.57453
-0.0926391
-0.865233
0.128425
-0.868273
0.75997
0.0620151
-0.18845
-0.0637114
0.0759934
0.0100445
0.194022
0.82517
0.816214
0.767711
0.145186
-0.912898
0.50406
0.92002
-0.778047
-0.11675
0.894797
0.188038
-0.903817
-0.671211
0.890897
-0.780063
-0.116392
0.459618
-0.0529307
-0.406687
0.222103
0.175681
-0.397783
-0.224027
-0.645379
0.869406
-0.89444
-0.833352
0.101656
0.473307
0.25736
-1.87469
0.881234
-0.540621
0.540621
-1.20107
-0.332233
-0.519822
0.898193
-0.852137
0.614054
0.774147
-0.223909
0.821653
0.145622
-0.422203
-0.586737
1.00894
-0.108222
-0.703277
-0.13593
1.55321
-0.707842
0.896072
-0.266918
0.289797
-0.206026
0.777523
-0.885507
-0.446679
1.3667
-0.164933
0.741735
0.552903
-0.552903
-0.0675438
0.0433844
0.0969001
-0.0584077
0.298241
-0.12256
-0.14845
-0.000715966
0.00730431
-0.00658835
-0.654773
0.697837
-0.0430632
1.4436
-0.939252
0.116916
-0.89698
-0.83201
1.02758
-0.195568
0.201408
0.879487
0.252159
1.19144
-0.751793
0.588602
-0.670838
-0.626888
0.128699
-1.36145
0.0301118
0.229054
-0.751482
-0.609973
0.0122828
-1.02057
0.0843357
0.714043
0.705543
-0.11694
0.0862036
0.771887
0.444241
1.03109
-1.47533
-0.0139638
0.55978
0.254537
-1.01127
0.77205
0.239223
-0.68707
-0.123065
1.73462
-0.104344
-0.240258
-0.0495896
0.486551
0.513449
-0.767994
-0.117513
-0.598459
-0.00114216
-0.695324
-1.29318
0.400227
0.599773
-0.202455
0.169488
-0.863625
-0.089782
-0.581056
-0.177162
-0.265772
0.442934
0.0238342
0.00293017
0.100522
0.0658428
-0.129913
-0.092435
0.751559
-0.63144
0.717644
-1.15603
0.404546
0.711787
-0.753277
0.0414899
-0.750186
-0.206152
0.956338
-0.265533
0.253056
-0.0250379
0.0718035
0.0935242
-0.0116569
0.659777
-0.119156
0.147877
0.104804
-0.738481
0.0837079
0.361412
-1.63054
0.0414719
0.827906
0.190351
-0.298788
1.0391
-0.0140754
0.161379
0.201824
0.00294135
0.0676116
-0.108756
-0.149845
0.511257
-0.389411
0.668606
-0.279195
0.853215
-0.0340188
0.00495432
0.0290645
0.116892
0.00740531
0.0015155
0.241708
-0.119033
-0.335945
-0.516192
-0.257
-0.13241
0.0125475
0.323543
-0.0846713
-0.892273
0.985169
-0.0928952
-0.778122
0.848545
-0.0704222
0.639071
-0.0181785
-0.37649
-0.047473
0.148396
-0.439469
-0.104995
0.288916
0.484184
0.2035
-0.687684
0.438944
0.0599402
0.637896
-0.57638
0.539712
0.0366685
0.892815
-1.2017
0.0339263
-0.045504
0.0115777
0.688282
-0.00931702
-0.0843628
0.0216894
1.14559
-0.0822035
0.721275
-0.000837261
-0.320055
0.120885
-0.150497
0.191922
-0.0414255
0.0187241
-0.00625656
1.82076
-0.895446
0.169564
0.243739
-0.0286098
-0.112146
0.20311
0.105744
0.0021724
0.13518
0.772617
-0.988023
0.556843
0.43118
1.20001
-0.282363
-0.917649
0.642393
0.135579
0.0394465
0.0672761
-0.106723
-0.198507
-0.845013
0.258276
0.0130018
0.718426
0.694903
-0.0817269
1.00373
0.0903821
0.83043
0.0213436
0.276832
-0.837936
0.0601585
-0.276365
1.0452
-0.186817
0.681022
0.0915955
0.0120511
-0.108134
0.0899554
-0.159098
0.157583
0.050753
-0.118369
0.423169
-0.0553765
0.897641
-0.0833256
0.203807
0.36188
0.838132
-0.170593
-0.46822
-0.0830219
-0.112531
-0.0147768
0.00168522
0.0130916
-1.06247
-0.139234
-0.0244387
0.751667
-0.237241
-0.608644
0.611684
-0.00303965
0.286743
0.76473
-0.366475
0.407965
0.0757675
-0.162673
0.618451
0.146279
0.61853
0.321468
-0.236828
0.680131
0.308534
0.202723
-0.630764
0.349195
0.281569
-0.498885
-0.0719663
0.046233
0.0525396
-0.0423899
0.972616
0.736816
0.0936138
0.595642
0.234167
-0.855631
-0.0796823
-0.662234
0.676903
-0.0166102
-0.634422
0.45726
0.891178
0.678391
0.151588
-0.110558
-0.198925
-0.30846
1.24091
-0.0314339
-0.561558
-0.0323672
0.032502
0.170221
1.3292
-0.723817
-0.0699657
0.440467
-0.760348
0.943905
-0.183557
-0.412277
-0.218487
0.0524592
-0.120525
-0.0803428
0.660462
-0.018756
0.00920559
0.630159
0.643496
0.18441
0.588609
-0.134894
0.266074
0.647907
0.264194
-0.912101
0.278151
-0.922502
-0.192243
-1.14367
-0.198344
0.793363
-0.59502
-0.651938
-0.0430357
0.114839
-0.0533097
-0.938994
0.0457347
-0.0568986
0.377093
-0.263056
-0.0579095
0.320966
0.0103805
-0.585675
0.313186
-0.151807
-0.506005
-0.0149567
0.00351961
0.159717
-0.0521039
-0.57175
-0.00463053
0.566144
0.325034
0.649783
1.01497
-0.270532
-0.378195
0.648727
-0.283811
-0.616813
0.616813
-0.150593
-0.871034
1.02163
0.0281785
-0.138795
0.702436
-0.136292
-0.233671
-0.397237
0.156979
0.152455
0.53758
0.366212
0.154176
-0.110078
-1.30999
0.486958
0.0527532
0.0318462
0.0291451
-0.759701
-0.453904
-0.327955
0.693564
0.306436
-0.453904
0.693564
-1.5075
-0.431482
-1.5075
-0.696334
0.696334
0.303666
-0.0156945
0.227137
-0.0728621
0.230678
0.0229389
-0.449434
0.647018
-0.058409
0.682809
-0.504093
-0.178716
-0.0746158
0.0795247
-0.00490887
-0.0183892
0.0176732
0.71656
0.0209214
0.050944
-0.437092
-0.324351
0.104054
0.0554098
0.849181
-0.289604
0.286913
-0.316115
-0.0194502
-0.0130338
-0.0214734
0.664207
0.0542187
0.365617
0.0326407
0.00271725
-0.0305519
0.0880225
0.585904
-0.472652
-0.113251
1.04858
0.530078
-0.542093
0.826889
0.0102947
-0.0571004
0.0962856
-0.00639223
0.242669
1.02309
-0.375185
-0.0137609
-0.0477148
0.955224
0.503108
0.0260525
-0.0260525
0.0153174
-0.0153174
0.0441529
-0.0441529
-0.0150911
0.364883
0.451312
-0.147805
-0.775967
0.508906
0.20854
0.0331677
-0.0793001
-0.489709
1.05807
0.108669
-0.795739
-0.937263
0.597875
0.25305
0.015892
0.00137414
0.0142689
-0.0142689
0.725834
0.0166362
-0.0166362
0.702105
0.0698129
0.0204818
0.0121589
0.00744882
-0.0759218
-0.0249265
0.0249265
0.0247326
-0.0247326
-0.0195054
0.0195054
0.0164302
-0.0164302
0.216357
-0.287953
-0.0918736
0.224902
0.0185769
-0.0185769
-0.367417
0.535867
-0.168451
0.544029
-0.239406
0.624914
-0.338001
0.566746
-0.31427
0.056015
0.555669
0.568927
0.0155705
-0.0155705
-0.0108732
0.0212083
-0.0212083
0.0193313
-0.0193313
0.720222
-0.712626
0.0408858
1.098
-0.263972
-0.00869336
0.00869336
-0.029891
0.029891
0.0166056
-0.0166056
0.0260421
-0.0260421
-0.0207584
0.0207584
0.0318413
-0.0318413
0.461751
-0.0286566
0.0286566
0.00717786
-0.00717786
0.0216361
-0.0216361
0.0166013
-0.0166013
-0.0164011
0.0164011
0.148887
-0.0209166
0.0209166
0.880201
0.0195877
-0.0358681
0.0358681
-0.014904
0.014904
-0.0570314
0.0570314
0.0302937
-0.0302937
0.0283683
-0.0283683
-0.0103786
0.0103786
0.0117987
-0.0117987
-0.962871
-0.40811
0.0225631
-0.0225631
0.00537554
-0.00537554
-0.0347803
0.0347803
-0.0308305
0.0308305
-0.00562008
0.00562008
-0.365186
0.624697
0.300888
-0.0293444
0.0293444
0.0267602
0.0346916
-0.0346916
0.00377669
-0.00377669
0.0411885
-0.0411885
0.0501284
0.226703
-0.0140404
0.0140404
-0.0262165
0.0262165
-0.527089
0.0499631
-0.753461
-0.0346061
0.0346061
-0.466253
0.0390106
0.0214873
-0.00312043
-0.212479
-0.033652
0.033652
-0.178954
0.123577
-0.0458213
0.00245228
-0.00245228
0.0300976
0.0310206
0.257736
-0.329988
-0.312561
0.642549
0.227407
0.0157293
-0.0157293
-0.490876
0.586308
-0.0954322
0.810486
-0.428713
-0.381774
-0.424033
-0.666735
0.0227949
-0.33891
-0.396516
0.382552
-0.570672
-0.0333138
0.191717
-0.315496
0.00986895
-0.00986895
0.00117131
-0.00117131
0.0282324
-0.0282324
0.0290404
-0.0290404
-0.000386916
0.000386916
0.000191548
-0.000191548
-0.376099
0.196289
0.202634
-0.332662
-0.00152766
0.00152766
-0.0499618
0.0499618
-0.0370439
0.0370439
0.242573
-0.266387
0.0238145
-0.027958
0.347794
-0.585035
0.00366518
-0.00366518
0.0772716
-0.0772716
-0.071219
-0.484597
0.507392
-0.000588067
0.000588067
0.160759
0.0154215
1.07251
-0.479143
-0.0551202
0.534263
-0.651369
-0.784743
0.18685
-0.0430094
0.0430094
-0.693202
0.302433
0.0459576
-0.0459576
-0.604959
0.344091
0.289145
0.127649
-0.00237631
0.00237631
-0.760992
-0.00281668
0.00281668
0.29396
0.412933
0.0237075
-0.0498179
0.0498179
-0.00160988
0.00160988
-0.0389853
0.0389853
-0.0599574
0.0599574
-0.00362171
0.00362171
-0.0663345
0.0663345
-0.00395163
0.00395163
-0.0421323
0.0421323
-0.00306927
-0.05064
0.05064
0.00432062
-0.00432062
0.044552
-0.044552
-0.00407907
0.00407907
0.0528016
-0.0528016
0.316429
-0.00471576
0.00471576
-0.00517271
0.00517271
-0.0652321
0.0931095
-0.0101116
0.0101116
0.00426477
-0.00426477
-0.0554503
0.0554503
0.288764
-0.0167007
0.0167007
-0.0644996
0.0644996
-0.00714767
0.00714767
-0.0631899
0.0631899
-0.0141972
0.0141972
-0.076213
0.076213
-0.0198216
0.0198216
-0.106355
0.106355
-0.669835
-0.148962
-0.504752
0.501712
-0.767025
0.423749
-0.611326
0.424509
-0.22488
-0.0942518
0.00330152
-0.00330152
-0.0339852
-0.758701
0.0329023
-0.00375718
-0.381009
0.819096
0.145275
0.278257
0.00753882
0.0423758
-0.428848
-0.550362
0.132971
0.386893
-0.869927
-0.00759035
0.00759035
-0.80572
0.0259281
-0.0259281
0.00965158
-0.00965158
0.314946
-0.183634
-0.00255619
0.00255619
0.0209195
0.0161796
0.595056
0.442598
-0.0134348
-0.0097358
-0.00314733
-0.0724923
0.460783
-0.38829
0.0522275
-0.188158
0.0249641
0.789601
0.0386023
0.0781166
-0.40257
0.40943
-0.45769
-1.03007
-0.303716
-0.0599161
0.0162304
-0.721272
0.0758928
0.0158431
0.0022786
0.0291665
0.749122
-0.588926
-0.0212134
0.0719664
-0.0288812
-0.102537
0.329674
0.442043
0.219396
-0.183272
0.236088
0.0433031
-0.0150416
-0.587732
-0.0250222
0.241148
-0.299057
-0.0209998
-1.10424
-0.0699614
0.251892
-0.344486
0.360445
0.0803266
-0.615499
0.0627088
-0.25866
0.0534073
-0.330698
0.482633
0.0608839
-0.241963
0.181079
-0.0241972
0.0241972
0.136295
-0.408554
0.186426
0.0488528
-0.0639562
0.047346
-0.0755323
-0.01008
0.0856122
-0.0330879
-0.14529
-0.0774825
-0.21258
-0.303376
-0.387932
0.691308
0.00955233
0.0492716
0.157637
-0.00976058
0.0866966
0.0503875
-0.138751
0.284719
-0.00779791
0.0368624
-0.0456495
0.203287
0.00565143
0.239324
-0.00774625
0.00774625
0.469597
0.859605
0.0722148
-0.151897
0.0730256
-0.19486
-0.512969
1.70441
-0.139781
0.0836364
-0.528127
0.0233754
0.0143604
0.0649447
-0.632855
0.265673
-0.0630269
0.407827
-0.711203
0.218761
0.553289
-0.0864815
0.0864815
-0.000698354
-1.04024
1.35116
-0.310918
-0.191146
0.137836
0.167467
0.134963
-1.14144
-0.193429
0.0404192
-0.0520261
0.930726
0.384239
-0.23265
-0.0675691
0.230323
-1.46659
-0.0847688
-0.304562
0.864414
0.621603
-0.273809
-0.353454
0.676998
0.271168
0.415607
-0.276003
0.104305
-0.483564
0.315113
0.139523
-0.139523
0.197776
0.0332955
-0.231072
-0.000822137
0.00174678
0.030837
0.153573
-0.35208
0.255153
-0.189824
-0.0653294
0.576602
-0.963555
0.353004
-0.439021
0.711927
-0.145034
-0.187628
-0.0652081
-0.0783892
-0.459
0.0219086
-0.262658
-0.000205973
-0.0209998
0.351812
-0.00559919
-0.0128785
0.00214674
0.0163679
-0.00559973
-0.0107682
-0.116908
-0.0202697
-0.156348
0.176618
-0.154772
-0.328792
0.0209195
0.342384
-0.00946132
-0.3432
0.0657477
0.00170286
-0.105872
-0.0419326
-0.00955566
0.00955566
-0.000163962
-0.00515836
-0.010358
0.00075436
-0.168937
0.00111559
-0.00125299
0.193385
-0.230977
-0.00189322
0.00189322
0.0737531
0.539305
-0.00216953
-0.318706
0.570071
1.064
-0.48547
0.366546
-0.435781
-0.0545787
0.241005
0.263685
-0.257565
-0.0625096
-0.0181981
0.00654117
0.0149215
-0.193132
-0.417971
0.926877
0.0479322
-0.424031
0.207163
-0.00154763
0.316681
-0.115274
-0.00480061
-0.00134923
-0.0168489
-0.0797044
0.00108779
0.000174424
0.680354
-0.629966
-0.239146
-0.601974
0.667571
-0.00159885
-0.0022417
-0.0458213
-0.00623776
0.817115
-0.431678
0.484431
-0.329098
0.906209
-1.72466
0.625534
-0.201025
0.662354
-0.000871948
0.00312092
0.0127711
-0.093608
0.142135
-0.219708
0.0100922
-8.02274e-05
0.0544038
-0.0362722
-0.0181316
-0.00168895
0.111223
-0.182843
0.0716193
-0.0976217
0.00702098
0.000283339
0.0024274
0.447214
-0.408302
-0.0202403
-0.0019549
0.865158
0.485999
0.421536
-0.00541962
-0.00128097
0.323874
-0.15431
-0.026801
-0.151139
-0.0272634
-0.00339189
0.093032
-0.0486004
-0.000124436
0.442262
-0.00214709
0.00902936
-0.00902936
-0.00905474
-0.000681058
-0.00191458
-0.325241
-0.00343879
0.0658846
-0.106777
0.545227
0.00929476
-0.0658099
-0.00213751
0.00045694
0.498175
-0.00198939
0.00395809
0.0485011
-0.00194137
-0.00212616
-0.0643215
-0.0841288
-0.710338
0.498096
-0.916067
-0.408704
-0.00102181
-0.997353
-0.154758
-0.11216
0.622315
-0.016948
0.2743
-0.00386033
-0.00140554
-0.546923
-0.00314703
-0.000329926
0.00671668
1.06298
-0.624038
-0.0024197
-0.000127433
-0.00563235
-0.000636698
0.0769689
-0.0245552
0.0245552
0.0540734
-0.0592317
-0.00288289
-0.0077396
-0.0950161
0.0821376
-0.144915
0.0729489
-0.00704948
-0.0130232
0.0528543
-0.0125701
0.0533817
-0.0371513
-0.625082
0.558399
-0.0430729
-0.000963246
0.443234
-0.239427
-0.08221
-0.728113
-0.0940892
-0.141342
-0.0861496
0.0842083
0.64088
-0.00190532
-0.0314677
0.029226
-0.012094
0.0402523
-0.151003
0.11075
-0.0751023
-0.614335
0.917622
-0.542907
0.0179378