/*--------------------------------*- C++ -*----------------------------------*\
| =========                 |                                                 |
| \\      /  F ield         | OpenFOAM: The Open Source CFD Toolbox           |
|  \\    /   O peration     | Version:  2306                                  |
|   \\  /    A nd           | Website:  www.openfoam.com                      |
|    \\/     M anipulation  |                                                 |
\*---------------------------------------------------------------------------*/
FoamFile
{
    version     2.0;
    format      ascii;
    arch        "LSB;label=32;scalar=64";
    class       surfaceScalarField;
    location    "12.2";
    object      phi;
}
// * * * * * * * * * * * * * * * * * * * * * * * * * * * * * * * * * * * * * //

dimensions      [0 3 -1 0 0 0 0];

oriented        oriented;

internalField   nonuniform List<scalar> 
3181
(
-1.02209
0.392488
0.629604
-0.387058
0.363793
0.0232652
0.519174
-0.356935
-0.16224
0.119318
-0.197687
0.0783685
-0.107282
0.122117
-0.0148351
0.811982
0.406718
-1.2187
0.1471
-0.140857
-0.00624304
0.089921
-0.000448501
-0.0894725
0.582697
-0.761688
0.178991
-0.0749825
0.134721
-0.0597386
-0.0105355
-0.0520388
0.0625743
0.127537
0.0451908
-0.172728
-0.00207099
-0.0751529
0.0772238
-1.08888
0.153433
0.935445
-0.324088
0.692954
-0.368866
-1.12503
0.638386
0.486647
0.0830107
-0.935681
0.85267
-0.401321
0.311807
0.0895145
-0.605607
-0.490327
-0.00250401
0.0726454
-0.0701414
0.039893
-0.0875364
0.0476433
-0.078953
0.0667976
0.0121554
1.05498
-1.03173
-0.0232519
0.0193077
0.0329551
-0.0522628
-0.956775
0.327202
0.629572
-0.106601
0.225919
0.304785
-0.246692
-0.0580934
0.029302
0.061586
-0.0908881
-0.413179
0.341478
0.0717011
-0.0338985
-0.0110262
0.0132426
-0.00221641
-0.0361629
-0.920612
0.115029
-0.0772073
-0.0378216
0.0540791
1.40129
-1.45537
-0.0397627
0.037959
0.00180372
0.178589
0.279436
-0.458025
1.42719
-1.37311
0.0725266
-0.0326335
1.59988
-0.840051
-0.759827
-0.193707
1.00569
-0.142731
0.14066
-0.0783127
-0.000640327
-0.406696
0.0826078
-0.158669
0.0803567
-0.634596
0.125412
0.509183
-0.145619
0.0706364
-0.167261
0.171445
-0.00418421
-0.267704
-0.0770362
0.34474
-0.179559
1.53781
-1.35825
0.0964451
0.177734
-0.274179
-0.0135302
-0.101647
0.107876
-0.00622858
0.508663
0.184291
-0.0956293
0.142991
-0.0473621
0.0860239
0.029005
-0.168859
0.194794
-0.0259344
0.161936
0.0567393
-0.218675
0.107618
-0.113478
0.00585956
1.29581
0.30407
-0.838702
-0.18339
0.210707
-1.39927
1.18856
0.551777
0.232645
-0.784421
-0.445768
-0.210257
0.656025
-0.86645
0.672742
-0.278146
0.829923
-0.319425
-0.103876
0.423301
-0.207273
-0.205906
-0.187816
0.167174
0.0206426
0.13895
0.281617
-0.420567
-0.181884
0.764581
-0.0111491
0.10107
-1.61325
1.82395
0.182895
0.12189
-0.174283
-0.110063
0.284346
-0.269993
0.36104
-0.0910478
-0.0799313
0.0880164
-0.00808505
-1.79281
-0.917995
0.00912023
0.908875
-0.0465168
0.00675405
-1.08208
0.822979
0.259106
0.589696
-0.371111
-0.218584
-0.93594
0.0694904
1.10903
-0.955602
-0.723915
1.13726
-0.201813
1.07287
0.170183
-0.173143
0.00295992
1.21202
-0.805303
0.490694
-0.490694
-0.00799611
0.000222257
0.00777385
-0.208544
-0.0526734
0.261218
0.155633
-0.103929
-0.0517042
-0.447636
0.820838
-0.373203
-0.0205653
-0.23093
0.251496
-1.07502
0.0432906
0.350842
0.054082
-0.404924
0.132116
-0.85072
1.08336
0.120389
0.0726045
-0.192993
-0.0173747
-0.151485
-0.50565
0.275859
0.229791
-0.324408
-0.181242
0.114952
-0.965671
0.325825
-0.77346
0.915473
-0.832462
-0.0322588
0.256413
-0.224155
0.084498
0.0529362
-0.137434
-1.36887
-0.103991
1.47286
-0.239446
0.404535
-0.165089
-1.06342
0.410444
0.652979
-0.482983
-0.599102
0.207001
-0.110556
-0.151498
0.145917
0.00558057
-0.0782058
-0.0144675
0.0926733
-0.539907
-0.221781
-0.138729
0.0569437
0.0817854
-1.06773
0.0947676
0.972966
1.70992
-0.172107
-0.0102489
0.00225284
0.0339599
0.148935
-0.203111
0.3817
0.0389852
0.222213
-0.261199
0.140905
0.0691666
-0.210072
0.369604
0.0433405
-0.412945
-0.596116
-0.528917
-0.86427
-0.203463
-0.0669358
0.187324
-0.103322
0.180606
-0.0772834
-0.0317173
0.0244412
0.122659
-0.0567311
0.0687344
-0.0120033
-0.0939308
-0.0212037
0.115134
0.074074
-0.074074
-0.182974
0.207415
0.265288
0.21672
0.103209
0.0915846
-1.24985
1.06797
-1.56265
0.0899525
1.4727
0.0232332
-0.0184677
-0.00476547
-0.0268935
-0.052199
0.0790924
0.530267
-0.0208808
-0.509386
-0.0428637
0.0449529
-0.00208917
-0.19747
0.0144967
0.162542
0.658296
-0.367704
0.530246
-0.153545
-1.21532
-0.130578
0.0232968
0.482909
-0.299882
-0.183027
0.191208
-0.160863
-0.0303456
0.0479601
-0.315664
0.0231801
-0.941175
0.048587
-0.151909
-0.280883
-0.396461
0.0745537
1.40995
-0.963569
-0.446377
1.10732
0.302627
0.0664152
0.278325
0.0249976
-0.00176441
-0.125584
0.161599
-0.0360154
-0.25203
-0.589342
0.841372
-0.349509
0.606415
0.728406
-1.21873
0.146845
0.0242836
-0.0559872
0.0317036
-1.21335
0.224912
0.988438
-0.192444
-1.02091
-0.305023
0.655865
-0.912501
-0.0170809
0.00639666
-0.27034
0.263943
1.49348
-1.61483
0.121349
-0.151102
0.0205238
0.571582
-0.823612
0.2784
-0.502722
0.224323
-0.297906
-0.12054
0.418446
0.171128
-1.00167
-0.0733441
-0.0201339
-0.0500075
-0.562077
0.35182
-0.249415
0.0181296
0.231286
-0.0632392
-0.0878629
0.0463598
-0.0463598
-0.121673
0.133407
-0.0117339
-0.278842
-1.28381
0.110428
0.0323978
-0.142826
-0.191517
0.0260746
0.165442
-0.223523
0.0357073
1.66376
-0.372684
-1.29108
-0.187893
0.445796
-0.257902
0.00393053
-0.0034605
-0.000470029
-0.661292
-0.402131
-0.186639
-0.00511922
0.191758
-0.172375
0.311325
-0.103575
0.101853
0.00172184
0.0761911
0.00955769
-0.0857488
-0.144865
0.194782
-0.0499175
-0.337843
0.762068
-0.424226
-0.217509
-0.0503982
0.267907
-0.685554
0.652034
0.0335203
-0.00268921
0.0356443
0.0564482
-0.0571439
0.00069565
0.00306969
-0.0553325
0.686424
1.02349
0.167372
-0.886509
0.719137
-0.0857188
2.01171
-1.92599
0.379033
0.101635
0.389059
0.0647856
0.207169
-0.0662641
-0.0726421
-0.0290052
0.231673
0.159793
-0.0752951
0.73296
-0.405757
0.0599206
0.201297
0.0508273
-0.16775
0.116922
-0.785586
-0.141121
0.926707
-0.0539604
0.0539604
-0.109466
-0.265683
0.545118
0.0121379
-0.229647
0.142794
0.169014
0.0590733
-0.126009
0.138226
-0.148761
-0.342026
0.321461
0.0530823
0.0446354
-0.0977177
0.379022
-0.333831
0.452115
0.00342435
-0.45554
-0.204269
0.270684
0.185869
-0.485752
-0.217527
0.610015
0.16313
-0.0331155
0.0331155
-0.245541
0.535375
-0.289834
0.377119
0.0274165
-0.0262767
0.0332177
-0.00694096
-0.201575
-0.0824022
-0.0563269
-0.0500376
0.188264
-0.183473
0.244717
-0.0612443
0.131257
0.028536
-0.387385
0.140693
0.193855
-0.0625982
-0.0467605
-0.0568144
-0.0897949
0.0733116
0.0164833
0.145726
-0.103433
-0.0422921
-0.0211723
0.401549
-0.380376
-0.14444
0.133291
0.106381
-0.110773
0.00439174
0.0236969
0.566903
-0.114787
-0.0899705
-0.0226346
0.112605
-0.102558
-0.0216415
0.124199
-0.093137
0.0942288
-0.718883
0.624654
-0.032303
-1.49088
-0.401948
1.89283
0.663905
0.916467
-1.58037
0.0816835
-0.330569
0.373909
0.284316
0.250925
-0.535241
-0.208782
0.259609
0.152669
-0.88396
0.731292
0.054937
-0.157495
-0.0279019
0.00776804
-0.987202
0.447647
0.539555
0.963569
-0.848617
-1.65526
1.55127
-1.49348
1.58343
0.0392151
-0.0865772
0.0171997
0.0392486
0.0112752
0.798169
-0.645501
0.120084
-0.0714972
0.408887
0.728372
-0.169696
-1.69442
1.6087
-0.664091
-0.585761
-0.239076
-0.39552
-0.00378024
-0.163628
0.211588
-0.578315
-0.367843
0.17995
0.762583
-0.232316
-0.877371
-0.777888
0.738954
0.216508
-0.161571
0.280706
0.037541
-0.037541
0.670759
0.14966
-0.820419
-0.223781
0.89454
0.394935
-1.20937
0.814435
0.271117
-0.0543975
0.00631385
0.0069771
-0.013291
-1.39927
-1.17921
1.0071
0.925479
0.738281
-0.0343785
-0.132883
-0.239719
0.748382
-0.200811
-0.0486039
-0.00299253
-0.0769388
-0.054317
0.107253
0.379819
-0.254406
-0.817636
-0.291165
-0.121281
-0.075754
0.197035
-0.738765
0.8404
-0.158559
0.162019
-0.00346076
0.0206859
0.00431169
-0.156121
0.0896462
0.0664747
0.0100359
0.413265
0.137197
0.0540111
0.0284558
0.0137717
-0.0422275
-0.0155279
-0.171111
-0.727024
0.374784
0.35224
0.422635
-1.31894
0.896305
0.140129
-0.161305
0.0211766
-0.0140761
0.221077
-0.0844963
-0.406198
-0.146993
-0.00912805
-0.169178
0.0586224
0.143852
-0.346963
-1.36482
0.732131
0.632688
0.046167
0.0915917
0.0541338
-0.785586
-0.090171
-0.247672
0.157814
-0.0681676
0.0439058
-0.633938
-0.0516159
0.0621151
0.13174
0.100776
0.037706
-0.458273
0.120887
0.348853
-0.294771
-0.114643
0.0207119
0.220505
0.840902
-1.06141
0.108547
-0.709671
0.601124
-0.935106
0.793984
-0.869977
0.271336
0.598641
-0.00837633
0.0092571
-0.00088077
0.173674
-0.471581
0.207741
-0.121213
-0.0865279
0.0466308
-0.0682723
0.0184082
-0.139689
-0.00760064
0.0251924
-0.0221227
0.0205811
0.0800506
-0.100632
1.05884
-0.000766325
0.00120067
-0.000434344
0.119572
0.0137188
0.858891
0.0817069
-0.0611831
-0.160617
-1.01859
0.256313
0.0148042
0.00743955
0.0841522
-0.598641
0.406198
0.17963
-0.220754
0.0411241
-0.255985
0.0828417
0.119211
-0.116251
-0.00143292
0.0894493
-0.0433122
-1.12763
-0.237188
-0.044628
0.065209
0.73954
-0.252893
-0.306275
0.114759
0.351002
0.0172377
-0.0435144
-0.00769423
0.0817682
0.145307
0.215733
0.157154
-0.336815
0.17966
0.10741
0.550886
-0.0370499
-0.108569
0.913973
-0.251565
-0.662407
-0.869977
-0.43323
0.855864
1.42719
-0.157258
0.424846
-0.267588
0.360289
-0.0733624
-0.286927
-0.344228
-0.591712
-0.0742987
0.0751776
-0.000878927
-0.00420738
-0.215139
0.219347
0.453463
-0.951399
0.497937
0.0343026
0.667714
-0.702016
-0.0437871
-0.107711
0.00880508
-0.0987756
0.324308
-0.569849
-0.0108738
0.00249749
0.122613
0.0547683
-0.177381
0.0277475
-0.153332
0.000153613
0.0205323
0.104157
0.152256
-0.0495487
-0.00759524
0.196152
-0.427082
-0.379123
1.29559
0.037434
0.0165264
-0.982285
-0.0193895
0.180008
-0.0711973
-0.0434454
-0.0269497
0.305349
0.656391
-0.950826
0.294435
0.176367
0.0799464
-0.94393
-0.0116716
-0.00290484
-0.649054
0.743283
-0.0174532
0.180583
0.00789515
-1.21726
0.182182
-0.441036
0.258854
0.000711575
0.221502
-2.98591e-05
-1.67792e-05
4.66383e-05
-0.0223304
-0.122534
-0.0206347
-0.13085
0.748357
-0.63981
-0.14869
0.0905493
-0.130811
0.314977
-0.157822
0.143615
1.21211
-0.235571
-0.976542
-0.122513
0.140643
-0.504273
-0.222751
-0.558135
0.601299
-0.580642
-0.0206568
-0.0936091
-0.0550805
-1.69442
0.568687
-0.568687
-1.74806
1.74806
0.798169
0.15027
-0.308733
0.158463
-0.888198
-0.0940868
0.632898
-0.37219
-0.260708
0.158461
-0.235744
-0.00980349
-0.000445455
-0.883015
-0.0826562
-0.932467
0.213584
0.0305014
-0.106255
0.697364
-0.10707
-0.590294
0.964968
0.462223
-0.00117533
0.00114547
-0.967182
0.540382
-0.536957
-0.0696663
-0.612648
0.682315
-0.0900029
-0.89751
-0.717316
0.21916
-0.815276
-0.926707
1.36241
-0.435705
-0.137832
0.276459
-0.138626
-0.0294629
0.726827
-0.109172
-1.00325
1.00325
-0.968121
0.379264
0.588857
0.00140546
-0.00217178
0.125511
-0.439599
0.847826
-0.0248478
-0.0866463
-0.0345484
0.136055
0.00318608
0.000744451
1.40003
-1.12869
-0.330995
0.407186
-0.636988
1.02077
-0.383778
-0.059719
-0.0872738
0.126095
-0.0569281
0.359161
0.00602119
-0.081174
0.356611
0.0449379
0.0425299
-0.250249
0.207719
0.137715
0.0337305
0.0992013
0.182659
1.22667
0.597282
0.101813
0.862909
-0.964722
-0.976736
1.20165
0.206798
-0.126441
0.0767503
-0.769394
0.692644
0.252083
0.128537
-0.470563
-0.0737999
0.131197
-0.0573974
0.127555
-0.201355
-0.452486
-0.109591
-0.0732743
0.076427
-0.00315276
-0.00364881
-0.0458998
0.0267861
0.00221886
0.645501
-0.601124
-0.0443773
-0.28836
0.300498
0.875205
0.609424
-0.249135
-0.0414308
0.0738286
-0.284137
-0.218586
0.171368
-0.572988
0.40162
-0.000111362
9.45835e-05
0.0861257
0.120262
-0.206387
0.00362072
-0.0101094
0.00648871
-0.0241301
0.0160398
0.00809036
-1.14023
0.334931
-0.157994
-1.33289
-0.201561
-0.848617
1.58343
1.55127
-0.190031
-0.171058
0.12066
-0.0646932
0.0704943
-0.00580112
-0.150664
1.06193
-0.911271
0.55925
0.0736488
0.000776343
-0.000887705
0.122898
-0.13214
0.0345484
-0.0491611
0.00453318
-0.732885
0.448748
-0.0823873
0.141461
-0.23167
0.610692
1.10732
-0.00626116
-0.0603681
0.00132035
0.0590477
1.90606
-0.354788
-0.0600078
-0.0534697
-1.00656
0.157939
0.383679
-0.212551
-0.469944
-0.135709
0.605652
0.810714
-0.364382
-0.446332
-0.115795
0.772186
-1.6087
0.20943
-0.0159126
-0.0461771
0.0620897
0.428337
1.58338
-0.169434
0.175747
0.12243
2.19433
-0.610896
-0.673919
0.0485235
0.625395
0.390183
0.0181461
-0.349679
0.522864
0.800972
0.318854
0.0751702
-0.0210364
-0.417257
0.153361
0.263896
1.35382
0.0978814
-0.0694256
-0.0531039
-0.361567
0.108895
-0.317676
0.919983
0.29213
-0.136152
0.0425431
0.298591
-0.455849
-0.0206281
0.0179389
0.109664
-0.146099
0.0364346
-0.294706
0.307656
-0.0129499
0.546804
-0.782375
-1.04886
0.0245338
1.02433
0.109297
-0.223415
0.114117
0.274853
0.0401234
-0.240219
0.150048
-0.669076
0.669076
1.18856
0.964968
-0.709671
0.332039
0.468933
-0.635573
0.345739
0.923179
-0.36393
0.00862251
-0.875633
0.867011
0.128595
0.0061264
0.0272747
-0.957891
0.717673
0.138586
-0.169454
-0.117303
0.286756
0.318585
-0.511285
0.341831
-1.11889
-0.288374
-0.660453
-0.0763508
0.00115151
4.91572e-05
-0.22792
0.132739
0.0642959
0.0341949
-0.148165
0.11397
-0.449668
-0.518453
-0.00560358
0.0671896
-1.19501
0.54312
0.651889
-0.564836
0.38181
-0.100873
0.145508
0.230112
-0.00747432
-0.0204276
-1.05081
0.678125
0.0351105
0.0712704
-0.168076
0.037265
0.200189
0.00755188
-0.437869
0.903942
0.499908
-0.0949826
0.866407
-0.789657
0.797147
-0.446145
-0.619325
0.179726
0.154314
-0.791214
0.767476
0.0237384
1.18764
-0.26766
-0.197672
-0.133323
-0.1466
0.0426709
0.956048
-0.843408
-0.112641
-0.185728
0.110433
0.0270597
0.118858
0.882704
0.826082
-0.820611
-0.00547053
-0.320216
-0.0476271
-0.601137
-0.593872
0.136019
1.33684
0.850487
0.11448
0.170116
0.553968
-0.724085
0.00356832
0.0509479
-0.0105422
0.00306787
-0.513122
-0.106202
0.147675
-0.210914
-0.19003
0.139992
-0.532841
0.274938
-0.993175
-0.459397
-0.29192
-0.785522
1.54223
-0.0695338
-0.28639
-0.343246
-0.389639
0.0972133
0.305545
0.0510651
1.30661
-0.853149
-0.192744
0.130146
-0.521635
-0.284225
0.805859
-0.0215802
0.00566763
0.0498142
-0.0608205
-0.233885
-0.11647
0.6976
-0.420231
-0.277369
0.15877
0.131804
-0.0949183
-0.0368855
0.243682
0.0618635
-0.416564
-1.16381
-0.0976846
0.14159
0.964777
-0.138695
0.0164448
0.107754
-0.0227844
0.0178807
0.00490365
0.0172474
-0.0357152
-0.245908
0.0781586
-0.10224
-0.550017
0.412184
0.0236815
0.0963315
0.0129659
-0.696412
1.55781
-1.26568
0.0157032
-0.195729
0.180026
-0.145845
-0.526792
0.672637
0.0747035
-0.708642
-1.00059
-0.0482755
-0.0807081
-0.00192897
0.0826371
-0.244761
-0.601299
-0.184287
-0.138034
-0.417257
-0.234216
0.167952
-0.373271
-1.16246
-0.619035
0.412652
0.206382
0.259816
0.111999
0.541713
0.206408
-0.748121
0.158042
0.0584665
0.897742
0.0285473
-0.92629
-0.220277
0.164843
1.0368
-0.244602
0.183358
-0.781616
0.946459
0.314061
-0.0382024
-0.0321411
0.0434164
-0.00656484
1.16155
-1.25654
0.725076
0.0856382
-1.12593
-0.00169846
0.237707
0.685472
0.900552
0.0134202
-0.0205094
-0.850487
-0.660453
-0.713093
0.722213
-0.0717445
-0.877371
0.667714
0.602512
-0.937495
0.907916
-0.00272024
-0.788494
-0.312498
0.637293
-0.766675
0.129382
0.0793221
0.0524816
-0.436181
-0.00356844
0.856037
-0.852468
0.00136359
-0.000212076
-0.266206
0.217603
0.711997
0.2186
-0.204103
-0.178753
0.747069
-0.652302
0.182994
-0.0245307
0.65625
0.550966
-1.20722
-0.700806
0.854167
1.23121
-0.68809
0.0829159
0.260328
-0.263896
-0.0122487
0.216885
-0.0510869
0.0887181
0.0912897
0.00124256
-0.0172764
0.0160339
-1.02638
-0.0350301
0.312729
-0.807217
-0.38211
1.21651
-0.8344
0.37207
0.648696
-0.0486515
0.0520688
-0.0034173
0.0860031
0.661066
-0.718152
0.723897
0.60684
-0.98895
0.316864
-0.0999787
-0.584813
-0.408362
-0.447797
1.10405
-0.0561366
-0.878354
-1.89607
-0.0299206
0.260328
0.0547484
-0.861966
0.836884
-0.651227
-0.185657
-0.982224
0.397411
0.00333969
0.112694
-8.18406e-06
-0.112686
-0.969308
0.560946
-0.210592
0.910455
-0.922126
0.194404
-0.209932
-0.0971627
0.241015
1.20286
0.276371
-0.20935
-1.42981
0.453271
1.1964
-0.877551
-0.553333
-0.518729
1.07206
0.446667
0.0188481
-0.011871
-0.737046
0.702016
0.417927
-0.331923
-0.389059
0.441289
-0.0522297
0.613884
0.602626
0.780128
-0.814027
-0.492186
-0.448989
-0.470261
-0.499046
0.80057
-0.80057
0.682298
-0.682298
-0.737046
-0.51078
0.51078
-0.441289
-0.460404
-0.394178
-0.483196
-0.592183
0.592183
0.417927
-0.331923
0.780128
0.770736
-0.770736
0.814027
0.762851
-0.762851
0.507814
0.529739
0.481271
-0.174257
-0.500954
-0.551011
1.08075
-0.463304
-1.17343
0.725637
0.656391
0.574819
0.0715954
-0.010588
0.0922949
-0.886142
0.0917749
0.794367
-0.146489
0.142709
-0.994263
0.588506
0.921398
-0.589359
-0.122422
0.00449163
-0.0101572
-0.810874
-0.0756345
-0.539555
-0.00594246
0.0137105
0.414788
-0.179106
0.110938
0.172928
0.00518321
-0.011149
0.00596581
-0.817814
0.0673849
0.75043
0.525835
0.67702
-0.527433
0.412919
0.114514
0.914338
-0.743303
-0.171034
0.0790803
0.30262
-0.0141162
-0.059158
-0.06
-0.0142987
0.275692
-1.01446
-0.834326
0.0970639
-0.747661
0.798883
-0.0512216
0.12388
-0.900641
0.776761
-0.801576
0.901833
-0.100257
-0.0656624
0.0829098
0.0189636
-0.289304
0.640833
0.463214
-0.0936728
-0.792469
0.914217
-0.0901659
-0.824051
0.104309
-0.164028
1.18223
0.820665
-0.577867
0.460687
-0.387038
0.102503
-0.894972
1.37311
0.37495
-0.786907
-0.00158638
1.01682
-0.892943
1.20399
1.19366
-0.680126
-0.513532
-0.882861
-0.111403
-0.41556
0.0351839
-0.5086
0.803035
-0.790126
0.790126
-0.604695
-0.0844779
-0.862391
0.119088
-0.951323
0.881656
0.0772076
-0.19842
-0.0567049
0.0573062
0.0114282
0.18589
0.830933
0.817355
0.775884
0.134799
-0.910683
-0.584501
1.15932
-0.785871
-0.107148
0.893018
0.165543
-0.883694
-0.676501
0.883803
-0.7813
-0.104771
0.46354
-0.0219802
-0.441559
0.0507953
1.28312
-1.33392
0.0941268
-0.375746
0.281619
-0.890642
-0.83308
0.0854187
0.535997
0.26115
-1.54526
1.21235
-0.59598
0.59598
-0.904663
-0.525151
-0.115584
0.833257
-0.947519
0.972053
0.776656
-0.198996
1.01869
-0.68376
0.824938
-1.17164
0.3467
0.0190777
-1.33802
0.280524
0.609157
-0.235647
-0.0120249
0.220058
0.303689
-0.224609
0.781805
-0.882062
0.649096
0.510225
-0.148233
0.73674
0.593441
-0.593441
-0.0615838
0.0658955
0.112377
-0.0781823
1.23721
0.045916
0.301448
-0.00151996
0.0023506
-0.000830638
-0.665617
0.690505
-0.0248883
0.485251
-1.16538
0.108837
-0.890137
-1.1115
1.39617
-0.284661
0.221457
0.868431
-0.775925
1.26118
-0.755338
0.603049
-0.654665
-0.660295
0.156022
-0.340439
0.0274452
0.0879989
-1.04404
0.7036
-0.00253861
-1.20162
0.0675804
0.731303
0.686765
-0.0837161
0.0760956
0.782796
-0.483075
1.09916
-0.616083
-0.864881
0.516712
0.451108
-0.932351
0.717663
0.214688
-0.684294
-0.130982
0.986104
-0.394758
-0.175091
-0.0387135
0.4858
0.5142
-0.770993
-0.111069
-0.545285
-0.473731
-0.5228
-0.475243
0.404687
0.595313
-0.143939
0.157658
-0.861159
-0.0593195
-0.595345
-0.153323
-0.243859
0.397183
-0.0380554
-0.00525677
0.11475
0.0735136
-0.129055
-0.116853
0.757028
-0.639279
0.715374
-0.227674
-0.816365
0.71075
-0.15787
-0.55288
-0.744335
-0.193773
0.938109
-0.238648
0.226501
-0.0252039
-0.111438
0.0235755
0.0128117
0.732858
-0.136878
0.119078
0.111034
-0.735333
0.0697158
1.09676
-0.498022
0.020133
-0.475673
0.59761
-0.292401
1.02077
-0.0041117
0.413409
-0.290979
-0.00522491
-0.0860361
-0.13107
0.017985
1.07878
0.00820332
0.332826
-0.341029
0.842447
-0.0178376
0.00344591
0.0143917
0.130453
-0.00991348
-0.000960342
0.215332
-0.105667
0.200043
-1.14756
0.133061
-0.124858
0.00726057
0.282806
0.174955
-1.04611
1.35104
-0.304933
-0.780471
0.839078
-0.0586068
0.121036
0.121521
0.19254
-0.0739942
1.25519
-0.455911
-0.0715221
0.276437
0.440575
0.197995
-0.63857
0.398141
0.0376175
0.652888
-0.569414
0.56694
0.00247406
1.31189
-1.21468
-0.0522028
0.066756
-0.0145532
0.694213
-0.00944795
-0.0833797
0.0190696
1.28371
0.405731
-0.284695
0.123121
-0.0726534
-0.150761
0.1424
0.0823342
-0.224734
0.00535859
-0.00411603
0.836312
-0.807764
0.222338
0.217053
-0.0254385
-0.0832465
0.228149
0.100261
0.00681714
0.0885267
0.761794
0.276665
0.482421
-0.759086
0.852421
0.0448251
-0.897246
0.645304
0.12588
-0.0981336
0.0153096
0.082824
-0.678982
-0.139743
-1.0319
-0.00439591
0.74335
0.716598
0.0553596
-0.178012
-0.25817
0.810847
0.120901
0.0227141
-0.884201
0.179042
-0.273987
-0.157879
-0.170984
0.687775
0.0740188
0.0136799
0.74469
-0.623169
-0.170286
0.16417
0.0232799
-0.110816
0.423008
-0.0582895
-0.0184951
-0.0698552
0.161953
0.405823
0.446598
-0.14954
0.584073
-0.0453547
-0.108189
0.0168544
-0.000958188
-0.0158963
-1.42235
0.207667
-0.00402993
0.931335
-0.230578
-0.618612
0.639724
-0.0211119
0.284747
0.757491
-0.565557
0.0126773
0.0787064
-0.175869
0.63597
0.121521
0.643941
0.196458
-0.271735
0.732422
0.0928045
0.985975
-0.599828
0.353175
0.246653
-0.690415
-0.0717575
0.0410377
0.065583
-0.0481983
1.22627
0.738091
0.0727557
0.623007
0.218364
-0.871093
-0.0823118
-0.679433
0.677846
-0.0250569
-0.574632
0.421309
0.867473
0.673587
0.166221
-0.0220213
-0.154845
-0.315718
1.14598
0.411837
-0.296204
0.0416622
0.943431
0.0425441
0.738138
0.234827
-0.0796188
0.956108
-0.73173
0.925022
-0.193293
-0.420487
-0.179341
-0.0825483
-0.186818
-0.180169
0.845783
0.0201362
-0.00636451
0.623425
-0.0241604
-0.451512
0.614268
-0.130719
0.230854
0.766355
0.238073
-1.00443
0.275987
-0.927214
0.0940767
-1.35976
-0.174652
0.771804
-0.597152
-0.672674
-0.161869
0.0504311
-0.055737
-0.922095
0.0180836
-0.040868
0.982943
0.190754
-0.418174
0.22742
-0.0209786
-0.578315
0.115521
0.297888
-1.31484
0.00169632
0.00348689
-0.580898
-0.0541903
-0.595505
0.0260915
0.567728
0.299745
0.986343
0.906489
-0.239082
-0.398602
0.637684
0.13256
-0.614913
0.614913
-0.242151
-0.923545
1.1657
0.030422
-0.152935
0.686254
-0.118526
-0.223005
-0.335531
0.16044
0.577875
0.541131
-0.370905
0.179062
-0.104509
-0.623925
0.484769
0.0821707
0.0614165
0.0111101
-1.22354
-0.447968
-0.261823
0.69773
0.30227
-0.447968
0.69773
-0.450239
-0.255558
-0.450239
-0.695092
0.695092
0.304908
-0.0140249
0.212191
-0.07665
0.209017
0.16668
-0.469407
0.642187
-0.0279193
0.65957
-0.511602
-0.147968
-0.0547534
0.0531589
0.00159447
-0.00762918
0.00610922
-0.0984769
0.0184653
-0.0747972
-0.43754
-0.360642
0.132721
0.0359414
0.833103
-0.279135
-0.644659
0.255021
0.0032559
-0.140366
-0.00393938
0.673062
0.0702875
0.0177733
-0.0395678
-0.00265974
0.0248869
0.0848241
0.556646
-0.479024
-0.0776226
1.81313
0.558471
-0.751191
0.908067
0.0114523
-0.0636512
0.108624
0.155059
0.148203
1.1405
-0.374149
0.0154774
-0.0918282
0.64093
-0.90907
0.0214468
-0.0214468
0.0207746
-0.0207746
-0.0296006
0.0296006
0.037434
0.367657
0.45937
-0.0685147
-0.705014
0.472699
0.186468
0.0288639
-0.0828486
-0.486914
0.796528
0.111536
-0.79583
-1.09737
-0.119899
0.127225
0.0197692
-0.00372943
-0.0265025
0.0265025
0.271377
-0.0245735
0.0245735
0.699951
0.0956826
-0.0278627
-0.011705
0.00650998
-0.0668781
-0.022191
0.022191
-0.0208895
0.0208895
-0.0225332
0.0225332
-0.0182477
0.0182477
0.123764
-0.298778
-0.0806425
0.218039
-0.016367
0.016367
-0.377305
0.506172
-0.128866
0.494661
-0.218203
-0.357248
-0.287412
0.560945
-0.0992417
0.0752645
0.564459
0.567772
-0.00680554
0.00680554
0.210314
0.0251047
-0.0251047
-0.0141515
0.0141515
0.748327
-0.979388
0.0350542
-0.302841
0.423103
0.00266479
-0.00266479
0.0253735
-0.0253735
0.0185718
-0.0185718
0.0229162
-0.0229162
-0.0237489
0.0237489
0.0355895
-0.0355895
0.489423
-0.0322517
0.0322517
-0.00170445
0.00170445
0.0243729
-0.0243729
-0.0113173
0.0113173
0.00889471
-0.00889471
-0.0795353
-0.0259836
0.0259836
0.0738728
0.00122972
-0.0399813
0.0399813
0.0106217
-0.0106217
0.0280217
-0.0280217
0.0339736
-0.0339736
0.0253112
-0.0253112
0.00362298
-0.00362298
-0.00443646
0.00443646
-0.498466
-0.125218
-0.0182169
0.0182169
-0.000823679
0.000823679
-0.0386095
0.0386095
-0.0275443
0.0275443
0.000935597
-0.000935597
-0.419845
0.657552
0.258355
-0.0323809
0.0323809
-0.0503041
-0.0269961
0.0269961
-9.03972e-05
9.03972e-05
0.0367488
-0.0367488
-0.155963
0.178677
0.00656131
-0.00656131
-0.0226038
0.0226038
-0.491776
0.0436372
-0.621554
-0.0308893
0.0308893
-0.441235
0.0333016
0.0187673
-0.028652
-1.09728
-0.0370195
0.0370195
-0.202292
0.144003
-0.0403435
0.000379632
-0.000379632
-0.00174549
0.0493888
0.26998
-0.325463
-0.282328
0.607791
0.190453
-0.00889983
0.00889983
-0.26441
0.426405
-0.161995
0.763727
-0.396232
-0.367495
-0.46777
-0.658974
-0.154612
0.409632
-0.445787
-0.419094
-0.570965
0.021326
0.190739
-1.26908
0.0162414
-0.0162414
0.000522884
-0.000522884
0.0311299
-0.0311299
0.0258018
-0.0258018
0.000465262
-0.000465262
0.000428301
-0.000428301
-0.0441429
-0.326969
0.169559
-0.291982
-0.000164709
0.000164709
-0.0442672
0.0442672
-0.0405818
0.0405818
0.216246
0.0677715
-0.284018
0.00250866
0.314788
-0.545366
-0.000355947
0.000355947
-0.0196388
0.0196388
-0.095836
0.0563113
-0.210923
0.000381661
-0.000381661
0.10774
0.0126023
0.982052
-0.490292
-0.0822181
0.57251
-0.626992
0.119848
-0.628448
-0.0380241
0.0380241
-0.678592
0.274639
0.0495813
-0.0495813
-0.651333
0.390624
0.259089
0.119032
0.000740483
-0.000740483
-0.841252
0.000691327
-0.000691327
0.318293
0.408534
0.0878292
-0.0534828
0.0534828
6.68324e-05
-6.68324e-05
-0.0425718
0.0425718
-0.0529721
0.0529721
0.00112567
-0.00112567
-0.0585527
0.0585527
0.00122262
-0.00122262
-0.0458368
0.0458368
-0.00457887
-0.0445278
0.0445278
0.00183831
-0.00183831
0.0482964
-0.0482964
0.00052625
-0.00052625
0.0468382
-0.0468382
-0.152395
-0.0017127
0.0017127
-0.00406167
0.00406167
-0.0432609
0.0817682
-0.0105504
0.0105504
0.0055149
-0.0055149
-0.0591754
0.0591754
0.295419
-0.0186407
0.0186407
-0.0563297
0.0563297
-0.00780477
0.00780477
-0.0668822
0.0668822
-0.0132991
0.0132991
-0.0798468
0.0798468
-0.0218089
0.0218089
-0.0927643
0.0927643
-0.678304
0.191047
-0.534679
0.513567
-0.89751
-0.110515
-0.56027
0.389286
0.0652654
0.0935049
0.00373888
-0.00373888
0.385702
-0.721694
0.044334
-0.0332239
-0.858511
1.32073
1.22654
0.250802
-0.0652307
-0.021956
-0.389746
-0.586127
-0.0745581
0.39823
-1.321
-0.0210686
0.0210686
-0.737111
0.0194752
-0.0194752
-0.00286376
0.00286376
0.312577
-0.350838
-0.00206057
0.00206057
0.0188012
0.0143143
0.593471
0.122238
-0.00418327
-0.00981238
-0.010697
-0.100917
0.501556
-0.400639
0.267567
0.0129565
0.00517273
1.06638
-0.028412
0.0509227
-0.413733
0.448917
-0.495952
-0.988698
-0.226624
-0.0726341
0.0183171
-0.31703
-0.058716
0.0734701
-0.00482716
-0.0234788
0.786886
-0.556315
-0.0391483
0.0624282
-0.0366698
0.0239337
0.188257
0.415982
0.236051
-0.162448
0.209733
0.00971874
-0.000161058
-1.25948
0.0388933
-0.157031
-0.261143
-0.0187737
-1.36129
-0.0721458
0.266798
-0.354757
0.399695
0.254619
-1.04014
0.0443328
-0.0410724
-0.122955
-0.346297
0.460811
-0.105024
-0.0385769
0.143601
-0.0275257
0.0275257
0.183701
-0.432836
-0.130536
0.15661
-0.0809076
0.0558506
-0.0634326
-0.0058704
0.069303
-0.0236289
-0.152559
0.143593
-0.109975
-0.284903
-0.357109
0.642012
0.0151322
0.0600454
0.149806
-0.0307283
-0.146807
0.0700229
-0.157753
0.312067
-0.0114253
0.025817
-0.0245162
0.174323
0.00221244
0.261731
0.00190013
-0.00190013
-0.0371414
0.77528
0.0903081
-0.17262
-0.0658947
-0.0241081
0.48361
0.777565
-0.00707445
-0.0392853
-0.536658
0.00197834
0.115977
0.0941605
-0.686043
0.322113
-0.0564363
0.379492
-0.664395
0.218438
0.499225
-0.0888671
0.0888671
-8.18324e-06
-1.09277
0.602406
0.490361
-0.213824
0.158087
0.0386516
-0.109375
-0.673
-0.146542
-0.0595388
0.0767384
0.928603
0.263536
-0.097315
-0.069821
-0.256827
-0.732123
-0.0774496
-0.262759
0.785623
0.580115
-0.265327
-0.261379
0.544186
0.0232235
0.401623
-0.270428
0.107643
-0.458968
0.330102
0.121628
-0.121628
0.146096
-0.152869
0.00677232
0.0109315
-0.00369427
0.0178807
-0.32589
-0.353092
0.222944
-0.183426
-0.0395172
0.543628
-1.09147
0.00443551
-1.02303
0.697975
-0.116665
-0.175316
-0.037275
-0.0791947
-0.487278
0.0497376
-0.288755
0.00632576
-0.0187737
0.380896
-0.00520904
-0.00157885
0.0018807
0.0124584
-0.012916
0.00045761
-0.100823
-0.0164061
-0.167184
0.18359
-0.120609
-0.33836
0.0188012
0.349759
0.00260449
-0.379871
0.0879506
0.00257154
0.177195
-0.24571
-0.0124912
0.0124912
-0.00115702
0.00448398
-0.00920454
0.00221554
-0.104472
0.000725239
-0.00121569
0.250003
0.0553463
-0.000305424
0.000305424
0.13253
0.516633
0.00267259
-0.283705
0.468123
1.14374
-0.466905
0.337363
-0.446214
-0.295191
0.164655
0.23113
-0.224854
-0.0267133
0.0166423
-0.00383058
-0.00389234
-0.17846
-0.371231
0.843929
0.499291
-0.543434
0.228671
-0.00161595
0.243654
-0.0221976
0.00162261
0.000648016
0.0159943
0.181288
0.00137176
-0.000312457
0.720031
-0.650008
-0.24715
0.135692
0.954617
0.000733282
0.00212485
-0.0403435
-0.00557807
0.819108
-0.436604
0.518774
-0.735554
0.897583
-0.730802
0.570917
-0.181631
0.691291
0.00241751
0.00316817
0.016601
-0.120259
0.138946
-0.241187
0.00894206
0.0031539
0.0657754
-0.0512844
-0.014491
0.00233852
0.0633934
0.0207246
-0.084118
-0.0885103
0.00197834
0.000372258
0.00153289
0.475548
-0.434625
-0.00838293
0.000579652
0.882675
-0.280269
0.382918
-0.00588969
0.000143254
0.265371
-0.0430331
-0.0426135
-0.111132
-0.0161649
-0.00356227
0.123641
0.0819218
-0.00197158
0.408469
0.0015727
-0.00297496
0.00297496
0.0069502
-0.0167626
0.000300553
-0.325185
-0.00377686
0.0732027
-0.105478
0.141945
0.0628116
-0.0651213
0.000520656
0.00234897
0.463552
0.000275221
-0.00798225
-0.0745661
-0.00198994
0.000964528
0.0694586
0.23199
-0.71363
0.467446
-0.838677
-0.00240471
-0.000314829
-0.715958
0.125079
0.094979
0.58117
-0.014948
0.0117868
-0.00390152
-0.00128492
-0.557071
-0.00326501
9.69456e-05
-0.0542992
0.917089
-0.518947
-0.00245959
-0.000696364
-0.00569259
-0.00223894
0.0668657
-0.0219407
0.0219407
-0.0574595
0.0619434
-0.00228987
-0.0077068
0.0575728
-0.0591516
-0.166219
0.0944613
-0.00549436
-0.0129646
0.0411556
-0.0167835
0.0629349
-0.0446178
-0.62932
0.578098
0.0416661
-0.00177603
0.319096
-0.157143
-0.06913
-0.673407
-0.0739448
-0.116245
-0.094854
0.092864
0.687351
0.000963634
0.023594
-0.0214691
0.337026
0.0598936
-0.142533
0.0826395