/*--------------------------------*- C++ -*----------------------------------*\
| =========                 |                                                 |
| \\      /  F ield         | OpenFOAM: The Open Source CFD Toolbox           |
|  \\    /   O peration     | Version:  2306                                  |
|   \\  /    A nd           | Website:  www.openfoam.com                      |
|    \\/     M anipulation  |                                                 |
\*---------------------------------------------------------------------------*/
FoamFile
{
    version     2.0;
    format      ascii;
    arch        "LSB;label=32;scalar=64";
    class       surfaceScalarField;
    location    "33.7";
    object      phi;
}
// * * * * * * * * * * * * * * * * * * * * * * * * * * * * * * * * * * * * * //

dimensions      [0 3 -1 0 0 0 0];

oriented        oriented;

internalField   nonuniform List<scalar> 
3181
(
-1.059
0.414184
0.644818
-0.399117
0.37557
0.0235474
0.53627
-0.368272
-0.167998
0.126582
-0.20838
0.0817989
-0.00643873
0.00588937
0.000549358
0.838652
0.950588
-1.78924
0.153264
-0.146729
-0.00653438
0.0394518
0.00488779
-0.0443396
0.589962
-0.786746
0.196784
-0.0745661
0.142138
-0.067572
-0.0103102
-0.0495284
0.0598385
0.127422
0.0499437
-0.177366
-0.00973558
-0.0324477
0.0421833
-1.10375
0.149373
0.954379
-0.336205
0.716527
-0.380321
-1.12085
0.635112
0.485736
0.0851731
-0.930946
0.845773
-0.143271
0.0918642
0.0514069
-0.749423
-0.220053
0.0200735
0.0149102
-0.0349837
0.0292108
-0.0812147
0.0520039
-0.046567
0.0484851
-0.0019181
1.07085
-1.0435
-0.0273471
0.0292396
0.0353672
-0.0646069
-0.957857
0.32417
0.633687
-0.110409
0.236991
0.310581
-0.239376
-0.0712042
0.0306627
0.064413
-0.0950756
-0.402199
0.330309
0.0718892
-0.0329031
-0.0282435
0.0256085
0.00263493
-0.0341114
-0.923746
-0.00558201
-0.0396803
0.0452623
0.107623
1.43586
-1.54349
-0.0505336
0.0530448
-0.00251127
0.177695
0.268062
-0.445757
1.54935
-1.44173
0.0689851
-0.0397743
1.47485
-0.796965
-0.677889
-0.648269
1.48692
-0.0744721
0.0647365
-0.0386901
-0.00787694
-0.420303
0.0840973
-0.108789
0.0700992
-0.624828
0.130167
0.494661
-0.154232
0.0796658
-0.173672
0.178112
-0.00443932
-0.27834
-0.0784465
0.356787
0.388305
0.977365
-1.36567
0.0236356
0.0536421
-0.0772778
-0.00816996
-0.0974308
0.10333
-0.00589921
0.528104
0.188423
-0.0965849
0.134604
-0.0380188
0.0938791
-0.0994611
-0.176479
0.203723
-0.0272441
0.168252
0.0580111
-0.226263
0.11267
-0.118777
0.00610741
1.15262
0.322234
-0.865992
-0.19301
-0.108676
-1.70059
1.80927
0.542804
0.224668
-0.767472
-0.43884
-0.199043
0.637883
-1.56931
0.92104
-0.263621
0.806425
-0.332235
-0.104486
0.436721
-0.203899
-0.1983
-0.194827
0.164139
0.0306879
0.12375
0.288665
-0.412415
-0.20968
0.799642
-0.0203285
0.0597803
-2.16869
2.06001
0.195706
0.114875
-0.185446
-0.112484
0.29793
-0.270625
0.35023
-0.0796049
-0.0843074
0.0924573
-0.00814988
-1.78038
-0.919599
0.00920159
0.910398
-0.0516658
0.00113225
-1.06367
0.759677
0.30399
0.238118
-0.150201
-0.0879166
-1.38671
-0.182599
1.10208
-0.952707
-0.702461
1.15522
-0.200845
1.06797
0.161467
-0.176257
0.0147898
1.30187
-0.351283
1.68986
-1.68986
-0.00749298
-0.00162405
0.00911704
-0.21946
-0.0535278
0.272987
0.0155691
-0.0225302
0.00696113
-0.452704
0.843279
-0.390575
-0.0109746
-0.246396
0.25737
-1.08773
0.0442328
0.337367
0.0566382
-0.394005
0.137153
-0.846197
1.07086
0.0127804
0.0212866
-0.034067
-0.017531
-0.158948
-0.179594
-0.0498597
0.229454
-0.076641
-0.102953
0.114756
-0.960953
0.335295
-0.787999
0.925721
-0.840548
0.0465311
0.0350248
-0.0815559
0.0788837
0.050761
-0.129645
-1.39725
-0.114466
1.51172
-0.253766
0.419612
-0.165846
-0.896405
0.735013
0.161391
-0.456729
-0.606938
0.0429147
-0.0192791
-0.157498
0.151719
0.00577896
-0.076726
-0.0107271
0.0874531
-0.56682
-0.219926
-0.0762404
0.0262518
0.0499886
-1.51427
0.0716387
1.44263
1.51369
-0.536324
-0.0182038
0.0107108
0.0463147
0.149391
-0.195749
0.373444
0.029799
0.0623339
-0.0921328
0.134748
0.066774
-0.201522
0.169249
-0.0393682
-0.129881
-0.595986
-0.524863
-1.00156
-0.512704
-0.00774156
0.020522
-0.110812
0.189589
-0.0787773
0.0259782
0.0255965
0.127667
-0.0576687
0.0742753
-0.0166066
-0.0991174
-0.0230321
0.122149
0.0770942
-0.0770942
-0.19001
0.215606
0.161477
0.0834411
0.108233
0.0954904
-1.29388
1.0842
-1.48304
0.086258
1.39678
0.0346926
-0.0313229
-0.00336974
-0.0260291
-0.0500508
0.0760799
0.549812
-0.0222636
-0.527549
-0.0285199
0.028674
-0.000154137
-0.205733
0.0157236
0.159868
0.683411
-0.372923
0.532791
-0.147634
-1.24962
-0.00942708
0.00298835
0.497019
-0.312484
-0.184536
0.00776073
-0.0055345
-0.00222623
0.049138
-0.327478
0.023865
-0.943464
0.0501879
-0.161
-0.295855
-0.410682
0.064882
1.34744
-0.906785
-0.440652
1.04599
0.301449
0.0681775
0.288609
0.0320403
0.0026523
-0.12344
0.146448
-0.0230077
-0.257726
-0.580167
0.837892
-0.36625
0.552448
-0.0661264
-0.153927
0.156662
0.0364531
-0.0436074
0.00715434
-2.20767
0.184833
2.02284
-0.14727
-2.0604
-0.302867
0.640235
-0.907081
-0.0187913
0.00360258
-0.261358
0.257755
1.38988
-1.51318
0.123305
-0.0187234
0.00929636
0.564243
-0.821969
0.0465403
-0.23063
0.18409
-0.29125
-0.113737
0.404986
0.193115
-1.01099
-0.0767395
0.0181914
-0.0531751
-0.544851
0.345809
-0.241523
0.0185213
0.223001
-0.0265019
0.00777848
0.0293076
-0.0293076
-0.115895
0.126878
-0.0109829
-0.25642
-1.22662
0.0539441
0.0180387
-0.0719828
-0.0962524
0.0550587
0.0411937
-0.217461
0.0226337
1.33061
-0.383496
-0.947117
-0.199874
0.458682
-0.258808
0.0153602
-0.0151032
-0.000256989
-0.0398931
-0.856511
-0.182847
-0.00439966
0.187247
-0.180063
0.303813
-0.0987335
0.0970661
0.00166734
0.0748707
0.0157188
-0.0905895
-0.10993
0.11009
-0.00016021
-1.31005
0.99719
0.312861
-0.224875
-0.0523009
0.277176
-0.700544
0.661987
0.0385565
-0.00690455
0.0422718
-0.00476168
0.00525264
-0.000490969
-0.0179296
-0.0466773
1.11029
0.403403
0.176345
-0.880673
0.704328
0.0502532
1.88342
-1.93368
0.392534
0.666704
1.02316
0.0578777
0.199475
-0.0647278
-0.0694512
-0.0279796
0.244402
0.152233
-0.073349
0.737232
-0.413062
0.0619898
0.210997
0.0451084
-0.159671
0.114563
-0.795401
-0.139622
0.935023
-0.0236096
0.0236096
0.00685074
-0.265166
0.533229
0.0129696
-0.237845
0.0293317
0.0625325
-0.000866517
-0.00687504
0.131774
-0.142084
-0.346324
0.33535
0.0248965
0.0716048
-0.0965012
0.394463
-0.34452
1.01281
-0.909955
-0.102854
-0.212006
0.280184
0.18991
-0.502394
-0.208553
0.622737
0.170223
-0.0346696
0.0346696
-0.208284
0.235632
-0.0273487
0.393931
0.0256809
-0.0307198
0.0334061
-0.00268624
-0.0559911
-0.0608664
-0.0153739
-0.0485298
0.180304
-0.176051
0.236284
-0.0602327
0.124375
0.0278573
-0.396189
0.156812
0.185348
-0.0609728
-0.044696
-0.0540374
-0.0436193
0.053431
-0.00981176
0.151939
-0.107728
-0.0442105
-0.00910786
0.387345
-0.378237
-0.0791176
0.0587891
0.101567
-0.105803
0.0042362
0.0234239
0.483312
0.529497
-0.074538
0.000282562
0.0742554
-0.0585977
0.0211136
0.0374842
-0.0880379
0.0982603
-0.720536
0.622276
-0.020528
-1.53016
-0.439806
1.96996
0.00912297
1.56907
-1.57819
0.0854255
-0.247097
0.207728
0.269896
0.248951
-0.518847
-0.205167
0.250276
0.14667
-0.899248
0.752578
0.00189481
-0.0604925
-0.00268702
0.0208784
-0.995601
0.44603
0.549572
0.906785
-0.792028
-1.70315
1.58869
-1.38988
1.47613
0.0413465
-0.0793653
0.000506503
-0.00526818
0.016161
0.81501
-0.668341
0.126526
-0.0763377
0.417731
0.737492
-0.0310787
-1.62328
1.67354
-0.694495
-0.599387
-0.239535
-0.385293
-0.0143811
-0.170212
0.21935
-0.57787
-0.384235
0.18436
0.789755
-0.239943
-0.896204
-0.806948
0.740587
0.102614
-0.100719
0.292836
0.0394215
-0.0394215
0.671424
0.147919
-0.819344
-0.224501
0.895925
0.850076
-0.940686
0.09061
0.0819037
0.00153735
0.00729224
0.00563722
-0.0129295
-1.70059
-0.848612
0.312288
0.98413
0.346483
-0.0355653
-0.138107
-0.246326
0.77443
-0.19314
-0.0483827
-0.00320925
-0.0810982
-0.0508798
0.101641
0.371873
-0.241706
-0.842129
-0.279733
-0.106192
-0.000415575
0.106607
-1.16576
1.83247
-0.129367
0.123409
0.0059579
0.041375
-0.0093347
-0.0897265
0.057541
0.0321855
0.00933328
0.427387
0.00938031
-0.00161958
-0.00249033
-0.00469003
0.00718036
-0.0166556
-0.166192
-0.715612
0.364808
0.350805
0.858027
-1.58554
0.727517
0.135404
-0.156289
0.0208847
0.0019842
0.0409305
-0.048288
-1.64157
-0.0758641
-0.0138624
-0.0215413
0.0022622
0.142809
-0.338558
-0.956889
1.14057
-0.18368
0.0224198
0.0954986
0.05644
-0.795401
-0.485853
-0.824197
0.0902923
-0.0327513
0.0431443
-0.638142
-0.0624013
0.059902
0.125446
0.957297
0.051993
-0.464408
0.126153
0.342354
-0.285715
-0.122458
0.0233403
0.224411
0.834145
-1.05856
0.103122
-0.721496
0.618374
-0.963585
0.823964
-1.79297
0.00412578
1.78884
-0.0150166
0.0154368
-0.000420251
0.163486
-0.454735
0.209218
-0.123233
-0.0859856
0.0507978
-0.0296842
-0.0189058
-0.0872859
0.00569796
0.0170354
-0.034965
0.0213387
0.0720809
-0.0934196
0.859199
0.00435305
-0.00491695
0.0005639
0.0725351
-0.013746
0.859524
0.00240142
0.00689494
-0.388431
-0.460181
0.0310163
0.0508874
0.00795296
0.0875457
-1.78884
1.64157
0.151723
-0.115465
-0.036258
-0.246842
0.0705852
0.11914
-0.10435
-0.00154263
0.0939999
-0.0236321
-0.510429
-0.446459
-0.0384652
0.0598039
0.739316
-0.25358
-0.0930857
-0.00316667
0.335015
-0.000499112
-0.0302207
-0.00797569
0.0850699
0.148551
0.201679
0.155419
-0.32436
0.168942
0.113414
0.569997
-0.0454704
-0.108761
0.945766
-0.259915
-0.685852
-1.79297
-0.277362
1.13539
1.54935
-0.102278
0.280365
-0.178087
0.372064
-0.075342
-0.296721
-0.0682079
-1.3185
-0.0693157
0.0698613
-0.000545654
0.0336585
-0.160608
0.12695
0.469064
-0.976756
0.507692
0.0415321
0.656162
-0.697694
-0.0453944
-0.112104
-0.0211991
-0.0533388
0.190577
-0.398861
-0.0134226
-0.00159398
0.0291427
0.0230758
-0.0522185
0.0151279
-0.138568
0.00695623
0.0344188
-0.0786126
0.113637
0.0047181
0.000534541
0.192294
-0.43869
-0.00880937
1.57788
0.0139603
0.00964935
-0.993314
-0.0176808
0.127542
-0.0749619
-0.0474958
-0.0929502
0.13949
0.582794
-0.733865
0.151071
0.0515578
-0.0205415
-0.936349
-0.0163578
-0.018711
-0.648584
0.746845
-0.0184249
0.188648
-0.474138
-0.466548
0.182373
-0.451455
0.269083
-0.0556475
0.117981
0.0081458
-0.00855971
0.000413907
-0.036123
-0.0738072
-0.0217873
-0.137161
0.750982
-0.64786
-0.0816917
0.0529319
-0.114239
0.305505
-0.150086
0.128715
1.24316
-0.312428
-0.930736
-0.11804
0.136561
-0.503662
-0.21195
-0.563953
0.625443
-0.606458
-0.0189856
-0.0741133
-0.00757836
-1.62328
0.534797
-0.534797
-1.78842
1.78842
0.81501
0.139973
-0.358225
0.218253
-0.899614
-0.0937005
0.621614
-0.35877
-0.262844
0.169769
-0.248547
-0.0129006
-0.00530322
-0.881944
-0.0790096
-0.933031
0.212495
0.0430933
-0.0435089
0.697513
-0.113747
-0.583765
1.08679
0.462568
-0.00149258
0.00963838
-0.963696
-0.00114816
-0.908807
-0.0898977
-0.589232
0.679129
-0.0551685
-0.83855
-0.674632
0.216649
-0.812635
-0.935023
1.38091
-0.445882
-0.141038
0.285133
-0.144095
-0.0215535
0.719066
-0.103403
-1.01884
1.01884
-1.88182
1.31857
0.563245
-0.00152452
0.00587757
0.0697644
-0.432565
0.820528
-0.0608513
-0.082182
-0.0362123
0.0627233
0.00747341
0.00788675
2.06921
-2.06508
-0.334092
0.408962
-0.630213
0.997094
-0.366881
-0.011361
-0.0645031
0.121218
-0.0544437
0.362065
0.00501806
-0.0374657
0.35235
0.0349953
0.0423493
-0.243211
0.200862
0.14302
0.0350913
0.0951885
0.177753
1.96034
0.0996734
0.542244
0.530666
-1.07291
-1.48831
1.67314
0.247061
-0.176962
0.0776932
-0.767424
0.689731
0.682217
0.137688
-0.484013
-0.0745544
0.137659
-0.063105
0.138067
-0.212622
-0.44132
-0.103531
-0.0695523
0.0725231
-0.00297077
0.0017069
0.0030112
-0.0640167
-0.0354444
0.668341
-0.618374
-0.0499665
-0.297942
0.310912
0.875677
0.633691
-0.261628
-0.0175998
0.0356385
-0.259806
0.0291759
0.177832
-0.590859
0.413027
-0.00806082
-0.000498889
0.212377
-0.0514169
-0.16096
0.00906991
-0.0146106
0.00554068
-0.0251283
0.0178212
0.00730711
-1.23717
0.885888
-0.159467
-1.37069
-0.192369
-0.792028
1.47613
1.58869
-0.19778
-0.177384
0.125083
-0.0615402
0.0670563
-0.00551602
-0.153793
1.09235
-0.938552
0.539377
0.0822372
0.000723592
-0.00878441
0.118612
0.139006
0.0362123
-0.0432426
0.00477743
-0.314738
0.0549314
0.000796298
-0.00166281
-0.236454
0.630917
1.04599
-0.0565197
-0.0633164
0.00148558
0.0618308
1.94789
-0.359206
-0.0627682
-0.0560088
-0.953244
0.161215
0.406965
-0.213851
-0.473742
-0.125273
0.599014
0.809897
-0.358497
-0.451399
0.0128723
0.569922
-1.67354
-0.0270545
0.00626707
-0.00340688
-0.00286019
0.0759875
1.80744
-0.175118
0.18241
0.105751
2.06309
-0.586955
-0.682536
0.0591133
0.623423
0.375068
-0.00101929
-0.344196
0.543429
0.82265
0.0895682
0.0784732
-0.0220332
-0.838064
-0.111995
0.950059
1.06012
-0.00355426
0.00106393
-0.0481965
-0.355362
0.10029
-0.305457
0.871326
0.371838
-0.0651575
-0.00895583
0.272598
-0.374876
-0.0240996
0.0171951
0.113693
-0.151542
0.037849
-0.305801
0.320523
-0.0147215
0.422809
-0.735237
-0.882706
0.447959
0.434747
0.107472
-0.151181
0.0437085
0.265091
0.0404136
-0.660148
0.174295
-0.654093
0.654093
1.80927
1.08679
-0.721496
0.33451
0.48814
-0.215336
0.187987
0.907072
-0.367695
0.00663747
-0.868299
0.861662
0.138067
0.00407121
0.0261075
-0.853805
0.193657
0.0629902
-0.169041
-0.124665
0.293706
0.0162964
-0.522859
0.353818
-1.05339
-0.282113
-0.647456
-0.0397973
-0.00539968
0.000482729
-0.22407
0.0473225
0.0592848
0.0350545
-0.141091
0.106036
-1.43806
-0.443752
-0.00587179
0.0702848
-0.287682
0.596898
-0.309216
-0.577803
0.393267
-0.110206
0.181811
0.238609
0.00895982
-0.0116468
-0.698156
0.31466
0.0333788
0.0681878
-0.133297
0.0190581
0.199988
0.0092305
-0.418447
1.97455
0.439807
-0.323139
0.867458
-0.789765
0.774558
-0.439543
-0.601805
0.169241
0.151354
-0.791151
0.761159
0.0299918
1.23792
-0.366597
-0.204222
-0.12987
-0.0107308
-0.0117994
0.952839
-0.838197
-0.114642
-0.177228
0.103879
0.0282218
0.123498
0.8761
0.263637
-0.781141
0.517504
-0.330094
-0.0541402
0.65501
-0.942692
0.141657
1.37006
1.11543
-0.0286392
0.171924
0.554702
-0.726626
0.0686253
0.0488863
0.00452442
0.0044354
-0.505603
-0.0962016
0.0194966
-0.0459986
-0.182293
0.133763
-0.542749
0.283941
-0.991925
-0.512019
-0.285793
-0.536679
1.44091
-0.0441313
-0.281878
-0.345248
0.0305108
0.0194359
0.293329
0.0590206
1.33509
-0.866021
-0.184626
0.123653
-0.0969557
-0.301226
0.398182
0.0064522
-0.000185132
0.0475378
-0.0605782
-0.245223
-0.125241
0.697556
-0.41645
-0.281106
0.0471203
0.138432
-0.0995844
-0.0388474
0.240425
0.0529038
0.0884499
-1.66664
-0.0938677
0.137012
0.637978
-0.374341
-0.0138549
0.0513391
-0.0193892
0.0223236
-0.00293445
0.000489211
-0.0318121
-0.237434
0.0777623
-0.0032723
-0.567504
0.426465
0.0150195
0.0578579
0.0496144
-0.693914
1.67015
-1.29832
0.0158187
-0.188342
0.172523
-0.137063
-0.542904
0.679967
0.0811194
-0.719262
-0.338966
-0.54374
-0.0363864
0.000127573
0.0362589
-0.25205
-0.625443
-0.169958
-0.147722
-0.838064
-0.225825
0.161097
-0.299642
-1.10331
-0.237778
0.233462
0.00431573
0.269266
0.118376
0.41267
0.250495
-0.663165
0.049459
0.0531548
1.08
0.275017
-1.35502
-0.224208
0.271885
1.40126
-0.236454
0.176221
-0.704835
0.976719
-0.0479444
-0.00191531
-0.0177782
0.0339392
-0.0268569
0.968813
-1.29195
0.720728
0.0891688
-1.0135
0.503067
0.247687
0.659385
0.933986
0.0117803
-0.0160584
-1.11543
-0.647456
-0.713106
0.722308
-0.0754391
-0.896204
0.656162
0.613919
-0.931898
0.544114
-0.00791972
-0.783231
-0.313767
0.636756
-0.776852
0.140096
0.0830699
0.0553619
0.0484895
0.184555
1.58913
-1.77369
-0.00515226
-0.000247422
-0.258061
0.209678
0.717875
0.227727
-0.212003
-0.185359
1.70923
-1.63759
0.0326726
0.18558
0.301129
0.271553
-0.572682
-1.38262
1.27062
-0.254389
0.851287
0.0918564
1.13461
-0.950059
-0.0021563
0.212617
-0.0457034
0.0880724
0.0394698
0.00552581
-0.0394025
0.0338766
-1.02194
-0.036616
0.320782
-0.805291
-1.17034
1.40525
-0.234908
0.36877
0.628324
-0.0514189
0.0550469
-0.00362798
-0.127322
1.83655
-0.717738
1.72814
0.274172
-1.44452
0.30743
-0.0948127
-0.585107
-0.406818
-1.2286
1.52973
-0.0608095
-0.876219
-1.7646
-0.169072
1.13461
0.0493908
-0.854682
0.830735
-0.645253
-0.185482
-0.981836
0.396729
0.0144296
0.117107
-0.000491445
-0.116615
-0.971547
0.564729
-0.220771
0.911391
-0.927749
0.188012
-0.204668
-0.0934112
0.23622
-0.0376628
0.29937
-0.0306685
-1.45588
0.525145
1.21861
-1.12904
-0.553183
-0.518017
1.0712
0.446817
0.0165125
-0.0108753
-0.73431
0.697694
1.09784
-1.22516
-1.02316
0.675224
0.347933
1.4643
-0.0590522
0.778715
-0.811618
-0.493413
-0.450052
-0.471399
-0.500147
0.803478
-0.803478
0.684919
-0.684919
-0.73431
-0.492625
0.492625
-0.675224
-0.795533
-0.765656
0.448096
-1.03429
1.03429
1.09784
-1.22516
0.778715
0.767385
-0.767385
0.811618
0.758958
-0.758958
0.506587
0.528601
0.481983
0.0635498
-0.499853
-0.549948
1.07855
-1.42217
-1.93503
0.706431
-0.442821
0.188432
0.0905492
0.00357929
-0.00117787
-0.886702
0.0970335
0.789669
-0.0868352
0.0724541
-0.996885
0.583824
0.938261
-0.603751
-0.126085
0.0120671
-0.0123544
-0.800852
-0.0798206
-0.549572
0.00324888
0.0176295
0.513777
-0.115697
0.0829459
0.174459
-0.00664642
-0.00669877
0.0133452
-0.810781
0.0669231
0.743858
-0.0342261
-0.00343664
-0.534993
0.408158
0.126834
0.917255
-0.741062
-0.176193
0.081373
0.292071
-0.0136029
-0.0559495
-0.0545328
-0.0147829
0.85503
-2.02079
-0.832239
0.0997512
-0.739245
0.79655
-0.057305
0.123078
-0.899826
0.776749
-0.802575
0.905778
-0.103203
-0.058569
0.0590582
0.0202102
-0.281568
0.289118
1.24061
-0.0970748
-0.789628
0.917217
-0.0929437
-0.824273
0.0868425
-0.0982035
-0.477047
0.820181
-1.50012
0.456412
-0.374175
0.104322
-0.89395
1.44173
0.346694
-0.789701
0.00646955
1.01784
-0.894764
1.22586
0.0027598
0.69549
-0.69825
-0.877864
-0.119022
-0.405012
0.0267752
-0.29318
0.444251
-0.785066
0.785066
-0.598231
-0.0875967
-0.864163
0.123101
-0.929773
0.839875
0.0721662
-0.195399
-0.0591835
0.0632696
0.0110057
0.190029
0.827812
0.818181
0.770849
0.140674
-0.911522
0.330754
-0.142322
-0.781106
-0.109112
0.890218
0.176026
-0.893765
-0.674134
0.888348
-0.784026
-0.109568
0.459796
-0.0306292
-0.429167
0.0393243
0.941933
-0.981257
0.24343
-0.293728
0.0502979
-0.890674
-0.830899
0.0916543
0.51323
0.261328
-1.97663
1.00814
-0.567639
0.567639
-0.89528
-0.560602
-0.621593
0.81525
-0.165379
0.613338
0.779237
-0.208688
0.295443
0.590445
-0.589573
-0.242144
0.831717
-0.146054
-1.43949
-0.0270548
0.333514
-1.08623
0.262036
0.071302
0.299653
-0.21828
0.779974
-0.883177
-0.0895356
-0.0527868
-0.15436
0.738183
0.574273
-0.574273
-0.0657016
0.0563669
0.107099
-0.0720445
0.771174
0.170759
0.0974399
0.00250281
0.00696525
-0.00946805
-0.664761
0.695018
-0.0302564
0.685158
0.0103315
0.1107
-0.894726
-1.02261
1.3248
-0.302187
0.135395
0.87627
-0.135332
0.82049
-0.754053
0.5988
-0.661201
-0.650592
0.14693
-0.579241
0.0277462
0.142639
0.150143
-0.729384
0.00663335
0.153038
0.0737219
0.722828
0.696119
-0.0973198
0.0779868
0.781537
0.658783
-0.0786634
-0.58012
-0.442204
0.537976
0.496184
-0.967965
0.742056
0.225909
-0.685878
-0.126756
1.59274
-0.197166
-0.201695
-0.0412305
0.486214
0.513786
-0.769771
-0.113406
-0.691388
-0.784915
-0.170575
-0.938201
0.400494
0.599506
-0.0895381
0.0757921
-0.862715
-0.0733714
-0.58783
-0.158396
-0.252655
0.411051
-0.0216606
-0.00197147
0.10967
0.0706341
-0.128661
-0.108773
0.757248
-0.640288
0.718275
-0.388418
0.538561
-0.270366
-0.0453543
0.31572
-0.747231
-0.195859
0.94309
-0.247572
0.235858
-0.0248602
-0.0115159
0.0192944
0.0108958
0.696933
-0.129294
0.129052
0.109557
-0.736722
0.0719605
0.386544
-0.576347
-0.343336
0.240482
-0.270983
-0.290336
1.02783
-0.00816381
0.150096
-0.0443449
-0.0124509
0.0025032
-0.0576257
0.0632557
0.323288
-0.0633493
-0.137319
0.200668
0.848903
-0.0313654
-0.00253778
0.0339032
0.125488
-0.0134146
-7.95729e-06
0.222871
-0.109178
-0.141516
-0.0238622
0.626614
-0.689963
0.00870601
0.296759
-0.182673
-0.939834
1.18536
-0.245526
-0.777633
0.838337
-0.0607041
0.88865
0.216753
-0.264697
-0.0650321
0.834429
-0.452046
-0.0829463
0.280597
0.462118
0.195282
-0.6574
0.417067
0.0452656
0.649752
-0.574261
0.556929
0.0173318
1.26838
-1.24894
0.00654898
-0.00681625
0.000267268
0.694543
-0.00913277
-0.0832129
0.0199536
1.20996
0.463944
0.424707
0.0113645
-0.102034
-0.0491473
0.008057
0.0532471
-0.0613041
0.020679
-0.0151532
0.877396
-0.602379
0.108744
0.226725
-0.026459
-0.0958387
0.219136
0.0990277
0.00364663
0.0665816
0.768265
-0.27455
0.0665131
0.208036
0.512654
-0.185816
-0.326838
0.642478
0.122636
-0.012851
0.0152407
-0.00238971
-0.498392
-0.39693
0.154786
0.000187483
0.7404
0.710962
-0.0235718
0.550744
-0.502255
0.818504
0.120244
0.00847118
-0.869846
0.0496207
-0.273666
0.207408
-0.17497
0.689257
0.0790073
0.0130188
0.341617
-0.124864
-0.182846
0.162136
0.0321948
-0.11341
0.422615
-0.0568468
0.776804
-0.074451
0.167956
0.267364
0.245289
-0.156097
-0.0468142
-0.0562499
-0.110479
0.0161009
3.34143e-05
-0.0161343
-1.46282
0.213879
-0.0138936
0.853955
-0.230023
-0.615278
0.63323
-0.017952
0.41925
0.761218
0.229467
0.0862527
0.0778928
-0.171304
0.628654
0.132564
0.970568
0.861898
-0.259953
0.716365
0.731479
-0.408192
-0.60832
0.349812
0.258508
-0.460496
-0.0711914
0.0423392
0.0613538
-0.0459642
1.10849
0.735624
0.0828801
0.615091
0.222802
-0.867513
-0.080747
-0.671601
0.678071
-0.0225458
-0.595178
0.436782
0.87572
0.67392
0.104494
-0.011582
-0.169012
-0.315001
1.16345
0.506702
0.0148522
-0.014507
-0.227884
-0.180308
0.948699
0.493929
-0.0760332
-0.141631
-0.745092
0.932813
-0.18772
-0.4125
-0.19582
0.00432274
-0.177114
-0.168655
0.734904
-0.00626358
0.00157355
0.628199
0.266234
-0.0257523
0.600548
-0.132956
0.244073
0.726812
0.250943
-0.977755
0.27755
-0.922803
0.155347
-1.45366
-0.183298
0.774264
-0.590966
-0.663922
-0.0444182
0.0329023
-0.0545787
-1.56833
0.0268118
-0.046201
0.578522
0.00220011
-0.143785
0.141585
-0.0170708
-0.57787
0.0908856
0.0592106
-1.12731
-0.0105511
0.00390465
0.439559
-0.0533017
-0.586982
0.0127212
0.56663
0.30909
1.04145
0.928518
-0.251425
-0.383688
0.635114
-0.0725664
-0.617996
0.617996
-0.207727
-0.910328
1.11805
0.0296785
-0.147718
0.68776
-0.12113
-0.223985
-0.397514
0.19582
-0.152318
0.882843
0.304714
0.170776
-0.105894
-1.37451
0.484699
0.0722303
0.0520731
0.016912
-1.46813
-0.312376
-0.316374
0.693334
0.306666
-0.312376
0.693334
-0.559476
-0.0998607
-0.559476
-0.696282
0.696282
0.303718
-0.0146095
0.159714
-0.0753568
0.211617
0.0424679
-0.464174
0.641765
-0.0412168
0.663925
-0.504462
-0.159463
-0.0611723
0.0616014
-0.000429084
-0.0166487
0.0191515
0.506072
0.0192897
-0.0288548
-0.435642
-0.346334
0.122264
0.046674
0.83558
-0.280878
-0.262976
0.293486
-0.00498367
-0.0889536
-0.0109424
0.676799
0.0636009
0.456931
0.00783634
-0.000655985
-0.00563703
0.0861248
0.568617
-0.475839
-0.0927784
1.94256
0.544445
-0.266102
0.882001
0.0109955
-0.0610463
0.104013
-0.247228
0.102004
1.09949
-0.372681
0.00724659
-0.0470439
0.666238
-0.0586933
0.0232313
-0.0232313
0.0190669
-0.0190669
0.00328996
-0.00328996
0.0139603
0.365443
0.457078
-0.0379416
-0.732492
0.49255
0.193122
0.0297497
-0.08184
-0.485417
0.78029
0.110824
-0.796702
-0.923232
0.456684
0.0849333
0.0189245
-0.00110326
-0.00980384
0.00980384
0.219688
-0.00993141
0.00993141
0.701056
0.0875632
0.0067382
0.00109814
0.00685556
-0.070172
-0.0232889
0.0232889
0.002044
-0.002044
-0.0214633
0.0214633
-0.0080373
0.0080373
0.0908912
-0.29343
-0.0845555
0.221791
-0.00802044
0.00802044
-0.372797
0.517828
-0.145031
0.511066
-0.225932
-0.36448
0.101504
0.561777
-0.125212
0.0709513
0.562279
0.566601
-0.00583877
0.00583877
0.192234
0.0237923
-0.0237923
-0.00796439
0.00796439
0.74775
-0.648036
0.0343339
-0.0864643
0.0350474
0.00435216
-0.00435216
-0.00225756
0.00225756
0.0177714
-0.0177714
0.024173
-0.024173
-0.0226495
0.0226495
0.0340311
-0.0340311
0.478831
-0.0307903
0.0307903
-0.0043442
0.0043442
0.0232874
-0.0232874
0.00207836
-0.00207836
0.00599291
-0.00599291
0.00882894
-0.024338
0.024338
0.519829
0.0170839
-0.0382673
0.0382673
-0.00158739
0.00158739
-0.00507554
0.00507554
0.0324576
-0.0324576
0.0265057
-0.0265057
0.00431874
-0.00431874
0.00242122
-0.00242122
-0.113398
-0.205281
0.00212194
-0.00212194
-0.00392395
0.00392395
-0.0370039
0.0370039
-0.028785
0.028785
-0.00203108
0.00203108
-0.401824
0.649511
0.266507
-0.0311047
0.0311047
-0.0238169
0.00247032
-0.00247032
-0.00354018
0.00354018
0.0384352
-0.0384352
-0.150044
0.158515
-0.00241069
0.00241069
-0.0240368
0.0240368
-0.505847
0.0458118
-0.0626163
-0.0323277
0.0323277
-0.450889
0.0352863
0.0197606
-0.362448
-0.651048
-0.0356636
0.0356636
-0.194439
0.137593
-0.0420029
-0.00328319
0.00328319
0.00844936
0.0435546
0.26219
-0.325386
-0.288163
0.613548
0.202827
0.0022799
-0.0022799
-0.13439
0.309871
-0.175482
0.782135
-0.405148
-0.376987
-0.451563
-0.662212
0.109886
0.1836
-0.0797713
-0.362433
-0.572983
-0.00664348
0.191276
-0.291673
0.0142894
-0.0142894
-0.00238553
0.00238553
0.0299402
-0.0299402
0.0269543
-0.0269543
0.000347154
-0.000347154
-0.00188664
0.00188664
-0.065359
-0.0848423
0.18189
-0.307975
-0.00105057
0.00105057
-0.046244
0.046244
-0.0391836
0.0391836
0.143998
-0.0341809
-0.109817
-0.00658596
0.323622
-0.553645
0.00166578
-0.00166578
0.00928569
-0.00928569
-0.0883137
0.135776
-0.0258895
-0.00230055
0.00230055
0.0756319
0.0177316
1.01085
-0.483073
-0.0739464
0.557019
-0.635302
0.0537916
-0.346972
-0.0397096
0.0397096
-0.683668
0.283292
0.0482756
-0.0482756
-0.636396
0.373552
0.270083
0.123519
-0.000623791
0.000623791
-0.814665
-0.00110652
0.00110652
0.308855
0.410211
0.00791278
-0.0521988
0.0521988
-0.00247087
0.00247087
-0.0411826
0.0411826
-0.0552728
0.0552728
-0.00167042
0.00167042
-0.0610517
0.0610517
-0.00214907
0.00214907
-0.0444342
0.0444342
-0.00190338
-0.0464422
0.0464422
0.00413291
-0.00413291
0.0469128
-0.0469128
-0.00267389
0.00267389
0.0489875
-0.0489875
-0.0814187
-0.00386999
0.00386999
-0.00495172
0.00495172
-0.0566495
0.0850699
-0.0104924
0.0104924
0.0047401
-0.0047401
-0.0579152
0.0579152
0.292769
-0.0177995
0.0177995
-0.0586108
0.0586108
-0.00731239
0.00731239
-0.0656878
0.0656878
-0.0134209
0.0134209
-0.0787362
0.0787362
-0.0210527
0.0210527
-0.0964598
0.0964598
-0.685309
0.212776
-0.523372
0.50542
-0.83855
-0.0462441
-0.576143
0.401173
-0.0344312
0.0815516
0.00351547
-0.00351547
0.140512
-0.730534
0.040646
-0.023734
-1.00186
1.46442
0.471981
0.25841
-0.0291398
-0.0038181
-0.402585
-0.571386
0.00644345
0.389908
-1.11619
-0.0168861
0.0168861
-0.768303
0.0218945
-0.0218945
0.00239846
-0.00239846
0.314541
-0.359837
-0.00250885
0.00250885
0.0196502
0.0150195
0.596746
0.193904
-0.0191865
-0.0121304
-0.00392807
-0.0904425
0.484926
-0.394484
0.0176472
-0.044702
0.0141483
0.883173
0.0104744
0.0597894
-0.406005
0.432781
-0.479952
-1.02318
-0.226436
-0.0683671
0.0174874
-0.128831
-0.164896
0.0359012
-0.00259669
0.000633701
0.774562
-0.561828
-0.0334684
0.0656632
-0.0343605
0.0564506
0.103263
0.429145
0.232842
-0.168713
0.216669
0.0246181
-0.00889932
-1.15088
-7.80441e-05
0.0041735
-0.147958
-0.0196609
-1.38814
-0.0707867
0.2607
-0.348877
0.383873
0.233017
-0.769696
0.0445712
-0.0573725
-0.0408309
-0.342646
0.46948
-0.0290264
-0.0508507
0.0798771
-0.0262582
0.0262582
0.165154
-0.426782
-0.00200086
0.0570595
-0.0754347
0.0528889
-0.0673408
-0.00722846
0.0745693
-0.039523
-0.150546
0.041964
-0.0644708
-0.29263
-0.36553
0.658159
0.0134551
0.0564062
0.153324
-0.0242718
-0.0329153
0.0624418
-0.151734
0.303088
0.00518907
0.0287141
-0.0315007
0.184825
0.00380533
0.25395
-0.0023316
0.0023316
-0.462036
1.41074
0.0848631
-0.16561
-0.0132495
-0.041919
0.209465
0.611025
-0.0294887
0.000181176
-0.531657
0.00828504
0.137385
0.0839033
-0.666321
0.298626
-0.0573604
0.389625
-0.682255
0.219626
0.52243
-0.0882458
0.0882458
-0.000491446
-0.542979
0.151226
0.391753
-0.206171
0.151593
0.131357
-0.18104
-0.554197
-0.104294
0.00375088
-0.00324438
0.930172
0.232704
-0.12821
-0.0685787
-0.966984
-0.477533
-0.0599823
-0.270814
0.814243
0.589515
-0.265892
-0.279739
0.576498
-0.0541439
0.334509
-0.269704
0.0731977
-0.470636
0.325605
0.126209
-0.126209
0.0863989
-0.0459504
-0.0404485
0.00415642
0.00625088
0.0223236
-0.290904
-0.207489
0.235353
-0.187628
-0.0477256
0.552639
-1.04731
0.305553
-0.765733
0.698998
-0.126762
-0.181213
-0.0461428
-0.0790979
-0.478113
0.042471
-0.28014
0.00189411
-0.0196609
0.371819
-0.00527111
-0.00178558
1.68664e-05
0.0156923
-0.00809075
-0.00760157
-0.108032
-0.0179402
-0.163646
0.181586
-0.134269
-0.336367
0.0196502
0.345069
-0.000819639
-0.365484
0.0796903
0.00232902
0.0341833
-0.0721249
-0.0115525
0.0115525
-0.000805542
-0.000213563
-0.00965011
5.60482e-05
-0.0641001
0.000884097
-0.00118618
0.174359
-0.0348685
-0.00215644
0.00215644
0.0675607
0.520699
7.79345e-05
-0.29571
0.515607
1.11424
-0.476915
0.343844
-0.437481
-0.107404
0.105403
0.238872
-0.237241
-0.0202031
0.0135953
-0.0026995
-0.000985678
-0.182876
-0.387439
0.879989
0.280318
-0.345677
0.144685
-0.00157351
0.121637
0.0137582
-0.000212765
0.00117948
0.0124158
-0.269844
0.0012634
-0.000136191
0.70771
-0.645268
-0.24322
0.136552
0.940709
0.000383769
1.0533e-05
-0.0420029
-0.00582201
0.817504
-0.431217
0.503447
-1.10129
0.906172
-1.03806
0.590974
-0.189801
0.688183
0.000201534
0.00325314
0.0156714
-0.112241
0.140407
-0.188533
0.00959442
-0.00223882
0.0619796
-0.0465709
-0.0154087
0.000130791
0.0417378
-0.027989
-0.0137488
-0.0923555
0.00727969
-0.000314438
0.00197647
0.46653
-0.422932
-0.00421015
-0.000365308
0.778648
-0.627422
0.395564
-0.00572341
0.000897664
0.154584
-0.0458399
-0.0377516
-0.125285
-0.0198206
-0.00352002
0.113242
0.00208807
-0.00133673
0.422261
-2.27549e-05
-0.00313927
0.00313927
-0.00525443
-0.00687592
-0.000703416
-0.322957
-0.00360872
0.0703565
-0.107195
0.474816
0.18025
-0.0656243
-0.000615208
0.00108173
0.475283
-0.000970945
-0.00112516
0.0054479
-0.00199899
-0.00030051
0.0775346
0.0199053
-0.710308
0.487451
-0.87489
-0.0291205
-0.000170327
-0.596682
0.006365
0.064937
0.609175
-0.0155631
0.0594523
-0.0039232
-0.0013628
-0.551104
-0.00325157
-0.000478648
-0.0249834
0.957771
-0.540705
-0.00247865
-0.000524828
-0.0057164
-0.0011961
0.0701181
-0.0229132
0.0229132
0.00336053
-0.00357409
-0.00257229
-0.0077726
-0.00631146
0.00452588
-0.159039
0.0878478
-0.00610851
-0.0130483
0.0449947
-0.0154783
0.0595582