/*--------------------------------*- C++ -*----------------------------------*\
| =========                 |                                                 |
| \\      /  F ield         | OpenFOAM: The Open Source CFD Toolbox           |
|  \\    /   O peration     | Version:  2306                                  |
|   \\  /    A nd           | Website:  www.openfoam.com                      |
|    \\/     M anipulation  |                                                 |
\*---------------------------------------------------------------------------*/
FoamFile
{
    version     2.0;
    format      ascii;
    arch        "LSB;label=32;scalar=64";
    class       surfaceScalarField;
    location    "32.7";
    object      phi;
}
// * * * * * * * * * * * * * * * * * * * * * * * * * * * * * * * * * * * * * //

dimensions      [0 3 -1 0 0 0 0];

oriented        oriented;

internalField   nonuniform List<scalar> 
3181
(
-1.05304
0.410249
0.642791
-0.398677
0.374811
0.023866
0.535002
-0.367565
-0.167437
0.125668
-0.207186
0.0815181
-0.00836932
0.0164426
-0.00807327
0.905911
0.758512
-1.66442
0.153008
-0.146482
-0.0065259
0.0416622
0.00621718
-0.0478794
0.586912
-0.786368
0.199457
-0.0747698
0.141358
-0.0665884
-0.0102725
-0.0497138
0.0599863
0.130382
0.0485395
-0.178921
-0.0158817
-0.0306689
0.0465506
-1.10366
0.149779
0.953884
-0.334761
0.715177
-0.380416
-1.12081
0.635505
0.485307
0.0852874
-0.931174
0.845886
-0.170336
0.145242
0.0250939
-0.478475
-0.444005
0.0173429
0.0186592
-0.0360021
0.0305492
-0.08202
0.0514708
-0.0538917
0.05368
0.000211667
1.07052
-1.04367
-0.0268535
0.0314029
0.034139
-0.0655419
-0.958057
0.325083
0.632974
-0.11022
0.235887
0.30999
-0.240625
-0.0693651
0.0306036
0.0643478
-0.0949514
-0.40346
0.331808
0.0716521
-0.0331401
-0.0260193
0.0242632
0.00175612
-0.0344962
-0.923561
-0.00215955
-0.0402741
0.0424337
0.0970953
1.35781
-1.45491
-0.0498272
0.0524547
-0.00262747
0.177115
0.269914
-0.447028
1.50292
-1.40582
0.0694111
-0.038862
1.48544
-0.791494
-0.693947
-0.546828
1.45274
-0.0702524
0.0543707
-0.047103
-0.00678868
-0.419911
0.0851497
-0.114376
0.0672733
-0.626132
0.129475
0.496658
-0.153359
0.0785895
-0.173441
0.177883
-0.00444126
-0.277327
-0.0784116
0.355739
0.363192
1.05545
-1.41864
0.0234638
0.100804
-0.124268
-0.00867642
-0.0975824
0.103487
-0.00590486
0.525322
0.189855
-0.0963826
0.135633
-0.0392506
0.0957171
-0.0978767
-0.175802
0.20294
-0.0271382
0.167732
0.0584477
-0.22618
0.112436
-0.118537
0.00610062
1.18581
0.299629
-0.861413
-0.191628
-0.0872652
-1.74993
1.83719
0.543784
0.226538
-0.770322
-0.439269
-0.20082
0.640088
-1.58205
1.03522
-0.265794
0.809578
-0.330986
-0.104675
0.435661
-0.204098
-0.199362
-0.193993
0.164595
0.0293983
0.126169
0.287632
-0.413801
-0.221538
0.80845
-0.0241715
0.0658338
-2.21171
2.12444
0.194154
0.115836
-0.184291
-0.112433
0.296724
-0.270307
0.351355
-0.0810482
-0.0839726
0.0921895
-0.00821699
-1.84851
-0.91944
0.00907253
0.910368
-0.0506316
0.000804419
-1.06006
0.767779
0.292282
0.325581
-0.16077
-0.164811
-1.51024
-0.0718061
1.10207
-0.952296
-0.705062
1.15487
-0.200989
1.06758
0.162492
-0.175781
0.0132895
1.08283
-0.324319
1.50142
-1.50142
-0.00755318
-0.00185014
0.00940332
-0.21828
-0.0535901
0.271871
0.0166817
-0.0244418
0.00776013
-0.453677
0.842365
-0.388689
-0.0126806
-0.244428
0.257109
-1.08787
0.0442009
0.339398
0.0558065
-0.395205
0.136325
-0.849642
1.07618
0.0135724
0.0554114
-0.0689838
-0.017607
-0.158195
-0.29491
-0.0263051
0.321216
-0.0869859
-0.207925
0.116388
-0.96603
0.333329
-0.787005
0.925857
-0.840569
0.0466125
0.0432588
-0.0898712
0.0797299
0.0509359
-0.130666
-1.38285
-0.117968
1.50082
-0.252337
0.418165
-0.165828
-1.09616
0.659732
0.436426
-0.459662
-0.600399
0.0583675
-0.0349037
-0.157239
0.151464
0.0057746
-0.0768201
-0.0112869
0.088107
-0.570123
-0.216246
-0.0535145
0.0231616
0.0303528
-1.45987
-0.165397
1.62527
1.61642
-0.560969
-0.0191565
0.0116033
0.0446949
0.149459
-0.196698
0.373813
0.00973521
0.129621
-0.139356
0.135405
0.0669123
-0.202318
0.153197
0.0517274
-0.204924
-0.595791
-0.525021
-1.20823
-0.251638
-0.0213886
0.034961
-0.109848
0.188704
-0.0788551
-0.017139
0.0255204
0.127487
-0.0576317
0.0736051
-0.0159734
-0.0985803
-0.0228007
0.121381
0.0771016
-0.0771016
-0.189457
0.214977
0.238595
0.11054
0.107721
0.0952185
-1.29238
1.07084
-1.51727
0.100824
1.41645
0.0370324
-0.0329026
-0.00412972
-0.0260507
-0.0500733
0.0761241
0.547188
-0.021082
-0.526106
-0.0343132
0.0345395
-0.000226297
-0.205045
0.0155877
0.160977
0.681388
-0.371195
0.532172
-0.137993
-1.24486
-0.0373804
0.0290111
0.495442
-0.310912
-0.18453
0.0142844
-0.010785
-0.00349941
0.049097
-0.326424
0.023972
-0.943412
0.0501335
-0.159982
-0.294511
-0.409398
0.0661092
1.35807
-0.913639
-0.444427
1.05746
0.300608
0.0681376
0.287601
0.0342939
0.00273842
-0.0644215
0.134159
-0.0697379
-0.256495
-0.581361
0.837856
-0.36477
0.604356
-0.0289179
-0.415088
0.161785
0.0349102
-0.0404811
0.00557084
-2.18998
0.219235
1.97075
-0.181894
-2.00809
-0.302436
0.641834
-0.907202
-0.0184821
0.00416169
-0.262369
0.258208
1.41468
-1.53393
0.119258
-0.0292636
-0.00811683
0.565515
-0.82201
0.114434
-0.286063
0.171629
-0.291729
-0.114851
0.40658
0.196695
-1.01117
-0.0766981
0.0157519
-0.051754
-0.546904
0.346084
-0.242158
0.0183985
0.22376
0.00250523
-0.0317688
0.0170634
-0.0170634
-0.116466
0.127553
-0.0110871
-0.276615
-1.24066
0.0388619
0.0219794
-0.0608412
-0.07422
0.0212226
0.0529975
-0.218267
0.0242736
1.38775
-0.421178
-0.966571
-0.198168
0.456903
-0.258735
0.0173871
-0.0170408
-0.000346263
-0.23459
-0.861568
-0.182707
-0.00453948
0.187247
-0.178414
0.304584
-0.099004
0.0973416
0.00166246
0.0751572
0.0129341
-0.0880914
-0.107464
0.103175
0.00428906
-1.19606
1.04898
0.147082
-0.224457
-0.0521453
0.276603
-0.699299
0.662299
0.0370009
-0.00759373
0.0417327
-0.00350873
0.0041698
-0.000661071
-0.0198925
-0.0456494
1.13265
0.483775
0.175507
-0.881758
0.706251
0.0492179
1.95559
-2.0048
0.390767
0.611064
0.890358
0.0588131
0.20019
-0.0647844
-0.0695673
-0.0280151
0.243134
0.153165
-0.0734349
0.737323
-0.41224
0.0618583
0.210012
0.0459712
-0.160692
0.114721
-0.789195
-0.137979
0.927175
-0.0192354
0.0192354
0.00633831
-0.26426
0.534174
0.0127561
-0.237213
0.0891235
0.0561185
-0.000223133
-0.0211655
0.132499
-0.142772
-0.346521
0.33384
0.0220331
0.0742917
-0.0963248
0.393983
-0.345443
0.659315
-0.70027
0.040955
-0.211397
0.279534
0.189642
-0.500554
-0.208194
0.618443
0.16958
-0.0347253
0.0347253
-0.0932075
0.258328
-0.16512
0.392186
0.0259792
-0.0333876
0.0371083
-0.00372072
-0.0688569
-0.0321142
-0.0214003
-0.0486071
0.181106
-0.176794
0.237029
-0.0602345
0.125339
0.0278262
-0.394989
0.154364
0.186368
-0.0610297
-0.0448233
-0.0541807
-0.0482548
0.0570165
-0.00876165
0.151641
-0.10748
-0.0441614
-0.0108841
0.389033
-0.378149
-0.0809564
0.0567849
0.101816
-0.106047
0.00423044
0.0233957
0.309901
0.349413
-0.0707707
-0.00105047
0.0718211
-0.0576242
0.0236992
0.033925
-0.0886398
0.0982658
-0.720525
0.622259
-0.0313905
-1.51883
-0.412072
1.9309
0.140185
1.53073
-1.67091
0.085298
-0.228404
0.280132
0.271812
0.24874
-0.520552
-0.205449
0.25142
0.146344
-0.895608
0.749264
0.0113108
-0.068935
-0.00375229
0.0195041
-0.994406
0.445938
0.548469
0.913639
-0.797252
-1.68393
1.56596
-1.41468
1.5155
0.041035
-0.0802856
0.0016327
-0.00514143
0.0175789
0.811737
-0.665393
0.125857
-0.0757234
0.417125
0.737748
-0.0399727
-1.68612
1.73534
-0.696396
-0.595983
-0.239596
-0.386536
-0.0265857
-0.169677
0.218774
-0.577281
-0.382353
0.184185
0.787823
-0.240635
-0.887215
-0.796714
0.741022
0.109579
-0.098268
0.291075
0.0394344
-0.0394344
0.671416
0.147848
-0.819264
-0.224417
0.895834
0.829111
-1.12217
0.293056
0.11887
-0.00833022
0.00687844
0.00624182
-0.0131203
-1.74993
-0.988516
0.427547
1.01524
0.372513
-0.0355207
-0.137921
-0.247517
0.772838
-0.193892
-0.0482663
-0.00317816
-0.0807944
-0.0513096
0.102245
0.372711
-0.243236
-0.834389
-0.281191
-0.094008
-0.00635241
0.10036
-1.15585
1.76691
-0.131687
0.0936602
0.038027
0.042378
-0.00808411
-0.0618775
0.027884
0.0339935
0.00963665
0.426024
0.0149645
-0.000680091
-0.00300497
-0.00431765
0.00732262
-0.0163076
-0.1664
-0.717284
0.366318
0.350967
0.998585
-1.60694
0.60835
0.135691
-0.156518
0.0208273
-0.000884075
0.0592516
0.0333507
-1.53477
-0.0621909
0.000313364
-0.0378085
0.00290477
0.142285
-0.338983
-1.26959
1.14449
0.125108
0.02302
0.0952883
0.0563532
-0.789195
-0.495824
-0.700234
0.0748297
-0.0469457
0.0431366
-0.638426
-0.0608738
0.0600421
0.126326
0.814386
0.0495589
-0.46336
0.125822
0.342655
-0.286849
-0.121533
0.0229531
0.22388
0.834487
-1.05837
0.103331
-0.719789
0.616457
-0.958404
0.820425
-1.76946
0.0527978
1.71667
-0.017327
0.0179068
-0.000579845
0.164752
-0.456481
0.206729
-0.121417
-0.0853122
0.0516684
-0.0279691
-0.0529128
-0.0410951
-0.00217196
0.0161972
-0.0360898
0.0211727
0.0731633
-0.094336
0.969296
0.0035094
-0.00393887
0.000429475
0.0766977
-0.0199128
0.859385
0.00689307
-0.0150099
-0.45573
-0.532786
0.0690367
0.0498332
0.00791309
0.0873752
-1.71667
1.53477
0.147804
-0.144339
-0.00346463
-0.247809
0.0720276
0.119148
-0.105858
-0.00153097
0.0937205
-0.028096
-0.673664
-0.595931
-0.0392583
0.060431
0.739402
-0.254094
-0.109765
0.035545
0.337652
0.00135669
-0.0347443
-0.00798481
0.0850864
0.148074
0.203281
0.15539
-0.325662
0.170272
0.112149
0.569239
-0.0444301
-0.108929
0.939362
-0.256497
-0.682865
-1.76946
-0.192139
1.19072
1.50292
-0.12008
0.296445
-0.176365
0.366442
-0.0760819
-0.29036
-0.207352
-1.30289
-0.0698562
0.0704577
-0.000601508
-0.0343504
-0.137613
0.171963
0.456588
-0.980143
0.523555
0.0412408
0.657054
-0.698295
-0.0453002
-0.111939
-0.0146558
-0.0561148
0.30189
-0.395098
-0.0159272
-0.00139983
0.0845831
-0.00336417
-0.0812189
0.055802
-0.120223
0.00704727
0.0353308
-0.0743976
0.117656
0.00390413
0.000265676
0.1931
-0.437528
-0.114673
1.6454
0.0140516
0.00518382
-0.993342
-0.01783
0.0812465
-0.07458
-0.0469535
-0.0515124
0.165946
0.68681
-0.789434
0.102624
0.0756298
-0.00659312
-0.936649
-0.0156466
-0.018448
-0.648524
0.74679
-0.018342
0.187922
-0.484523
-0.637644
0.182936
-0.449988
0.267052
-0.0273327
0.156954
0.0093991
-0.00983125
0.000432153
-0.0525651
-0.054899
-0.0216501
-0.136544
0.748992
-0.645661
-0.0835908
0.0583732
-0.0758853
0.306583
-0.151192
0.0780661
1.23725
-0.260339
-0.976909
-0.118324
0.136722
-0.5038
-0.213484
-0.562279
0.621101
-0.603542
-0.0175584
-0.0684772
-0.0151136
-1.68612
0.538241
-0.538241
-1.74391
1.74391
0.811737
-0.0421025
-0.233517
0.27562
-0.899738
-0.0936041
0.622501
-0.361223
-0.261278
0.16852
-0.247375
-0.0132646
-0.00589188
-0.885785
-0.0802451
-0.932965
0.21244
0.0348454
-0.0411978
0.69731
-0.112501
-0.58481
1.08301
0.419907
-0.00126265
0.0106618
-0.963502
0.129701
-0.829971
-0.0853525
-0.594794
0.680147
-0.0342861
-0.849789
-0.684146
0.217025
-0.812816
-0.927175
1.36813
-0.440952
-0.141247
0.284602
-0.143355
-0.0227224
0.720033
-0.104373
-1.00629
1.00629
-1.68509
1.23981
0.445284
-0.00116667
0.00467606
0.0434392
-0.433251
0.817025
-0.0492463
-0.0827297
-0.0362563
0.067936
0.00840135
0.00898571
2.12276
-2.06997
-0.330465
0.405622
-0.631753
1.00131
-0.369555
-0.0277351
-0.0344558
0.121486
-0.0545736
0.361841
0.00673269
-0.0374016
0.352748
0.0362847
0.0422053
-0.243662
0.201456
0.142808
0.0350744
0.0954352
0.177896
1.97714
0.147301
0.634326
0.300732
-0.935057
-1.3967
1.61593
0.230438
-0.163164
0.0776148
-0.767457
0.689842
0.592223
0.135842
-0.482363
-0.0746696
0.137029
-0.0623593
0.136883
-0.211553
-0.44242
-0.104484
-0.0697944
0.0727767
-0.00298232
0.00269842
0.00120571
-0.0721997
-0.0256769
0.665393
-0.616457
-0.0489351
-0.297238
0.309994
0.875728
0.622826
-0.256384
-0.0148231
0.0368024
-0.160309
-0.125754
0.176353
-0.58888
0.412527
-0.00915454
-0.000676706
-0.0217943
0.0482436
-0.0264493
0.00794381
-0.0135558
0.00561198
-0.0245283
0.0170945
0.00743377
-0.828286
0.503967
-0.169656
-1.34917
-0.19368
-0.797252
1.5155
1.56596
-0.197132
-0.177144
0.124999
-0.0616897
0.0671997
-0.00551002
-0.0147982
0.981965
-0.967167
0.543561
0.0789405
0.000972598
-0.0101271
0.118831
-0.0637464
0.0362563
-0.0439627
0.00470438
-0.415253
0.254944
-0.00477097
0.00454784
-0.237935
0.631917
1.05746
0.0734858
-0.0632241
0.00146561
0.0617585
1.91356
-0.347603
-0.0626083
-0.0559286
-0.958573
0.161321
0.413259
-0.216564
-0.474065
-0.126722
0.600786
0.813215
-0.360745
-0.45247
0.14003
0.546779
-1.73534
-0.0145846
0.00668873
-0.00504503
-0.0016437
0.0924873
1.8631
-0.175714
0.182592
0.0534032
2.13141
-0.615912
-0.681638
0.0577115
0.623927
0.377574
-0.00284743
-0.34543
0.540306
0.819145
0.248704
0.0783877
-0.0220346
-1.04099
-0.114442
1.15544
1.10772
-0.00271509
-0.000289882
-0.0491205
-0.3558
0.101374
-0.306823
0.948681
0.288568
-0.0699226
0.00144538
0.274298
-0.394378
-0.0244506
0.0168569
0.113544
-0.15143
0.0378859
-0.304826
0.31931
-0.0144841
0.466419
-0.726758
-1.24639
0.703992
0.542397
0.0869388
-0.144854
0.0579155
0.266401
0.0401818
-0.765169
0.269345
-0.656073
0.656073
1.83719
1.08301
-0.719789
0.3324
0.486744
-0.321053
0.155933
0.908766
-0.365205
0.00725191
-0.869514
0.862262
0.136939
0.004419
0.0261185
-0.436
-0.329168
0.0547732
-0.169045
-0.123781
0.292826
0.0677272
-0.521105
0.35206
-1.06811
-0.282687
-0.648821
-0.0268477
-0.00441774
0.000478864
-0.224288
0.0464082
0.0539522
0.034804
-0.141937
0.107133
-1.37495
-0.310144
-0.00588562
0.0702334
-0.0759124
0.530521
-0.454608
-0.576009
0.391479
-0.116242
0.190534
0.237795
0.00830371
-0.012056
-0.749866
0.328687
0.033522
0.0682943
-0.119891
0.0440057
0.19807
0.00865958
-0.420332
2.0041
0.445289
-0.135269
0.867414
-0.789799
0.777675
-0.440023
-0.604193
0.170943
0.15155
-0.791046
0.762085
0.0289612
1.19923
-0.250547
-0.200531
-0.129933
-0.0135585
-0.0108833
0.952895
-0.838326
-0.114569
-0.178271
0.104836
0.0281432
0.123321
0.876197
0.0171786
-0.713838
0.69666
-0.329155
-0.0531981
0.767034
-0.842947
0.147265
1.35356
1.23313
-0.150122
0.17132
0.55446
-0.72578
0.0272897
0.0489137
0.00410563
0.00419807
-0.506571
-0.0976223
0.0600634
-0.0575582
-0.183209
0.134602
-0.540929
0.282194
-0.991874
-0.248315
-0.286209
-0.51127
1.47787
-0.0614233
-0.283164
-0.162781
-0.252472
0.0469078
0.294697
0.0580505
1.33147
-0.874885
-0.185637
0.124608
-0.303034
-0.091328
0.394362
0.00643338
0.00025535
0.0476277
-0.0606771
-0.244149
-0.12422
0.697785
-0.417564
-0.280221
0.142519
0.137819
-0.0991578
-0.0386613
0.240681
0.0540161
0.0250989
-1.69601
-0.0941114
0.137248
0.523285
-0.506106
-0.0217506
0.0556755
-0.0198552
0.021847
-0.00199181
0.00280585
-0.0357085
-0.23839
0.077698
-0.00788021
-0.565924
0.424678
0.0161469
0.0739966
0.0129421
-0.693862
1.58577
-1.2972
0.0157044
-0.189179
0.173475
-0.137778
-0.542083
0.679861
0.0795277
-0.717953
-0.438576
-0.807813
-0.0352821
0.000686226
0.0345958
-0.252179
-0.621101
-0.168095
-0.146219
-1.04099
-0.226744
0.16196
-0.27011
-1.1214
-0.328253
0.239365
0.0888886
0.268405
0.11764
0.433174
0.213465
-0.64664
0.0592364
0.0503424
0.988293
0.306266
-1.29456
-0.223535
0.341845
1.27409
-0.237327
0.177092
-0.660537
1.00238
0.170654
-0.196959
-0.0211503
0.0387292
-0.0224019
0.934675
-1.06994
0.724464
0.0887512
-1.18451
0.510845
0.242772
0.665993
0.93093
0.0084316
-0.0165845
-1.23313
-0.648821
-0.713257
0.722329
-0.0458944
-0.887215
0.657054
0.611214
-0.93193
0.649903
-0.00699201
-0.784054
-0.314146
0.637109
-0.775899
0.138791
0.0827928
0.0550263
-0.0155855
0.109472
1.81337
-1.92284
-0.00437802
-3.9712e-05
-0.258886
0.210619
0.716636
0.22687
-0.211282
-0.185129
1.60824
-1.77364
0.20379
0.0718296
0.236882
0.245998
-0.48288
-1.52644
1.412
-0.182183
0.712704
0.0965415
1.26491
-1.15544
-0.00132881
0.2129
-0.0446564
0.0820046
-0.000758067
0.00538896
-0.0398434
0.0344545
-1.02202
-0.0363503
0.319759
-0.804991
-1.28574
1.40278
-0.117034
0.369378
0.63193
-0.0512487
0.0548781
-0.00362943
-0.227455
1.83569
-0.718188
1.74962
0.133377
-1.41912
0.308582
-0.0956818
-0.58526
-0.406614
-1.06739
1.30427
-0.0599248
-0.876506
-1.81875
-0.186049
1.26491
0.0495969
-0.854588
0.830614
-0.645188
-0.185426
-0.981813
0.396553
0.0154486
0.117266
-0.0003289
-0.116937
-0.97159
0.564976
-0.219756
0.911794
-0.927441
0.188617
-0.204924
-0.0938295
0.236115
-0.208611
0.232062
-0.0400381
-1.46003
0.483121
1.30456
-1.05586
-0.553248
-0.517987
1.07124
0.446752
0.0170087
-0.0107668
-0.734645
0.698295
1.01344
-1.2409
-0.890358
0.618145
0.272213
1.55892
-0.156148
0.77827
-0.81141
-0.493308
-0.450104
-0.47139
-0.5002
0.803472
-0.803472
0.685048
-0.685048
-0.734645
-0.546339
0.546339
-0.618145
-0.732499
-0.987274
0.517216
-0.857875
0.857875
1.01344
-1.2409
0.77827
0.767209
-0.767209
0.81141
0.758921
-0.758921
0.506692
0.52861
0.482013
0.155568
-0.4998
-0.549896
1.07851
-1.26379
-1.81607
0.748685
-0.247065
0.0648813
-0.0240106
-0.00328374
0.0101768
-0.886369
0.0961474
0.790222
-0.0824016
0.0558159
-0.996709
0.584469
0.933285
-0.600885
-0.125991
0.0137771
-0.0117667
-0.802337
-0.0794203
-0.548469
0.00252502
0.0169791
0.644026
-0.094897
0.0479513
0.172951
-0.00510644
-0.00702708
0.0121335
-0.810704
0.0670025
0.743701
-0.11948
-0.0891308
-0.534135
0.409486
0.124649
0.916949
-0.741127
-0.175822
0.0802607
0.293552
-0.0136056
-0.0561888
-0.0552029
-0.0146533
0.827781
-1.98363
-0.83481
0.0995543
-0.739653
0.79644
-0.0567871
0.123046
-0.899826
0.776779
-0.802559
0.90575
-0.103191
-0.05953
0.0623358
0.019902
-0.282271
0.386855
0.917417
-0.096659
-0.78971
0.917128
-0.0928033
-0.824324
0.049784
-0.0775192
-0.366545
0.82029
-1.27757
0.454929
-0.375989
0.10413
-0.89384
1.40582
0.338086
-0.789556
0.00550192
1.01768
-0.894638
1.21811
0.149739
0.293151
-0.44289
-0.878384
-0.118325
-0.406514
0.0283654
-0.443341
0.545965
-0.785039
0.785039
-0.599379
-0.0873058
-0.864043
0.122915
-0.932538
0.847185
0.0733435
-0.194761
-0.0591066
0.0624952
0.0111099
0.189827
0.827857
0.818444
0.770925
0.140535
-0.91146
-0.0668357
0.131717
-0.781554
-0.108597
0.890151
0.175081
-0.893269
-0.674215
0.88829
-0.78416
-0.108996
0.459605
-0.0287326
-0.430873
-0.127982
0.943437
-0.815455
0.0542384
-0.150414
0.0961754
-0.89055
-0.830675
0.0910216
0.517264
0.260411
-2.04487
0.806694
-0.57048
0.57048
-0.919401
-0.540629
-0.430465
0.101297
-0.142276
0.846268
0.779693
-0.207728
0.167209
0.336758
-0.560083
-0.175901
0.735984
-0.289141
-1.31779
0.00123223
0.0829029
-0.901498
0.201264
0.14463
0.299051
-0.21879
0.780001
-0.883193
0.419941
-0.288224
-0.153499
0.737968
0.576653
-0.576653
-0.0642788
0.0561947
0.107713
-0.0729086
0.520157
0.42328
0.150361
0.00305172
0.00752092
-0.0105726
-0.66574
0.694567
-0.0288274
0.446971
-0.153819
0.110549
-0.894708
-1.04794
1.37347
-0.325531
0.128413
0.87584
-0.609454
1.05642
-0.754173
0.599523
-0.660397
-0.652351
0.148551
-0.713903
0.0278006
0.123078
0.0889314
-0.802834
0.006173
0.269814
0.0728466
0.723593
0.695336
-0.0958127
0.0772837
0.782101
0.919077
-0.234014
-0.685062
-0.465815
0.534904
0.449932
-0.964711
0.738964
0.225748
-0.685803
-0.127013
1.37318
-0.386817
-0.00828038
-0.0404529
0.486213
0.513787
-0.769952
-0.113241
-0.72024
-0.801861
-0.109398
-0.727945
0.40051
0.59949
-0.0919385
0.0720258
-0.862755
-0.0718066
-0.58859
-0.158946
-0.251475
0.410421
-0.0257598
-0.0023362
0.11025
0.0708561
-0.12862
-0.109771
0.757515
-0.64083
0.718114
-0.767034
0.855966
-0.152042
-0.446106
0.598148
-0.747273
-0.194628
0.941901
-0.246917
0.234976
-0.0249642
-0.0305653
-0.00120349
0.0133892
0.70072
-0.13024
0.127874
0.109921
-0.736199
0.070459
0.376228
-0.53302
-0.0535987
0.0945537
-0.800201
-0.289368
1.02712
-0.00745464
0.167266
-0.113863
-0.0143024
-0.00207255
-0.0634226
0.207154
0.169075
0.158652
-0.0563875
-0.102264
0.848537
-0.031827
-0.00314676
0.0349738
0.125955
-0.0157852
-0.000141973
0.22271
-0.109166
0.247878
-0.390154
0.448524
-0.289872
0.00823292
0.297016
-0.502493
-0.938415
1.21389
-0.275471
-0.778211
0.837675
-0.059464
0.649788
0.316729
-0.146076
-0.0661415
0.72731
-0.452954
-0.0811814
0.279842
0.460979
0.193214
-0.654193
0.415353
0.0437778
0.650789
-0.573987
0.558329
0.0156578
1.14524
-1.09833
0.00636355
-0.00633711
-2.64369e-05
0.695038
-0.00921003
-0.0831242
0.0199105
1.27995
0.439124
0.210664
0.0140804
-0.0783296
-0.0665247
0.0507929
0.0184156
-0.0692084
0.0218102
-0.0164212
0.802542
-0.496276
0.113189
0.225766
-0.0264308
-0.0940267
0.220102
0.0985715
0.00334998
0.0619772
0.767885
-0.246407
0.245816
0.000591158
0.560708
0.0155661
-0.576275
0.643047
0.11907
-0.0171471
0.00143391
0.0157131
-0.478145
-0.545078
0.369177
-0.00108442
0.742107
0.712424
0.0752968
0.324213
-0.339799
0.818128
0.121592
-0.0435257
-0.872802
0.0454567
-0.273877
0.270614
-0.175157
0.690158
0.0777269
0.013019
0.495438
-0.178708
-0.0733091
0.162479
0.03111
-0.11313
0.422711
-0.0568825
0.586206
-0.0740494
0.168783
0.0698125
0.490896
-0.155588
0.0397078
-0.0538745
-0.110492
0.0195059
-8.07544e-05
-0.0194251
-1.33101
0.232682
-0.0126055
0.861962
-0.23003
-0.615162
0.634731
-0.0195697
0.471194
0.760617
0.402966
0.195183
0.0775928
-0.171422
0.62962
0.130997
1.03068
0.736235
-0.262377
0.717306
0.687108
-0.518033
-0.606909
0.350311
0.256598
0.113093
-0.0711381
0.0423209
0.0618764
-0.0460604
1.12439
0.73598
0.0821479
0.616246
0.22161
-0.868273
-0.0808008
-0.672166
0.677668
-0.0229532
-0.593753
0.434806
0.874771
0.673398
0.106018
0.0200907
-0.166657
-0.315706
1.09895
0.486814
-0.0866979
-0.0136997
-0.50607
-0.0119623
0.797286
0.827982
-0.076363
-0.310888
-0.7445
0.932848
-0.188348
-0.412952
-0.193957
0.00286414
-0.171693
-0.185973
0.732804
-0.006102
0.00178435
0.628067
0.355704
-0.26115
0.601591
-0.132963
0.242382
0.736959
0.246539
-0.983497
0.277567
-0.922755
0.120868
-1.41807
-0.18183
0.773151
-0.591321
-0.664901
-0.0414034
0.0108381
-0.0545779
-1.48492
0.025697
-0.0455522
0.783251
0.0522036
-0.17441
0.122207
-0.0389624
-0.577281
0.0575614
0.109705
-1.1046
-0.00878874
0.0036823
0.123966
-0.053269
-0.588222
0.0142347
0.567071
0.3077
0.995954
0.934947
-0.24958
-0.384462
0.634043
-0.221443
-0.618046
0.618046
-0.218558
-0.912532
1.13109
0.0296754
-0.147999
0.686657
-0.119586
-0.22395
-0.312317
0.304036
-0.141007
1.05961
0.319662
0.171736
-0.105627
-1.21938
0.484244
0.074085
0.053301
0.0161101
-1.46792
-0.41615
-0.363548
0.693324
0.306676
-0.41615
0.693324
-0.486197
-0.089017
-0.486197
-0.696276
0.696276
0.303724
-0.0145993
0.120834
-0.0753673
0.204761
0.0509214
-0.462909
0.641437
-0.0398456
0.662532
-0.504826
-0.157706
-0.0604277
0.060546
-0.00011834
-0.0174008
0.0204525
0.369782
0.0192812
-0.0451129
-0.435247
-0.347747
0.12346
0.0459476
0.834009
-0.279549
-0.427985
0.175513
-0.00451265
-0.107281
-0.00991355
0.677434
0.0646729
0.127971
0.00791434
-0.000591712
-0.00115678
0.0860435
0.56738
-0.476346
-0.0910343
1.84463
0.545624
-0.483932
0.886642
0.0109848
-0.0610581
0.104378
-0.335716
0.091957
1.10767
-0.370709
0.00942002
-0.0362678
0.520657
-0.213318
0.0231546
-0.0231546
0.0191745
-0.0191745
0.000116615
-0.000116615
0.0140516
0.365249
0.457747
-0.00676532
-0.73046
0.489824
0.192844
0.029866
-0.0817931
-0.484747
0.797853
0.110887
-0.79669
-1.05371
0.416064
0.0529946
0.0189473
-0.00185277
-0.0109334
0.0109334
0.257224
-0.0116196
0.0116196
0.700844
0.0886117
0.00678515
0.00112919
0.00685642
-0.0700805
-0.0233225
0.0233225
0.00136162
-0.00136162
-0.0214437
0.0214437
-0.00989844
0.00989844
0.0910216
-0.293731
-0.0842584
0.221618
-0.01022
0.01022
-0.373423
0.516468
-0.143045
0.5097
-0.225098
-0.268293
-0.159692
0.561282
-0.110746
0.0722916
0.56244
0.566196
-0.00787479
0.00787479
-0.0181051
0.0238011
-0.0238011
-0.0104373
0.0104373
0.749725
-0.861092
0.0340067
-0.268705
0.316948
0.00574298
-0.00574298
-0.00106306
0.00106306
0.0177365
-0.0177365
0.0241872
-0.0241872
-0.0226237
0.0226237
0.0339852
-0.0339852
0.480101
-0.0307554
0.0307554
-0.00560101
0.00560101
0.0232465
-0.0232465
0.00217154
-0.00217154
0.00810109
-0.00810109
-0.0229878
-0.0244026
0.0244026
0.569933
0.0361227
-0.0382157
0.0382157
-0.00151047
0.00151047
0.000267311
-0.000267311
0.0324179
-0.0324179
0.0265604
-0.0265604
0.00582374
-0.00582374
0.00281614
-0.00281614
0.0297871
-0.330422
0.00177615
-0.00177615
-0.00502116
0.00502116
-0.0369426
0.0369426
-0.0288376
0.0288376
-0.00229088
0.00229088
-0.406115
0.648887
0.267742
-0.0310377
0.0310377
-0.0270886
0.000623188
-0.000623188
-0.0044959
0.0044959
0.0384909
-0.0384909
-0.149407
0.105881
-0.00276954
0.00276954
-0.0240215
0.0240215
-0.503733
0.0456576
0.0115974
-0.0323903
0.0323903
-0.449821
0.0351368
0.0197413
-0.488594
-0.695915
-0.0355904
0.0355904
-0.195397
0.138514
-0.0420272
-0.00414963
0.00414963
0.00715635
0.0443145
0.262848
-0.325468
-0.286364
0.611833
0.200762
0.00253239
-0.00253239
-0.10719
0.228468
-0.121278
0.780447
-0.402836
-0.377611
-0.453422
-0.662352
-0.117695
0.293208
-0.277671
-0.188144
-0.57351
-0.00194303
0.191567
-0.226753
0.0144701
-0.0144701
-0.0030082
0.0030082
0.0298781
-0.0298781
0.0269894
-0.0269894
0.000554511
-0.000554511
-0.00233149
0.00233149
-0.0085676
-0.152202
0.180585
-0.306576
-0.00123271
0.00123271
-0.0462706
0.0462706
-0.0390995
0.0390995
0.135795
-0.00271869
-0.133076
-0.00464645
0.321905
-0.551935
0.00186706
-0.00186706
0.000261533
-0.000261533
-0.0899112
0.109288
-0.226983
-0.00276364
0.00276364
0.0763148
0.0174745
1.00595
-0.483121
-0.0755685
0.55869
-0.634051
0.0649147
-0.508255
-0.0397447
0.0397447
-0.682617
0.282669
0.0481329
-0.0481329
-0.637985
0.376707
0.269113
0.122632
-0.000297175
0.000297175
-0.818957
-0.000776036
0.000776036
0.310131
0.409902
0.00932027
-0.0520225
0.0520225
-0.00285275
0.00285275
-0.0410894
0.0410894
-0.0552931
0.0552931
-0.00120552
0.00120552
-0.0610677
0.0610677
-0.00160255
0.00160255
-0.0443281
0.0443281
-0.001853
-0.0464684
0.0464684
0.00448178
-0.00448178
0.0467917
-0.0467917
-0.00211876
0.00211876
0.049024
-0.049024
-0.122117
-0.00341643
0.00341643
-0.00467744
0.00467744
-0.0551443
0.0850864
-0.0102894
0.0102894
0.00477074
-0.00477074
-0.0576882
0.0576882
0.291848
-0.0177232
0.0177232
-0.0586556
0.0586556
-0.00734594
0.00734594
-0.0653879
0.0653879
-0.0134492
0.0134492
-0.0783045
0.0783045
-0.0210092
0.0210092
-0.0965416
0.0965416
-0.686259
0.167454
-0.524958
0.505388
-0.849789
0.0204699
-0.574518
0.39936
0.0273612
0.115158
0.00359198
-0.00359198
0.187852
-0.728304
0.0410694
-0.0249593
-0.993185
1.41309
0.238716
0.258225
-0.025862
-0.013734
-0.401498
-0.573033
-0.0183505
0.390765
-1.15262
-0.0173634
0.0173634
-0.765191
0.0217287
-0.0217287
0.00277638
-0.00277638
0.311191
-0.34322
-0.00263163
0.00263163
0.019704
0.0150213
0.597051
0.107078
-0.0205475
-0.0117532
-0.00483132
-0.091711
0.486697
-0.394986
0.0201697
-0.0189375
0.0127673
0.888355
0.00639224
0.0587371
-0.406143
0.434508
-0.481711
-1.01541
-0.229445
-0.0688372
0.0175276
-0.0977383
-0.0526755
0.0283454
-0.0028933
0.000521936
0.777096
-0.560242
-0.0342007
0.0653107
-0.0347307
0.0578363
0.0629974
0.42829
0.234009
-0.169075
0.21671
0.0199283
-0.00699419
-1.0293
0.000448039
-0.0434513
-0.130959
-0.0196931
-1.33404
-0.0707891
0.261331
-0.349158
0.385442
0.264265
-0.775535
0.043852
-0.025422
-0.0520971
-0.343809
0.468458
-0.0379034
-0.0179527
0.0558561
-0.0262288
0.0262288
0.170069
-0.426453
-0.0358273
0.0570498
-0.0761392
0.053186
-0.0669142
-0.00702727
0.0739415
-0.0400785
-0.150367
0.0574654
-0.0336635
-0.292614
-0.363852
0.656466
0.0137177
0.05674
0.153153
-0.0252782
-0.0722211
0.0634663
-0.152587
0.304137
0.00607184
0.0289019
-0.0306249
0.183778
0.00346773
0.25474
-0.00266146
0.00266146
-0.616315
1.4136
0.0856455
-0.166446
-0.0213309
-0.0129552
0.649194
0.40723
-0.008299
-0.00876442
-0.53174
0.00678279
0.180563
0.0853503
-0.668555
0.30335
-0.0575708
0.387674
-0.680289
0.2177
0.521263
-0.0875818
0.0875818
-0.000328901
-0.732097
0.00529715
0.7268
-0.207086
0.152508
0.0453373
-0.130729
-0.596029
-0.0910073
0.00279379
-0.00116109
0.930225
0.243542
-0.137524
-0.0685717
-1.10346
-0.315663
-0.0580579
-0.271125
0.811432
0.587801
-0.265897
-0.283038
0.580055
-0.0423605
0.338805
-0.269741
0.0743283
-0.469838
0.326793
0.126408
-0.126408
0.0633254
-0.0559373
-0.00738814
0.00311817
0.00718785
0.021847
-0.11951
-0.358635
0.234157
-0.187621
-0.0465358
0.551073
-1.05485
0.310922
-0.843708
0.698465
-0.125617
-0.180959
-0.0450224
-0.0791977
-0.479598
0.0443511
-0.281155
0.00172117
-0.0196931
0.372395
-0.00522815
0.000383929
-0.000321597
0.0148168
-0.00856592
-0.00625088
-0.107144
-0.0173244
-0.16347
0.180794
-0.132582
-0.337256
0.019704
0.345205
0.000506574
-0.366921
0.0807112
0.00235738
0.0772307
-0.083996
-0.0116965
0.0116965
-0.000866839
0.000298567
-0.00965334
-0.00021725
-0.0392837
0.000864629
-0.00117999
0.177271
-0.0113246
-0.00242505
0.00242505
0.0731715
0.519445
0.000414528
-0.295653
0.497042
1.11736
-0.476391
0.342092
-0.43736
-0.119488
0.0836608
0.236927
-0.236109
-0.00803747
0.0169559
-0.00356672
-0.00472291
-0.183038
-0.386842
0.876667
0.318202
-0.32677
0.144401
-0.00156732
0.118528
0.00988438
0.000439869
0.00151567
0.0154402
-0.0865634
0.00127307
-0.000165714
0.710322
-0.646856
-0.243461
0.157257
0.851443
0.000525265
4.65963e-05
-0.0420272
-0.00582991
0.817511
-0.43092
0.505005
-1.16541
0.906166
-0.816962
0.589282
-0.189922
0.689538
0.00036085
0.00328598
0.0156613
-0.115262
0.140425
-0.14955
0.00947034
-0.00247356
0.0624215
-0.0472231
-0.0151984
0.000237152
0.0217196
0.0021638
-0.0238834
-0.0905141
0.00794861
-0.000427692
0.00205673
0.466503
-0.424137
-0.000528843
-0.000423815
0.924846
-0.919549
0.39455
-0.00571227
0.00114144
0.168471
-0.0552827
-0.0383958
-0.123029
-0.0193552
-0.00350907
0.114475
0.00734163
-0.00142596
0.420207
-3.97545e-05
-0.00430807
0.00430807
-0.0035676
-0.00818557
-0.000678197
-0.323314
-0.00360507
0.0704118
-0.107197
0.371678
0.130188
-0.065597
-0.000634355
0.00126101
0.473428
-0.000851681
-0.00168297
0.00454711
-0.00198988
-0.000370585
0.0931352
0.0572254
-0.710315
0.484722
-0.871564
0.0566125
-8.91061e-05
-0.662838
0.0496534
0.0949768
0.605541
-0.0155484
0.0277236
-0.00388953
-0.00134125
-0.55162
-0.0032387
-0.000397039
-0.0227439
0.957534
-0.54218
-0.00246362
-0.000516199
-0.00566572
-0.00129767
0.0681361
-0.022952
0.022952
0.000566101
-0.000267534
-0.0025752
-0.00769974
0.00511041
-0.00472648
-0.159886
0.0887483
-0.00610321
-0.0129166
0.0445726
-0.0156511
0.0597938
-0.0422663
-0.624315
0.567528
-0.00478058