/*--------------------------------*- C++ -*----------------------------------*\
| =========                 |                                                 |
| \\      /  F ield         | OpenFOAM: The Open Source CFD Toolbox           |
|  \\    /   O peration     | Version:  2306                                  |
|   \\  /    A nd           | Website:  www.openfoam.com                      |
|    \\/     M anipulation  |                                                 |
\*---------------------------------------------------------------------------*/
FoamFile
{
    version     2.0;
    format      ascii;
    arch        "LSB;label=32;scalar=64";
    class       volScalarField;
    location    "43";
    object      p;
}
// * * * * * * * * * * * * * * * * * * * * * * * * * * * * * * * * * * * * * //

dimensions      [0 2 -2 0 0 0 0];

internalField   nonuniform List<scalar> 
2186
(
0.730119
-0.682679
-0.303586
1.0373
-0.724155
0.11927
0.554762
-1.3687
-1.30169
1.34796
1.25214
-1.46137
-1.31679
1.0831
-0.932645
1.11953
1.12379
-0.810152
-0.0492035
-0.445947
1.51421
-0.446958
1.09664
-1.58698
1.08861
1.00697
1.31456
0.826135
0.858836
1.08535
-0.430889
1.08893
-0.402925
0.0256916
-1.48824
0.430809
0.0638345
1.51233
-0.197511
0.339094
-1.31982
-0.41546
-1.1065
-0.565066
1.10764
1.33108
0.152574
0.362931
-0.933535
-0.646342
-0.431796
1.12155
-1.06128
1.46835
-0.451214
0.887508
-1.18369
0.919839
-0.249664
0.780046
-0.152505
0.896107
0.826084
0.387299
0.843709
0.298099
0.925079
1.39895
1.2976
-1.20905
-1.38479
-0.328996
1.34462
0.956457
1.31768
1.14197
-0.579846
1.12035
-1.51227
-0.318301
-0.647437
0.412124
1.08206
0.883966
1.0682
1.082
1.42962
-0.0536401
0.271702
-1.5156
0.890994
-0.525669
0.94071
1.20348
1.09885
0.70845
-0.455069
0.858399
-0.709864
0.938208
-1.19354
-1.01638
0.902348
0.962246
1.12503
-0.445661
1.39422
-0.684128
0.879866
-1.47019
-0.32358
-0.671163
0.390203
1.47776
-1.37833
-1.07673
-0.523253
-1.1816
-1.51572
1.33698
0.304644
-0.597362
1.08699
-0.957518
1.12278
-0.476892
-0.700856
1.13397
-0.866668
0.530459
1.4331
1.24688
0.0177529
0.520643
-0.781848
-0.589437
0.851735
-0.974645
-0.11966
-1.47371
1.03824
-0.50118
-1.3767
0.583882
0.915837
0.961436
-0.750175
-0.734949
0.486383
-0.478594
-0.651955
0.437955
1.12313
1.18113
1.01147
0.378051
1.43788
0.739127
0.664214
0.248035
-1.48198
-1.56303
1.1195
0.947055
-0.0084945
-0.132873
-1.45787
-1.48332
0.06712
-0.358328
0.658339
0.945959
1.12522
1.08991
0.711149
0.117341
-0.754154
1.12346
-1.34808
1.08918
-1.44755
1.10568
-0.459905
0.818379
0.802006
-0.773146
-0.960529
1.33029
-0.079472
-1.24055
-0.916629
1.37216
-0.933433
0.947116
-1.48449
-1.39172
0.39834
1.30118
1.27653
-0.436252
-1.50434
-1.31117
-0.164578
1.10923
-1.48206
-0.679034
-1.5449
-1.03978
1.10149
-0.537814
0.375383
0.174704
1.46292
1.06343
1.1457
0.895479
1.37115
1.09493
0.826482
1.29292
0.246818
-1.03403
-0.464343
0.424027
-0.0337727
-0.757011
-0.71682
1.24976
1.16656
-1.59456
-1.37854
-2.0494
0.186208
0.535758
0.742675
0.826971
1.10092
-1.22795
0.820619
-1.44451
-0.687117
-1.04243
1.21575
0.97824
1.34536
1.26112
1.31116
1.29414
-1.42988
0.738353
1.26746
-1.38584
1.20491
1.01945
-1.9746
-1.51903
-1.57907
1.34722
1.13453
-1.27906
-0.550948
-0.341506
0.897318
-0.939688
0.9944
1.26686
0.857592
-1.54645
-0.451995
1.04858
0.885964
-0.519167
-0.053339
1.48706
-0.675241
-1.4083
0.838816
1.18397
1.06841
-0.730131
-0.356157
-0.983842
1.1178
-1.3561
0.39811
1.04812
1.00085
-0.480473
-0.482785
1.11659
-1.58315
0.884076
1.19542
1.12809
1.12463
-0.701711
-0.551217
-1.60095
-0.252912
-1.54738
-1.02189
0.193968
-0.911091
0.872294
1.16715
1.39232
1.12845
-0.880132
1.28816
-1.60525
0.315779
-1.46817
-1.48842
-1.19663
0.168778
-0.646774
-0.567916
0.472512
1.12043
0.509347
0.669616
-0.63302
-0.101074
-1.14731
-0.683366
1.32535
0.310111
-0.829906
-0.532579
0.694018
0.833272
0.0255752
0.419905
-0.947611
-1.23433
0.918856
1.11248
1.28121
-1.57782
1.25755
0.818472
0.670412
1.26119
1.11928
0.982927
0.23638
-0.144713
-1.46471
1.09774
-0.526542
-1.57112
-1.57175
-0.986114
-1.52674
1.51876
-0.485097
-0.443708
-1.4174
1.11761
-0.768306
-1.59612
-0.48265
0.659328
-0.357398
-1.47997
1.39396
1.44689
1.11231
-1.36776
-0.707081
1.53394
1.11771
-0.909127
0.740702
-1.43861
-0.0595602
1.33362
1.19497
0.871734
1.35386
-0.779757
-0.00455834
0.421538
0.192734
-1.53158
-0.431114
0.350504
1.47839
-0.715209
-1.05071
1.11523
0.444147
-1.51593
-1.28008
-1.45688
-0.707519
-1.49348
-1.49266
-0.378662
-0.690112
1.25087
-0.0969879
-1.06169
1.10858
-1.63478
1.2847
-1.26356
-1.66636
-0.394857
1.08902
-1.42694
1.13236
0.769015
-0.98106
1.04865
-0.52427
-1.50268
-1.49391
0.973141
0.988407
-1.52745
-1.44391
-1.45015
1.19715
-1.6017
-0.475153
0.78653
1.13445
0.893556
0.653995
-1.51177
-0.321296
1.03571
-0.351532
0.785952
-0.345734
1.11557
0.30525
1.12668
-1.51342
0.774732
0.951327
1.14019
-1.57473
1.1258
0.371279
-1.50353
1.09253
-1.98606
0.477509
-1.00546
0.252911
1.11936
-0.0412436
0.0982953
1.13434
0.548478
-0.273226
-0.219886
-0.440677
0.103604
-1.28655
0.958743
-0.193214
1.2809
1.12237
-1.4366
-1.48897
-0.450667
-0.426968
0.724277
-1.12035
1.07481
-0.177497
-1.29346
1.26768
-0.327711
0.663464
0.0931044
-0.316259
1.04193
0.637571
-0.373619
0.0589018
0.0922177
-0.349166
1.12021
-0.317417
1.14441
1.24539
1.23264
0.914349
1.36168
-0.699849
-0.361826
0.922573
0.0055922
1.11541
-0.443359
-1.24092
-1.34522
0.744127
-1.49594
-0.678044
-0.444942
-0.480211
-0.174896
-0.550587
0.988109
0.947715
-0.136906
-0.468046
0.649754
-0.174551
1.33779
0.067723
0.178871
-1.49502
1.01013
-0.451903
1.1715
1.54458
-1.30409
-0.697453
-1.28443
0.626617
-1.14334
1.00529
-0.418081
0.950281
0.98625
-1.52005
1.07962
1.04108
-1.70671
0.889281
-0.334617
-0.51829
-0.646982
-1.45166
-0.360216
-1.07141
-0.247064
1.08998
0.531572
-0.680417
0.454936
1.24129
1.22674
-0.655911
0.699405
-0.0439023
0.681735
0.231274
-0.883176
-0.574015
0.779484
1.05127
1.25921
-0.261763
-1.50887
-1.50155
-1.51585
-0.407396
0.629756
-0.447493
-0.138048
-1.24546
1.16644
-0.75305
1.10302
-0.017926
0.470815
1.00166
0.590763
-1.25384
0.194039
1.10478
1.32802
1.11823
-0.122747
-0.730207
0.721781
0.0441632
0.709562
-0.102104
0.733032
1.10381
-1.20051
-0.445088
1.22397
-1.65881
1.4179
-0.233369
0.804226
-0.734689
0.513776
-1.53009
1.30336
-0.476465
-0.963982
1.18799
0.802094
0.791738
-1.3611
-0.430281
-0.37423
0.992767
0.110462
-0.316772
0.142362
1.11959
0.694653
-0.667423
0.99334
1.12664
1.11952
-0.221807
-0.365829
-0.569827
1.10992
1.36629
0.334687
1.10443
-0.113677
1.05238
-0.676804
-0.738383
0.494399
0.95855
1.02988
-1.48295
1.09246
-0.474766
1.04296
-0.764563
1.22227
0.929867
1.12219
-0.303747
1.1456
-0.746879
-0.245502
1.23792
-1.3106
0.424138
1.28964
-0.905285
1.30917
-1.42907
-0.515289
1.26016
0.692679
1.41452
1.09355
-0.812253
1.06362
1.27139
-0.431232
0.903691
-0.106499
-1.54784
1.58944
-1.46764
1.32468
-0.664816
0.119443
1.09354
-1.32939
1.12343
0.0214062
1.15751
0.991264
1.09978
-0.233458
-1.19026
-1.01794
0.492543
0.604374
1.07518
0.395095
1.07419
-0.448672
0.0724145
-1.20347
0.763746
1.14177
-0.291375
-1.57898
0.192803
1.36812
0.158525
0.992444
0.047777
-1.43748
-1.41012
-0.466602
0.566913
1.02554
-1.87444
-0.422941
0.0752164
-0.762959
-0.461342
-1.52446
0.512271
1.10812
1.11986
-1.32346
-0.451918
1.11282
0.975127
1.11545
-1.17845
1.1148
1.07985
1.07342
1.03422
-1.95154
-0.0274755
-0.445599
0.890464
1.08007
0.600592
-0.0761657
-0.144271
-0.859952
-0.255417
1.28755
0.10973
-0.997148
-0.901405
0.0970999
-1.33939
1.03666
-1.58124
-1.69914
-1.49957
1.12002
1.09325
1.12787
0.00853667
0.658534
1.2526
0.021583
1.08048
-0.218282
-0.163461
1.01631
1.12389
1.30165
-0.0861217
1.11916
1.11063
-0.592439
0.140926
1.12735
1.13549
1.12643
-1.49243
-1.55708
1.12425
0.486535
1.09627
0.521638
0.215292
-0.523935
0.293984
0.654287
-0.503903
-0.428168
-0.0438386
1.13411
1.13929
0.991892
-1.52968
1.12062
0.385485
0.357022
0.0524291
1.08617
1.12454
1.12507
1.14536
1.12614
1.12275
1.11829
-0.141921
0.344196
0.493767
0.443878
0.00321138
-0.0247705
-0.0411706
-0.081143
0.315876
0.387668
0.127523
1.07796
1.10628
1.09962
1.1277
1.12826
1.12385
1.13147
1.09231
1.12526
0.147077
0.441232
1.12781
1.12246
-0.0469551
1.12393
1.12652
0.130001
-0.887566
-0.125023
-0.75425
-0.563368
1.1118
-1.36865
1.09885
0.564446
1.0643
-1.47073
1.09562
1.09759
1.01091
-0.442365
-0.0368011
-1.25246
0.168068
0.302375
-0.432807
1.13055
-0.517145
1.19594
1.11821
0.172271
1.37545
1.49585
0.30889
1.08332
0.55357
1.11248
1.12918
1.10862
-1.47212
0.772595
-0.110378
1.11476
1.11482
-1.14551
-0.669914
1.11864
0.111036
0.0333385
1.11404
-0.175905
1.11649
1.12994
-0.805054
1.11069
-1.24494
1.10333
1.23943
-1.44954
1.11252
1.12201
-0.23994
0.951496
1.0991
1.11883
0.51249
-0.35742
0.614645
1.40038
1.12621
1.10326
1.11686
-0.929905
1.10689
1.07551
1.12177
1.11105
1.11652
1.10254
1.24796
0.487037
-0.633808
1.10742
1.11173
0.611625
-0.0613094
-0.431631
0.283645
1.06093
-0.658227
-0.10538
-0.149033
1.10705
0.636323
-0.411993
-1.07929
0.182787
0.653195
-0.304774
-1.07796
-0.859536
-0.581785
0.024668
1.11154
-0.635941
1.09952
1.08835
-1.49198
1.4304
0.355729
-0.426209
0.719931
1.34335
0.74939
-1.50868
1.12256
-1.22323
1.11232
-0.46279
1.1105
-1.75246
1.1065
-1.10192
-0.285688
1.11548
1.12481
1.13943
-1.21924
-1.51599
-0.178899
-1.12138
1.11892
1.07977
-1.17361
1.11376
1.14934
1.11722
-0.778809
-1.40598
-1.03372
-1.90508
0.190983
1.1216
-0.0922677
1.10386
-1.47339
1.11352
1.15205
1.11459
0.111089
-0.135253
1.13753
-1.43178
1.11596
1.12131
-0.221566
-1.34727
1.18381
1.33144
1.10327
1.11696
-0.937479
-0.691961
1.04907
0.246465
1.11681
0.773369
-0.800729
-1.39485
1.04566
1.30933
1.11899
0.16463
0.065694
-1.1544
-2.00864
-0.275724
1.06803
-0.516059
1.11589
-1.03517
-1.48088
-0.703716
0.764224
-1.55968
-0.109391
-0.665344
1.10653
-1.50657
1.16014
-1.45029
-0.470505
-0.730817
-0.258425
-0.706074
1.10941
-0.884088
-1.4253
-0.628182
-0.373531
1.07474
-0.912427
-0.231977
-1.59975
1.28353
0.0510327
-1.45728
1.18085
1.07355
1.05585
0.369061
-1.36411
1.12712
1.16492
0.578801
-0.632291
1.10446
0.712851
1.43124
1.13378
-0.722393
-1.13189
-0.635915
-1.22164
-0.827495
-1.50014
0.0793197
-1.66476
0.718669
-0.286112
1.10251
1.37073
1.11677
-1.51176
-1.52768
1.10957
-1.40595
-0.466958
1.05897
-0.363516
-0.805099
-1.53536
-0.935906
1.11724
1.09685
0.788431
0.832832
0.960658
-1.84665
1.064
-1.65416
1.03638
-0.355058
0.98306
-1.91715
0.271623
1.10868
1.31492
-1.57301
-1.27354
1.04282
1.48642
1.13169
1.25161
-1.40339
1.26653
-1.55241
-0.320026
-1.28925
0.317801
-1.69085
1.22787
1.17152
-1.43389
0.526682
1.1157
-0.322915
0.799786
1.14257
1.13549
-1.36783
1.11282
0.101523
1.12918
-0.0236196
-0.645267
0.216977
1.11368
0.312724
-0.0818842
-0.310494
1.03986
-0.533443
1.3868
0.0660788
1.49459
1.22709
-0.30309
1.05452
-0.55004
1.12663
1.11057
-0.255042
-0.45876
1.33655
1.11856
1.4187
1.10654
-0.133261
1.12235
1.06116
1.08915
1.12287
-1.58296
-0.736639
-1.63455
1.1526
0.24837
-0.673913
-0.497461
0.38487
-0.464262
-0.514442
1.12712
-0.631747
1.01578
1.05857
-0.647162
-1.21999
-0.382138
-0.687899
-0.314428
-0.551207
1.13235
-1.89426
1.13036
1.26895
1.16043
0.238414
1.13832
1.0967
-0.0715066
1.01003
1.12071
-0.824438
1.11541
1.19122
0.200019
-0.495599
1.55373
-1.64843
-1.02658
-1.33647
0.031911
1.05824
-0.948399
0.683256
-0.432833
1.27926
-0.945507
1.11826
1.14986
1.05024
-0.391594
1.00922
-1.90736
1.13084
1.14365
0.0264643
1.13043
0.813567
1.05721
0.629337
-1.59552
-0.0739133
-0.217723
-0.203741
1.41108
-0.237377
1.17302
1.53891
0.678337
0.192172
1.16655
0.335138
1.16336
-0.162958
-0.198082
1.17749
1.18193
0.263311
-1.73338
1.04234
-0.288271
-0.609488
-0.284169
1.14259
1.05577
1.493
-1.50974
-1.02729
0.647306
-1.20972
1.2292
1.21117
1.03906
1.11757
1.02341
-1.18019
-1.49841
-1.40523
1.06548
1.10332
-1.8792
-0.587619
-1.46194
1.11784
1.10254
0.309223
-1.31413
1.15439
-1.3839
0.579616
1.05185
1.17838
0.193553
-1.32186
0.233672
-1.17134
-0.405872
-0.574029
-1.65414
1.42658
1.53345
-0.774725
-1.09734
1.12107
1.09465
-0.786825
-0.294965
-0.705301
0.950281
1.22819
-1.27185
1.12493
-0.953129
-1.35555
-0.329966
-0.961655
-0.514878
1.04283
-1.15363
-1.03962
1.51849
-1.20546
1.12477
1.40999
-0.604127
1.02352
1.27773
-0.717688
1.44007
-1.2517
-1.41514
1.23179
-0.759342
0.985413
1.12192
-1.2915
1.12147
-0.0617209
-1.18265
1.16869
1.00821
-1.40968
-1.38609
1.12968
1.11833
-1.38436
-1.7561
1.47177
-1.32658
1.10029
-1.11162
0.981401
-1.49513
-0.856104
-1.44593
-0.732721
1.32072
1.09333
1.32451
1.41133
1.22701
1.1857
1.29777
-1.45987
1.3533
1.14565
-0.668857
-1.35756
-0.839583
1.50388
-1.49044
-1.43622
-0.412843
1.19414
-0.687696
-0.80635
1.26287
0.994834
-1.42905
-0.602607
-1.41368
-0.457451
-1.78157
-0.701535
-1.47129
1.15486
0.838326
-0.524269
-0.0326557
-1.3531
1.11433
-1.33152
-0.752101
-1.48073
0.901211
-1.66058
-0.626922
1.37399
0.930201
0.275843
1.21196
-0.510821
0.945865
1.14207
1.19187
1.22631
-0.201458
0.979959
1.24963
0.0678023
-1.48819
1.54581
0.99547
0.901144
1.1152
-0.649585
-1.34427
0.843565
1.06561
1.03458
-1.20453
-1.48136
1.07962
-1.4868
0.799482
-0.749225
1.57308
-1.49449
1.02574
0.650486
-0.463421
-1.49987
-0.416054
1.05636
-0.480649
-1.50676
0.602787
0.926056
-1.11565
1.203
0.794969
-0.500629
-0.844782
1.14483
-1.03055
-1.5044
-1.46609
-0.429883
-0.637756
1.16683
1.07973
-1.48448
0.505892
1.10868
1.48732
0.0983493
0.639196
0.416918
0.83398
-0.801383
-0.451715
-1.15665
-0.143837
-0.441907
1.13913
-0.494134
0.541107
-1.50772
0.867432
0.442919
-0.437218
0.52957
-0.385524
0.354204
-0.433665
0.802179
-0.452912
0.228321
-1.514
0.728606
-0.431306
0.747268
-1.54377
-0.431762
-0.437957
-1.50542
1.12898
-0.144446
-0.464315
-1.52293
0.42151
0.505662
-0.472053
-1.50394
-0.5046
-0.395028
-1.54043
0.273806
-1.58318
0.0859186
-0.578244
-0.614979
1.10205
0.375439
-1.33782
1.1496
0.362669
0.204881
0.314577
1.0455
-0.812727
-1.33439
-1.51819
-1.19409
0.89137
1.56317
0.464757
-0.294108
-0.205512
-1.17126
0.118179
-0.668276
1.15537
-0.811715
1.01218
-0.74959
1.62686
0.3558
1.48711
-0.576384
1.20474
-0.119118
0.998847
-0.662514
-1.51704
1.06454
1.07208
-1.41814
-1.50541
-0.436508
1.18879
-0.22226
1.12013
-0.460739
-1.4769
-1.4411
1.43539
1.21718
1.10856
1.19253
1.11925
-0.486852
-0.638071
1.41006
-0.814452
-1.079
1.57044
-0.598623
1.10123
0.956902
1.47736
1.50998
-0.560857
-1.7179
1.1241
0.0473869
-0.820481
-0.396614
0.706458
-0.924717
-0.61717
0.478011
-1.08509
1.21699
-0.0987029
1.27756
1.31642
1.23255
-0.656742
-1.52806
-1.10572
1.18732
-1.02961
1.38609
-0.307434
-0.945622
1.43492
1.34754
-1.52744
0.459327
1.00836
-1.14629
-0.859425
0.581436
1.46342
1.27702
-0.699913
1.08333
1.11326
-1.50783
1.28546
0.634609
-0.549707
-0.651117
-0.204087
0.222043
1.33073
-0.966988
0.614064
-0.881091
0.0249444
-0.913217
-1.52845
1.14857
-1.19692
1.21347
0.317972
-0.137106
0.624942
0.112741
-1.50924
-0.202997
-1.78749
-0.0732348
-0.610934
-0.605105
1.18885
-1.44859
-0.83229
1.21894
-1.23776
-0.67708
1.12229
-1.60662
1.21766
-0.310893
-1.49503
-0.606193
0.737359
-1.31311
-1.3661
0.861719
-1.46152
1.14803
-0.998747
-1.01364
-1.126
-1.51213
1.56868
-1.63689
1.15041
-0.929699
1.03538
1.3314
0.650321
1.06649
1.37289
0.297104
-1.3899
1.03089
1.09994
1.42795
-1.1806
1.20402
0.969691
-1.23001
0.714255
1.22693
-0.173377
1.5195
0.51714
-0.7921
0.768407
-1.27224
-0.435859
0.98823
-0.0747871
1.14108
1.03825
1.15813
-0.764592
1.14822
1.45546
-0.786899
0.119523
-1.73833
-0.752234
-1.04747
-1.5026
1.40183
0.66201
-0.725695
0.858327
-1.31048
-0.978724
1.3023
1.42654
-0.99399
-1.24391
-1.51218
-1.47138
1.00756
-0.71083
-0.128883
-0.38064
0.0495964
1.1573
-1.37284
1.55405
1.19337
0.855859
1.1895
1.48788
-1.00346
-1.34351
1.04483
1.16117
-0.873717
1.08509
-1.61807
-1.45233
-1.40236
1.31394
1.3366
-1.43686
-0.711121
0.435471
-0.293163
-0.385432
1.1366
1.21281
-1.14929
1.24574
1.28092
-1.72473
-0.67959
-0.742773
-1.46569
-1.41524
1.35688
-0.305334
1.17364
-0.693556
1.34902
1.08622
1.13286
1.17647
-1.00112
0.533179
-1.47659
0.842676
-0.614918
0.868176
0.104288
-0.0690493
1.11275
0.973156
1.15592
1.16322
0.282051
1.14278
-0.0908349
0.272043
1.04997
-0.153428
-0.660151
-0.521636
-0.287477
1.12039
0.92644
1.11839
-1.49343
-1.29111
-1.48475
-0.380234
1.12962
1.4709
1.14134
-0.638893
-0.894129
-1.04211
-0.148829
-1.50876
-1.51336
0.172335
1.14883
-0.827315
-0.511238
-0.437552
-0.360007
1.0069
-1.23915
-1.49229
-1.68293
1.16759
1.53621
-0.527689
1.18202
1.61066
0.954637
1.38025
-0.691321
-1.04032
1.45611
-1.49745
0.144565
-0.589354
-1.40908
-0.43459
-0.470752
0.996166
0.636118
1.39922
1.36824
-0.0273728
0.695904
0.424571
-0.155414
-1.50208
1.20364
1.00801
1.13408
1.15122
-0.262686
0.457478
1.1335
-0.224386
-1.51751
-0.489092
-0.441453
0.489554
-0.455261
1.03508
0.561225
-1.49688
1.25312
-0.658221
0.0504477
1.06981
-0.924285
-1.06159
-1.06704
0.898796
-0.535873
-0.376563
1.1692
1.14235
0.202191
-0.144208
-1.10331
-1.50621
-0.459525
-0.546728
-0.432095
0.476126
-1.04337
-0.445575
1.45314
0.595053
0.686691
-0.438695
-1.39934
1.10815
1.02219
0.836711
0.396617
-0.434614
-1.13874
-1.19362
0.768595
0.287419
-0.431497
1.05952
0.488673
-0.428654
1.59355
-0.431886
-1.08449
-1.41762
-0.38411
0.773399
-0.44683
-0.720784
-1.52739
-0.248139
-0.481016
0.356744
-0.776202
-0.257294
1.37506
-0.534703
-0.477865
-1.56277
0.1923
1.51389
1.45946
1.42751
1.11926
1.40934
-0.294917
1.11518
-0.661031
1.01961
-1.51959
-1.49435
1.29164
-0.834042
0.365384
-0.644723
1.47885
0.353176
1.40398
0.896808
1.03102
-0.562295
-0.617253
-1.51728
-0.301227
1.41461
1.3834
1.12221
0.547104
1.10062
0.80348
1.08051
-0.431674
-1.4892
0.608775
-0.576867
1.05925
1.12855
-0.289138
-0.596984
-0.428712
-1.72969
-1.51758
-1.05086
1.39124
1.14533
1.1229
-0.427155
0.393579
1.13007
0.724388
-1.50584
-0.581035
-1.21753
1.05059
-0.515904
-0.437203
-0.625487
1.1677
-1.6653
-1.42301
1.10379
0.487118
0.671533
1.11613
-1.51054
1.12505
1.23121
0.765037
-1.51224
1.08181
0.178912
0.767444
-0.967145
-0.474419
1.57485
0.0998773
-0.367606
-0.150769
1.15397
1.17485
-1.1183
-1.27668
-0.199905
-0.192589
-1.42783
-0.726715
-0.691267
1.11539
-0.730424
1.15908
1.33416
1.07875
1.18504
1.29934
1.3469
1.11661
-1.16235
-1.0955
-0.0346614
-1.61783
-1.29645
-0.437389
1.33192
1.27267
-1.31158
0.981999
-0.85052
-0.473354
-0.433889
0.357759
0.429361
-1.66984
1.11731
1.1549
-0.427736
-0.77105
1.45235
-1.73683
-0.769613
-1.62578
-0.739652
-0.403647
1.11971
1.03988
1.10433
-1.19795
0.60291
-1.46594
0.0192948
-1.294
-0.389459
-0.888254
-1.37215
1.15805
-1.1904
1.52608
-0.662495
-0.913616
-1.54771
-0.433446
0.937841
-1.55142
-1.1273
-1.50112
-0.508327
1.39524
1.25668
-1.01264
0.55351
1.0817
-1.53926
-1.34985
1.12892
-0.486507
-1.29063
-0.23614
1.02078
-0.728694
-1.27326
1.116
0.422034
-0.292576
1.14588
-0.861954
-1.08063
-0.760341
-0.499245
-0.272004
-1.265
1.4902
-1.49227
-0.0139388
-1.51791
1.05658
-0.201881
-0.950398
0.931937
0.706376
1.15056
1.01315
1.35769
-0.443975
0.83504
0.448529
-0.857374
1.14374
-0.00449638
-0.184548
-1.52518
1.2066
1.19553
-0.187984
-0.908238
-1.09016
1.24576
-0.83802
0.465937
-1.56235
-0.451512
1.46016
1.23964
-0.590921
-0.756672
-0.616603
-0.538267
1.09583
-0.685455
1.21289
0.562305
0.983678
1.09311
-0.420548
-0.881692
1.1798
-0.435925
-0.449131
1.38586
-1.47631
-0.534891
1.08003
-0.81741
-0.735335
-0.409368
-1.11538
1.4475
-0.9869
-0.0193246
-0.604339
1.34227
-0.640751
-0.769844
0.927839
-1.47475
-1.51989
1.41138
0.953826
0.975463
-0.729536
1.42436
0.188624
-1.16124
-0.713665
-0.715797
-0.652323
1.45015
0.868744
-1.42199
-0.63058
-1.23452
1.31769
-0.811525
1.3124
-1.51769
0.983237
-0.491906
0.687221
0.836153
0.805735
0.73382
-0.0244303
-0.791027
1.23316
-0.707599
-0.296472
-1.5038
0.1053
1.36293
-0.52111
-0.739467
-0.676128
-0.504208
0.591617
-0.664343
-0.481735
0.772378
0.00487236
-0.565775
1.44394
-1.25484
-1.15959
1.44394
-0.525784
0.48877
-0.827249
-0.434181
-0.46641
1.41257
-0.426115
1.34216
-0.457862
-0.847226
1.35859
-0.406482
-0.785163
0.86002
-1.13783
0.367117
-0.685639
-0.488618
0.758689
-1.5274
-0.502175
-0.436252
-0.435046
-1.5237
0.808876
0.209018
-0.619455
-0.577883
1.37981
-1.37358
-0.743447
-0.429592
-0.45567
-0.553139
-0.42407
-0.551953
-0.284042
1.43633
-0.667898
-1.50714
-0.754818
-1.07476
0.133778
-1.53125
1.47766
1.41765
0.725998
-0.895917
-1.51885
0.64972
-1.51665
1.50048
0.541359
1.0551
0.976764
1.31889
0.434782
-0.563713
-0.94137
0.29507
-0.707712
0.295561
-0.383382
-0.46617
1.38411
-0.43994
0.551416
-0.530738
-1.48592
-0.881464
)
;

boundaryField
{
    frontback
    {
        type            empty;
    }
    Top
    {
        type            zeroGradient;
    }
    outlet
    {
        type            fixedValue;
        value           uniform 0;
    }
    bottom
    {
        type            zeroGradient;
    }
    Inlet
    {
        type            zeroGradient;
    }
    rectangle
    {
        type            zeroGradient;
    }
}


// ************************************************************************* //
