/*--------------------------------*- C++ -*----------------------------------*\
| =========                 |                                                 |
| \\      /  F ield         | OpenFOAM: The Open Source CFD Toolbox           |
|  \\    /   O peration     | Version:  2306                                  |
|   \\  /    A nd           | Website:  www.openfoam.com                      |
|    \\/     M anipulation  |                                                 |
\*---------------------------------------------------------------------------*/
FoamFile
{
    version     2.0;
    format      ascii;
    arch        "LSB;label=32;scalar=64";
    class       surfaceScalarField;
    location    "43";
    object      phi;
}
// * * * * * * * * * * * * * * * * * * * * * * * * * * * * * * * * * * * * * //

dimensions      [0 3 -1 0 0 0 0];

oriented        oriented;

internalField   nonuniform List<scalar> 
3181
(
-1.04001
0.398889
0.641118
-0.414362
0.383017
0.0313455
0.543825
-0.376877
-0.166948
0.12503
-0.207215
0.0821844
0.0192708
-0.00491878
-0.0143521
0.766418
-0.515975
-0.250443
0.156464
-0.149861
-0.00660229
0.0274994
0.00522125
-0.0327206
0.475275
-0.888412
0.413137
-0.0755801
0.141891
-0.0663113
-0.0101807
-0.0492558
0.0594365
0.202422
0.0156774
-0.218099
-0.0115484
-0.0204352
0.0319836
-1.10492
0.151819
0.953098
-0.328444
0.735296
-0.406853
-1.11944
0.636042
0.483394
0.0859978
-0.931525
0.845527
-0.241729
0.324741
-0.0830121
0.880474
-1.73587
0.0208662
0.00405817
-0.0249244
0.0310524
-0.0825084
0.051456
-0.0742285
0.0671561
0.00707235
1.07097
-1.04533
-0.0256344
0.0509262
0.0248063
-0.0757325
-0.959608
0.327933
0.631675
-0.111372
0.236402
0.310392
-0.241653
-0.0687396
0.0311508
0.0661703
-0.0973211
-0.404665
0.333191
0.0714736
-0.0339501
-0.0207169
0.0157919
0.004925
-0.0372903
-0.922318
-0.00310396
-0.055543
0.058647
0.138418
0.834855
-0.973272
-0.0452376
0.0454346
-0.000197028
0.175764
0.272409
-0.448173
1.03264
-0.894225
0.0695002
-0.0384478
1.51765
-0.805286
-0.712366
0.428804
0.337614
-0.04557
0.0340216
-0.0773862
0.00315773
-0.43876
0.110316
-0.121415
0.0440286
-0.627677
0.128877
0.4988
-0.153632
0.0780515
-0.179104
0.183658
-0.00455359
-0.278144
-0.0820173
0.360161
-0.156609
1.67358
-1.51697
0.0338228
0.192135
-0.225958
0.000149348
-0.0964523
0.102196
-0.00574362
0.505066
0.23023
-0.0960119
0.136037
-0.0400249
0.117357
-0.120461
-0.177149
0.204489
-0.02734
0.168681
0.0692091
-0.23789
0.114684
-0.120958
0.00627358
1.25497
0.262682
-0.852214
-0.187793
0.255099
-1.45094
1.19584
0.54759
0.226494
-0.774083
-0.440426
-0.202464
0.642891
-0.497881
0.926685
-0.267772
0.815362
-0.331019
-0.110815
0.441834
-0.204434
-0.200231
-0.194331
0.165585
0.0287466
0.127617
0.2879
-0.415518
-0.458896
0.934171
-0.0159144
0.0434138
-1.75991
2.01501
0.193831
0.116561
-0.183689
-0.113897
0.297586
-0.270611
0.352265
-0.0816544
-0.0852522
0.0938381
-0.00858586
-1.91652
-0.919084
0.0080493
0.911034
-0.0461291
0.000891571
-1.06601
0.777949
0.288056
0.537246
-0.18197
-0.355277
-0.692463
0.194582
1.1037
-0.951885
-0.708198
1.15464
-0.201538
1.06641
0.162966
-0.175309
0.0123424
0.532178
-1.04815
0.595197
-0.595197
-0.00733153
-0.00293574
0.0102673
-0.218162
-0.0549498
0.273112
0.000187563
-0.0243904
0.0242028
-0.455694
0.840887
-0.385193
-0.0145897
-0.243556
0.258145
-1.08898
0.043648
0.34164
0.054834
-0.396474
0.129463
-0.852595
1.07909
-0.0051175
0.119519
-0.114402
-0.01824
-0.158909
-0.573835
0.0729058
0.50093
-0.132994
-0.440841
0.115697
-0.968293
0.330435
-0.786128
0.927266
-0.841268
0.0814933
0.0575934
-0.139087
0.0805836
0.0507844
-0.131368
-1.21208
-0.224661
1.43674
-0.251629
0.419634
-0.168005
-0.358859
0.223452
0.135407
-0.465962
-0.600043
0.0823496
-0.0485268
-0.161253
0.155129
0.00612418
-0.0765822
-0.0118443
0.0884266
-0.725134
-0.163278
-0.0210383
0.0152707
0.00576766
-1.47546
-0.665796
2.14126
2.01869
-0.345112
-0.0235715
0.01624
0.0438563
0.149975
-0.197692
0.373455
0.0135947
0.279097
-0.292691
0.135623
0.0667841
-0.202407
0.0124498
0.450926
-0.463376
-0.594424
-0.525012
-1.55822
0.0827571
-0.0300191
0.0249016
-0.109291
0.189246
-0.0799552
-0.22928
0.025561
0.130903
-0.058209
0.0737918
-0.0155828
-0.0991701
-0.0228445
0.122015
0.0812173
-0.0812173
-0.192205
0.217766
0.404252
0.20573
0.107943
0.0965464
-1.22761
0.768709
-1.54505
0.0997448
1.4453
0.0331314
-0.0301952
-0.00293622
-0.0259147
-0.049216
0.0751307
0.527498
0.00223632
-0.529735
-0.0284446
0.0285404
-9.5815e-05
-0.206912
0.0147072
0.164113
0.676774
-0.367705
0.531818
-0.00201295
-1.21007
-0.0569092
0.07618
0.4977
-0.307643
-0.190058
-0.015586
0.018174
-0.00258791
0.0513065
-0.32945
0.0246185
-0.943702
0.0507906
-0.160082
-0.295061
-0.413036
0.0669546
1.36835
-0.925739
-0.442608
1.07288
0.29547
0.0716104
0.288551
0.0287485
0.00438295
0.082806
0.0138509
-0.0966569
-0.254572
-0.58332
0.837892
-0.365527
1.41265
-0.318625
-1.41724
0.253348
-0.0139301
0.0127303
0.00119982
-1.14245
0.13284
1.00961
0.00854811
-1.151
-0.301725
0.643365
-0.906906
-0.0179682
0.00465988
-0.263131
0.258471
1.44294
-1.56234
0.119397
-0.0193973
-0.0375119
0.566908
-0.82148
0.506037
-0.350436
-0.155602
-0.292214
-0.115993
0.408207
0.239418
-1.01278
-0.0761964
0.0287144
-0.0536388
-0.548827
0.346363
-0.242352
0.0183672
0.223985
0.0769513
-0.0963486
0.00266765
-0.00266765
-0.116343
0.127409
-0.0110658
-0.285571
-1.25947
0.020006
0.0169959
-0.0370019
0.045676
-0.112675
0.0669992
-0.219161
0.0248297
1.65164
-0.490881
-1.16076
-0.195777
0.456672
-0.260894
0.0206554
-0.0203954
-0.000260026
-0.193674
-0.165185
-0.18176
-0.00465531
0.186415
-0.177246
0.304863
-0.0978114
0.0961618
0.0016496
0.0758357
0.00570231
-0.081538
-0.0691443
0.0572059
0.0119384
0.760522
-0.241602
-0.51892
-0.230925
-0.0519919
0.282917
-0.697692
0.663276
0.034416
-0.0101342
0.0349405
-0.0247321
0.0277012
-0.00296916
-0.0334853
-0.0422471
0.826108
1.19258
0.175117
-0.885593
0.710476
-0.0490633
2.05898
-2.00992
0.386885
-0.0237
0.618897
0.0594546
0.200473
-0.0648507
-0.0686016
-0.0278507
0.242637
0.15378
-0.073196
0.737544
-0.40961
0.0628862
0.210225
0.0469089
-0.161703
0.114794
-0.767505
-0.122398
0.889903
-0.0115035
0.0115035
0.0259503
-0.262523
0.534933
0.00942389
-0.240349
0.290851
0.0338907
-0.0240906
-0.00592851
0.132701
-0.142882
-0.348093
0.333504
-0.0246642
0.116608
-0.0919435
0.401512
-0.385835
-0.403423
0.182611
0.220812
-0.213588
0.285198
0.193917
-0.501559
-0.207808
0.606698
0.170829
-0.0362296
0.0362296
0.363933
0.194828
-0.558761
0.391557
0.0280771
-0.027514
0.0298685
-0.00235447
-0.106439
0.00386932
-0.0249076
-0.0486533
0.181355
-0.177037
0.237348
-0.0603106
0.126145
0.027635
-0.394541
0.152888
0.187064
-0.0609196
-0.0445146
-0.0532968
-0.030151
0.0393915
-0.00924049
0.154683
-0.109416
-0.0452671
-0.0120041
0.390245
-0.378241
-0.0522584
0.0363441
0.100637
-0.104795
0.00415836
0.0234363
-0.33771
-0.065713
-0.0771494
0.014321
0.0628284
-0.0568604
0.0282235
0.0286369
-0.0887084
0.0989078
-0.720776
0.621868
-0.025564
-1.29761
-0.113686
1.4113
0.978329
0.949149
-1.92748
0.0873443
-0.045228
0.496154
0.273699
0.248608
-0.522307
-0.205607
0.252516
0.145983
-0.888837
0.742854
-0.0345171
-0.0223433
0.0115983
0.0171161
-0.991045
0.446763
0.544281
0.925739
-0.810042
-1.47425
1.24959
-1.44294
1.54269
0.0408174
-0.0808424
0.00341034
-0.0281424
0.0132627
0.802612
-0.656628
0.126493
-0.0757021
0.415672
0.738963
-0.0382215
-1.70187
1.65281
-0.746833
-0.480773
-0.240455
-0.387221
-0.0182368
-0.171243
0.222549
-0.575373
-0.381627
0.18585
0.796522
-0.269024
-0.791247
-0.683003
0.742025
0.0249909
-0.059508
0.288667
0.0409548
-0.0409548
0.672159
0.146822
-0.818981
-0.223546
0.895705
0.340259
-1.56686
1.2266
0.209066
-0.00333537
0.00162136
0.0155492
-0.0171705
-1.45094
-1.49831
1.1532
1.04314
0.608497
-0.0370994
-0.142005
-0.288274
0.79334
-0.194183
-0.048169
-0.00317151
-0.0820807
-0.0513712
0.102156
0.373816
-0.24494
-0.748846
-0.282615
-0.0451898
0.0242818
0.0209079
-0.62448
0.60078
-0.0681772
0.0327223
0.0354549
0.0419576
-0.0132091
-0.0245389
-0.00241279
0.0269517
0.0146302
0.427203
0.000963099
-0.0165491
-0.013475
-0.0199733
0.0334483
-0.0158284
-0.165932
-0.719136
0.36818
0.350957
1.29008
-1.41533
0.125246
0.135356
-0.156011
0.020655
0.00288105
0.0794685
-0.374638
-0.22056
-0.0388007
0.0142618
-0.0383503
-0.0101764
0.140977
-0.338669
-1.88707
1.13006
0.757008
0.0261379
0.0968957
0.0577872
-0.767505
0.760263
0.000259527
0.0459726
-0.0483853
0.0431649
-0.638898
-0.0587941
0.0599875
0.127077
-0.435276
0.0479485
-0.463466
0.127697
0.342574
-0.28774
-0.12175
0.0225803
0.221337
0.83579
-1.05713
0.104622
-0.714516
0.609894
-0.938718
0.81632
-0.641104
0.429092
0.212012
-0.0181512
0.0185308
-0.000379608
0.165839
-0.458053
0.200173
-0.116815
-0.0833585
0.0451586
-0.016935
-0.0501836
0.00499386
-0.00883589
0.00947986
-0.0429652
0.0208462
0.0738665
-0.0947127
1.31859
-0.00531254
0.00495361
0.000358933
0.0509815
-0.0146375
0.857379
-0.01116
-0.0263519
-0.480639
-1.01767
0.119524
0.0895416
0.00762696
0.0892688
-0.212012
0.22056
-0.0591201
-0.208437
0.267557
-0.248039
0.0727298
0.11929
-0.106948
-0.0015537
0.0953918
-0.0232234
-0.943619
-0.943452
-0.0393094
0.0601556
0.739051
-0.255657
-0.133193
0.178869
0.341166
-0.00205294
-0.0254611
-0.00881779
0.090035
0.147827
0.204438
0.155397
-0.326831
0.171434
0.10936
0.567414
-0.0439147
-0.109717
0.879794
-0.190952
-0.688843
-0.641104
0.0814218
1.20866
1.03264
-0.593432
0.598243
-0.00481085
0.353609
-0.0771505
-0.276459
-0.292987
-0.399476
-0.0694714
0.0701119
-0.000640533
-0.237725
-0.0791089
0.316834
0.122734
-0.974011
0.851277
0.0400877
0.659445
-0.699532
-0.0465232
-0.11473
-0.0390267
-0.0381227
0.515844
-0.151911
-0.0156465
-0.00250472
0.239566
-0.0670063
-0.172559
0.0771535
0.00565243
0.00953416
0.0324234
-0.091472
0.149065
0.0257307
0.00197056
0.193877
-0.437433
-0.484568
1.43372
0.0117794
-0.000275893
-0.99494
-0.0178433
-0.0363327
-0.0749951
-0.0467553
0.24278
0.263258
0.456935
-0.0786376
-0.378297
0.175999
-0.0564749
-0.938127
-0.0137572
-0.0119339
-0.647634
0.746542
-0.0182814
0.18911
0.0871461
-1.65401
0.185043
-0.450134
0.265091
-0.00771806
0.286815
0.0134086
-0.0140785
0.000669897
-0.0377162
-0.0314281
-0.0216296
-0.13728
0.744629
-0.640007
-0.06137
0.0373386
0.00897636
0.307725
-0.152329
-0.155777
0.898158
0.115433
-1.01359
-0.117962
0.136329
-0.504439
-0.214697
-0.558403
0.609637
-0.594803
-0.0148339
-0.0661124
0.00474243
-1.70187
0.543826
-0.543826
-1.22652
1.22652
0.802612
-0.445827
-0.34441
0.790238
-0.901002
-0.093938
0.623001
-0.364589
-0.258411
0.167833
-0.247788
-0.0149885
-0.00858299
-0.888454
-0.0798386
-0.932732
0.211957
0.0355054
-0.0112236
0.697076
-0.109386
-0.58769
0.969715
0.0629267
-0.00163124
0.0150398
-0.963762
-0.144814
0.327426
-0.0744102
-0.604539
0.678949
-0.00496657
-0.865167
-0.697175
0.218091
-0.812515
-0.889903
1.3014
-0.411496
-0.15106
0.290783
-0.139724
-0.0250952
0.722172
-0.105599
-0.92671
0.92671
-1.67328
1.0597
0.613575
-0.00392396
-0.00138858
0.0204085
-0.4345
0.812817
-0.0348673
-0.0828947
-0.0377833
0.041741
0.00886151
0.0117939
1.63557
-1.20647
-0.322505
0.398341
-0.636481
1.00956
-0.373083
-0.0492933
0.0104926
0.120807
-0.0540226
0.374689
0.0053973
-0.0258325
0.353398
0.0368471
0.0419844
-0.243609
0.201625
0.14684
0.0368175
0.0948921
0.177341
1.28356
0.73145
0.473024
-0.175529
-0.297495
-0.932406
1.06525
0.178286
-0.134258
0.0787658
-0.768218
0.689452
0.0271967
0.134368
-0.482461
-0.075589
0.137501
-0.0619124
0.136322
-0.211911
-0.443547
-0.10528
-0.0688559
0.0717485
-0.00289263
0.0110012
0.0147295
-0.120813
0.000352591
0.656628
-0.609894
-0.0467348
-0.303181
0.312605
0.875878
0.60022
-0.24661
-0.00906483
0.0260607
0.230044
-0.58048
0.168858
-0.582003
0.413145
-0.0130109
-0.00106754
-0.633606
0.456114
0.177492
0.00460466
-0.010483
0.00587833
-0.0229633
0.0151599
0.00780345
-0.296691
-0.751463
-0.225435
-1.07218
-0.19494
-0.810042
1.54269
1.24959
-0.199285
-0.182872
0.13088
-0.0606827
0.065951
-0.00526827
0.529002
0.133399
-0.662401
0.549842
0.0731585
0.000359391
-0.0133703
0.118328
-0.428155
0.0377833
-0.0437831
0.00447369
-0.460215
0.690259
0.00960846
-0.0336991
-0.29401
0.695522
1.07288
0.470616
-0.0648263
0.00146111
0.0633652
1.45195
-0.20236
-0.06367
-0.057288
-0.969261
0.159219
0.538136
-0.298718
-0.473839
-0.127725
0.601563
0.818293
-0.363717
-0.454576
0.330264
0.126671
-1.65281
0.201871
0.0171538
0.0084309
-0.0255846
0.344333
1.71465
-0.197065
0.198686
-0.268548
2.17949
-0.636806
-0.678716
0.0542062
0.62451
0.380842
-0.0134487
-0.346592
0.508248
0.809976
0.501311
0.0806086
-0.0228214
-1.56802
-0.181685
1.74971
1.38748
-0.0326337
0.0191587
-0.0501115
-0.356467
0.10229
-0.307897
0.839203
0.0589553
-0.0441327
-0.0219797
0.0149747
-0.608407
-0.0241126
0.0139784
0.117153
-0.158147
0.040994
-0.307604
0.320801
-0.0131972
0.639869
-0.524436
-1.81278
0.985542
0.827236
-0.0421728
-0.0544607
0.0966335
0.267887
0.0398382
0.622274
0.137988
-0.66089
0.66089
1.19584
0.969715
-0.714516
0.322174
0.487803
-0.47635
-0.0824112
0.910955
-0.361113
0.00834627
-0.873014
0.864667
0.136907
0.00498391
0.0262641
0.475839
0.146435
0.0531257
-0.1731
-0.121385
0.294485
0.554735
-0.522622
0.349522
-1.09086
-0.28308
-0.652544
-0.0100502
0.00305
0.00190361
-0.224541
0.0474585
-0.0265505
0.0343081
-0.142266
0.107958
-1.51934
-0.153937
-0.00616469
0.072335
-0.271466
0.13621
0.135256
-0.578633
0.388576
-0.241889
0.358496
0.237733
0.0171597
-0.0055614
-0.959692
0.468811
0.0332633
0.0673733
-0.0478785
0.0568549
0.193028
0.0071454
-0.425434
0.634972
0.477622
0.300311
0.867767
-0.789001
0.783445
-0.442279
-0.60682
0.172321
0.151895
-0.789936
0.763362
0.0265737
0.743671
0.0955324
-0.192435
-0.13007
0.00219766
-0.026588
0.953326
-0.838436
-0.11489
-0.178871
0.105676
0.0281376
0.126992
0.87713
-0.226627
-0.744361
0.970988
-0.329642
-0.0519851
0.474522
-0.745987
0.308066
1.12868
1.4866
-0.516883
0.170234
0.554481
-0.724716
-0.364039
0.0481733
0.0198963
-0.00273653
-0.50782
-0.0990002
0.141767
-0.0648156
-0.183905
0.135252
-0.540959
0.280064
-0.991764
0.184591
-0.286619
-0.55544
1.53287
-0.0875654
-0.284545
0.265169
-0.725384
-0.164096
0.295743
0.0576552
1.05365
-0.930912
-0.186391
0.125471
-0.644705
0.422209
0.222496
0.0266268
-0.00947308
0.0469059
-0.0630981
-0.244505
-0.12452
0.69791
-0.420735
-0.277175
0.417045
0.138934
-0.0999386
-0.038995
0.240757
0.0549857
-0.631821
-1.29566
-0.0937066
0.136871
0.46565
-0.692277
-0.160937
0.189574
-0.0200482
0.0224216
-0.00237341
-0.00283144
-0.0273638
-0.239261
0.0775576
0.00799753
-0.570926
0.419867
0.0191942
0.089789
-0.131962
-0.692707
0.938635
-0.87968
0.0156394
-0.1898
0.17416
-0.139491
-0.540499
0.67999
0.0764346
-0.715332
-0.691096
-1.12168
-0.0259173
0.00127459
0.0246427
-0.270079
-0.609637
-0.157868
-0.1446
-1.56802
-0.227421
0.16257
-0.449015
-1.14008
-0.436404
0.0444695
0.391935
0.270172
0.117907
0.483753
0.160748
-0.644502
0.0971216
-0.0721307
0.167979
0.403479
-0.571458
-0.223209
0.361384
0.703862
-0.237996
0.177685
-0.336445
0.697829
0.576616
-0.503711
-0.0161177
0.0293804
-0.00999438
0.212025
0.0882854
0.729235
0.0890581
-1.51287
0.569255
0.237934
0.673021
0.935649
-0.0558551
-0.0183587
-1.4866
-0.652544
-0.714126
0.722176
0.0419105
-0.791247
0.659445
0.605137
-0.932374
0.969741
-0.00457258
-0.785363
-0.315766
0.638382
-0.773757
0.135375
0.0838385
0.0550951
-0.10785
-0.0655546
2.23666
-2.17111
-0.00450392
0.00755393
-0.259451
0.211282
0.714816
0.227769
-0.213061
-0.191689
1.43336
-2.09916
0.601792
0.188446
-0.0190441
0.147738
-0.128694
-1.78354
1.60185
0.577417
-0.441207
0.186804
1.68415
-1.74971
-0.000737032
0.213267
-0.046785
-0.0426446
0.00631194
0.00805774
-0.0435318
0.0354741
-1.02165
-0.0354797
0.316809
-0.803556
-1.2788
1.51422
-0.235428
0.372374
0.63719
-0.0523287
0.0561451
-0.00381641
-0.631349
2.06471
-0.719551
1.8085
0.337646
-1.61644
0.309714
-0.0964466
-0.586344
-0.405419
-0.168382
0.149338
-0.0581179
-0.877586
-1.89902
-0.110901
1.68415
0.0501368
-0.853693
0.829842
-0.644377
-0.185464
-0.981823
0.395479
0.0183957
0.127856
0.00248279
-0.130338
-0.971521
0.566101
-0.219119
0.913459
-0.927216
0.188904
-0.204733
-0.0941336
0.235111
0.282994
0.0812701
-0.0495451
-1.12295
0.109363
1.22061
-0.719301
-0.553676
-0.517461
1.07114
0.446324
0.0246233
-0.00907413
-0.735012
0.699532
0.762146
-1.39349
-0.618897
0.764605
-0.145707
1.24332
0.270904
0.776911
-0.810861
-0.493034
-0.450669
-0.470804
-0.500717
0.803189
-0.803189
0.684875
-0.684875
-0.735012
-0.959187
0.959187
-0.764605
0.703664
-1.15412
0.316134
-0.367802
0.367802
0.762146
-1.39349
0.776911
0.767213
-0.767213
0.810861
0.758792
-0.758792
0.506966
0.529196
0.482539
0.394344
-0.499283
-0.549331
1.07853
-0.88833
-0.310875
0.142493
0.842234
-0.264817
-0.290656
-0.00552375
-0.00563622
-0.885006
0.093799
0.791207
-0.0541721
0.0359353
-0.996694
0.587084
0.914037
-0.591864
-0.127228
0.0155946
-0.00885911
-0.806549
-0.0790437
-0.544281
0.0136779
0.00343817
0.884167
-0.0454216
-0.00296377
0.170343
0.00176953
-0.0107994
0.00902983
-0.809919
0.0671503
0.742768
-0.209699
0.492692
-0.533176
0.410717
0.122459
0.915908
-0.74122
-0.174688
0.0779454
0.29551
-0.0134473
-0.0554086
-0.0551039
-0.0143675
0.142896
-0.767376
-0.837556
0.101682
-0.741751
0.795429
-0.0536776
0.123542
-0.899849
0.776307
-0.803086
0.906016
-0.10293
-0.0457806
0.0429492
0.0196247
-0.282756
0.345339
-0.196002
-0.0950532
-0.789953
0.917976
-0.0937885
-0.824187
-0.0257756
-0.0235177
0.632535
0.820854
0.0948968
0.452242
-0.379084
0.103005
-0.892958
0.894225
0.332291
-0.788445
0.00308161
1.01691
-0.893364
1.07678
1.02866
-0.840823
-0.187839
-0.881032
-0.115662
-0.407544
0.0293032
-0.766832
0.388535
-0.785056
0.785056
-0.601763
-0.0866321
-0.86363
0.12241
-0.932661
0.85825
0.075723
-0.192538
-0.0605924
0.0623311
0.0114607
0.189997
0.826909
0.819384
0.770547
0.140977
-0.911524
-1.2137
0.948882
-0.782804
-0.107087
0.889891
0.172229
-0.89178
-0.673633
0.88807
-0.785065
-0.107832
0.459861
-0.0277838
-0.432077
-0.769201
0.678867
0.0903335
-0.286387
-0.000471295
0.286858
-0.890637
-0.829407
0.0876563
0.524322
0.259122
-1.83829
-0.557175
-0.576657
0.576657
-0.93996
-0.182994
0.83674
-0.690305
-0.121368
1.10691
0.780983
-0.207074
0.238515
-0.989978
0.308329
-0.940237
0.631908
-0.69191
-0.723417
0.0845269
-0.185037
0.866106
-0.865846
0.309116
0.296987
-0.219042
0.78076
-0.88369
1.65754
-0.708658
-0.149935
0.737019
0.581847
-0.581847
-0.0561257
0.0429165
0.107946
-0.0736379
-0.28417
0.963037
0.23034
0.0050417
0.0100571
-0.0150988
-0.667487
0.693731
-0.0262442
0.159628
-1.00045
0.109877
-0.894942
-1.08854
1.42139
-0.332857
0.0048138
0.874782
-1.47167
1.6313
-0.753965
0.600666
-0.659461
-0.654681
0.150242
-0.692122
0.0257198
0.100451
-0.583103
-0.109019
0.00519006
-0.629046
0.0698001
0.725629
0.693862
-0.0931957
0.0741262
0.783253
0.88594
0.263543
-1.14948
-0.379536
0.499331
-0.00744688
-0.953112
0.720647
0.232465
-0.685306
-0.127209
1.39735
-0.595216
0.443305
-0.0382006
0.486409
0.513591
-0.769888
-0.113802
-1.04128
-0.0784432
-0.509017
-0.490913
0.39994
0.60006
-0.0600896
0.0454521
-0.863677
-0.0691911
-0.59027
-0.177959
-0.244152
0.422112
-0.0210508
-0.00217254
0.110557
0.0707976
-0.128654
-0.110606
0.75912
-0.642589
0.716715
-1.17472
0.591612
0.288775
-1.22923
0.940453
-0.747144
-0.191271
0.938415
-0.250687
0.236434
-0.0262082
-0.0526455
-0.0437031
0.0124227
0.7089
-0.132243
0.127173
0.11056
-0.735139
0.0676522
0.279565
-0.738065
0.802123
-0.581311
0.175801
-0.286132
1.0251
-0.0051919
0.151653
-0.420201
-0.0160124
0.0206096
-0.0240026
1.05697
-0.777401
0.842959
0.428214
-1.27117
0.846776
-0.0352771
-0.00389376
0.0391708
0.126197
-0.0157784
0.000131884
0.233121
-0.115968
1.17873
-1.3001
-0.336938
1.1799
0.00690045
0.296247
-0.801014
-0.974927
1.29186
-0.316935
-0.78028
0.836984
-0.0567034
-1.20278
0.500496
0.0761207
-0.0671402
0.772796
-0.453838
-0.0793376
0.277952
0.461161
0.182548
-0.64371
0.396804
0.0407546
0.652976
-0.5739
0.560388
0.0135119
0.253598
-0.417694
0.0336106
-0.0369602
0.00334966
0.696842
-0.0101751
-0.0828113
0.0199233
1.55756
-0.545218
-0.657567
0.00384415
0.120018
-0.174478
0.15882
-0.0878202
-0.0710001
0.0268128
-0.0187551
0.409031
-0.00555258
0.0705711
0.226259
-0.0272671
-0.0908226
0.220557
0.0964622
0.0016072
0.0459823
0.766642
0.380937
0.942553
-1.32349
0.839704
0.581003
-1.42071
0.645713
0.135462
0.000222559
-0.0178629
0.0176403
-0.173007
-1.00486
0.0646205
-0.00307565
0.745101
0.715666
0.341883
-0.791051
0.6832
0.817942
-0.083155
-0.072622
-0.88001
0.0282522
-0.275868
0.0110724
-0.184041
0.692601
0.0740411
0.0126542
0.931569
-0.431073
0.253855
0.165073
0.030841
-0.113349
0.423503
-0.0568284
-1.06414
-0.0751732
0.197559
-0.139806
0.97951
-0.155605
0.45093
-0.0527497
-0.111466
0.0181329
0.000175572
-0.0183084
-0.697559
0.279865
-0.00951047
0.89606
-0.233955
-0.615209
0.636711
-0.0215027
0.538668
0.760253
-0.268551
1.209
0.0767111
-0.170845
0.63224
0.128013
0.545183
0.055597
-0.267045
0.719287
-1.08715
0.309746
-0.604956
0.35165
0.253307
0.911346
-0.0709137
0.0448492
0.0620221
-0.0453584
1.1674
0.737644
0.0802978
0.618284
0.219608
-0.870686
-0.0807155
-0.673244
0.676326
-0.023422
-0.601572
0.423613
0.87302
0.672994
0.117443
0.103545
-0.165162
-0.317298
0.616289
0.322346
-0.69017
-0.0311461
-0.795759
1.1055
0.574614
1.56664
-0.0762101
0.413246
-0.743328
0.933187
-0.189859
-0.413915
-0.191041
0.0310227
-0.0398397
-0.192477
0.746436
-0.0269916
0.00701831
0.627881
0.2716
-0.852911
0.603803
-0.13386
0.240024
0.752165
0.239381
-0.991546
0.277981
-0.922359
0.0164726
-0.896153
-0.179768
0.771412
-0.591644
-0.666133
-0.0130075
-0.039638
-0.0545482
-0.19809
0.0255854
-0.0456336
1.4248
0.300527
-0.202603
-0.0979241
-0.0337635
-0.575373
-0.167334
0.318987
-0.601576
-0.00217833
0.00394787
-1.34774
-0.0532607
-0.590601
0.0167007
0.567925
0.305094
0.624509
0.78679
-0.246251
-0.386219
0.63247
-0.401981
-0.617725
0.617725
-0.23245
-0.912402
1.14485
0.029539
-0.147501
0.68505
-0.117125
-0.229112
0.146201
0.297104
-0.0472155
1.14337
0.280337
0.172165
-0.10521
-1.12499
0.484108
0.0762806
0.0538952
0.015605
-1.2403
-1.07843
-0.728996
0.693048
0.306952
-1.07843
0.693048
-0.138349
-0.352114
-0.138349
-0.696215
0.696215
0.303785
-0.015013
-0.0768431
-0.0754254
0.178639
0.0761332
-0.45948
0.641084
-0.0372804
0.660166
-0.505282
-0.154884
-0.0607082
0.0606419
6.63196e-05
-0.0212878
0.0263295
-0.405184
0.0200162
-0.0711972
-0.435328
-0.348994
0.124453
0.0434709
0.829866
-0.275385
-0.444688
-0.280695
-0.0111084
-0.126309
-0.00902017
0.678789
0.066312
-0.467694
0.0349425
-0.00149425
-0.00844202
0.086847
0.565631
-0.477224
-0.0884071
1.1572
0.547888
-1.23634
0.896696
0.0107531
-0.0599691
0.104061
-0.574878
0.0538911
1.12095
-0.368785
0.00916949
-0.0192197
0.353483
-1.22527
0.0240415
-0.0240415
0.0184482
-0.0184482
0.00585958
-0.00585958
0.0117794
0.364401
0.459843
0.0940047
-0.734718
0.465694
0.199077
0.0340445
-0.0817661
-0.484827
0.866251
0.110925
-0.796231
-1.39211
-0.261902
0.0201276
0.0190974
-0.0039375
-0.0108362
0.0108362
0.683257
-0.0121108
0.0121108
0.6997
0.0893538
0.0283088
0.00663366
0.00712455
-0.0719509
-0.0243944
0.0243944
0.00786242
-0.00786242
-0.0205482
0.0205482
-0.0107103
0.0107103
0.0555824
-0.294008
-0.0852996
0.222072
-0.011163
0.011163
-0.374589
0.515642
-0.141053
0.513991
-0.223207
0.290156
-0.734844
0.5614
0.141248
0.0737269
0.562984
0.565197
-0.00925796
0.00925796
-0.391574
0.0228594
-0.0228594
-0.0115263
0.0115263
0.752515
-1.38892
0.0335007
-0.158812
0.614926
0.00746719
-0.00746719
-0.00734824
0.00734824
0.0170518
-0.0170518
0.0252653
-0.0252653
-0.0217043
0.0217043
0.032903
-0.032903
0.482062
-0.0297059
0.0297059
-0.00759907
0.00759907
0.02232
-0.02232
0.0103455
-0.0103455
0.00935377
-0.00935377
-0.100828
-0.0234999
0.0234999
0.199528
0.0241543
-0.0370614
0.0370614
-0.00737634
0.00737634
-0.00436851
0.00436851
0.0313555
-0.0313555
0.0278001
-0.0278001
0.00729161
-0.00729161
0.0121641
-0.0121641
0.357443
-0.245372
0.0093469
-0.0093469
-0.00721946
0.00721946
-0.0358331
0.0358331
-0.0301742
0.0301742
-0.00969118
0.00969118
-0.413998
0.651932
0.309002
-0.0300895
0.0300895
-0.0217879
0.00652195
-0.00652195
-0.00680167
0.00680167
0.0401509
-0.0401509
0.14394
-0.216562
-0.0124166
0.0124166
-0.0250428
0.0250428
-0.491951
0.0463125
-0.178496
-0.0338773
0.0338773
-0.449707
0.0357683
0.0203768
-0.999468
-0.513405
-0.0346738
0.0346738
-0.19611
0.139282
-0.0443997
-0.00654164
0.00654164
0.00692993
0.044526
0.264765
-0.328128
-0.283787
0.611915
0.198344
0.0117596
-0.0117596
-0.387758
0.10727
0.280488
0.775955
-0.396334
-0.379621
-0.455468
-0.66303
-0.624807
0.344112
-0.678691
0.299155
-0.574971
-0.0131765
0.193951
-0.878832
0.0139745
-0.0139745
-0.0049652
0.0049652
0.0290468
-0.0290468
0.0282559
-0.0282559
0.00530024
-0.00530024
-0.00389766
0.00389766
0.0861978
-0.268167
0.179677
-0.306905
-0.00701757
0.00701757
-0.0482721
0.0482721
-0.0381522
0.0381522
-0.0120815
0.216078
-0.203997
-0.00276449
0.31906
-0.553016
0.00851115
-0.00851115
0.00069853
-0.00069853
-0.0916967
-0.280374
-0.344433
-0.00456756
0.00456756
0.0573905
0.0189496
0.926315
-0.483457
-0.0769547
0.560412
-0.632108
-0.442979
-0.323853
-0.0416698
0.0416698
-0.681092
0.287479
0.0471543
-0.0471543
-0.639964
0.381553
0.270714
0.112938
0.00364801
-0.00364801
-0.832492
0.00174441
-0.00174441
0.312951
0.40922
-0.0050082
-0.050983
0.050983
-0.00450858
0.00450858
-0.0401432
0.0401432
-0.0578422
0.0578422
0.00138547
-0.00138547
-0.0639664
0.0639664
0.000828441
-0.000828441
-0.0433655
0.0433655
0.00917396
-0.0489533
0.0489533
0.00598269
-0.00598269
0.0458225
-0.0458225
-0.000102693
0.000102693
0.0510773
-0.0510773
-0.220098
-0.00197846
0.00197846
-0.0038917
0.0038917
-0.0572375
0.090035
-0.00977004
0.00977004
0.00503683
-0.00503683
-0.05655
0.05655
0.292157
-0.0175735
0.0175735
-0.0627679
0.0627679
-0.00819933
0.00819933
-0.0641098
0.0641098
-0.0146877
0.0146877
-0.0767105
0.0767105
-0.0209592
0.0209592
-0.103762
0.103762
-0.687314
-0.236368
-0.527488
0.505986
-0.865167
-0.132404
-0.578894
0.394853
0.176832
0.240213
0.00372931
-0.00372931
0.287249
-0.724462
0.0408343
-0.0252294
-0.873163
0.93609
-0.226673
0.269838
-0.0167478
-0.0191263
-0.404617
-0.575154
-0.0434805
0.392688
-1.27166
-0.0169233
0.0169233
-0.756169
0.0224879
-0.0224879
0.0116564
-0.0116564
0.305289
-0.145863
-0.00304695
0.00304695
0.0206756
0.015554
0.597692
-0.206607
-0.0251816
-0.0107
-0.0076587
-0.0926773
0.488757
-0.39608
0.035423
0.0491038
0.0101927
0.959005
0.0132578
0.0586368
-0.407165
0.436468
-0.48412
-0.919136
-0.290931
-0.0686652
0.0172939
-0.45236
0.451888
0.0149948
-0.00294873
0.0060418
0.781978
-0.559655
-0.0346182
0.0654592
-0.0351229
-0.273653
0.19681
0.427078
0.236198
-0.181706
0.230422
0.0072326
-0.00153029
-0.259693
-0.00865138
-0.31328
0.110677
-0.020578
-0.9568
-0.0706389
0.262093
-0.349838
0.386686
0.312655
-0.868095
0.0458934
0.0481994
-0.0717171
-0.345458
0.467918
-0.0460364
0.0316214
0.014415
-0.0252127
0.0252127
0.18056
-0.427171
-0.152578
0.0399031
-0.0764167
0.0529947
-0.0673151
-0.00684196
0.074157
-0.0410473
-0.149765
0.107936
0.107869
-0.296701
-0.360094
0.656795
0.0139734
0.0561385
0.153693
-0.0265202
-0.173445
0.0652014
-0.153283
0.305178
0.00754662
0.0316242
-0.0299929
0.183686
0.00310769
0.255364
-0.0109829
0.0109829
-0.93972
1.51433
0.0863208
-0.167036
-0.0241182
0.0191516
1.47089
0.160411
0.00718981
-0.00985747
-0.53256
0.00507122
0.264009
0.08663
-0.67371
0.312597
-0.0642724
0.379214
-0.675915
0.195052
0.525596
-0.0854559
0.0854559
0.00248279
-1.28585
-0.113899
1.39975
-0.207777
0.153229
-0.456467
0.34509
-0.869526
-0.0292867
0.0286509
-0.0252406
0.930502
0.438188
-0.320745
-0.0684949
-1.3604
-0.256045
-0.0512992
-0.306858
0.815106
0.589205
-0.270145
-0.382244
0.678491
0.411975
0.186269
-0.272951
0.0549988
-0.469434
0.328382
0.137806
-0.137806
-0.00216304
-0.0691414
0.0713045
0.000943264
0.011341
0.0224216
0.252819
-0.425826
0.234178
-0.188904
-0.0452736
0.549993
-1.06596
0.129491
-1.14716
0.697783
-0.124712
-0.182193
-0.044813
-0.0797073
-0.481343
0.0460153
-0.281997
0.00140046
-0.020578
0.37271
-0.00505167
0.00149106
-0.00045271
0.0123962
-0.0107907
-0.00160557
-0.106138
-0.016069
-0.162261
0.17833
-0.130763
-0.338671
0.0206756
0.345714
0.00066237
-0.368271
0.0816515
0.00231113
0.208569
-0.114564
-0.0121101
0.0121101
-0.00100132
0.000514179
-0.00997674
-0.0003633
0.00750316
0.000870893
-0.00115609
0.0332303
0.230027
-0.00361257
0.00361257
0.0465568
0.518072
0.00148448
-0.311105
0.466694
1.12572
-0.476221
0.338964
-0.438105
-0.118154
-0.0344242
0.234227
-0.236178
0.00788834
0.0162336
-0.00381085
-0.0108473
-0.190318
-0.404569
0.870263
0.438594
-0.352396
-0.0260305
-0.0015475
0.278464
-0.27365
0.000826288
0.00184451
0.0143891
0.599286
0.00122831
-0.000222458
0.714937
-0.649735
-0.243817
-0.119918
0.284037
0.000417791
-0.000252508
-0.0443997
-0.00607723
0.817377
-0.430992
0.507273
-0.80744
0.907012
-0.843027
0.592686
-0.197833
0.690621
0.0014141
0.00338575
0.0157116
-0.121882
0.141501
0.0242169
0.00746804
-0.00276179
0.0624433
-0.0476546
-0.0147887
0.000657029
-0.00929418
0.0349608
-0.0256666
-0.0867697
0.0109531
-0.00089601
0.00237012
0.465853
-0.425921
0.00366998
-0.00118003
1.35711
-1.47101
0.399302
-0.00562698
0.00157644
0.352971
-0.2824
-0.0387036
-0.121325
-0.0192967
-0.00347842
0.115346
-0.00504812
-0.00155354
0.41098
-0.000507741
-0.00544711
0.00544711
0.00176084
-0.0124608
-0.00171733
-0.325428
-0.00350835
0.0695037
-0.106975
0.229453
-0.119245
-0.0657437
-0.00149357
0.00191324
0.466477
-0.00165223
-0.00471727
0.0357399
-0.00199102
-0.00129171
0.156225
0.0741151
-0.710402
0.453367
-0.857936
0.171514
5.89802e-05
-0.821421
0.115063
0.194052
0.563406
-0.0161724
-0.103566
-0.00382871
-0.00133187
-0.553079
-0.00322232
-0.000557035
-0.0158045
1.00932
-0.612516
-0.00245692
-0.000931132
-0.00556699
-0.00187577
0.0629584
-0.0240095
0.0240095
0.0167428
-0.0162286
-0.0031625
-0.00755979
-0.00246716
0.00395822
-0.160392
0.0894787
-0.0064884
-0.0126007
0.0450591
-0.0156705
0.058917
-0.041623
-0.623459
0.569781
-0.0267283
-0.00130753
0.484024
-0.286464
-0.0743023
-0.689784
-0.0799359
-0.123622
-0.0906471
0.088656
0.681601
-0.000673504
-0.0276914
0.0274389
0.191648