/*--------------------------------*- C++ -*----------------------------------*\
| =========                 |                                                 |
| \\      /  F ield         | OpenFOAM: The Open Source CFD Toolbox           |
|  \\    /   O peration     | Version:  2306                                  |
|   \\  /    A nd           | Website:  www.openfoam.com                      |
|    \\/     M anipulation  |                                                 |
\*---------------------------------------------------------------------------*/
FoamFile
{
    version     2.0;
    format      ascii;
    arch        "LSB;label=32;scalar=64";
    class       volVectorField;
    location    "43";
    object      U;
}
// * * * * * * * * * * * * * * * * * * * * * * * * * * * * * * * * * * * * * //

dimensions      [0 1 -1 0 0 0 0];

internalField   nonuniform List<vector> 
2186
(
(1.31955 -0.0633175 1.78149e-19)
(1.73592 -0.970568 -1.79305e-19)
(1.55166 -0.947158 -4.61823e-21)
(0.774307 -0.613197 -1.23016e-19)
(0.0790387 0.141255 -1.4737e-19)
(0.189623 0.681162 0)
(0.774557 -0.714222 0)
(-0.157771 -0.193893 1.63132e-19)
(1.96096 0.164877 2.62287e-19)
(0.581174 -0.347135 -2.97354e-21)
(0.650704 0.586305 0)
(1.18945 -0.251372 -2.16406e-19)
(-0.165503 -0.17072 -6.28689e-20)
(1.21119 0.0235912 -3.43814e-19)
(1.93739 -0.656696 -1.77665e-19)
(1.00998 -0.00297442 1.67107e-19)
(0.97958 0.0106511 0)
(-0.221955 0.935196 0)
(0.858142 1.18103 0)
(-0.153681 0.0984604 -3.54587e-20)
(0.48043 0.0434144 -1.10612e-19)
(-0.222581 0.178125 4.88974e-20)
(1.19828 0.0265184 2.85316e-19)
(-0.208242 -0.139543 5.73162e-21)
(1.03514 0.00682268 -2.24331e-19)
(0.825884 -0.58499 0)
(0.765973 -0.0581381 1.34769e-19)
(0.655794 -0.63444 -1.33689e-19)
(1.18312 0.695846 0)
(0.969238 0.0245483 -3.06435e-19)
(-0.072398 0.0345714 0)
(1.02866 -0.01251 1.0618e-20)
(-0.266622 -0.0226101 0)
(1.42152 0.0631531 -3.52548e-20)
(-0.114913 -0.18351 1.46768e-21)
(1.50083 0.762536 1.35028e-19)
(1.28772 -0.0224486 -1.94808e-20)
(0.5027 0.0927594 -3.3198e-19)
(1.84398 0.29378 -7.68471e-20)
(0.467131 0.514974 -4.85989e-20)
(-0.180786 -0.173555 0)
(-0.174824 0.0972141 0)
(2.06452 -0.86551 1.42792e-19)
(-0.430617 0.0243205 0)
(1.09024 0.271917 1.6428e-19)
(0.621658 -0.328189 2.57056e-19)
(0.99325 -0.839124 0)
(1.24291 -0.811944 6.38762e-20)
(2.46207 -0.481223 0)
(-0.152541 0.603428 1.1885e-19)
(-0.0743757 0.0449767 5.23751e-20)
(0.59982 0.553859 8.94634e-20)
(2.22394 -0.680003 1.80346e-19)
(0.580401 0.237602 -2.7094e-19)
(-0.390046 -0.203457 1.9383e-20)
(0.80517 -0.684867 0)
(1.85996 -1.01034 2.4327e-20)
(0.623954 -0.581761 0)
(2.27558 0.217363 3.1354e-20)
(1.15133 -0.17337 -2.89021e-19)
(1.46833 -0.231226 3.40954e-20)
(1.32875 0.292039 -2.09863e-19)
(1.32372 0.526045 0)
(0.78448 0.562013 5.32734e-20)
(1.3465 0.381464 -1.37205e-19)
(1.30766 -0.756203 -7.81908e-20)
(1.14463 0.646628 6.17492e-20)
(0.682228 0.0419663 -5.32596e-19)
(0.815944 0.0345683 0)
(2.32144 0.238891 -7.48251e-20)
(-0.159323 -0.189775 -1.95972e-19)
(1.97827 -0.436986 -5.77229e-20)
(0.732383 -0.0671388 -2.31482e-19)
(0.909516 -0.543644 0)
(0.818869 0.156383 -8.8523e-20)
(0.585765 -0.54525 -2.56684e-19)
(2.3839 -0.46658 0)
(1.00691 0.00727413 3.39272e-19)
(-0.10594 -0.2266 0)
(1.94541 0.391508 0)
(0.681296 0.646117 5.19412e-20)
(0.604479 0.229447 5.639e-20)
(1.02445 0.00568113 3.7219e-20)
(1.29004 0.406677 3.34966e-20)
(0.976231 0.0225525 3.88767e-19)
(1.04342 0.0271685 -9.27622e-21)
(0.659174 0.145623 -3.24063e-19)
(0.616535 0.706608 -1.01932e-21)
(0.281551 0.0522156 0)
(-0.0744809 -0.0829245 1.60062e-19)
(0.899341 -0.651452 -1.29682e-19)
(-0.115346 -0.0330026 -3.45406e-21)
(1.12808 -0.0816038 2.14413e-19)
(0.834706 -0.208811 0)
(0.976917 0.0230128 3.74526e-20)
(1.33718 0.633047 0)
(1.72515 -0.968 0)
(1.2785 0.221139 0)
(-0.061422 0.465825 0)
(0.830428 -0.700026 2.37142e-19)
(0.882243 0.477679 -2.51767e-19)
(0.845803 0.715398 1.37654e-19)
(1.54874 0.188626 0)
(1.15913 -0.103991 -1.96006e-19)
(1.12676 0.0229286 1.67599e-19)
(-0.289708 0.238374 6.21484e-20)
(0.612413 0.477997 0)
(1.96278 0.0489682 -1.05576e-19)
(1.00116 -0.503548 6.63861e-20)
(-0.608598 0.0820754 1.803e-19)
(1.71315 0.306068 5.98945e-20)
(-0.101182 0.376983 -2.00327e-19)
(0.874588 -0.792644 0)
(0.543547 0.316086 1.66118e-19)
(1.9951 0.0722954 -7.88788e-19)
(-0.155717 -0.0126348 -5.29693e-19)
(1.97094 0.877165 1.62258e-19)
(2.20174 -0.666341 0)
(-0.0996249 -0.120234 -4.78183e-19)
(0.720149 -0.105776 7.23119e-20)
(1.52083 0.863696 0)
(-0.181981 0.790151 -1.41704e-19)
(0.858687 0.73633 -2.97772e-19)
(-0.331418 1.04321 2.88904e-19)
(1.0271 -0.0259846 0)
(1.93235 0.579691 -2.04463e-19)
(0.0353556 0.234839 0)
(0.729228 -0.523781 -9.13361e-20)
(-0.244619 0.968602 -1.49525e-19)
(0.842163 -0.767968 0)
(0.463596 -0.319812 3.77321e-19)
(0.577401 -0.490715 2.44802e-19)
(0.45634 -0.412934 0)
(1.03919 -0.81871 -7.92523e-20)
(0.723811 0.497081 0)
(-0.20398 0.707598 -9.32705e-20)
(0.855027 -0.735322 1.09246e-19)
(2.13363 0.0945144 2.88424e-19)
(2.21215 0.133415 0)
(-0.145663 -0.164869 0)
(0.655782 0.607853 -3.79959e-19)
(1.87057 -0.577643 4.66034e-20)
(-0.146446 -0.154763 0)
(1.03391 -0.843808 -9.15117e-21)
(1.15945 -0.0984302 0)
(1.09346 -0.126343 3.38607e-19)
(2.00865 6.31668e-05 -1.29764e-19)
(0.0197265 0.310071 0)
(1.26858 -0.565824 -3.57383e-20)
(-0.389378 0.140032 -2.41824e-20)
(0.0862986 -0.0544329 0)
(1.14971 -0.849551 1.47742e-20)
(1.00756 0.00305481 -5.66766e-19)
(0.685457 -0.51261 -9.0975e-21)
(0.85359 -0.545814 0)
(1.25676 -0.754892 -5.57301e-20)
(0.640271 0.204866 2.54008e-19)
(1.2012 0.102084 0)
(1.46822 0.102459 -3.77457e-19)
(1.26101 -0.892336 -7.88598e-20)
(-0.142846 -0.16689 -1.71025e-19)
(-0.29127 0.148498 -2.54258e-19)
(1.06733 -0.000103579 2.20511e-19)
(0.954241 -0.487849 -8.34776e-20)
(0.525339 1.16402 9.43934e-22)
(0.771936 1.36529 4.42328e-20)
(1.03581 -0.135461 1.97883e-19)
(0.0621238 -0.0102019 -4.40119e-19)
(1.0371 -0.0384626 0)
(1.54714 -0.266102 5.47054e-20)
(1.41762 0.63766 1.86536e-19)
(0.845882 -0.644766 -1.72996e-19)
(0.995516 0.0075555 1.1607e-20)
(0.757493 -0.560332 2.50971e-19)
(1.27351 0.783932 1.6244e-19)
(1.85299 0.0810467 -4.7265e-21)
(-0.0300681 0.382983 0)
(1.0797 0.0539579 -2.31355e-19)
(-0.685969 0.862522 -2.48198e-19)
(1.04962 0.474554 8.61899e-20)
(0.505511 -0.105543 2.65542e-19)
(1.16654 0.0269848 -4.00155e-20)
(-0.223776 -0.0678854 -8.97625e-20)
(1.26531 0.567216 -9.64933e-20)
(1.10679 0.862395 0)
(-0.0860631 0.49068 -8.47462e-20)
(-0.0555709 -0.00955699 0)
(0.625761 0.537091 -2.84661e-19)
(2.05024 0.257797 -3.5579e-21)
(-0.178258 -0.13723 1.99083e-19)
(-0.318897 0.61668 -5.53086e-19)
(0.723652 0.0413214 2.34154e-19)
(2.11432 0.116291 -3.6903e-20)
(1.01143 -0.363746 -2.51194e-20)
(-0.109484 -0.118742 0)
(-0.222152 -0.299069 3.63812e-19)
(1.2852 0.945418 -5.79253e-20)
(0.83379 0.0487023 -1.29908e-19)
(0.526337 0.49374 1.99626e-19)
(0.380146 0.191764 0)
(-0.186767 -0.163746 -3.23076e-19)
(0.0324608 -1.05063 2.8957e-19)
(1.38467 -1.0052 -1.644e-22)
(0.995135 -0.0431689 -1.74169e-19)
(-0.104839 -0.178351 4.75211e-21)
(0.180631 -0.166349 1.2053e-19)
(-0.208555 -0.257528 -3.11532e-19)
(2.23652 -0.73418 0)
(1.12596 0.0439159 -3.14443e-19)
(2.31525 0.0744559 1.16908e-19)
(1.32854 -0.628074 5.23024e-20)
(0.802739 0.122402 -1.58014e-20)
(0.571862 0.292556 0)
(0.916565 0.727244 -1.78429e-20)
(0.653246 0.600498 1.97312e-19)
(0.936141 -0.591289 1.17974e-19)
(0.660953 0.475277 0)
(1.02466 -0.000523367 7.51057e-21)
(0.924099 -0.695084 1.66965e-19)
(0.820137 0.399344 -4.63377e-19)
(1.22385 -0.108491 0)
(-0.0829508 -0.0559885 -3.71314e-19)
(-0.221409 0.0483893 -6.21154e-20)
(1.55197 0.712088 0)
(1.43448 -0.970561 1.40741e-22)
(-0.187655 0.891272 0)
(0.122374 0.0569673 9.25547e-20)
(0.709952 0.62705 -1.02382e-19)
(0.864759 -0.237137 0)
(-0.121013 -0.245579 0)
(1.94418 -0.384694 0)
(0.583591 -0.126296 6.78973e-19)
(1.28351 -0.917981 5.22508e-20)
(1.22748 -0.622151 3.96818e-20)
(1.06412 -0.172064 -1.26998e-19)
(0.921259 -0.724444 -1.29715e-19)
(0.20691 -0.210969 0)
(-0.447321 1.15405 0)
(1.04154 -0.529459 1.32597e-19)
(-0.150773 -0.167307 0)
(-0.0968928 0.652672 0)
(-0.151744 0.0267036 4.55458e-19)
(0.767545 0.646128 8.88179e-20)
(0.985174 0.770351 0)
(0.672976 0.528363 -8.64389e-20)
(0.837543 -0.0661891 -2.07148e-19)
(0.721534 0.536832 -2.32294e-19)
(0.562059 0.52147 -1.71989e-19)
(-0.163679 -0.199403 -6.89141e-22)
(0.765492 -0.684173 0)
(0.891801 0.154947 -3.16396e-19)
(-0.178827 -0.19852 8.70683e-20)
(0.571896 0.530485 3.94329e-19)
(0.929503 0.772881 0)
(0.484373 0.357024 4.56033e-19)
(-0.210589 -0.20075 5.38912e-19)
(-0.119429 -0.0448172 -2.88079e-19)
(0.638287 0.543783 -1.50069e-20)
(0.969137 -0.00955726 5.54048e-20)
(-0.188114 -0.147285 0)
(1.75318 0.249133 -1.56062e-19)
(1.80104 -0.959277 -1.04796e-19)
(0.697603 -0.645684 -5.95943e-20)
(-0.0400046 1.05837 9.72519e-21)
(1.1692 0.445519 2.02762e-19)
(0.867819 0.392457 0)
(1.06749 -0.177641 1.6144e-19)
(-0.134121 -0.183543 5.4812e-21)
(-0.122129 -0.0774052 2.09946e-19)
(0.925057 0.0202238 -4.76054e-20)
(1.09379 0.131332 0)
(1.58585 0.0989281 -2.22493e-19)
(1.93172 0.12047 0)
(0.53357 0.213422 -4.42229e-19)
(0.20835 -0.180037 0)
(-0.163874 -0.193155 3.8568e-19)
(0.711623 0.094676 0)
(0.654845 -0.546503 -1.55875e-19)
(1.14556 0.0183108 1.89659e-19)
(-0.0471637 0.519788 3.25108e-20)
(1.98423 -0.164623 3.45704e-21)
(2.13526 0.0314316 -1.76701e-19)
(1.0958 0.216343 -2.25639e-19)
(-0.176751 -0.190489 -1.61782e-19)
(1.13312 -0.889285 0)
(0.814898 0.0160739 -1.382e-19)
(0.957017 -0.399081 -2.4407e-19)
(1.79754 -0.541954 -1.63231e-20)
(1.58429 -0.0128607 2.43666e-19)
(1.07169 -0.0120784 3.72902e-19)
(-0.0782624 -0.0868081 -2.53825e-19)
(1.02691 -0.457519 -9.95814e-20)
(0.216964 -0.209134 2.21442e-19)
(1.00754 -0.0102575 0)
(1.0049 -0.00873239 0)
(1.50248 -1.11341 8.86168e-20)
(-0.154124 0.579702 -6.32405e-20)
(0.282703 -0.105574 -2.29384e-19)
(1.81088 -0.146773 1.51566e-20)
(1.78963 -0.34449 0)
(2.16712 -0.00732071 -8.46906e-20)
(1.0143 -0.876248 -3.18878e-20)
(1.9258 -0.500549 -1.36133e-19)
(1.07507 0.812903 0)
(0.507741 -0.489357 0)
(0.578425 0.490394 -1.77764e-19)
(1.08155 0.268787 -4.2306e-19)
(2.09672 0.000292842 5.15384e-22)
(0.8579 0.139114 1.34858e-19)
(-0.126156 -0.101137 -6.91023e-19)
(0.873353 0.224557 4.17027e-20)
(-0.241869 -0.0359991 0)
(-0.153501 -0.176327 0)
(-0.20654 -0.0661314 0)
(1.40684 -0.736175 -1.84205e-20)
(0.0576022 -0.0493164 -1.63218e-19)
(0.122516 -0.199578 0)
(1.24866 0.946402 -5.3571e-20)
(1.09211 0.142397 -4.31029e-19)
(1.66547 -0.418041 4.90379e-20)
(1.04333 0.889996 1.1251e-19)
(-0.115545 0.294554 1.00566e-19)
(0.686734 0.308046 0)
(-0.220462 -0.00340529 -3.91157e-19)
(0.0193376 0.178575 1.98702e-19)
(0.779654 0.0058943 1.71141e-19)
(1.48848 0.926237 -5.82212e-20)
(1.74051 -0.0649905 -1.65495e-19)
(-0.163964 -0.0693143 -4.37277e-21)
(0.796453 -0.724086 -2.65964e-20)
(1.11779 0.00237691 0)
(1.6371 -0.0373191 0)
(1.02479 0.0480851 0)
(-0.0593509 -0.819247 -1.77306e-19)
(-0.224051 -0.0495011 1.4367e-19)
(1.0165 0.818807 0)
(1.00175 -0.0119854 4.67575e-19)
(0.742516 0.579896 -2.34471e-19)
(0.210541 -0.480316 -1.54661e-19)
(0.864216 -0.00220151 -3.82777e-20)
(0.757166 -0.691256 -1.67709e-19)
(1.3533 0.695026 -4.61451e-20)
(0.597126 -0.486547 -2.57031e-19)
(1.1223 0.00196932 -4.34548e-19)
(0.819337 0.0338633 3.9447e-20)
(1.52878 -0.144321 2.40235e-20)
(0.495817 -0.163206 -3.59474e-20)
(-0.11304 -0.123612 -8.38115e-22)
(1.0548 0.449865 -2.84091e-19)
(1.25356 0.596445 3.39431e-20)
(-0.110889 -0.143019 0)
(-0.146112 -0.0314571 2.51754e-19)
(-0.0853815 -0.02429 1.55929e-19)
(-0.140211 -0.218587 -2.22171e-19)
(0.449817 0.275274 0)
(1.6058 -1.0359 0)
(0.0130025 -0.0330763 -7.40528e-20)
(-0.171846 -0.206684 -8.63882e-20)
(1.04415 -0.0314091 1.72147e-19)
(0.0319617 0.19533 -3.97112e-20)
(1.99622 -0.342351 -4.74506e-19)
(-0.297485 0.566814 0)
(0.883111 -0.780312 -2.12018e-19)
(0.48994 0.222953 9.95133e-20)
(-0.462965 0.507452 1.75472e-19)
(0.708761 0.129257 3.16077e-19)
(0.616379 0.0975483 1.01677e-19)
(0.538385 -0.509739 1.71603e-19)
(-0.156119 -0.16767 -1.99016e-19)
(1.6881 -0.295845 0)
(0.366402 0.304525 -1.8939e-19)
(1.02811 -0.0164236 -2.72736e-19)
(-0.343868 0.735442 2.18581e-19)
(1.38625 0.475493 -1.59585e-19)
(-0.152799 -0.18007 -8.03068e-20)
(0.759912 -0.689441 1.93044e-20)
(0.801749 0.165574 -2.02068e-19)
(0.957425 0.406661 2.38555e-20)
(1.16886 -0.149764 2.85897e-20)
(0.6282 -0.264898 -2.69542e-19)
(2.0629 -0.181049 -2.58943e-19)
(0.74212 -0.228242 0)
(1.82224 -0.429054 3.15715e-20)
(1.03429 0.0785343 -2.39836e-20)
(1.42714 0.494633 1.62872e-19)
(0.844659 0.361332 -1.02809e-19)
(0.565132 0.250422 -8.95055e-20)
(0.390402 0.356579 -2.48257e-19)
(-0.00154916 0.883725 1.24497e-19)
(2.16908 0.410119 0)
(0.938195 0.00722473 0)
(0.931797 -0.821371 3.56835e-20)
(-0.194076 -0.207275 -5.9097e-19)
(-0.170732 1.12404 -2.15291e-19)
(-0.125827 -0.141352 -3.55733e-19)
(-0.206042 0.821464 -1.09767e-19)
(-0.275782 0.0742181 0)
(-0.154459 -0.169317 6.5792e-20)
(-0.197717 0.284824 -4.87523e-20)
(0.176876 -0.155687 -2.75174e-19)
(0.820434 -0.133918 0)
(1.4528 -0.545522 3.38525e-20)
(-0.103036 -0.086324 0)
(0.996799 0.023177 3.39866e-19)
(-0.155575 0.0404385 2.08033e-20)
(0.573282 -0.459327 3.44396e-19)
(-0.666041 0.817908 4.12716e-19)
(-0.226101 0.737715 0)
(-0.0722841 0.493816 4.28619e-20)
(1.00609 0.0225014 -1.01992e-20)
(0.121936 -0.0880563 0)
(1.00382 -0.0104655 -5.36093e-20)
(0.903102 -0.762372 -2.13534e-19)
(1.84916 -1.19266 0)
(0.957526 -0.291445 1.7536e-19)
(-0.0281856 0.699938 1.18394e-19)
(-0.0890813 -0.0943903 0)
(-0.184695 -0.151328 -8.9106e-21)
(0.763818 -0.66789 -3.46529e-19)
(0.958319 -0.0213529 -2.33066e-19)
(-0.190919 -0.19757 7.14161e-19)
(-0.161617 -0.194617 2.44847e-19)
(-0.263396 0.0166636 0)
(0.939938 0.456034 0)
(-0.26327 0.278259 2.49076e-19)
(1.58364 0.361641 -7.28572e-20)
(1.0426 0.868086 2.2766e-20)
(1.06389 0.201119 -1.23838e-19)
(1.14194 0.00245404 -1.85314e-19)
(1.06076 -0.0668807 -5.99887e-20)
(-0.192204 -0.197377 -6.37764e-19)
(1.9842 0.0699521 1.59001e-19)
(0.661055 0.039722 2.15156e-19)
(1.28553 0.125883 3.8838e-20)
(1.05293 -0.153042 0)
(-0.556047 0.467768 1.77543e-19)
(1.14721 0.0249668 -4.6066e-19)
(1.7144 0.615535 5.12072e-20)
(0.77375 -0.483419 -1.38126e-19)
(-0.108552 -0.122406 3.57507e-19)
(0.843252 -0.737942 2.84981e-19)
(1.21265 0.192096 8.21984e-20)
(1.00639 -0.00917867 2.37564e-19)
(-0.0726735 -0.0987779 -2.66794e-19)
(1.02148 0.0128751 0)
(1.28227 -0.149317 9.76367e-20)
(-0.109388 -0.112878 0)
(1.0156 0.0122203 -1.37956e-19)
(0.380845 0.100556 -7.55448e-19)
(1.71404 0.326848 6.70375e-20)
(-0.109604 0.0341761 1.90081e-19)
(1.56383 0.0229396 3.56447e-20)
(1.01307 -0.0189498 4.95397e-20)
(1.28016 -0.10189 0)
(1.50925 -0.602365 -3.94574e-20)
(1.02092 0.029852 -1.48901e-19)
(1.40579 0.773479 -1.06399e-19)
(1.2444 -0.046464 0)
(1.69734 0.525306 -5.65164e-20)
(0.000425408 -0.031569 0)
(1.32135 0.0757316 0)
(-0.217936 -0.127631 0)
(1.22294 0.434624 0)
(1.80802 0.26474 1.16551e-20)
(0.71573 0.591956 4.11401e-19)
(0.319416 -0.321802 -2.03077e-19)
(-0.176532 -0.208795 -5.69289e-19)
(-0.116128 -0.128214 0)
(1.64697 -0.740715 7.28843e-20)
(1.26149 0.519356 0)
(1.43575 0.292429 0)
(-0.229705 0.0675539 1.7083e-19)
(0.778594 0.687332 1.40864e-19)
(1.62841 0.0427857 0)
(-0.166732 -0.180911 1.20905e-19)
(0.89548 0.200616 1.85796e-19)
(1.43094 -0.640929 -5.14529e-20)
(1.2075 0.902903 5.91119e-20)
(0.995044 -0.890981 -6.21515e-21)
(0.0492176 -0.0887236 -6.73473e-20)
(0.763469 0.68914 1.46424e-19)
(1.14353 0.898938 0)
(2.12976 -0.648144 6.41196e-20)
(-0.223923 0.614263 0)
(1.12608 -0.351264 -2.15365e-20)
(0.964224 0.0812464 9.68075e-20)
(1.00562 -0.00779122 0)
(-0.586167 0.265996 1.15511e-19)
(0.909859 -0.192533 4.18092e-20)
(0.659203 -0.438592 0)
(0.698658 -0.412742 1.86224e-19)
(1.21202 0.543369 -3.84432e-20)
(0.446498 0.420606 2.79557e-19)
(0.190643 -0.144777 3.33769e-20)
(-0.193029 -0.0851369 4.34159e-20)
(0.766322 0.051733 0)
(1.39908 -0.933317 1.64256e-20)
(1.03245 -0.0454519 3.83656e-19)
(1.46601 0.335119 8.14943e-20)
(-0.16857 -0.140541 1.02687e-19)
(-0.746372 1.06185 0)
(1.2515 -0.235638 -8.57604e-20)
(-0.0925916 -0.0961315 -3.02775e-19)
(-0.589106 0.769861 -2.23953e-20)
(-0.123403 0.0406512 -5.253e-22)
(-0.194423 0.0847051 1.69974e-19)
(0.422813 0.784759 2.81523e-20)
(1.86596 0.159029 2.09142e-19)
(1.16847 0.451068 -3.26965e-19)
(0.874066 -0.0478565 0)
(1.7926 -0.0975943 6.62662e-20)
(1.49546 0.0848833 8.29626e-20)
(0.958531 -0.803038 9.94967e-20)
(1.24851 -1.03821 1.82891e-20)
(0.450803 0.418141 1.89692e-19)
(0.684228 0.718374 0)
(1.71934 0.57594 -1.32582e-20)
(-0.105593 -0.116671 -6.15712e-19)
(0.85598 0.745451 0)
(1.89272 0.224414 0)
(0.321219 -0.320172 -4.58276e-21)
(0.296901 0.26335 0)
(-0.766873 1.01892 -3.49627e-19)
(0.191518 -0.0978609 -9.51396e-20)
(1.91879 -0.33942 0)
(1.25689 0.0485786 2.85054e-19)
(-0.102069 0.987468 1.77715e-19)
(0.572296 -0.544325 -3.80698e-19)
(1.44527 0.0695373 -2.34481e-20)
(0.653309 -0.592561 0)
(1.00546 0.123474 0)
(1.5652 -0.200926 0)
(1.1047 0.216459 -2.43326e-19)
(1.34307 0.106201 3.46951e-19)
(-0.259929 0.526484 0)
(0.878543 -0.0502787 0)
(1.82535 -0.206901 8.87105e-21)
(0.0128972 -0.161198 6.38969e-20)
(2.46032 -0.215921 -1.60977e-19)
(1.26939 -0.560536 3.19019e-19)
(1.97674 -0.01767 -1.15111e-19)
(-0.280999 1.10357 -1.20905e-19)
(2.00932 0.143574 -4.85582e-20)
(1.01952 -0.0262344 3.81754e-19)
(1.48309 0.593229 0)
(0.0380335 0.170346 2.54442e-20)
(1.05937 -0.869032 1.07648e-19)
(0.861479 -0.0363164 4.47421e-20)
(0.666138 -0.46108 0)
(1.98688 -0.443653 1.74348e-20)
(1.22942 -0.198221 1.088e-19)
(1.47283 -0.592397 0)
(0.65178 -0.605555 3.17084e-19)
(1.98091 -0.00135888 3.15472e-20)
(2.46875 -0.14356 3.58206e-19)
(0.0542054 -0.172975 -1.48508e-19)
(1.30358 0.606516 1.85107e-19)
(1.12669 0.394402 3.97109e-21)
(0.88701 0.352752 2.27466e-19)
(1.4627 0.462097 -2.16452e-20)
(-0.176893 -0.198214 -1.55791e-21)
(1.38163 0.469043 0)
(-0.114172 -0.0976594 5.83536e-19)
(1.19408 -1.02724 0)
(1.11213 -0.675301 1.53336e-20)
(1.0204 0.625925 -1.91076e-19)
(1.27445 1.35676 4.02782e-20)
(-0.399621 0.345065 -4.23301e-19)
(0.965237 0.468215 1.84532e-19)
(-0.0355369 -1.04148 1.95662e-19)
(0.695897 -0.042718 0)
(1.46286 -0.228829 0)
(1.05807 -0.0926762 1.03196e-20)
(0.779109 -0.00673911 0)
(1.37346 -0.200015 -1.11955e-19)
(-0.459208 1.10522 4.48037e-19)
(1.90082 0.498421 -5.74175e-20)
(1.0423 -0.0349568 0)
(0.582622 -0.382349 9.03518e-20)
(1.00994 0.0253419 1.82528e-19)
(0.236159 -0.576246 5.9657e-21)
(-0.200267 0.93625 0)
(1.14207 -0.480663 3.58204e-19)
(0.963117 -0.34886 -8.01734e-23)
(1.13644 -0.514746 -1.5646e-19)
(2.32483 0.209255 3.82667e-20)
(1.26019 0.771741 0)
(0.867847 0.0211784 0)
(-0.18663 -0.102158 -2.46317e-19)
(0.0160142 -0.0466681 8.3296e-20)
(0.933691 0.349959 -2.12989e-19)
(0.073935 -0.0546799 -2.51084e-19)
(0.62678 0.380002 2.39802e-19)
(1.48583 0.801935 0)
(0.580407 -0.53919 0)
(0.314303 0.0720349 -1.52176e-20)
(1.27501 -0.51408 -6.67877e-20)
(1.09379 -0.0662979 2.57187e-20)
(0.740109 -0.183319 1.07194e-19)
(-0.0393352 -0.123412 -1.57088e-19)
(1.33273 0.242846 1.95417e-19)
(0.630451 0.586537 0)
(1.2427 0.680085 0)
(1.59775 0.250613 0)
(-0.309006 0.0368114 -2.15111e-19)
(1.19401 0.543201 1.08579e-19)
(1.50107 0.16894 2.29002e-20)
(0.93374 -0.0120831 0)
(1.13146 0.09421 0)
(2.05708 -0.117477 -1.21054e-19)
(-0.219445 -0.721106 -2.87224e-21)
(1.00545 0.000782846 -1.83725e-19)
(1.47666 0.471395 0)
(-0.123567 0.817987 0)
(1.22041 0.30869 3.16529e-19)
(1.00223 0.510664 -1.39724e-19)
(1.06558 0.0255477 0)
(1.40376 0.459861 0)
(1.92988 0.675457 -1.487e-19)
(-0.117313 0.0305446 -3.30345e-21)
(0.996721 0.01163 0)
(0.68629 0.447158 -3.3624e-20)
(0.999749 -0.876136 0)
(1.00265 0.0149098 4.23112e-20)
(0.414386 -1.02741 -6.28356e-20)
(0.930211 -0.340956 2.55086e-19)
(0.20586 -0.645666 2.60493e-19)
(1.93203 0.0884565 3.3039e-19)
(1.52922 -0.165829 -7.33696e-20)
(0.785956 -0.0151622 0)
(1.01962 0.00882768 0)
(-0.528581 0.704534 0)
(0.634425 0.606345 -2.04117e-19)
(0.00130016 -0.130914 1.07295e-19)
(1.15266 0.339818 -5.04389e-19)
(-0.125909 0.600897 0)
(0.805537 0.620814 1.74884e-19)
(1.03433 -0.35006 0)
(1.00514 -0.00353053 1.07744e-19)
(-0.254928 1.11566 1.38702e-20)
(1.01591 0.388705 2.73591e-19)
(1.38016 0.389926 0)
(2.1571 0.205565 -3.01892e-20)
(0.831449 -0.134932 -3.29157e-19)
(-0.872709 1.21865 -4.57392e-19)
(-0.255267 0.557864 0)
(0.867384 0.224063 1.73195e-19)
(1.91305 0.338467 0)
(0.753871 0.498191 3.69934e-19)
(-0.617808 1.09314 1.9396e-19)
(0.0592447 -0.176084 0)
(0.561423 0.532358 -7.33523e-20)
(1.07041 -0.664785 -1.08591e-19)
(0.507211 -0.287904 -1.11154e-19)
(1.01989 -0.0169831 0)
(-0.0628094 0.915599 -1.26746e-19)
(0.67401 -0.601487 6.81976e-20)
(0.891119 0.271653 0)
(1.78594 -0.775927 6.53461e-20)
(0.953776 0.810938 2.76067e-20)
(0.270431 -0.94468 5.37174e-20)
(0.685039 0.0492405 -4.75981e-19)
(0.249278 -0.114428 -5.14503e-19)
(-0.148285 -0.177918 1.53984e-20)
(0.796677 0.337287 2.49085e-19)
(0.0940977 -0.0147678 -4.17358e-21)
(1.47346 -0.652524 3.17242e-21)
(1.02523 0.00717282 -3.15458e-19)
(-0.364676 0.234209 0)
(1.02622 0.0306211 -3.88744e-19)
(1.34131 0.283088 1.80004e-20)
(0.864104 0.667669 3.00138e-19)
(1.13835 -0.0681816 1.39051e-19)
(1.00817 -0.031996 1.45912e-19)
(1.22734 1.27865 -3.70863e-20)
(-0.157369 -0.136732 -8.14374e-22)
(1.88618 -0.88204 1.9475e-20)
(1.14526 -0.125711 -5.33188e-20)
(0.803961 0.0417522 6.03484e-20)
(0.928251 -0.306963 7.72957e-20)
(1.86728 -0.0905928 0)
(0.936781 0.712123 0)
(-0.179149 0.683573 -1.65564e-20)
(2.01293 0.175008 7.18365e-21)
(-0.717443 0.986504 1.6328e-19)
(1.06809 -0.56221 -3.917e-19)
(0.650533 -0.565069 3.33552e-19)
(1.18037 0.212879 -4.59029e-20)
(0.285008 0.0343849 2.88209e-20)
(0.315585 -0.404541 0)
(0.748502 0.0872627 -6.40799e-21)
(1.10578 -0.288867 5.68686e-20)
(1.01348 0.740219 0)
(0.609637 -0.618948 0)
(0.872442 0.618031 0)
(-0.152768 -0.179065 -9.49188e-20)
(-0.170278 0.187494 0)
(0.0390715 -0.200876 -1.82512e-19)
(1.20745 0.174711 6.76925e-21)
(-0.0554206 0.197272 2.85006e-19)
(1.71307 -0.273752 2.20397e-20)
(1.78538 0.467325 7.75171e-21)
(2.05114 -0.146572 -4.28423e-20)
(-0.165369 0.0106088 -1.16228e-19)
(-0.167877 -0.108128 6.64457e-21)
(1.75154 -0.07626 0)
(0.675634 -0.0366059 0)
(1.00095 -0.00200094 2.61054e-22)
(-0.367376 0.153649 0)
(1.27575 0.0703068 -1.19162e-19)
(0.675094 -0.0327273 0)
(1.06189 -0.000921112 1.12039e-19)
(0.989676 0.0137203 -4.1502e-20)
(1.44063 0.345009 1.40909e-19)
(1.05833 -0.0194477 -8.86418e-22)
(0.965739 -0.20561 -4.72331e-20)
(1.02765 -0.035159 3.34689e-19)
(0.708031 -0.644803 1.51662e-19)
(0.438138 -0.562369 -3.32757e-19)
(1.96765 0.0984711 1.78479e-20)
(0.0149926 -0.0674014 0)
(1.09707 0.773049 0)
(1.03276 -0.0104172 0)
(1.04773 -0.805037 -6.99335e-20)
(1.12067 -0.949921 -1.96987e-20)
(2.3047 0.588151 -1.13183e-20)
(-1.01894 0.685559 -3.38309e-19)
(0.127267 -0.0850661 -5.24321e-20)
(0.617862 -0.416756 -5.58897e-19)
(2.01277 -0.308321 3.24423e-20)
(0.603199 0.0861764 3.72236e-19)
(2.11459 -0.0876623 1.65649e-19)
(2.0518 0.0908123 1.83131e-20)
(-0.175156 -0.18032 -1.88717e-19)
(1.09001 0.535305 2.18995e-19)
(-0.125539 -0.288188 0)
(-0.0277052 0.0754253 5.45109e-19)
(-0.164482 -0.180567 -1.39718e-22)
(1.02562 -0.0462908 3.12995e-19)
(1.02597 -0.000539172 -7.83553e-21)
(1.10323 -0.010491 -8.6178e-20)
(1.31636 0.764474 -2.79785e-20)
(1.61188 0.309093 8.80491e-20)
(0.43234 -0.405913 -2.73053e-19)
(1.76101 0.796827 3.6223e-20)
(1.03813 -0.000592943 -2.20967e-19)
(2.50006 0.233943 -1.83878e-20)
(1.70645 0.823054 0)
(1.0855 0.574058 -4.12583e-19)
(1.00277 -0.00644908 8.78194e-20)
(0.648319 0.577887 2.64285e-19)
(0.151529 -0.131192 1.87444e-21)
(1.06118 -0.0133164 -2.91402e-20)
(1.12162 0.0155346 8.18811e-22)
(2.43779 -0.0273441 1.08476e-20)
(1.97234 0.0802252 0)
(1.0413 -0.0413976 0)
(1.04788 -0.0358789 5.44305e-19)
(1.00251 -0.00443774 0)
(-0.13631 -0.148943 0)
(1.12458 -0.665329 0)
(1.00064 -0.00264595 -5.10671e-19)
(1.20734 -0.704311 4.92393e-20)
(1.02602 -0.00382544 1.0599e-20)
(1.30786 0.93358 -4.51228e-20)
(1.48518 0.980971 1.37298e-19)
(0.209146 -0.0758955 7.89569e-20)
(0.867155 0.399648 -4.92749e-20)
(1.47728 -0.204335 0)
(-0.251745 0.301435 0)
(1.61045 0.551555 1.46355e-19)
(1.10724 -0.821404 0)
(0.999308 -0.00619992 -1.58998e-19)
(1.01078 -0.00163639 3.08678e-19)
(1.4407 0.140114 -7.70803e-20)
(0.0514847 -0.107474 4.52173e-19)
(0.977136 0.00173944 1.69469e-19)
(1.26491 0.472565 -6.78955e-20)
(0.878209 0.12825 6.39345e-20)
(1.36249 0.80399 1.30636e-22)
(0.931557 0.0169209 -1.65536e-19)
(1.00364 0.00290456 1.97723e-19)
(1.00039 -0.00163727 1.17234e-20)
(0.788551 -0.0138631 0)
(0.725002 -0.0272075 0)
(0.71971 -0.0277544 3.77497e-22)
(0.695348 -0.0305334 0)
(-0.0720644 -0.0732142 0)
(0.522357 0.0530463 0)
(1.03945 0.0385976 -1.52504e-19)
(1.10095 0.18491 7.835e-20)
(0.711579 0.979299 0)
(0.822938 0.815004 -2.48571e-20)
(0.934006 0.418047 0)
(0.214363 0.291891 0)
(0.855159 0.285079 0)
(1.60321 0.248777 1.76156e-20)
(2.07208 -0.0381039 -4.80713e-20)
(0.778341 0.024367 0)
(0.788373 0.0201781 0)
(0.96865 0.0200287 -2.04561e-19)
(0.81489 0.00750637 3.84514e-19)
(1.00834 -0.00138187 0)
(1.00009 -0.00102237 3.66189e-19)
(1.0004 -0.00106662 -4.94074e-22)
(0.787517 0.022763 3.24283e-19)
(0.995803 -0.00522481 -1.94241e-19)
(0.688277 0.121534 0)
(0.790658 0.0914789 -6.39991e-20)
(1.00075 -0.0024147 -1.85859e-19)
(0.999738 -0.000347035 -3.17625e-19)
(1.18303 0.103985 0)
(0.999036 0.000957649 0)
(0.999617 -0.000300764 0)
(0.150384 -0.0899169 -2.77127e-20)
(0.650304 0.738277 -1.18665e-19)
(2.08953 0.436854 0)
(0.0739464 0.0689808 1.8257e-19)
(-0.335127 0.421691 -1.15423e-19)
(1.01855 -0.0156899 -2.47784e-19)
(-0.203013 -0.177725 -1.57168e-19)
(1.02024 0.00247064 -1.97734e-19)
(1.18721 -0.216664 -6.26193e-20)
(0.829357 -0.498436 2.53955e-19)
(-0.121414 -0.137446 -1.45982e-19)
(1.03178 0.0110814 0)
(1.0532 -0.0135722 -5.66939e-20)
(0.858822 0.0192655 0)
(-0.0795379 -0.045371 1.4803e-19)
(1.0173 -0.688364 0)
(-0.26462 -0.00137392 -3.67475e-19)
(1.84386 0.150049 4.53811e-20)
(1.61914 0.676101 -1.11284e-19)
(-0.0676744 -0.0149449 0)
(1.05097 -0.0388894 1.6846e-19)
(0.375018 0.485996 -1.14011e-20)
(0.928412 -0.0223714 2.63155e-19)
(1.01136 -0.00997884 -1.69448e-19)
(1.63171 0.849729 -1.73848e-20)
(0.494557 0.462735 0)
(0.419212 0.367775 1.98708e-19)
(0.647145 -0.00428215 6.02664e-21)
(1.13206 0.118832 2.02142e-19)
(1.13478 -0.738262 0)
(1.02237 0.0017244 0)
(0.99963 -0.019666 -3.90422e-19)
(1.01951 0.014182 -3.75232e-19)
(-0.165217 -0.194092 0)
(1.19163 0.801444 -1.65834e-19)
(0.162231 0.3479 -1.99566e-21)
(1.01508 0.00235317 1.4585e-19)
(1.01238 0.0119112 -1.81444e-19)
(-0.261974 0.102602 -3.48575e-20)
(0.672485 0.57946 3.07679e-19)
(1.01722 -0.0143523 6.24271e-19)
(0.291246 0.199667 0)
(1.81712 0.647692 2.10278e-20)
(1.01522 -0.0124889 -1.93685e-19)
(1.36556 0.067633 -3.86444e-20)
(1.05699 0.00847474 -4.55658e-22)
(1.00737 -0.0118291 3.88983e-20)
(1.92189 0.210712 -2.75137e-19)
(1.01799 0.00495294 1.86284e-19)
(1.18783 0.365455 4.33757e-21)
(1.01869 0.00281572 0)
(0.924521 0.136822 4.86602e-20)
(-0.724187 0.861137 4.62199e-21)
(1.00038 0.0217904 1.84534e-19)
(1.04076 0.0208471 -7.32752e-22)
(0.346364 0.315063 1.7413e-20)
(1.23945 0.310029 4.68717e-19)
(0.998032 0.0149599 1.26472e-19)
(1.01587 -0.0151686 3.09489e-22)
(1.73545 0.254996 -4.43484e-20)
(1.70162 0.915617 -6.36585e-20)
(0.824148 -0.737457 4.06158e-20)
(0.47988 -0.361157 -2.74221e-19)
(1.00649 -0.0114968 0)
(1.02283 0.001631 4.62961e-20)
(1.01108 -0.0107693 9.85536e-20)
(1.11143 0.923397 -1.03101e-21)
(1.01585 0.00483763 -1.94098e-19)
(1.03239 -0.024898 2.18924e-19)
(1.00751 -0.0101805 -1.84403e-19)
(1.01396 0.00437543 -4.62105e-22)
(1.01205 0.000716265 -2.50455e-22)
(1.02629 0.0126644 1.8538e-19)
(0.896937 0.0676434 4.87371e-19)
(0.475427 -0.86948 0)
(0.311107 0.848384 7.80572e-20)
(1.01184 -0.00430009 0)
(1.01977 -0.0175797 -5.43179e-20)
(1.50682 0.440317 -1.24904e-19)
(1.01621 0.102069 0)
(1.8235 -0.81451 -7.6125e-20)
(0.35393 -0.754205 2.3192e-20)
(0.764643 -0.0212505 0)
(1.73269 0.395754 0)
(0.00198368 -0.864105 -7.84334e-21)
(0.992578 1.06611 3.90946e-20)
(1.01795 -0.00546989 -1.96405e-19)
(1.1588 -0.581001 -4.32768e-20)
(0.682945 1.01476 9.11298e-20)
(0.982768 -0.353541 0)
(0.426034 -0.0442814 0)
(1.24068 -0.515455 0)
(-0.261416 0.35264 1.89645e-20)
(1.15863 0.841892 -3.75899e-19)
(-0.107701 -1.20028 0)
(0.0179119 0.821762 -1.46237e-19)
(1.65655 0.949125 2.55471e-20)
(1.00842 -0.00480592 -3.82825e-19)
(1.09206 1.1869 -7.3372e-20)
(1.0218 0.00704998 2.53015e-19)
(0.695638 -0.0460255 0)
(-0.177358 -0.196427 -4.59587e-20)
(0.593868 0.40681 -3.3889e-19)
(0.85604 -0.642125 -4.29105e-20)
(-0.082522 0.627847 0)
(0.802897 0.0788954 5.88181e-20)
(0.49196 0.46941 5.26122e-20)
(1.15695 0.861864 -4.60649e-20)
(-0.101647 -0.111237 2.25796e-19)
(1.02117 0.00921467 0)
(1.14229 0.286218 -2.32734e-19)
(1.01197 -0.00349132 1.44178e-19)
(2.39506 0.124143 0)
(1.01346 0.00578482 2.4104e-19)
(0.174673 0.133024 -2.6421e-19)
(1.01874 0.00994068 -1.49584e-19)
(1.93524 0.853892 0)
(1.74131 -0.717712 8.67169e-23)
(1.00958 0.00148715 -1.00231e-19)
(0.996601 -0.0365414 2.64491e-19)
(1.0785 0.0908865 -9.91966e-22)
(1.08315 -0.243769 2.23072e-19)
(-0.0964065 -0.158892 5.96639e-19)
(1.93722 0.270162 4.91642e-20)
(0.65018 -0.555089 -2.43615e-19)
(0.800926 0.0144479 -3.59926e-19)
(0.796315 0.0294837 0)
(0.672703 0.154201 -1.66272e-19)
(1.01955 -0.0157184 -2.92426e-20)
(0.971111 0.019634 0)
(1.04712 0.00251959 -1.87664e-19)
(0.424409 -1.42362 1.14252e-19)
(-0.686024 1.01266 1.93471e-19)
(2.26504 -0.444959 0)
(0.0880923 0.534211 -8.35093e-19)
(1.54425 -0.329583 0)
(1.03813 -0.0187279 5.46885e-20)
(1.42419 0.360989 1.39514e-21)
(1.01473 -0.00212369 1.55227e-19)
(-0.239144 0.970378 4.17993e-19)
(1.01829 0.000778485 0)
(0.994194 0.00348919 -3.78147e-19)
(1.00979 0.0053126 1.97702e-19)
(1.11417 0.652451 0)
(1.03402 -0.127459 -1.87196e-20)
(0.955789 -0.00166408 -1.68971e-19)
(-0.187383 -0.198268 5.89344e-19)
(1.00455 -0.00405843 -1.92952e-19)
(0.999878 0.0215387 -4.53391e-19)