/*--------------------------------*- C++ -*----------------------------------*\
| =========                 |                                                 |
| \\      /  F ield         | OpenFOAM: The Open Source CFD Toolbox           |
|  \\    /   O peration     | Version:  2306                                  |
|   \\  /    A nd           | Website:  www.openfoam.com                      |
|    \\/     M anipulation  |                                                 |
\*---------------------------------------------------------------------------*/
FoamFile
{
    version     2.0;
    format      ascii;
    arch        "LSB;label=32;scalar=64";
    class       volScalarField;
    location    "21";
    object      p;
}
// * * * * * * * * * * * * * * * * * * * * * * * * * * * * * * * * * * * * * //

dimensions      [0 2 -2 0 0 0 0];

internalField   nonuniform List<scalar> 
2186
(
1.02802
-0.019599
0.268823
1.32962
-0.845003
0.0391039
0.954161
-0.665326
-0.65292
1.55987
1.20912
-0.564957
-0.677675
1.23652
-0.235487
1.23131
1.26112
-1.00056
0.0373259
-0.831403
1.62373
-0.81109
1.24366
-0.642855
1.23504
1.30576
1.45638
1.16827
0.716996
1.23593
-0.814961
1.23529
-0.76037
-1.15805
-0.575686
0.202066
-1.05252
1.60844
-0.615545
-0.0327264
-0.688004
-0.787749
-0.338284
-0.93409
1.06373
1.54215
0.64162
0.802289
-1.16889
-0.901961
-0.821649
1.0429
-0.336454
1.53034
-0.808368
1.21516
-0.384837
1.24144
-0.668943
1.06097
-0.940736
0.769048
0.678072
-0.0292013
0.698991
0.746157
0.798903
1.51468
1.4093
-0.691607
-0.665277
-1.00063
1.49327
1.26194
1.38462
1.41192
-1.05847
1.25496
-0.580099
-0.686104
-0.953573
-0.0518956
1.23076
0.750995
1.22659
1.23175
1.51046
0.0751182
0.0310225
-0.588763
1.21633
-0.811023
1.17084
1.40905
1.24382
0.531694
0.151187
0.71679
-0.891114
1.25431
-0.851046
-0.885448
0.779496
1.19057
1.26335
-0.796809
1.40139
-0.471142
1.19783
-1.85962
-0.675238
-0.866543
0.826831
1.52164
-0.605586
-0.667286
-0.0557241
-1.30511
-0.590093
1.4992
0.0575559
-0.957928
1.00021
-1.02592
1.23677
-0.0467591
-0.864995
1.40217
-1.01
0.936225
1.62988
1.49195
0.537327
0.928616
-0.94687
-0.90018
1.18779
-0.709863
-0.519036
-0.616672
0.939404
0.107544
-0.648996
0.978002
1.16417
1.20253
-0.389457
-0.856288
0.890331
-0.885983
-0.833135
0.861846
1.25821
1.43934
1.30584
0.811847
1.50081
0.55742
0.453345
0.711469
-0.617245
-0.885717
1.19496
1.2507
0.03322
0.0526568
-0.486935
-0.546917
-0.303241
-0.337218
0.4693
1.25921
1.26172
1.37006
0.539034
-0.22423
-0.837785
1.19469
-1.19819
1.01176
-0.547676
1.24847
-0.822506
0.669936
0.649536
-0.852575
-0.620374
1.31274
-0.454342
-0.68617
-0.882673
1.48158
-0.954063
1.23859
-0.61104
-1.80278
0.171087
1.39718
1.24121
-0.82293
-0.726295
-1.57899
0.38566
1.26861
-0.587465
-0.838379
-0.578435
-1.27537
1.15486
-0.915889
0.804913
0.0972884
1.50957
0.970297
1.07431
1.21678
1.37109
1.23781
1.16722
1.28533
0.661053
-0.637439
-0.79385
0.188846
0.488217
-1.0079
-0.856637
1.20716
1.38266
-0.552692
-0.52255
-1.40042
0.662798
0.932899
1.04233
1.16884
1.38177
-1.11864
1.15484
-0.629144
-0.913297
-0.673105
1.16426
0.864474
1.33513
1.41474
1.29098
1.26527
-0.649253
1.0994
1.32032
-0.677196
1.14916
0.915407
-1.34835
-0.591501
-0.556589
1.3361
1.25631
-0.697033
-1.03095
-0.901066
1.2237
-1.01658
0.894411
1.25204
1.11797
-0.610161
-0.814124
1.21926
0.767922
-0.444744
-0.425281
1.55821
-0.840051
-0.652493
1.09931
1.4437
1.22918
-0.885685
-0.840406
-0.559394
1.08976
-0.692556
0.831487
1.2146
1.28204
0.111895
-0.273716
1.17435
-0.661921
1.19531
1.45418
1.25241
1.24972
-1.26348
-0.87473
-0.651305
-0.938336
-1.59533
-0.892231
0.671367
-0.233299
0.73448
1.43064
1.39706
1.08938
-0.41534
1.35672
-0.756058
0.0386609
-0.786735
-0.614181
-0.707327
0.645058
-0.831371
-0.825896
0.259413
1.11135
-0.47635
0.492363
-0.853609
-0.00371601
-0.702457
-0.856342
1.44819
0.0659543
-0.0264418
-0.803114
1.06591
0.688493
-0.327545
0.807377
-1.22194
-0.726448
0.791345
1.2627
1.25004
-1.65714
1.3814
1.16149
0.486713
1.50152
1.22523
1.18523
0.6531
-0.52802
-0.623788
1.02846
-0.922896
-0.56486
-0.796733
-0.631394
-0.59262
1.57681
-0.97292
-0.820123
-0.678691
1.22532
-0.817894
-1.31331
-0.857245
1.03859
-0.227598
-1.01587
1.47282
1.53734
1.38981
-0.655349
-0.166081
1.59168
1.23156
-0.919454
0.569499
-0.636618
0.47523
1.38868
1.15936
1.1328
1.55121
-0.205273
-0.641147
-0.414766
-0.945616
-1.01415
-0.799529
-0.00205114
1.51304
-0.989498
-0.922399
1.21448
0.86929
-0.600759
-1.06987
-0.628371
-0.970761
-0.868033
-0.605751
-0.779461
-0.832187
1.43586
-0.738999
-0.641719
1.24982
-0.845566
1.51852
-1.15437
-1.71169
-0.845228
1.23403
-0.547202
1.25488
1.12276
-1.52956
1.29966
-0.937312
-0.60117
-0.740916
1.28062
1.18925
-0.62661
-0.638944
-0.808594
1.15652
-0.990744
-1.59791
0.631024
1.13854
1.13531
0.97861
-0.645677
-0.786727
1.00564
-0.890653
1.06879
-2.12495
1.25553
0.0394034
1.3931
-0.591584
1.12764
0.852595
1.26164
-0.738407
1.21884
-0.890119
-0.598397
1.23746
-1.46041
0.23481
-0.660389
-0.0691937
1.23419
0.383363
0.587974
1.22633
0.34219
0.135428
-0.0943857
-0.820716
0.522853
-0.715709
0.848972
-0.599987
1.24779
1.39817
-0.661263
-0.610828
-0.637655
-0.813108
0.548622
-0.721154
0.984932
0.234008
-0.67841
1.3023
-0.610479
0.483499
0.594579
-0.343165
0.944138
0.453957
-1.06396
-1.86844
-0.347091
-0.783797
1.24815
-2.07819
1.35903
1.48598
1.47229
0.788463
1.3546
-0.835891
-0.730483
1.14906
0.518215
1.21559
-0.792984
-0.675803
-1.38574
1.06217
-0.60211
-2.23199
-0.841742
-0.884917
0.1441
-0.869814
0.882098
0.864493
-0.531181
-0.657952
1.03012
0.381965
1.32031
-2.04167
-0.112532
-0.604197
0.904033
-0.0898832
1.4352
1.60841
-1.42299
-0.845469
-0.500497
0.405899
-1.01249
1.30627
-0.719947
1.26435
0.924487
-0.602996
1.04868
1.00992
-1.5669
1.13222
-0.906497
-0.817199
-0.991604
-0.559135
-0.849416
-1.05389
-0.632069
1.23879
0.314761
-0.855254
0.876988
1.38368
1.47367
-0.0354536
1.02519
-0.594063
1.05633
-0.138282
-1.00552
-0.819951
0.6197
0.971223
1.2494
-1.74359
-0.660881
-0.97955
-0.596614
0.200793
1.01169
-1.66366
0.13835
-0.867656
1.11182
-1.35715
1.16654
-0.8801
-0.762602
1.19472
0.936361
-1.16478
-0.106155
1.18166
1.54847
1.25748
-1.32303
-1.00219
1.07648
-0.808001
1.06288
-0.505274
0.563514
1.17805
-0.689007
-0.818015
1.20446
-0.763587
1.44266
-0.157933
1.15264
0.223337
0.907163
-0.430091
1.48055
-0.817938
-0.873129
1.12766
0.646948
0.623968
-0.799776
-0.832226
-0.821292
0.947841
-0.123436
-0.732754
-1.41556
1.24954
0.508826
-0.978137
0.900045
1.05842
1.20373
-1.97276
-0.731171
-0.810993
1.24897
1.36861
0.782094
1.24556
0.0762338
1.31675
0.263984
-0.582863
-0.608661
1.17463
1.21256
-1.16276
1.00666
-0.819942
0.970592
-0.885546
1.17315
1.217
1.24926
-2.15845
1.09632
-0.826729
-0.61053
1.41071
-1.59823
-1.91466
1.31929
-0.916803
1.29154
-1.36392
-0.822236
1.22022
1.05991
1.61103
1.23561
-1.00456
1.35095
1.28271
-1.00372
0.772866
-0.101505
-0.519575
1.73087
-0.626429
1.33014
-0.836911
0.600734
1.23644
-0.87202
1.21035
-1.57053
1.08936
1.2006
1.25245
0.159532
-0.666548
-0.269965
0.862547
0.942774
1.32591
-0.244878
0.984057
-2.1737
-0.304646
-1.18915
1.10957
1.41121
-0.75813
-0.663395
-0.0891769
1.46034
-0.225825
0.881851
-0.300858
-0.862096
-0.649353
-0.82829
-1.41066
0.974868
-1.67536
-0.225217
-0.249886
-0.249551
-0.860985
-0.786453
-0.33472
1.18897
1.25323
-0.821131
-0.166736
1.20678
1.18608
1.25422
-0.993509
1.20305
1.31143
1.23796
1.32855
-1.46594
-0.13349
-0.818023
0.756032
1.24314
0.990704
0.460053
-0.0900077
-2.21612
0.112475
1.51835
-0.158293
0.406242
-0.363335
-0.0952686
-0.665663
0.942798
-0.550867
-0.875652
-0.597393
1.22833
1.23817
1.23941
0.0342502
0.464841
1.49844
-0.121576
1.23686
-0.0883587
-0.00282498
0.914899
1.25119
1.27486
0.0705658
1.19462
1.19581
-0.860638
-0.0670154
1.24037
1.25405
1.25259
-0.607998
-0.638159
1.25338
0.897136
1.23771
0.315505
-0.0443168
0.179005
-1.92037
-0.490354
-0.804304
-1.40226
-0.626018
1.25796
1.26217
0.920258
-0.603806
1.22799
-0.112032
0.109444
0.0128619
1.23737
1.25892
1.25412
1.26464
1.24046
1.23263
1.22147
-0.0819257
0.142338
-0.0288045
0.00205854
-0.00151024
0.0356522
0.0180475
-0.110612
-0.120535
-0.0903613
-0.114137
1.2326
1.25026
1.24553
1.26672
1.26368
1.25433
1.25651
1.241
1.23764
-0.133306
0.0825448
1.25417
1.2542
-0.0047773
1.25685
1.25417
0.0569322
0.319099
-0.096037
-0.813831
-1.75167
1.23593
-0.712939
1.23608
0.908282
1.34402
-0.622901
1.23701
1.15673
1.19391
-0.816361
-0.330481
-0.751318
-0.0782833
0.0436435
-0.819586
1.24701
0.20747
1.3251
1.2387
-0.0966351
1.37316
1.53738
0.049255
1.06373
0.951465
1.23052
1.2493
1.24535
-0.623022
0.613219
0.104424
1.23803
1.25052
-0.754886
0.25187
1.23876
0.0733525
-0.272272
1.23949
-0.997323
1.2116
1.25096
-0.702084
1.24784
0.370487
1.23821
1.29411
-1.91013
1.25469
1.26177
0.150394
0.84643
1.24087
1.24156
0.274586
-0.717411
1.00218
1.60602
1.24699
1.24215
1.24389
0.420896
1.24122
1.23305
1.24422
1.2402
1.24146
1.24117
1.333
-0.890723
-2.08544
1.24306
1.2336
0.407581
-1.00475
-0.883586
-1.00505
1.07558
-1.22924
-0.995846
0.14049
1.23754
1.01177
0.194056
0.0438272
-0.0410692
-0.691995
-0.785507
0.336095
-0.909754
-0.990351
-0.26802
1.24604
0.23851
1.2332
1.13142
-0.60648
1.45498
-0.655091
-0.895307
1.02463
1.32925
0.585925
-0.594198
1.23028
0.24819
1.24339
-0.729581
1.24422
-0.829805
1.23442
0.173655
-0.887091
1.2454
1.26205
1.15159
0.164379
-0.588146
-0.630461
0.157678
1.25986
1.11264
0.257107
1.23282
1.27817
1.2222
0.317216
-1.54457
-0.329287
-1.45583
0.61843
1.23879
-0.0552954
1.24084
-1.1469
1.23458
1.27348
1.24761
-0.0541452
-0.0422025
1.27426
-0.701708
1.2497
1.25291
0.323334
-0.665625
1.12287
1.34722
1.23237
1.22411
0.161843
-0.0323659
1.21664
0.711102
1.24776
1.12525
-0.83757
-0.651382
1.04892
1.4977
1.23309
0.645212
-1.02158
0.382609
-1.62262
-0.967389
1.22953
-0.959364
1.21439
-1.04653
-0.614729
-0.842273
0.598212
-0.685026
-0.71742
-0.544065
1.23286
-0.593462
1.09198
-0.631481
0.149676
-0.0819239
0.182948
-0.665992
1.19808
0.108725
-0.441972
-0.303189
-0.74883
1.23197
-0.937834
0.147319
-1.11123
1.29027
-0.500361
-0.628624
1.30406
1.2298
1.22324
0.773932
-0.552347
1.23632
1.25914
-1.64072
-0.828028
1.23268
1.07899
1.46761
1.25124
-1.28186
-1.00465
-0.834831
-0.910291
-0.894968
-0.600684
-0.0120761
-0.714994
1.08303
0.295263
1.24787
1.43247
1.22808
-0.592555
-0.7261
1.23382
-1.44337
-0.658704
1.22294
-0.0111743
-0.773205
-1.30439
-0.00580083
1.16498
1.13389
-1.43046
1.09921
0.844039
-1.55434
1.22925
-1.04302
1.00757
-0.764515
1.24967
-1.70609
0.721669
1.23545
1.29164
-1.1062
-1.30707
1.03063
1.60848
1.2555
1.21222
-1.25279
1.50826
-0.522313
-0.327711
-0.4654
0.768036
-1.13098
1.34488
1.42391
-0.638251
-1.56477
1.22891
-0.648841
1.12934
1.26437
1.18298
-1.15351
1.23495
-0.0267004
1.26542
-0.0286587
-0.355278
-0.0408175
1.23871
0.0844198
-0.409378
-0.696844
1.2572
-0.610446
1.40098
0.56789
1.54377
1.17783
-0.656686
1.22805
-0.817862
1.19497
1.20084
-0.303211
-0.692129
1.33049
1.21767
1.43555
1.1776
0.39709
1.17674
1.23513
1.06591
1.24108
-0.614021
-0.907175
-1.39062
1.35135
-1.56745
-0.845087
-0.817062
-1.6986
-0.373574
-0.0136097
1.05175
-0.240453
1.20554
1.26244
-0.830819
-0.838724
-0.686898
-1.05622
-0.75669
-0.821298
1.23392
-1.56228
1.25162
1.49477
1.29471
-0.0909367
1.25798
1.1524
-1.37588
1.21305
1.21011
-0.831255
1.21135
1.13344
0.0615583
-0.751947
1.70184
-1.76363
-0.982921
-0.727507
0.543948
1.22207
-0.997201
-0.94504
-0.816004
1.36397
-1.23756
1.0401
1.24301
1.23348
-1.13784
1.22618
-1.06304
1.24681
1.2621
-0.339151
1.25301
0.663907
1.23829
0.994912
-1.05844
0.0719487
0.0629779
0.14106
1.4605
-0.141826
1.25626
1.62265
-0.727347
-0.0594137
1.30446
-0.0667075
1.30158
-0.0497065
-0.0775239
1.29774
1.30227
0.724705
-0.953361
0.944181
-0.73543
-0.850822
-0.631351
1.25629
1.24793
1.67524
-0.59426
-1.30762
1.02908
-0.769592
1.30038
1.19534
1.24387
1.22268
1.20606
-1.79947
-0.60354
-0.895573
1.006
1.13739
-1.27949
-0.824044
-0.632361
1.25375
1.28173
-1.35098
-1.26244
1.27101
-1.42822
0.361612
0.956781
1.11538
-0.25567
-0.768304
-0.109659
-0.679027
-0.769841
-1.8541
-1.58782
1.631
1.58747
-0.794548
-0.648699
1.25305
1.23045
-0.908571
0.252335
-0.0264441
0.829551
1.32807
-1.01635
1.24198
-1.50267
-0.751788
-0.693145
-0.967668
-0.92507
1.23412
-0.66317
-1.17081
1.58864
-0.668941
1.24325
1.44735
-0.823901
1.32036
1.51712
-0.836663
1.45944
-0.67423
-0.761028
1.23099
0.0087517
1.29187
1.24626
-0.673489
1.30964
0.457933
-2.01258
1.2755
1.30888
-0.53982
-0.970764
1.16326
1.23533
-0.654838
-1.19112
1.50184
-0.669612
1.12534
0.0844358
1.19881
-0.565768
-2.14775
-0.635811
-0.829318
1.29929
1.2843
1.55272
1.4207
1.17703
1.29517
1.26846
-0.629443
1.34276
1.41545
-0.838825
-0.66559
-0.860521
1.54526
-1.63848
-0.740224
0.160868
1.13425
-0.842539
-0.761321
1.22279
1.29867
-0.642921
-0.829872
-0.719265
0.257223
-1.06858
-0.839438
-0.6229
1.08483
1.17815
-0.823765
-0.366359
-0.512245
1.03318
-0.667895
-0.817302
-0.617093
1.22788
-1.16626
-0.832581
1.59072
1.15584
0.692595
1.46533
-0.105425
1.26114
1.24505
1.37195
1.4781
-0.309979
0.865925
1.21208
0.576107
-0.611035
1.66295
1.22381
1.18144
1.31654
-0.83627
-1.45515
1.12706
0.998027
1.21417
-1.817
-1.68149
1.23087
-0.613921
1.10092
-0.13907
1.64259
-0.606218
0.923362
1.03048
-0.820128
-0.601481
-0.887584
1.3325
-0.821138
-0.596107
0.994889
0.799679
-0.951699
1.3003
1.11884
-0.822054
-0.699286
1.17235
-2.02457
-0.597726
-0.700335
-0.81905
-0.680981
1.19893
1.26034
-2.03977
0.916785
1.2465
1.57514
0.587805
0.455212
0.171304
1.1681
-0.112476
-0.81976
-1.43454
-0.486033
-0.819421
1.22196
-0.811619
0.339051
-0.594111
0.728096
0.870453
-0.818733
0.934145
-2.07043
0.80083
-0.818401
0.649285
-0.820719
0.698175
-0.590046
0.560867
-0.818337
1.10917
-1.26479
-0.822499
-0.833552
-0.593151
1.25358
0.409755
-0.865939
-0.596268
0.198015
0.272843
-0.809844
-0.601725
-0.911201
0.208444
-0.61102
0.0247996
-0.641973
-0.195299
-0.99215
0.046657
1.09925
0.0542044
-1.50698
1.20512
0.0741362
-0.0947296
0.754059
1.21939
-0.988888
-1.90916
-0.591183
-1.13736
1.16148
1.64932
-1.04429
-0.304447
0.340525
-0.667258
-0.246747
-0.0322554
1.19238
-0.78439
1.20853
-0.914179
1.71567
0.750826
1.67652
-0.827619
1.46079
-0.456772
1.28688
-0.745172
-0.588331
1.35166
1.24362
-1.00241
-0.595145
-0.829849
1.18241
-0.745152
1.21718
-0.769897
-0.673378
-0.637397
1.54164
1.2594
1.38611
1.23789
1.25651
-0.177415
-0.275673
1.42044
-1.89917
-0.649905
1.6438
-0.820102
1.128
1.22286
1.61448
1.67781
-0.816522
-0.99076
1.28216
0.53862
-0.118062
-0.785486
-1.22446
-2.25996
-0.826155
0.841837
-1.04657
1.47165
-1.1956
1.25099
1.35427
1.25442
-0.790787
-0.575494
-0.780282
1.33132
-0.725902
1.38593
-0.64304
-0.868663
1.45528
1.56813
-0.581354
0.241524
1.19874
-0.911371
-0.92842
0.952492
1.49236
1.48019
-0.94218
1.09159
1.03933
-0.589512
1.49355
0.448519
-0.825214
-1.22242
-0.0981985
0.0396806
1.32764
-0.682344
0.42408
0.140606
-0.126855
-0.65354
-0.578848
1.21707
-0.979809
1.24027
0.0428637
0.402571
0.977866
0.560953
-0.579033
-0.53247
-0.797834
-0.116704
0.195003
-0.834823
1.13237
-1.4666
-1.49746
1.22374
-0.805263
-0.838624
1.25285
-0.594557
1.17141
-0.00240514
-0.616602
-0.0127267
1.07256
-0.454814
-1.19204
1.16401
-0.657342
1.32268
-0.231426
-0.800785
-0.658056
-0.591313
1.73805
-1.3477
1.38845
0.222951
1.21224
1.4179
1.00862
1.28337
1.37066
-0.0132669
-1.12712
1.22337
1.36251
1.61383
-0.66566
1.27556
0.854174
-0.673641
1.07476
1.4778
-0.49744
1.56626
0.294298
-0.779738
1.1193
-0.674005
-0.826453
1.20077
-0.376518
1.30517
1.3318
1.17591
-0.808125
1.10791
1.48016
-0.945382
-0.222249
-1.20606
-1.17915
-0.76522
-0.597673
1.61239
1.03865
-0.835214
1.19303
-0.672278
-0.718532
1.53601
1.4409
-0.986425
-1.03596
-0.591313
-0.642177
1.23619
-0.8395
0.387213
-0.761315
-0.343601
1.30944
-0.661676
1.61526
1.27716
1.153
1.24872
1.52323
-0.880296
-0.670404
1.27715
1.41048
-0.677395
1.25532
-1.55657
-0.633871
-0.646668
1.28871
1.32082
-0.640738
-0.848389
0.844851
0.236892
-0.809463
1.20961
1.15797
-1.06879
1.20078
1.24631
-0.856002
-0.840997
-0.824557
-0.627569
-0.646635
1.57273
-0.764192
1.10862
-0.844335
1.57167
1.08813
1.05697
1.15076
-2.24774
-1.26691
-0.621315
0.69741
-0.832321
1.20106
0.601268
-0.478047
1.06389
1.28229
1.27669
1.23601
-0.0453667
1.28048
-0.0483358
0.716038
0.998018
-0.492445
-0.838646
-0.927708
-0.632444
1.25132
1.24747
1.2511
-1.20883
-0.449969
-0.615368
-0.761745
1.24487
1.50641
1.25888
-0.83548
-0.71958
-0.936528
-0.470371
-0.592858
-0.591807
-0.101546
1.22308
-0.736894
-0.823113
0.129049
0.223959
0.899262
-2.00208
-0.609721
-0.712492
1.1442
1.67143
0.213746
1.34978
1.72221
0.834472
1.42863
-0.839318
0.0349684
1.65384
-0.604107
0.615515
-0.82954
-0.650948
-0.824245
-0.820716
1.24317
1.02177
1.40349
1.36271
0.0293909
1.06595
0.174623
0.0986055
-0.59893
1.3553
0.901234
1.25482
1.27098
-0.134377
-0.0818522
1.27212
-1.06417
-0.593953
-0.821729
-0.835087
0.880751
-0.819933
1.20998
0.960491
-0.604248
1.49794
-0.830284
-0.235115
1.22773
-0.677561
-0.703798
-1.60449
0.76616
-0.82506
-0.874529
1.10428
1.26269
-0.136144
0.344287
-1.82652
-0.595058
-0.801779
-0.95298
0.113272
0.896302
-0.846406
-0.819702
1.48041
0.402667
0.511298
-0.819327
-0.656929
1.24134
1.32029
0.69074
0.834028
-0.818362
-0.664162
-0.418665
0.608663
0.745466
-0.817957
1.04524
0.276917
-0.817776
1.67274
-0.824551
-1.31993
-0.645925
-0.769223
1.12696
-0.844979
-0.83097
-0.60104
0.324313
-0.885463
0.12175
-0.787677
-0.0749913
1.39138
-0.944542
0.149001
-0.626618
-0.0708238
1.56227
1.64981
1.44372
1.24556
1.41842
-0.682918
1.229
-0.834122
1.3173
-0.592316
-0.566648
1.52689
-0.788952
0.771716
-0.977912
1.64827
0.0690142
1.58793
0.764344
0.961211
-0.826891
-0.827805
-0.589095
-0.861538
1.55159
1.41096
1.22416
0.915247
1.23693
1.15039
0.993121
-0.817419
-0.635152
0.40608
0.245586
0.965912
1.24677
0.286607
-0.820871
-0.817453
-0.953352
-0.588913
-1.22517
1.60251
1.26585
1.24151
-0.119659
-0.0892534
1.26841
-1.21984
-0.596273
-2.25677
-0.672381
0.953443
-0.821577
-0.817907
0.0111557
1.22843
-1.21719
-0.643839
1.23553
0.903886
0.993777
1.23018
-0.592552
1.04962
1.44349
1.1233
-0.589379
1.23429
0.659746
0.608067
-0.792924
-0.820235
1.67783
0.544193
-0.787726
0.325132
1.09087
1.17542
-0.661169
-0.968542
-0.0748571
-0.712639
-0.536111
-0.834256
0.0436722
1.22381
-0.935671
1.20938
1.53036
1.36367
1.20087
1.28801
1.35437
1.23504
-1.01754
-0.317703
-0.335567
-0.666564
-0.541085
-0.818593
1.36319
1.2487
-0.669091
1.22468
-0.721401
-0.157054
-0.822269
-0.498871
0.826951
-0.815052
1.21926
1.08583
-0.925998
-0.0678867
1.57274
-1.12305
-1.31837
-0.695825
-0.836242
-0.800313
1.28854
0.94389
1.35884
-0.830651
-0.996927
-0.573532
-0.280019
-0.671449
-1.31063
-0.996333
-1.55575
1.09339
-0.404853
1.70468
-1.08502
-0.251392
-0.627119
-0.818509
1.19224
-0.648607
-0.81904
-0.568334
-0.0573017
1.39944
1.4791
-2.20257
-1.39219
0.997544
-0.610434
-0.524071
1.36448
-0.819469
-1.06602
-0.798519
0.918625
-0.11865
-0.672929
1.22418
0.1515
-0.772519
1.23088
-0.735503
-1.0847
-0.957624
-0.909709
0.211394
-0.673476
1.53236
-0.607105
0.457927
-0.593778
0.962631
-0.69316
-0.748218
0.807631
1.03899
1.2973
1.21359
1.39347
-0.844281
1.11269
0.839282
-0.960208
1.13529
-0.295772
-0.704356
-1.38341
1.43963
1.42445
-0.698606
-0.74829
-0.858092
1.20168
-0.774427
0.202626
-0.842684
-0.821318
1.49534
1.20637
-0.827288
-0.809529
-0.825688
-0.823666
1.10997
-0.843844
1.1686
0.361506
0.871094
1.00957
-0.803575
-0.787574
1.1264
-0.820797
0.0571059
1.51832
-0.618541
-0.821554
0.990604
-0.965203
-0.822135
0.100929
-0.683609
1.59649
-0.302555
0.429524
-0.828556
1.56507
-0.830206
-0.801851
0.802446
-0.801115
-0.592094
1.5843
0.834337
1.28301
-0.828678
1.43887
-0.337937
-0.499174
-0.834443
-0.837317
-0.832791
1.47383
0.730295
-0.641427
-0.831196
-0.673188
1.33584
-0.752162
1.54242
-0.592353
0.893332
-0.821139
0.512821
0.690955
0.654383
0.568109
0.4903
-0.774111
1.20322
-0.836015
-0.637319
-0.728447
0.574446
1.58071
-0.0203524
-0.825305
-0.840235
-0.822017
0.399522
-1.07295
-0.820328
1.12774
0.486172
-0.823953
1.64202
-0.6725
-1.1524
1.60424
-0.82224
0.277738
-0.748065
-0.819805
-0.820284
1.61799
-0.822554
1.52743
-0.819701
-0.795981
1.38544
0.0481955
-0.792616
0.719654
-0.675037
0.1347
-0.114088
-0.820233
1.08206
-0.686579
-0.819623
-0.819711
-0.822001
-0.599875
1.1158
-0.0498717
-0.19231
-0.825434
1.55231
-0.513109
-0.816385
-0.792254
0.146685
-0.963721
-0.808674
-0.82476
0.182898
1.45495
-0.833215
-0.590196
-0.978403
-0.419486
-0.135581
-0.605539
1.63648
1.56593
0.558881
-0.819126
-0.596581
0.468426
-0.598251
1.64424
0.339962
1.3455
0.86213
1.54669
0.214207
-0.972804
-0.822871
0.0507974
-0.835698
0.0511849
0.199499
-0.819731
1.54448
-0.0261591
0.352231
-0.165587
-0.587587
-0.858929
)
;

boundaryField
{
    frontback
    {
        type            empty;
    }
    Top
    {
        type            zeroGradient;
    }
    outlet
    {
        type            fixedValue;
        value           uniform 0;
    }
    bottom
    {
        type            zeroGradient;
    }
    Inlet
    {
        type            zeroGradient;
    }
    rectangle
    {
        type            zeroGradient;
    }
}


// ************************************************************************* //
