/*--------------------------------*- C++ -*----------------------------------*\
| =========                 |                                                 |
| \\      /  F ield         | OpenFOAM: The Open Source CFD Toolbox           |
|  \\    /   O peration     | Version:  2306                                  |
|   \\  /    A nd           | Website:  www.openfoam.com                      |
|    \\/     M anipulation  |                                                 |
\*---------------------------------------------------------------------------*/
FoamFile
{
    version     2.0;
    format      ascii;
    arch        "LSB;label=32;scalar=64";
    class       surfaceScalarField;
    location    "21";
    object      phi;
}
// * * * * * * * * * * * * * * * * * * * * * * * * * * * * * * * * * * * * * //

dimensions      [0 3 -1 0 0 0 0];

oriented        oriented;

internalField   nonuniform List<scalar> 
3181
(
-1.04145
0.408073
0.633377
-0.383583
0.362032
0.021551
0.517497
-0.354957
-0.16254
0.119807
-0.198431
0.0786241
-0.0514257
0.0706152
-0.0191895
0.566127
1.07154
-1.63767
0.146495
-0.140251
-0.0062441
0.0593458
0.00185741
-0.0612032
0.578505
-0.72983
0.151324
-0.0753013
0.134775
-0.0594738
-0.010425
-0.0519682
0.0623932
0.110822
0.0520325
-0.162854
-0.00989796
-0.0456314
0.0555294
-1.09755
0.152225
0.945323
-0.325558
0.688821
-0.363263
-1.12262
0.639093
0.483522
0.0844393
-0.931781
0.847342
-0.152977
0.0646031
0.0883739
-1.19553
-0.296437
0.00414762
0.0470179
-0.0511655
0.0409299
-0.0884098
0.0474799
-0.055751
0.0499347
0.00581638
1.0642
-1.03951
-0.0246844
0.0165232
0.0351778
-0.051701
-0.956641
0.328206
0.628435
-0.107492
0.227299
0.30595
-0.247268
-0.0586821
0.0292099
0.0612138
-0.0904237
-0.414631
0.341015
0.0736166
-0.033352
-0.0167484
0.0168574
-0.000108987
-0.0388188
-0.917822
0.0390348
-0.0409162
0.00188142
0.196062
1.5385
-1.73456
-0.0490135
0.0473124
0.00170115
0.183303
0.276186
-0.45949
1.78684
-1.59078
0.0731678
-0.0322379
1.535
-0.822076
-0.712921
-0.599245
1.16537
-0.0993253
0.0894273
-0.0523345
-0.00341653
-0.402416
0.0768583
-0.133836
0.0815015
-0.637365
0.1268
0.510565
-0.146174
0.0708724
-0.165964
0.170108
-0.00414359
-0.268702
-0.075717
0.344419
0.309367
1.1351
-1.44447
0.0409165
0.11247
-0.153386
-0.0126008
-0.101542
0.107756
-0.00621441
0.514105
0.174716
-0.0953434
0.143771
-0.0484275
0.0868182
-0.0477834
-0.169171
0.195087
-0.0259164
0.16171
0.054169
-0.215879
0.107218
-0.113048
0.00583018
1.20186
0.333141
-0.85438
-0.187071
-0.0297356
-1.71966
1.7494
0.556424
0.233358
-0.789782
-0.449735
-0.205699
0.655433
-1.0117
0.412452
-0.273046
0.82947
-0.320787
-0.101231
0.422018
-0.209279
-0.205352
-0.188701
0.167797
0.0209037
0.138859
0.282495
-0.421355
-0.133501
0.712006
-0.0173255
0.0766713
-2.12232
2.09259
0.183663
0.122287
-0.176176
-0.110722
0.286898
-0.268183
0.358153
-0.0899697
-0.0794531
0.0876042
-0.00815112
-1.81296
-0.919363
0.0107021
0.90866
-0.0495956
0.000582134
-1.09257
0.788845
0.303721
0.323728
-0.250415
-0.073313
-0.819017
-0.19268
1.10402
-0.951791
-0.722781
1.1463
-0.200981
1.0652
0.170397
-0.17309
0.002693
1.64078
-0.569239
1.08677
-1.08677
-0.00767711
-9.30037e-05
0.00777012
-0.209812
-0.0527129
0.262525
0.0756189
-0.0557699
-0.019849
-0.452504
0.830217
-0.377713
-0.0216099
-0.232327
0.253937
-1.08313
0.0436185
0.348031
0.0583284
-0.40636
0.133914
-0.865967
1.09932
0.053904
0.0641079
-0.118012
-0.0174869
-0.151684
-0.107194
-0.124296
0.231489
-0.155167
0.0479737
0.120597
-0.986564
0.326234
-0.778739
0.923457
-0.839018
-0.0053158
0.118146
-0.11283
0.0851639
0.0525872
-0.137751
-1.40137
-0.0778932
1.47927
-0.242396
0.406054
-0.163657
-1.02031
0.63099
0.389323
-0.472062
-0.620503
0.112185
-0.0712683
-0.150674
0.145189
0.00548454
-0.0780164
-0.0150035
0.0930199
-0.50785
-0.221979
-0.0759138
0.035089
0.0408248
-1.13222
-0.2666
1.39882
1.62704
-0.491938
-0.0112717
0.00359463
0.0341114
0.149551
-0.201463
0.384766
0.000207232
0.103348
-0.103555
0.139879
0.0691071
-0.208986
0.248544
-0.218742
-0.0298022
-0.594696
-0.52792
-1.23255
0.10033
-0.0511265
0.10503
-0.103527
0.181446
-0.0779181
0.0955674
0.0245529
0.121942
-0.0566731
0.0684007
-0.0117275
-0.0938239
-0.0210105
0.114834
0.0730019
-0.0730019
-0.182778
0.207331
0.16856
0.112677
0.10356
0.0915269
-1.24962
1.11612
-1.53064
0.0948824
1.43576
0.0239062
-0.0198619
-0.00404425
-0.0270065
-0.0522652
0.0792717
0.536499
-0.026199
-0.5103
-0.0313567
0.0324401
-0.00108338
-0.197761
0.0149828
0.162303
0.667914
-0.364855
0.527159
-0.186563
-1.21481
-0.0864411
0.0350154
0.481437
-0.301888
-0.179549
0.094975
-0.0808145
-0.0141605
0.0473033
-0.316005
0.0231459
-0.942509
0.0487778
-0.152305
-0.283668
-0.396504
0.0750532
1.39347
-0.937725
-0.455742
1.08401
0.309456
0.0654583
0.278961
0.0249385
-0.00103228
-0.116216
0.173618
-0.0574018
-0.252567
-0.589643
0.84221
-0.353118
0.445251
1.03613
-1.33257
0.127345
0.0380767
-0.0580556
0.0199789
-1.91066
0.351557
1.55911
-0.235921
-1.67474
-0.311421
0.659452
-0.908635
-0.0169858
0.0040004
-0.269508
0.265508
1.43197
-1.55963
0.127663
-0.0802872
-0.00615387
0.574948
-0.827515
-0.0503897
-0.286121
0.336511
-0.297312
-0.120313
0.417626
0.165422
-1.00847
-0.0746599
-0.00534559
-0.0458199
-0.561744
0.356045
-0.249158
0.0190383
0.23012
-0.0209705
-0.0593168
0.00992539
-0.00992539
-0.121261
0.133148
-0.011887
-0.263704
-1.26694
0.0636117
0.0263144
-0.0899261
-0.148991
0.0623608
0.0866307
-0.223813
0.0351123
1.38973
-0.371528
-1.0182
-0.188872
0.444328
-0.255456
0.00489939
-0.00446959
-0.000429792
-0.482928
-0.537385
-0.188908
-0.00453313
0.193442
-0.171134
0.309993
-0.103464
0.101762
0.00170177
0.0763887
0.0179826
-0.0943712
-0.127655
0.143692
-0.0160375
-0.899607
1.17087
-0.271266
-0.216203
-0.0504766
0.266679
-0.691142
0.661217
0.0299254
-0.00173818
0.036916
0.0256581
-0.025711
5.29597e-05
-0.00116535
-0.0505356
1.05867
0.568366
0.173324
-0.889624
0.7163
0.0224724
1.94253
-1.96501
0.380206
0.543543
0.543224
0.0657546
0.206256
-0.066377
-0.0725543
-0.0289877
0.234185
0.159551
-0.0743872
0.734927
-0.40672
0.0599668
0.202558
0.0515654
-0.167391
0.115825
-0.776302
-0.13864
0.914942
-0.0200261
0.0200261
-0.046232
-0.27359
0.549777
0.0130857
-0.229288
-0.0108655
0.0754686
0.0278596
-0.0789861
0.137691
-0.148116
-0.345885
0.324275
0.0468592
0.0478998
-0.094759
0.376207
-0.324174
0.885671
-0.670876
-0.214795
-0.20426
0.269719
0.184023
-0.485911
-0.201918
0.609991
0.163527
-0.0326443
0.0326443
-0.433994
0.290905
0.143088
0.379792
0.0262617
-0.0243369
0.0291853
-0.00484844
-0.0892782
-0.0330192
-0.0428946
-0.0496108
0.187301
-0.182218
0.243969
-0.0617513
0.131585
0.0279657
-0.388872
0.141604
0.193318
-0.0617327
-0.0465377
-0.0569263
-0.0643964
0.0613352
0.00306121
0.145277
-0.103192
-0.0420852
-0.0212889
0.400607
-0.379318
-0.107851
0.0905256
0.106175
-0.110578
0.00440317
0.0240383
0.488454
0.397217
-0.0904748
-0.0125414
0.103016
-0.0928467
-0.00883943
0.101686
-0.0932954
0.0971442
-0.719979
0.622835
-0.0357136
-1.50242
-0.501192
2.00362
0.407075
1.26186
-1.66893
0.0813016
-0.264641
0.0458988
0.280131
0.253792
-0.533924
-0.207678
0.259244
0.135425
-0.881431
0.746007
0.016752
-0.109599
-0.0178371
0.0124915
-0.988687
0.443382
0.545305
0.937725
-0.817128
-1.70982
1.63193
-1.43197
1.52685
0.0390156
-0.0874431
0.00831865
0.0173394
0.0122749
0.789389
-0.653964
0.120092
-0.0713137
0.413075
0.733229
-0.0829965
-1.70808
1.73055
-0.648285
-0.601337
-0.240589
-0.396776
-0.0184238
-0.163808
0.211111
-0.575612
-0.370044
0.181172
0.764526
-0.228027
-0.901897
-0.807921
0.748271
0.151581
-0.134829
0.280671
0.0369755
-0.0369755
0.670631
0.148993
-0.819624
-0.225764
0.896395
0.436268
-0.917934
0.481666
0.145931
-0.033254
0.00774687
0.00470812
-0.012455
-1.71966
-0.938927
0.446989
1.03904
0.350694
-0.0340008
-0.131963
-0.230422
0.744527
-0.199514
-0.0496448
-0.00295003
-0.0765031
-0.0546387
0.107226
0.379227
-0.252427
-0.834848
-0.289472
-0.118861
-0.0212271
0.140088
-0.765252
1.3088
-0.153063
0.130135
0.0229284
0.0254636
-0.000525184
-0.096061
0.0457485
0.0503124
0.00835502
0.413663
0.0683614
0.0266135
0.0112714
0.00764009
-0.0189115
-0.0172651
-0.171643
-0.729167
0.375534
0.353632
0.739304
-1.8406
1.1013
0.139927
-0.161592
0.0216653
-0.00747286
0.119658
0.119855
-1.20662
-0.100496
0.00443497
-0.0995998
0.0283316
0.147401
-0.348864
-1.73851
0.657848
1.08066
0.029387
0.0914225
0.0538547
-0.776302
-0.10303
-0.796577
0.111154
-0.0654052
0.0444554
-0.639023
-0.0521192
0.0615053
0.131813
0.687944
0.0380145
-0.459369
0.120737
0.353029
-0.2947
-0.114443
0.0206191
0.222801
0.839745
-1.06255
0.105068
-0.712408
0.607339
-0.939116
0.800476
-1.59187
0.149328
1.44254
-0.00810433
0.00888355
-0.000779227
0.171765
-0.469077
0.218472
-0.128533
-0.0899391
0.0462135
-0.0550529
-0.0310519
-0.0878086
-0.0101007
0.0231231
-0.0242885
0.0205275
0.080959
-0.101487
0.843343
0.00253721
-0.00251612
-2.10838e-05
0.0964891
-0.00596344
0.861895
0.0447462
-0.0509001
-0.435801
-0.503125
0.134474
0.0114569
0.00759717
0.0838253
-1.44254
1.20662
0.224921
-0.161937
-0.0629844
-0.255136
0.0820459
0.119681
-0.116988
-0.0013812
0.0889854
-0.0294993
-1.69206
-0.0464543
-0.0454893
0.0660168
0.740466
-0.256944
-0.155349
0.00635778
0.344013
0.00954846
-0.0338854
-0.0074951
0.080497
0.144754
0.213399
0.156151
-0.334737
0.178586
0.108373
0.55954
-0.0369515
-0.109222
0.931105
-0.26586
-0.665245
-1.59187
-0.506395
1.2457
1.78684
-0.0499999
0.294197
-0.244197
0.381673
-0.0709697
-0.310704
0.0884778
-0.907494
-0.0748867
0.0758618
-0.000975104
0.069313
-0.11298
0.0436666
0.513779
-0.912787
0.399009
0.0401509
0.659853
-0.700003
-0.0435238
-0.10715
-0.0101601
-0.0803148
0.0127195
-0.446713
-0.00955576
0.00145144
0.0451076
0.0158682
-0.0609758
0.046582
-0.162798
0.00181996
0.0236437
0.0258233
0.0923228
-0.0223451
-0.00336595
0.197947
-0.430273
-0.298912
1.56077
0.0167962
0.00322993
-0.99009
-0.0183797
0.142566
-0.0711721
-0.0432709
-0.227408
0.177018
0.685002
-0.842386
0.157384
0.0834624
0.0510116
-0.937763
-0.0140274
-0.0111964
-0.649508
0.746652
-0.0175448
0.181072
-0.129635
-0.788299
0.183962
-0.438985
0.255023
0.0123101
0.0910378
0.000849889
-0.0010132
0.000163307
-0.0423259
-0.0853289
-0.0206065
-0.131077
0.742399
-0.637331
-0.119759
0.0708836
-0.106481
0.314411
-0.15826
0.167519
1.23123
-0.430909
-0.800317
-0.122116
0.141155
-0.506266
-0.222901
-0.555197
0.606785
-0.587471
-0.0193141
-0.0887238
-0.031035
-1.70808
0.548025
-0.548025
-1.92873
1.92873
0.789389
0.0731519
-0.219639
0.146487
-0.89802
-0.0920695
0.639797
-0.369098
-0.270699
0.159785
-0.237703
-0.00997582
-0.00129592
-0.902137
-0.0844271
-0.933088
0.213109
0.0443351
-0.0655622
0.697919
-0.106415
-0.591503
1.33531
0.451531
-0.00171546
0.00256535
-0.962448
0.211396
-0.882272
-0.0886237
-0.600621
0.689245
-0.0431199
-0.866791
-0.692844
0.21937
-0.814066
-0.914942
1.36189
-0.44695
-0.135609
0.275751
-0.140143
-0.0285434
0.726462
-0.106461
-1.01703
1.01703
-0.917017
0.525446
0.391572
0.000584754
0.00195245
0.0754402
-0.44265
0.846128
-0.0572835
-0.0866103
-0.0340255
0.0995503
0.00345243
0.00144696
1.97365
-1.82433
-0.346946
0.423334
-0.643583
1.02221
-0.378626
-0.0520718
-0.0484241
0.125827
-0.0567203
0.344862
0.00561756
-0.051249
0.355379
0.0452279
0.0437206
-0.250803
0.207082
0.136812
0.0332953
0.0988209
0.183647
1.82779
0.264801
0.14983
0.579806
-0.729635
-1.21925
1.5708
0.259569
-0.178068
0.0755391
-0.766595
0.691056
0.222982
0.125632
-0.471517
-0.0742868
0.131686
-0.0573994
0.128414
-0.202701
-0.453716
-0.108028
-0.0734189
0.0766433
-0.00322434
-0.000103507
-0.0222416
-0.00386195
-0.0439214
0.653964
-0.607339
-0.0466248
-0.287316
0.300401
0.879895
0.65013
-0.268457
-0.0222517
0.048566
-0.435578
0.149457
0.172488
-0.576597
0.404109
-0.00114071
0.000127518
0.260403
0.00966678
-0.27007
0.00728368
-0.0135643
0.00628063
-0.0261469
0.0183537
0.00779326
-1.41348
0.844244
-0.107495
-1.39493
-0.199924
-0.817128
1.52685
1.63193
-0.190164
-0.169747
0.119271
-0.0647562
0.0706619
-0.00590569
-0.281906
0.975488
-0.693582
0.55403
0.085768
0.00043565
-0.00157636
0.122859
-0.5747
0.0340255
-0.0500927
0.00460334
-0.402125
-0.0334528
-0.0456181
0.0734777
-0.218177
0.594383
1.08401
-0.251921
-0.0599416
0.0012538
0.0586878
2.03622
-0.404295
-0.0598861
-0.0531622
-0.979277
0.162149
0.356827
-0.191406
-0.480078
-0.134945
0.615022
0.82761
-0.370666
-0.456944
0.0618861
0.623116
-1.73055
0.0108871
-0.00540614
-0.0254076
0.0308137
0.140467
1.80207
-0.164379
0.172125
0.261103
2.15076
-0.623906
-0.676424
0.0513887
0.625036
0.385861
0.00543066
-0.350858
0.534105
0.805866
0.341524
0.0747083
-0.0208536
-0.83232
0.228614
0.603706
1.1795
0.0452566
-0.0339852
-0.0503145
-0.362159
0.108663
-0.316341
0.717188
0.514038
-0.101088
0.012364
0.311255
-0.361255
-0.0204707
0.0187326
0.108784
-0.144481
0.0356964
-0.295265
0.309022
-0.0137571
0.347461
-0.77837
-1.25503
0.0262942
1.22873
0.12244
-0.20649
0.0840499
0.274769
0.0396423
-0.417433
0.314403
-0.660525
0.660525
1.7494
1.33531
-0.712408
0.329025
0.476841
-0.20417
0.347258
0.931818
-0.377789
0.00777008
-0.876685
0.868915
0.128571
0.00620358
0.0254369
-0.589852
0.172419
0.0584475
-0.165709
-0.119402
0.285111
0.157529
-0.506628
0.340919
-1.08578
-0.2907
-0.652755
-0.0396137
-0.00245591
-6.0211e-05
-0.226075
0.0614708
0.0786168
0.0333982
-0.148406
0.115008
-0.517729
-0.399288
-0.00552869
0.0667425
-0.642539
0.457655
0.184884
-0.559664
0.380115
-0.0788595
0.126759
0.232058
-0.0015749
-0.0162622
-0.740017
0.368489
0.0349816
0.0711936
-0.154987
0.0485066
0.20902
0.00945129
-0.431252
1.67896
0.442681
-0.0100462
0.866007
-0.790468
0.794857
-0.450844
-0.620257
0.177607
0.154456
-0.79519
0.769829
0.0253606
1.17235
-0.455161
-0.211855
-0.135091
-0.0707398
0.0149699
0.952719
-0.839816
-0.112903
-0.185751
0.111363
0.0271503
0.118039
0.878059
0.300887
-0.390851
0.0899638
-0.32212
-0.047924
-0.0442077
-0.598331
0.0941821
1.38508
1.33872
-0.00340314
0.167103
0.5516
-0.718702
0.174575
0.051036
-0.0063325
0.0047576
-0.516608
-0.103649
0.0818606
-0.102831
-0.189403
0.139792
-0.526803
0.271347
-0.992359
-0.501545
-0.290491
-0.571457
1.4906
-0.054836
-0.288669
-0.432953
0.0308279
0.245853
0.304087
0.0512915
1.30994
-0.796163
-0.192547
0.130815
-0.103199
-0.440234
0.543434
-0.0104254
0.00501924
0.049794
-0.0595903
-0.235674
-0.116147
0.696845
-0.420568
-0.276277
-0.0670809
0.131692
-0.0949546
-0.0367376
0.242837
0.0612501
-0.160988
-1.50794
-0.0972618
0.141717
0.680493
-0.379605
0.0274017
0.0742845
-0.0231818
0.0171786
0.00600322
0.0107749
-0.0306368
-0.244483
0.077092
-0.0524829
-0.549155
0.413547
0.0204204
0.0921999
0.0302403
-0.696058
1.7263
-1.21226
0.0156907
-0.195096
0.179405
-0.140578
-0.534319
0.674897
0.0728465
-0.71187
-1.03847
-0.216553
-0.0475904
0.000368199
0.0472222
-0.240706
-0.606785
-0.169517
-0.138158
-0.83232
-0.233517
0.16714
-0.241142
-1.13928
-0.305811
0.392152
-0.0863402
0.26039
0.11194
0.447125
0.249013
-0.696138
0.0875924
0.0639888
0.874479
0.394545
-1.26902
-0.220023
0.404358
1.16644
-0.244138
0.182386
-0.63112
1.03548
-0.270391
0.146095
-0.0226927
0.0349676
-0.021035
1.2235
-1.23354
0.739988
0.0876221
-1.50293
-0.189131
0.254725
0.677094
0.899749
0.0313564
-0.0188633
-1.33872
-0.652755
-0.712371
0.723073
-0.0627875
-0.901897
0.659853
0.601822
-0.931886
0.599978
-0.00476834
-0.790421
-0.313353
0.636983
-0.768496
0.131514
0.0792388
0.0524534
-0.194327
-0.240758
1.29973
-1.05897
-0.000970243
-0.00148567
-0.266219
0.216574
0.709829
0.219464
-0.204482
-0.177243
0.654022
-0.920622
0.0510775
0.0954097
0.26369
0.86889
-1.13258
-1.01949
1.2481
0.605017
-0.147362
0.0649009
0.362949
-0.603706
-0.0056738
0.217702
-0.0485455
0.115533
0.027033
0.00314481
-0.0239717
0.0208269
-1.02667
-0.0358733
0.314358
-0.807302
-0.748985
1.69582
-0.946831
0.377576
0.644633
-0.0482214
0.0515343
-0.00331289
-0.118692
0.772714
-0.717107
0.725026
0.578468
-1.32745
0.317307
-0.0996045
-0.583667
-0.408692
-1.15143
1.41512
-0.0576861
-0.881454
-1.79736
-0.167648
0.362949
0.0502431
-0.857546
0.831746
-0.646723
-0.185023
-0.981783
0.398115
0.00527239
0.11021
-0.000630145
-0.109579
-0.971373
0.562681
-0.212481
0.910618
-0.924645
0.19369
-0.210955
-0.0963318
0.243733
1.05377
0.478767
-0.101373
-1.40558
0.605261
1.04405
-0.702524
-0.552806
-0.518211
1.07102
0.447194
0.0168065
-0.0120984
-0.735877
0.700003
0.0486612
-0.167353
-0.543224
0.23217
0.311054
1.04709
0.648723
0.776593
-0.809945
-0.493078
-0.44943
-0.471367
-0.500006
0.803604
-0.803604
0.685634
-0.685634
-0.735877
-0.0394895
0.0394895
-0.23217
-0.825699
-0.332404
-0.525433
0.0241624
-0.0241624
0.0486612
-0.167353
0.776593
0.766326
-0.766326
0.809945
0.759269
-0.759269
0.506922
0.528633
0.481789
0.0728235
-0.499994
-0.55057
1.0792
-0.686212
-1.68561
0.534178
0.251356
0.353661
-0.195596
-0.0137573
0.0585035
-0.885118
0.0928606
0.792258
-0.111522
0.0930984
-0.994621
0.5879
0.919702
-0.590677
-0.123883
0.0048393
-0.00720447
-0.811229
-0.0783944
-0.545305
-0.00441346
0.016905
0.412928
-0.138503
0.0730975
0.180679
0.000176013
-0.0100139
0.00983785
-0.812524
0.0670527
0.745472
0.752753
0.30102
-0.531178
0.417109
0.114069
0.917016
-0.743762
-0.173254
0.0840333
0.300733
-0.0139305
-0.0594884
-0.0607824
-0.0141043
0.811128
-1.57638
-0.850744
0.0965407
-0.742311
0.795184
-0.0528733
0.121455
-0.899723
0.778268
-0.802482
0.902915
-0.100433
-0.0605274
0.0713022
0.0206827
-0.290191
0.302656
1.11246
-0.0931962
-0.791922
0.915385
-0.0912687
-0.824116
0.071474
-0.123546
1.00411
0.823819
-1.33501
0.47137
-0.385602
0.10063
-0.892552
1.59078
0.337944
-0.793434
0.00301302
1.0171
-0.895646
1.2103
0.84277
-0.749268
-0.0935023
-0.879723
-0.114897
-0.416981
0.0376634
-0.418857
0.576241
-0.784706
0.784706
-0.612175
-0.0843887
-0.863503
0.119741
-0.954089
0.865465
0.074276
-0.202809
-0.0564254
0.0570137
0.011387
0.187277
0.829823
0.818526
0.772811
0.138414
-0.911225
-0.492638
0.8463
-0.782963
-0.103965
0.886928
0.169731
-0.886839
-0.676225
0.886386
-0.785756
-0.106119
0.460606
-0.0185348
-0.442071
-0.034829
1.39823
-1.3634
0.348843
-0.473
0.124157
-0.889082
-0.830622
0.0883115
0.526219
0.268638
-1.98531
1.18867
-0.578861
0.578861
-0.808749
-0.596828
-0.0988651
0.271284
-0.987175
1.01347
0.782421
-0.2008
1.29013
-0.445888
0.977962
-1.06614
0.0881808
-0.139825
-1.70078
0.109286
0.350132
-0.428789
-0.367788
0.0559767
0.308979
-0.224945
0.780971
-0.881404
0.471388
0.374911
-0.149062
0.736962
0.582131
-0.582131
-0.0629903
0.0624651
0.112276
-0.0788774
1.23552
0.162703
0.142049
-0.000960328
0.00313238
-0.00217205
-0.670317
0.693478
-0.0231604
0.207756
-0.957023
0.10811
-0.893866
-1.04293
1.35468
-0.311744
0.177004
0.875281
-1.26917
1.47693
-0.755452
0.604742
-0.656861
-0.662858
0.156593
0.0209382
0.0267178
0.133207
-0.260843
0.281781
0.0032696
-0.240865
0.0677394
0.727445
0.692415
-0.087673
0.0739996
0.787895
-0.170309
0.00329104
0.167018
-0.536153
0.52635
0.550341
-0.946579
0.728518
0.218061
-0.685416
-0.12865
1.10391
-0.146172
-0.300541
-0.0383646
0.485894
0.514106
-0.770849
-0.110555
-0.339673
-0.392436
-0.417702
-0.311356
0.401713
0.598287
-0.11622
0.110257
-0.862118
-0.0652478
-0.591613
-0.149807
-0.24604
0.395847
-0.0264225
-0.00307679
0.114139
0.073162
-0.127837
-0.116645
0.760384
-0.644351
0.718351
0.385907
-0.64675
-0.215598
0.150484
0.0651137
-0.744557
-0.190744
0.9353
-0.238261
0.227331
-0.0247727
-0.0616292
0.00231245
0.00974742
0.711757
-0.132896
0.120175
0.111883
-0.7352
0.0648826
1.0898
0.0409167
-0.768831
0.554035
-0.157504
-0.286649
1.01988
-0.00553945
0.214035
0.0470675
-0.00550188
-0.0457216
-0.0904941
0.0103528
1.07945
0.426457
-0.537015
0.110557
0.848696
-0.0225281
0.00244251
0.0200856
0.12983
-0.00887687
-0.000678893
0.212924
-0.10414
0.0424353
-1.02961
0.887337
-0.460879
0.00709766
0.277968
-0.386531
-0.970777
1.24442
-0.273647
-0.778548
0.834502
-0.0559546
0.519548
0.0644431
-0.334834
-0.0735037
1.24588
-0.45943
-0.0717478
0.275321
0.45085
0.188931
-0.639781
0.402978
0.0378008
0.655677
-0.573488
0.56558
0.00790807
1.42289
-1.17704
-0.0239937
0.0302423
-0.0062486
0.699634
-0.00909204
-0.0826516
0.0192217
1.32347
0.860015
-0.340467
0.0608886
-0.13567
-0.0708206
0.0533845
0.0583975
-0.111782
0.00885285
-0.00570804
1.05042
-0.655873
0.166209
0.218239
-0.0252097
-0.086834
0.2268
0.096115
0.00624702
0.0781301
0.767374
0.258781
-0.285104
0.026323
0.107472
0.389767
-0.497238
0.643759
0.115132
-0.0534426
-0.00395127
0.0573939
-0.586407
0.0734984
-1.13964
-0.00562036
0.753892
0.71957
0.18935
0.653203
-0.84753
0.81349
0.166977
0.00054271
-0.888196
0.0884609
-0.27178
-0.115627
-0.16895
0.69503
0.0723434
0.0137356
0.247027
-0.182584
-0.339264
0.163732
0.0228258
-0.111236
0.421509
-0.0575905
0.588749
-0.0692318
0.154161
-0.0220768
0.129549
-0.149458
-0.188774
-0.0422603
-0.109289
0.0137253
-0.000607872
-0.0131174
-1.56839
0.391353
-0.00775533
0.86669
-0.225957
-0.619047
0.644016
-0.0249692
0.417394
0.759913
0.393686
-0.328572
0.0805785
-0.17691
0.634914
0.124999
0.596441
0.712355
-0.267209
0.738579
0.224698
0.854753
-0.597352
0.350028
0.247324
-0.0671936
-0.0707426
0.0404302
0.0659555
-0.0481851
1.14702
0.738159
0.0753312
0.624668
0.217542
-0.874356
-0.0811838
-0.676084
0.679097
-0.0254756
-0.575224
0.425417
0.869673
0.672715
0.138273
-0.00113589
-0.154054
-0.317463
1.08963
0.63667
0.500324
0.0145515
0.901824
-0.047071
0.688447
0.710371
-0.0791559
0.573252
-0.73541
0.9249
-0.18949
-0.413326
-0.184026
-0.0381542
-0.200781
-0.176244
0.780266
0.0102918
-0.00265167
0.627134
0.176356
0.377679
0.607467
-0.131829
0.232985
0.744559
0.253871
-0.99843
0.276888
-0.923611
0.248748
-1.46101
-0.175736
0.764215
-0.588479
-0.670697
-0.0865105
0.0248813
-0.0553033
-1.24653
0.0172923
-0.0404741
0.623345
-0.0277036
-0.227447
0.255151
-0.036082
-0.575612
0.183053
0.0309826
-1.50322
-0.00404866
0.00422468
0.159857
-0.0541121
-0.594165
0.0206763
0.567933
0.30174
1.14787
0.855746
-0.242134
-0.386503
0.628637
0.188905
-0.618581
0.618581
-0.216974
-0.930964
1.14794
0.0307437
-0.15286
0.681064
-0.113132
-0.218745
-0.465986
0.165445
0.681065
0.703299
-0.0821615
0.178938
-0.103885
-0.444905
0.484123
0.0814569
0.062471
0.0106968
-1.70418
0.0577256
-0.117231
0.693858
0.306142
0.0577256
0.693858
0.0808883
-0.136942
0.0808883
-0.696293
0.696293
0.303707
-0.0139243
0.19401
-0.0769973
0.215648
0.0864036
-0.479064
0.640436
-0.032969
0.65546
-0.505328
-0.150131
-0.0541839
0.0524311
0.00175286
-0.00957989
0.00861956
-0.125247
0.0182829
-0.0670288
-0.435516
-0.357615
0.131541
0.0422666
0.826821
-0.275221
-0.3966
0.427428
-0.000328031
-0.132558
-0.00604266
0.684806
0.0690858
0.586122
-0.0179622
-0.000949256
0.0103563
0.0845444
0.558681
-0.476491
-0.0821894
2.17517
0.552763
-0.103312
0.903795
0.0115379
-0.0638031
0.108144
0.226213
0.121604
1.1344
-0.389842
0.0124281
-0.0520418
0.696303
-0.21894
0.0209365
-0.0209365
0.0213868
-0.0213868
-0.0172154
0.0172154
0.0167962
0.366831
0.460685
-0.0494466
-0.709517
0.481489
0.185006
0.0279178
-0.0838328
-0.484331
0.710264
0.112074
-0.79749
-0.972771
0.184473
0.085522
0.0199247
-0.00157101
-0.0131707
0.0131707
0.113436
-0.0135389
0.0135389
0.701173
0.0962867
-0.0130194
-0.00494281
0.00644838
-0.06639
-0.0217365
0.0217365
-0.00968459
0.00968459
-0.0229708
0.0229708
-0.0106889
0.0106889
0.10845
-0.296365
-0.0804926
0.22017
-0.010191
0.010191
-0.374654
0.507155
-0.132501
0.494716
-0.218965
-0.41244
0.0158392
0.560671
-0.195542
0.07805
0.565967
0.566876
-0.00518763
0.00518763
0.251288
0.0256462
-0.0256462
-0.0093478
0.0093478
0.762856
-1.16884
0.0361159
-0.116953
0.12662
0.00229198
-0.00229198
0.0123431
-0.0123431
0.018769
-0.018769
0.0224191
-0.0224191
-0.0241396
0.0241396
0.0358153
-0.0358153
0.488923
-0.0325046
0.0325046
-0.00161308
0.00161308
0.0246747
-0.0246747
-0.00482385
0.00482385
0.00627101
-0.00627101
-0.028113
-0.0266213
0.0266213
0.404405
0.0231215
-0.0402185
0.0402185
0.0047709
-0.0047709
0.0196498
-0.0196498
0.0342064
-0.0342064
0.0249505
-0.0249505
0.00289985
-0.00289985
-0.00203599
0.00203599
-0.558222
-0.214698
-0.00813685
0.00813685
-0.000833859
0.000833859
-0.0388578
0.0388578
-0.0271843
0.0271843
0.000652546
-0.000652546
-0.412785
0.66751
0.248984
-0.0326434
0.0326434
-0.0320963
-0.0140794
0.0140794
-0.000171276
0.000171276
0.0363063
-0.0363063
-0.239448
0.23999
0.00288997
-0.00288997
-0.0220914
0.0220914
-0.495729
0.0435207
0.256982
-0.0304761
0.0304761
-0.442723
0.0329824
0.0185519
-0.0127091
-1.49022
-0.0373974
0.0373974
-0.202019
0.144428
-0.0397066
0.000258516
-0.000258516
-0.00269622
0.0501761
0.263781
-0.322997
-0.276068
0.599065
0.189692
-0.00381906
0.00381906
-0.135012
0.431996
-0.296984
0.766256
-0.393786
-0.37247
-0.465808
-0.660079
0.224812
0.202617
-0.163801
-0.372352
-0.57248
0.00831198
0.189659
-1.1861
0.0167835
-0.0167835
0.000387923
-0.000387923
0.0314142
-0.0314142
0.0254593
-0.0254593
-0.000347968
0.000347968
0.000260405
-0.000260405
-0.0937549
-0.15666
0.171946
-0.295829
0.000393368
-0.000393368
-0.0437422
0.0437422
-0.0410526
0.0410526
0.215634
-0.0596966
-0.155937
0.0045922
0.311729
-0.537686
-0.000488482
0.000488482
-0.0200948
0.0200948
-0.0968917
0.221358
0.00345364
9.70968e-05
-9.70968e-05
0.094219
0.0134408
0.980788
-0.485511
-0.08399
0.569501
-0.626623
0.0658754
-0.484733
-0.0374981
0.0374981
-0.678447
0.27352
0.0505162
-0.0505162
-0.654499
0.3838
0.260447
0.121326
-0.000402129
0.000402129
-0.837478
-0.000341919
0.000341919
0.316255
0.410207
0.0439385
-0.0546229
0.0546229
-0.000296199
0.000296199
-0.0431299
0.0431299
-0.0522899
0.0522899
-0.000320836
0.000320836
-0.0577745
0.0577745
-0.000563648
0.000563648
-0.0465094
0.0465094
-0.00538371
-0.0438502
0.0438502
0.00213265
-0.00213265
0.0490937
-0.0490937
-0.00133068
0.00133068
0.0463128
-0.0463128
-0.0648731
-0.00323607
0.00323607
-0.00502197
0.00502197
-0.0499237
0.080497
-0.0113026
0.0113026
0.0052285
-0.0052285
-0.0606063
0.0606063
0.303174
-0.0190959
0.0190959
-0.0552873
0.0552873
-0.0075458
0.0075458
-0.0686956
0.0686956
-0.0130851
0.0130851
-0.082295
0.082295
-0.0222766
0.0222766
-0.0909838
0.0909838
-0.694151
0.352073
-0.532675
0.507706
-0.866791
0.10258
-0.55737
0.388421
-0.107593
0.0405119
0.0035703
-0.0035703
0.164744
-0.716783
0.0450062
-0.0343094
-1.22507
1.6766
1.23317
0.248676
-0.0351623
-0.00487462
-0.389462
-0.582403
-0.0511302
0.390581
-1.18585
-0.0218699
0.0218699
-0.750185
0.0189315
-0.0189315
-0.00140171
0.00140171
0.325794
-0.414141
-0.00203965
0.00203965
0.0185021
0.0141421
0.596697
0.31154
-0.00713739
-0.0108543
-0.00800893
-0.100065
0.497958
-0.397894
0.154184
-0.0448986
0.00839978
0.93268
-0.00686875
0.0508092
-0.407975
0.445639
-0.491965
-1.01135
-0.203456
-0.0729052
0.0182664
-0.163002
-0.309999
0.0383189
-0.00508645
-0.00985123
0.788656
-0.547848
-0.0396008
0.0624265
-0.0368917
0.0988213
0.0951883
0.42188
0.239337
-0.161677
0.206557
0.0241652
-0.0061826
-1.31387
0.0172229
0.0805384
-0.307985
-0.0184236
-1.48581
-0.0712041
0.264691
-0.351202
0.39643
0.25317
-0.824627
0.0479633
-0.0340948
-0.089451
-0.348881
0.46295
-0.0758975
-0.0154212
0.0913187
-0.027899
0.027899
0.169967
-0.438424
-0.0381999
0.100561
-0.0813785
0.0559029
-0.0632173
-0.00578967
0.0690069
-0.0305567
-0.155174
0.0799643
-0.105424
-0.2865
-0.354393
0.640894
0.0153848
0.060477
0.151222
-0.0310473
-0.07341
0.0687045
-0.158077
0.312532
-0.0055592
0.0256447
-0.0246422
0.175865
0.00387279
0.261635
0.00101121
-0.00101121
-0.327808
1.01626
0.0910714
-0.172255
-0.0456966
0.00257668
0.848656
0.628274
0.0176625
-0.0275879
-0.533797
0.00112213
0.059619
0.0944366
-0.686974
0.309186
-0.0545557
0.378583
-0.665083
0.221301
0.507217
-0.0922295
0.0922295
-0.000630145
-1.19879
0.535227
0.663561
-0.213591
0.158287
0.2872
-0.268995
-0.509375
-0.129816
-0.0285612
0.0368799
0.929512
0.212875
-0.0746013
-0.0691626
-0.616967
-0.710487
-0.0720028
-0.25688
0.790985
0.573139
-0.26141
-0.244917
0.522884
-0.101742
0.395939
-0.26634
0.0926815
-0.463132
0.330631
0.118902
-0.118902
0.109992
-0.102001
-0.00799138
0.00362547
-0.00135626
0.0171786
-0.335643
-0.250764
0.22568
-0.186117
-0.0395635
0.53972
-1.08269
0.264962
-0.768088
0.692321
-0.118073
-0.177756
-0.0367397
-0.0794072
-0.488716
0.0531995
-0.289185
0.00285
-0.0184236
0.383255
-0.00523446
0.00243442
0.00049792
0.0153502
-0.011357
-0.00399322
-0.103842
-0.0187873
-0.169463
0.188251
-0.123442
-0.33969
0.0185021
0.3466
0.003136
-0.377071
0.0865802
0.00267543
0.060053
-0.1095
-0.0122676
0.0122676
-0.00115492
0.0026585
-0.00912202
0.000843198
-0.0611177
0.000682611
-0.0011688
0.266363
-0.0893446
-0.000590553
0.000590553
0.103038
0.511105
0.00154774
-0.284099
0.519369
1.14306
-0.472322
0.332726
-0.438766
-0.195454
0.157254
0.226367
-0.227362
-0.00243228
0.012579
-0.00283157
-0.00837091
-0.177255
-0.371733
0.853222
0.318008
-0.411763
0.245282
-0.0016089
0.145376
0.0316279
0.00173629
0.000543784
0.0120352
0.140819
0.00136064
-0.00032772
0.724464
-0.655759
-0.245531
0.142459
0.950104
0.00066258
0.00085398
-0.0397066
-0.00552562
0.817813
-0.432006
0.513463
-0.509667
0.904429
-0.448298
0.571974
-0.183553
0.702645
0.0010048
0.00318078
0.0167439
-0.112631
0.139045
-0.236754
0.0093222
0.00313013
0.0659937
-0.0518512
-0.0141425
0.000929088
0.0250112
0.0282131
-0.0532243
-0.0958094
0.00283802
0.000294354
0.0015421
0.481411
-0.430884
0.000444978
0.000164062
1.16338
-0.628158
0.382589
-0.00598317
0.000129406
0.178864
-0.0126551
-0.0431703
-0.112092
-0.0158667
-0.00365526
0.122914
0.0449165
-0.00200498
0.410296
0.000634288
-0.00235607
0.00235607
0.00151915
-0.0123735
4.53981e-05
-0.321481
-0.00375946
0.0732886
-0.107311
0.0567259
0.0972151
-0.0654108
9.51115e-05
0.0017859
0.463638
-5.41623e-05
-0.00341017
-0.0347441
-0.00207727
0.000358668
0.00856528
0.133484
-0.710502
0.479742
-0.851475
-0.0886405
-0.000393298
-0.356419
0.0328011
0.0231756
0.596342
-0.0147919
0.0552531
-0.00410674
-0.0014225
-0.553449
-0.00337946
-0.000242811
-0.0315368
0.908738
-0.505761
-0.00258429
-0.000767037
-0.00598341
-0.00190539
0.0739296
-0.0216556
0.0216556
-0.0294149
0.0320734
-0.0023173
-0.00808934
0.0416988
-0.0392644
-0.165906
0.0951631
-0.00553933
-0.0135993
0.0407035
-0.0170022
0.0632478
-0.0449814
-0.624626
0.571753
0.0183442
-0.0016582
0.29658
-0.14242
-0.0685492
-0.679282
-0.0736314
-0.116359
-0.0952307
0.0931534
0.696602
0.000390492