/*--------------------------------*- C++ -*----------------------------------*\
| =========                 |                                                 |
| \\      /  F ield         | OpenFOAM: The Open Source CFD Toolbox           |
|  \\    /   O peration     | Version:  2306                                  |
|   \\  /    A nd           | Website:  www.openfoam.com                      |
|    \\/     M anipulation  |                                                 |
\*---------------------------------------------------------------------------*/
FoamFile
{
    version     2.0;
    format      ascii;
    arch        "LSB;label=32;scalar=64";
    class       volVectorField;
    location    "21";
    object      U;
}
// * * * * * * * * * * * * * * * * * * * * * * * * * * * * * * * * * * * * * //

dimensions      [0 1 -1 0 0 0 0];

internalField   nonuniform List<vector> 
2186
(
(1.32816 -0.0738193 2.45673e-19)
(1.59848 -0.943266 -1.63609e-20)
(1.44982 -0.919154 7.41397e-21)
(0.743035 -0.58525 -1.58498e-19)
(-0.297964 0.41699 -1.75102e-19)
(1.50799 -0.457886 0)
(0.720885 -0.666323 0)
(-0.245044 -0.36438 7.99934e-20)
(1.3647 -0.309523 1.22252e-19)
(0.554415 -0.313386 -2.15027e-21)
(0.679526 0.612851 0)
(0.742203 -0.273041 -8.50838e-20)
(-0.297335 -0.413221 -3.27319e-20)
(1.20218 0.024593 -3.93559e-19)
(1.78163 -0.700016 -2.7035e-20)
(1.01341 -0.00465916 1.83991e-19)
(0.981646 0.0126224 0)
(-0.464265 -0.0915865 0)
(1.48134 -0.211767 0)
(-0.0805482 0.226515 -6.68174e-20)
(0.48544 0.0923758 -1.18118e-19)
(-0.159241 0.16427 9.16093e-20)
(1.18918 0.0275524 3.2429e-19)
(-0.197404 0.00892315 5.63795e-21)
(1.03193 0.00728951 -2.55302e-19)
(0.794078 -0.562059 0)
(0.762147 -0.0325985 1.52101e-19)
(0.610598 -0.59028 -1.87278e-19)
(1.2155 0.71239 0)
(0.963909 0.0228443 -3.48232e-19)
(-0.0398087 0.0654626 0)
(1.02381 -0.010899 1.20648e-20)
(-0.0982414 0.13967 0)
(2.73287 0.103526 2.54277e-19)
(-0.123759 -0.16963 3.42799e-21)
(1.54888 0.771759 7.57272e-20)
(2.01391 0.133061 1.50737e-19)
(0.511859 0.140514 -3.51675e-19)
(1.90349 0.209378 -2.70514e-19)
(1.14044 -0.25065 4.12004e-21)
(-0.343414 -0.445767 0)
(-0.101582 0.133729 0)
(1.84958 -0.890745 5.73464e-20)
(-0.392474 0.15649 0)
(1.11407 0.282016 1.58285e-19)
(0.599122 -0.295465 2.96052e-19)
(0.916077 -0.782614 0)
(1.18744 -0.794344 1.32428e-19)
(2.27416 0.0145495 0)
(-0.176406 0.388102 1.72516e-19)
(-0.0274756 0.115522 9.87458e-20)
(0.633376 0.584078 8.2012e-20)
(2.04698 -0.788218 5.28163e-20)
(0.594766 0.271953 -2.82537e-19)
(-0.267091 -0.0631937 3.53495e-20)
(0.765685 -0.653326 0)
(1.63273 -0.965665 1.7215e-20)
(0.580911 -0.541511 0)
(2.23938 0.210427 7.84793e-20)
(1.14284 -0.170662 -3.9734e-19)
(2.02504 -0.118422 1.58346e-19)
(1.3589 0.304529 -1.83639e-19)
(1.34569 0.532377 0)
(0.888081 -0.253068 -4.51242e-21)
(1.36392 0.388594 -1.11503e-19)
(1.25054 -0.737198 -1.90143e-19)
(1.17359 0.661317 5.39833e-20)
(0.677747 0.0683272 -5.76365e-19)
(0.820891 0.053819 0)
(1.99891 -0.303536 -4.55344e-20)
(-0.253965 -0.418584 -9.21723e-20)
(2.24251 0.00435814 -1.69333e-19)
(0.725829 -0.0418046 -2.54795e-19)
(0.878606 -0.522271 0)
(0.825454 0.179195 -9.36909e-20)
(0.549195 -0.510615 -3.17321e-19)
(2.50308 -0.0394479 0)
(1.0063 0.0102191 3.80057e-19)
(-0.114211 -0.240265 0)
(2.02724 0.335418 0)
(0.634183 0.0923305 7.78788e-20)
(0.968482 -0.309887 -3.73319e-21)
(1.02546 0.00595487 4.24136e-20)
(1.32539 0.41439 2.81376e-20)
(0.968827 0.023646 4.45266e-19)
(1.0407 0.0291516 -1.05402e-20)
(0.667543 0.173142 -3.4239e-19)
(1.41317 -0.3064 1.75464e-21)
(1.15408 -0.261428 0)
(-0.0642428 -0.0345593 6.22313e-20)
(0.864805 -0.627133 -1.80349e-19)
(-0.0834248 0.271918 -7.16708e-22)
(1.11303 -0.0769342 2.66101e-19)
(0.821029 -0.186502 0)
(0.973365 0.0228915 4.24087e-20)
(1.37205 0.642395 0)
(1.61451 -0.960363 0)
(1.30895 0.223504 0)
(-0.265359 0.434885 0)
(0.795113 -0.669562 3.16506e-19)
(-0.199047 0.238204 -1.95032e-19)
(0.443772 -0.0352266 1.29089e-19)
(1.56668 0.195199 0)
(1.14728 -0.101287 -2.43261e-19)
(1.11947 0.0233578 1.88154e-19)
(-0.0248866 0.309757 1.18178e-19)
(0.637571 0.505389 0)
(2.22279 -0.229682 -9.52371e-20)
(0.96794 -0.482228 8.88157e-20)
(-1.16042 0.515587 2.67573e-19)
(1.76311 0.276697 1.18049e-19)
(-0.144239 0.456348 -2.58848e-19)
(0.813935 -0.740432 0)
(0.565852 0.346859 1.70584e-19)
(1.5816 -0.301621 -3.45961e-19)
(-0.353223 -0.226263 -3.36205e-19)
(1.28471 0.338342 1.65491e-20)
(1.73499 -0.0153839 0)
(-0.0852459 -0.0384216 -1.86577e-19)
(0.709186 -0.0755423 8.08303e-20)
(1.57098 0.879757 0)
(-0.102859 0.292762 -2.38752e-19)
(0.886971 0.761967 -2.76521e-19)
(-0.560928 -0.264785 3.06066e-19)
(1.03053 -0.0240191 0)
(1.58941 0.418156 -2.08543e-20)
(-0.232414 0.456544 0)
(0.701775 -0.499421 -1.14114e-19)
(-0.521224 -0.200538 -1.69747e-19)
(0.787977 -0.71918 0)
(0.437131 -0.279645 4.29196e-19)
(0.543638 -0.459479 2.94619e-19)
(0.408018 -0.36941 0)
(0.98437 -0.785001 -1.4867e-19)
(0.338698 0.109845 0)
(-0.0522697 0.41284 -1.35223e-19)
(0.813613 -0.700609 1.53498e-19)
(2.4366 -0.321633 2.10648e-19)
(2.22906 0.155755 0)
(-0.0723199 -0.145042 0)
(0.688115 0.639321 -3.44003e-19)
(1.77257 -0.644106 -1.7758e-20)
(-0.146039 -0.194513 0)
(0.986611 -0.810284 -1.58808e-20)
(1.14992 -0.100301 0)
(1.08801 -0.126891 4.22037e-19)
(2.14553 -0.229148 -7.67287e-20)
(-0.314343 0.400014 0)
(1.22462 -0.559677 -6.3655e-20)
(-0.25196 0.260044 -4.4107e-20)
(-0.157255 0.361724 0)
(1.0956 -0.817807 1.16889e-20)
(1.00558 0.00544695 -6.34842e-19)
(0.654199 -0.483657 -1.11548e-20)
(0.820956 -0.520124 0)
(1.20173 -0.735393 -1.10685e-19)
(0.657183 0.234894 2.64837e-19)
(1.22537 0.123245 0)
(1.49391 0.0778934 -2.5225e-19)
(1.19772 -0.859582 -2.56694e-19)
(-0.0634367 -0.128192 -7.1103e-20)
(-0.151576 -0.482906 -1.37501e-19)
(1.07103 0.00773324 2.36564e-19)
(0.922149 -0.469144 -1.11689e-19)
(1.50237 -0.329134 -1.62439e-21)
(1.3722 -0.249212 -2.57019e-20)
(0.651939 -0.092292 7.47625e-20)
(-0.203675 -0.0626463 -1.6372e-19)
(1.81636 -0.403785 0)
(2.06859 -0.440402 7.57959e-20)
(1.45242 0.648636 1.38082e-19)
(0.813092 -0.618987 -2.30864e-19)
(0.995199 0.00826693 1.3009e-20)
(0.724517 -0.535998 3.13749e-19)
(1.30784 0.798083 1.26199e-19)
(1.81078 0.0822497 1.42844e-20)
(-0.345171 0.318666 0)
(1.08426 0.0528955 -2.44628e-19)
(-0.473145 -0.591907 -2.23706e-19)
(1.07189 0.488926 8.06374e-20)
(0.00591567 -0.0958904 9.89676e-20)
(1.15846 0.0276466 -4.51553e-20)
(-0.172532 0.135071 -1.61041e-19)
(1.30002 0.580963 -7.75229e-20)
(1.13903 0.885644 0)
(-0.368443 0.264619 -9.05353e-20)
(-0.0968286 -0.00926241 0)
(0.654343 0.561902 -2.79838e-19)
(2.00342 0.167077 -1.85686e-20)
(-0.361083 -0.395395 1.12256e-19)
(-0.566601 -0.169747 -5.42107e-19)
(0.72543 0.0719745 2.53188e-19)
(1.95144 0.141494 -3.46848e-20)
(0.984054 -0.351286 -3.2458e-20)
(-0.0162416 -0.0303911 0)
(-0.870919 0.393633 4.22749e-19)
(1.33652 0.972979 -1.73267e-20)
(0.841447 0.0728768 -1.38799e-19)
(0.557945 0.523427 1.94714e-19)
(0.493436 0.19417 0)
(-0.164136 -0.44861 -1.54883e-19)
(-0.878614 0.558946 2.99525e-19)
(1.29092 -0.958178 6.80297e-22)
(0.98877 -0.0346411 -1.98151e-19)
(-0.183909 -0.127721 7.19553e-21)
(-0.121918 0.159583 1.46416e-19)
(-0.284598 -0.131456 -1.21335e-19)
(1.8591 -0.153157 0)
(1.13512 0.0439609 -3.28178e-19)
(2.1975 0.143935 1.88071e-19)
(1.27639 -0.627246 1.21598e-19)
(0.652384 -0.0832546 -4.13633e-21)
(0.593523 0.327355 0)
(0.942681 0.748689 -1.63536e-20)
(0.68594 0.630737 1.8499e-19)
(0.901545 -0.568547 1.62699e-19)
(0.684037 0.499859 0)
(1.02144 0.00228844 8.49856e-21)
(0.886207 -0.66847 2.32156e-19)
(0.834776 0.421053 -4.61458e-19)
(1.2371 -0.109895 0)
(-0.110412 -0.0900194 -2.30879e-19)
(-0.00395825 0.211865 -9.80334e-20)
(1.59706 0.717704 0)
(1.34617 -0.942846 -5.82203e-22)
(-0.382156 -0.0121582 0)
(-0.272661 0.446338 1.1042e-19)
(0.735378 0.651984 -9.85039e-20)
(0.854332 -0.222812 0)
(-0.196439 -0.147607 0)
(1.53296 -0.474532 0)
(-1.00596 0.252014 4.78363e-19)
(1.21153 -0.887882 1.67789e-19)
(1.17918 -0.610348 7.06906e-20)
(1.06283 -0.177748 -1.833e-19)
(0.882671 -0.698568 -1.84191e-19)
(0.184722 -0.188828 0)
(-0.804189 -0.423552 0)
(1.00628 -0.517682 1.94572e-19)
(-0.117134 -0.208144 0)
(-0.187956 0.387731 0)
(-0.361599 -0.204409 2.88347e-19)
(0.790693 0.669118 8.54663e-20)
(1.01186 0.792254 0)
(0.695135 0.551919 -8.54646e-20)
(0.831723 -0.0468199 -2.30713e-19)
(0.743903 0.560842 -2.28681e-19)
(0.592849 0.551534 -1.67652e-19)
(-0.224514 -0.437285 1.75882e-21)
(0.719415 -0.646088 0)
(0.900256 0.174966 -3.28645e-19)
(-0.30579 -0.473224 4.21219e-20)
(0.605799 0.561532 3.77386e-19)
(0.955888 0.795799 0)
(-1.13055 0.344288 3.40818e-19)
(-0.0948953 -0.397327 2.11849e-19)
(-0.0155912 -0.324565 -1.07699e-19)
(0.663428 0.568909 -1.48409e-20)
(0.969188 -0.00779723 6.13685e-20)
(-0.358818 -0.429546 0)
(2.43707 -0.131212 -2.6582e-19)
(1.87995 -0.38857 -3.07079e-19)
(0.652018 -0.603947 -8.21297e-20)
(-0.518474 -0.203384 9.46984e-21)
(1.19405 0.459769 1.81531e-19)
(0.883621 0.411066 0)
(1.04768 -0.171211 2.0755e-19)
(0.0609278 -0.446099 -7.17823e-21)
(-0.0887885 0.0950582 3.73357e-19)
(0.922787 0.0192826 -5.52624e-20)
(1.12335 0.145026 0)
(2.00696 -0.0862184 -1.98399e-19)
(1.85452 0.0939617 0)
(0.544989 0.253524 -4.64217e-19)
(-0.130587 0.187603 0)
(-0.231926 -0.384606 1.8046e-19)
(0.691733 0.108128 0)
(0.623893 -0.517978 -1.92139e-19)
(1.13645 0.0168783 2.18971e-19)
(-0.300883 0.36665 3.9762e-20)
(2.09648 -0.0653499 5.56866e-21)
(2.08115 -0.323669 -8.51815e-20)
(1.11586 0.231506 -2.22053e-19)
(-0.32132 -0.472179 -8.34421e-20)
(1.07613 -0.854292 0)
(0.811291 0.0164635 -1.59272e-19)
(0.931475 -0.381729 -3.07613e-19)
(1.72631 -0.59189 1.02949e-21)
(1.76833 0.0215656 1.44534e-19)
(1.08525 -0.00489799 3.93415e-19)
(0.0287463 -0.415892 -1.09518e-19)
(1 -0.443419 -1.37321e-19)
(0.194747 -0.187435 2.7036e-19)
(1.00827 -0.00773392 0)
(1.00533 -0.00593761 0)
(0.764207 -0.178627 1.55006e-19)
(-0.00125359 0.413844 -9.28508e-20)
(0.16252 -0.121433 -9.39714e-20)
(2.04789 0.0261878 -2.83677e-21)
(1.04314 0.110564 0)
(1.72752 0.14508 -1.14792e-19)
(0.939071 -0.818823 -1.01783e-19)
(1.77773 -0.581394 -3.98937e-20)
(1.10493 0.83451 0)
(0.472055 -0.454118 0)
(0.605086 0.517573 -1.77899e-19)
(1.09701 0.282246 -4.07212e-19)
(2.29374 -0.316815 2.50795e-22)
(0.860537 0.158354 1.41354e-19)
(-0.0610115 -0.416248 -3.28422e-19)
(1.27053 -0.490843 9.71168e-21)
(-0.254563 -0.407636 0)
(-0.0840142 -0.159292 0)
(-0.428775 -0.362062 0)
(1.33937 -0.731115 -1.16243e-19)
(-0.156446 0.364036 -2.11857e-19)
(-0.0651545 0.127597 0)
(1.29467 0.974736 -3.26853e-20)
(1.11473 0.150674 -4.27104e-19)
(2.23362 0.559259 -5.60314e-20)
(1.08277 0.923129 8.17417e-20)
(-0.125906 0.441064 1.32659e-19)
(0.930021 -0.163802 0)
(-0.433542 -0.316462 -2.42242e-19)
(-0.19359 0.4634 2.51379e-19)
(0.77605 0.0285333 1.88174e-19)
(1.54249 0.942053 6.14763e-22)
(1.89765 0.64579 1.40415e-21)
(-0.101931 0.25298 -1.39823e-21)
(0.744219 -0.679872 -4.13138e-20)
(1.11946 -0.0221938 0)
(1.68064 -0.0706084 0)
(1.03825 0.0560708 0)
(-1.34656 0.405302 -2.70936e-19)
(-0.40578 -0.389219 8.52818e-20)
(1.04563 0.841709 0)
(0.998425 -0.00343166 5.32106e-19)
(0.765934 0.60282 -2.28795e-19)
(-1.58243 0.519628 -2.45798e-19)
(0.862337 0.0158323 -4.23801e-20)
(0.715525 -0.652836 -2.39226e-19)
(1.3906 0.703755 -3.13442e-20)
(0.565296 -0.453947 -3.04722e-19)
(1.133 -0.00130565 -4.7559e-19)
(0.808843 0.0461129 4.75098e-20)
(1.54305 -0.184258 8.88629e-20)
(1.60445 -0.151101 -6.86077e-20)
(-0.037533 -0.0573507 6.6576e-23)
(1.0793 0.467777 -2.69075e-19)
(1.36366 0.61886 7.81551e-20)
(-0.0723948 -0.359358 0)
(-0.0752721 -0.399561 1.22193e-19)
(-0.162498 -0.112062 9.7769e-20)
(-0.190243 -0.067222 -8.63617e-20)
(0.477825 0.315066 0)
(1.1981 -0.453345 0)
(-0.0127608 0.0147266 -1.36377e-19)
(-0.272225 -0.501731 -4.70395e-20)
(1.04874 -0.028734 1.88521e-19)
(-0.331707 0.358209 -4.27523e-20)
(1.15726 0.403308 -3.68796e-19)
(-0.00274418 0.406976 0)
(0.833319 -0.739447 -3.36453e-19)
(1.28108 -0.160887 8.4592e-20)
(-0.275802 -0.559007 1.31235e-19)
(0.719463 0.158006 3.33592e-19)
(0.623545 0.135991 1.07792e-19)
(0.501051 -0.474616 2.13988e-19)
(-0.165415 -0.2439 -9.70649e-20)
(1.49473 0.59586 0)
(0.394623 0.346368 -1.95881e-19)
(1.02834 -0.0148419 -3.00282e-19)
(-0.593001 -0.224029 2.1326e-19)
(1.42367 0.474423 -1.1814e-19)
(-0.139965 -0.26631 -3.59176e-20)
(0.679225 -0.620957 -8.1895e-20)
(0.81529 0.183644 -2.09144e-19)
(0.975304 0.424041 2.30065e-20)
(1.15386 -0.138491 3.73756e-20)
(0.609071 -0.23273 -3.10749e-19)
(2.00723 -0.401688 -7.47458e-20)
(1.89116 -0.0645943 0)
(1.71717 0.435472 -3.47367e-20)
(2.09966 0.0590939 -1.25619e-20)
(0.746143 -0.322699 9.70859e-20)
(1.03331 0.345382 -1.87554e-19)
(1.07564 -0.343217 1.82538e-21)
(0.421224 0.390171 -2.53687e-19)
(-0.202843 -0.0319968 1.92059e-19)
(1.81968 -0.290495 0)
(0.933403 0.00399231 0)
(0.87086 -0.771133 6.77702e-20)
(-0.0970646 -0.456135 -2.31745e-19)
(-0.804891 -0.29995 -1.83071e-19)
(-0.0566078 -0.0933569 -1.52845e-19)
(-0.230581 0.234632 -1.46401e-19)
(-0.298329 -0.459795 0)
(-0.066584 -0.117191 2.65891e-20)
(0.103427 0.328173 -9.05967e-20)
(-0.138729 0.18042 -3.3411e-19)
(0.804597 -0.115027 0)
(1.67095 -0.495429 1.29306e-19)
(-0.16656 -0.155479 0)
(0.99501 0.0239228 3.82838e-19)
(-0.134184 -0.470915 1.69368e-20)
(0.541024 -0.425522 4.08496e-19)
(-0.670115 -0.64863 3.70053e-19)
(-1.265 0.219221 0)
(0.180536 0.345447 1.003e-19)
(1.00544 0.0229924 -1.15357e-20)
(-0.178281 -0.126158 0)
(1.00483 -0.00856576 -5.93862e-20)
(0.862934 -0.728914 -3.16125e-19)
(1.27617 -0.204204 0)
(0.936397 -0.273598 2.19904e-19)
(0.0762335 0.257733 1.9915e-19)
(-0.00917052 -0.00439655 0)
(-0.201853 -0.413338 -4.49065e-21)
(0.728223 -0.635762 -4.53123e-19)
(0.953454 -0.0290315 -2.8181e-19)
(-0.106399 -0.482376 2.91471e-19)
(-0.189405 -0.37233 1.09666e-19)
(-0.282128 -0.430439 0)
(0.956448 0.473019 0)
(-0.281137 -0.61012 1.61423e-19)
(1.80771 -0.159275 -2.24541e-19)
(1.07579 0.895684 1.84602e-20)
(1.06969 0.214431 -1.25985e-19)
(1.14717 0.00615231 -2.3824e-19)
(1.05156 -0.0760555 -8.74938e-20)
(-0.102247 -0.493918 -2.71307e-19)
(1.92358 0.108136 3.79003e-19)
(0.67493 0.0316671 2.11162e-19)
(2.14776 -0.138414 1.45103e-19)
(1.05437 -0.149006 0)
(0.00129381 0.453919 5.52406e-19)
(1.13903 0.02629 -5.18722e-19)
(1.75648 0.611709 7.04046e-21)
(0.743687 -0.458151 -1.69189e-19)
(-0.0684237 -0.0325392 1.3951e-19)
(0.797863 -0.700681 4.1329e-19)
(1.24461 0.198105 7.49482e-20)
(1.0068 -0.00749475 2.62962e-19)
(-0.00507247 -0.434219 -1.21623e-19)
(1.02491 0.0175659 0)
(1.80856 0.15001 -2.4326e-19)
(-0.0232257 -0.0114087 0)
(1.01441 0.0127099 -1.55943e-19)
(-1.34044 0.380112 -5.61427e-19)
(1.67999 0.286982 3.41936e-20)
(-0.293938 -0.13539 1.3119e-19)
(1.59924 -0.00162874 -4.73433e-21)
(1.01311 -0.0182666 5.44017e-20)
(1.33852 -0.0883047 0)
(1.44518 -0.618925 -1.80521e-19)
(1.02298 0.0341589 -1.60217e-19)
(1.44801 0.786327 -5.40511e-20)
(1.39885 -0.0560864 0)
(0.789478 0.0876175 -1.83272e-20)
(-0.0171422 0.0165515 0)
(1.35459 0.0445197 0)
(-0.387321 -0.419046 0)
(1.24243 0.443323 0)
(1.87798 0.248029 4.59636e-20)
(0.740072 0.614814 4.01026e-19)
(0.289524 -0.291032 -2.53318e-19)
(-0.248131 -0.487727 -2.64639e-19)
(-0.0188057 -0.0317966 0)
(2.15478 -0.308639 1.2615e-19)
(1.39812 0.515681 0)
(1.459 0.293743 0)
(-0.469057 -0.309712 1.0698e-19)
(0.809225 0.714163 1.28364e-19)
(1.69465 -0.0391985 0)
(-0.288424 -0.360927 6.27044e-20)
(0.910371 0.221912 1.92812e-19)
(2.12459 -0.315166 -6.33736e-20)
(1.24423 0.925893 4.45603e-20)
(0.915006 -0.824319 -4.67055e-20)
(1.67218 -0.128059 -2.04783e-20)
(0.796189 0.7189 1.31702e-19)
(1.18238 0.925811 0)
(2.48644 -0.120658 1.87996e-19)
(0.946168 0.525861 0)
(1.5356 -0.54955 4.83434e-20)
(1.08406 0.0923274 2.01348e-19)
(1.00544 -0.00570571 0)
(0.212252 0.469967 5.09018e-19)
(0.890143 -0.173601 5.02293e-20)
(0.632352 -0.411161 0)
(0.67121 -0.383518 2.20833e-19)
(1.24182 0.555968 -3.35388e-20)
(0.47814 0.451074 2.78258e-19)
(-0.16504 0.243383 3.95615e-20)
(0.135602 -0.100829 9.82438e-20)
(0.751093 0.0672323 0)
(1.32013 -0.903479 -1.13775e-19)
(1.0319 -0.042322 4.18138e-19)
(1.54802 0.327588 1.48527e-19)
(-0.314993 -0.373433 5.41284e-20)
(-0.721449 -0.647225 0)
(1.22907 -0.246621 -1.24562e-19)
(-0.00633692 -0.00562174 -1.21971e-19)
(0.251925 -0.19528 -6.39193e-20)
(-0.142345 0.0603971 -9.62228e-22)
(-0.21237 0.107945 3.11185e-19)
(1.44568 -0.424152 -1.36846e-20)
(2.46324 -0.134195 3.55897e-19)
(1.19509 0.457672 -2.9274e-19)
(0.859091 -0.0535181 0)
(1.83559 -0.118273 1.97598e-19)
(1.9161 0.093575 8.93943e-20)
(0.912372 -0.767054 1.57073e-19)
(1.14692 -0.969624 -6.24294e-20)
(0.482363 0.447808 1.86567e-19)
(1.37024 0.285008 0)
(1.77311 0.560634 3.11658e-20)
(-0.0122401 -0.0166939 -2.49034e-19)
(0.885535 0.771868 0)
(1.36567 0.50461 0)
(0.29045 -0.290313 -3.56493e-21)
(0.328252 0.307349 0)
(-0.705987 -0.551414 -3.63028e-19)
(-0.221528 0.373335 -1.15861e-19)
(1.70374 -0.445182 0)
(1.24117 0.105398 1.83115e-19)
(-0.560536 -0.310876 1.51882e-19)
(0.532675 -0.50557 -4.94415e-19)
(2.084 -0.109824 -4.55564e-20)
(0.6103 -0.554242 0)
(1.03472 0.125621 0)
(1.31188 -0.255774 0)
(1.12036 0.229447 -2.37517e-19)
(1.3506 0.107902 3.36986e-19)
(-1.03201 0.00707596 0)
(0.890663 -0.0639746 0)
(2.07681 -0.105726 -7.32888e-21)
(-0.0774969 0.132042 1.02812e-19)
(2.44541 0.0444864 -2.45115e-19)
(1.03219 -0.506055 1.22569e-19)
(1.97897 0.0649873 -2.81124e-19)
(-0.728183 -0.356057 -1.26709e-19)
(1.90661 0.0940936 -1.68455e-19)
(1.01639 -0.023148 4.32731e-19)
(1.52756 0.594627 0)
(-0.2177 0.443815 3.12714e-20)
(1.003 -0.829906 1.99925e-19)
(0.858271 -0.0178684 4.95367e-20)
(0.636021 -0.434232 0)
(1.89068 -0.561848 -1.09958e-21)
(1.20879 -0.195531 1.65508e-19)
(1.79016 -0.470363 0)
(0.60546 -0.562144 4.92827e-19)
(0.767305 0.11956 -2.15934e-20)
(2.31557 0.0797603 3.71425e-19)
(-0.0934799 0.200405 -2.11021e-19)
(1.33911 0.617326 1.4874e-19)
(1.15116 0.406255 3.69574e-21)
(0.905602 0.373655 2.27182e-19)
(1.94901 -0.101517 -2.70479e-19)
(-0.126431 -0.491996 -4.07692e-21)
(0.686838 -0.287816 0)
(-0.156811 -0.0927613 2.30405e-19)
(1.07854 -0.940715 0)
(1.06425 -0.656621 2.40932e-20)
(1.19652 -0.32424 -6.65095e-19)
(1.34353 0.025563 -3.28579e-20)
(-0.525169 -0.416473 -3.03993e-19)
(0.989288 0.483249 1.76072e-19)
(-0.221939 0.694 2.99571e-19)
(0.693414 -0.0384835 0)
(2.04031 -0.0113034 0)
(1.75065 0.158265 2.33103e-20)
(0.78123 -0.0144299 0)
(1.37051 -0.214443 -1.70306e-19)
(-0.846999 -0.482687 4.28197e-19)
(1.93314 0.48726 1.38659e-20)
(1.04242 -0.0334388 0)
(0.552687 -0.350744 1.09705e-19)
(1.00927 0.0269216 2.05339e-19)
(0.294275 0.476679 -2.74718e-19)
(-0.232568 0.0373954 0)
(1.11315 -0.484331 5.37213e-19)
(1.86898 -0.131698 -5.34907e-22)
(1.10143 -0.500267 -2.33644e-19)
(2.28684 0.229215 1.50208e-19)
(1.29312 0.790925 0)
(0.867127 0.0183945 0)
(-0.371233 -0.365664 -1.38681e-19)
(-0.0143493 0.0135414 1.53451e-19)
(0.949933 0.368406 -2.09872e-19)
(0.153355 -0.372884 -1.0678e-19)
(0.647739 0.409252 2.4418e-19)
(0.98747 0.108403 0)
(0.53539 -0.497877 0)
(0.582628 -0.250559 5.22556e-21)
(1.23073 -0.513011 -1.11471e-19)
(0.564858 -0.0167148 7.96859e-21)
(0.735114 -0.155357 1.22328e-19)
(-0.0678276 0.0810106 -2.73087e-19)
(1.00501 0.0045454 1.70174e-19)
(0.664246 0.619358 0)
(1.27662 0.694328 0)
(1.61979 0.26081 0)
(-0.37988 -0.399445 -1.25338e-19)
(1.29917 0.567459 2.1301e-19)
(2.11198 0.0342809 4.44246e-20)
(0.93135 -0.00982265 0)
(2.0569 -0.501337 0)
(2.09376 -0.0715962 -2.87625e-19)
(0.584929 0.551292 3.19124e-19)
(1.00487 0.00536087 -2.05127e-19)
(1.49173 0.469323 0)
(-0.191331 0.189399 0)
(1.25069 0.319526 2.90867e-19)
(1.02475 0.527716 -1.30704e-19)
(1.07121 0.0240319 0)
(1.71781 0.0509275 0)
(2.02933 0.657543 -3.08343e-19)
(-0.0857758 0.334644 -4.76637e-22)
(0.997412 0.0127489 0)
(0.708439 0.473808 -3.35746e-20)
(0.930869 -0.82164 0)
(1.00229 0.0166287 4.77458e-20)
(0.345073 -0.380421 -4.55037e-21)
(0.904854 -0.324989 3.24794e-19)
(0.666723 -0.482436 -6.29581e-20)
(2.22916 -0.189034 2.52797e-19)
(1.47351 0.139683 1.05256e-19)
(0.791687 -0.0274845 0)
(1.0152 0.00956531 0)
(-0.516571 -0.646421 0)
(0.669393 0.640852 -1.88952e-19)
(-0.044275 0.0504604 1.84114e-19)
(1.17148 0.349491 -4.66618e-19)
(-0.380582 0.193658 0)
(0.828133 0.642264 1.68604e-19)
(1.00821 -0.335474 0)
(1.00499 -0.00100687 1.19946e-19)
(0.535635 -0.0202739 7.8496e-20)
(1.03515 0.405918 2.58858e-19)
(1.20519 0.141783 0)
(2.09727 0.132973 -6.74672e-20)
(0.82815 -0.1123 -3.76925e-19)
(-0.90641 -0.549945 -5.29018e-19)
(1.16802 0.271943 0)
(0.879383 0.242426 1.77723e-19)
(1.98946 -0.273788 0)
(0.775219 0.521691 3.64404e-19)
(-0.97988 -0.479395 2.00128e-19)
(-0.0486549 0.0801795 0)
(0.594226 0.565466 -7.09198e-20)
(1.02784 -0.644009 -1.68397e-19)
(0.478128 -0.246277 -1.25526e-19)
(1.01969 -0.0160901 0)
(-0.283447 -0.0981998 -1.55307e-19)
(0.638177 -0.568994 8.59977e-20)
(0.908102 0.289869 0)
(1.68202 -0.393346 1.61145e-19)
(0.984921 0.837836 2.42746e-20)
(0.893373 -0.503211 -3.92004e-22)
(0.183753 -0.249775 -1.59841e-19)
(0.22946 -0.0305281 -5.62877e-19)
(-0.100677 -0.206774 6.60984e-21)
(0.816489 0.357031 2.48933e-19)
(-0.170632 0.39721 -5.21945e-21)
(1.41036 -0.655645 3.35436e-21)
(1.02211 0.00829178 -3.57503e-19)
(-0.441168 -0.444785 0)
(1.03366 0.0341231 -4.17793e-19)
(2.28611 0.0972307 2.24881e-19)
(0.886161 0.688824 2.82512e-19)
(1.13226 -0.0722216 1.68733e-19)
(1.00392 -0.0289495 1.65429e-19)
(1.33716 0.0447332 2.97162e-20)
(-0.255586 -0.276748 1.55411e-22)
(1.70798 -0.877301 1.44057e-20)
(1.147 -0.131984 -8.64819e-20)
(0.796322 0.0520223 9.96875e-20)
(0.911664 -0.296003 9.42426e-20)
(1.12595 0.241794 0)
(0.96104 0.73315 0)
(0.779593 0.112739 -9.35571e-20)
(2.06357 0.170048 -2.17103e-20)
(-0.776531 -0.604596 1.61721e-19)
(1.03045 -0.541479 -5.60554e-19)
(0.617227 -0.534578 4.09669e-19)
(1.25458 0.145955 -1.09136e-19)
(0.233776 -0.407047 1.2245e-20)
(1.51075 -0.555682 0)
(0.753341 0.113881 -6.8813e-21)
(1.60178 -0.527241 -8.43009e-20)
(1.03947 0.75977 0)
(1.23909 -0.571542 0)
(-0.0348911 0.0784209 0)
(-0.171285 -0.281522 -4.35796e-20)
(-0.061344 0.150476 0)
(1.85155 0.611312 3.98736e-19)
(1.22771 0.183291 6.4941e-21)
(-0.996147 0.258348 2.32468e-19)
(2.01175 0.700274 1.51411e-20)
(1.8414 0.435841 -6.88325e-20)
(2.15507 -0.367675 -2.55991e-20)
(-0.183121 0.0253719 -2.18716e-19)
(-0.207119 -0.426888 3.34726e-21)
(1.13835 0.126259 0)
(0.678227 -0.0341295 0)
(1.00162 0.000603258 1.99014e-22)
(-0.401784 -0.413623 0)
(1.5689 -0.00324206 -5.60682e-20)
(0.67975 -0.0301407 0)
(1.05984 0.0104635 1.35251e-19)
(0.9905 0.0152187 -4.66872e-20)
(0.916679 0.273862 9.77598e-20)
(1.06637 -0.0172012 -9.55538e-22)
(0.949048 -0.191712 -5.67464e-20)
(1.02241 -0.0303391 3.85278e-19)
(0.671641 -0.609887 1.95373e-19)
(-0.976084 0.467057 -2.81921e-19)
(1.17195 0.439571 1.59e-20)
(-0.0173459 0.0195407 0)
(1.12716 0.79331 0)
(1.02831 -0.00490229 0)
(1.00356 -0.776518 -1.18823e-19)
(1.0303 -0.885262 6.72245e-20)
(0.988315 0.260722 -1.88227e-20)
(0.185408 0.193802 -1.08372e-18)
(1.17069 -0.491877 1.77689e-20)
(0.584979 -0.382908 -6.55802e-19)
(1.39221 0.435822 -4.31579e-20)
(0.639944 -0.24286 -1.13589e-19)
(2.05992 -0.372798 6.12325e-20)
(0.492173 0.0765718 -1.70719e-20)
(-0.272336 -0.376693 -9.28722e-20)
(1.11549 0.552176 1.98058e-19)
(-0.0829895 -0.320638 0)
(0.0749936 -0.446163 2.76105e-19)
(-0.0797006 -0.103691 1.56157e-22)
(1.02616 -0.0435047 3.42954e-19)
(1.02236 0.00220201 -8.86629e-21)
(1.11235 -0.0110656 -9.48696e-20)
(1.472 0.0722626 2.28181e-20)
(1.62965 0.316164 5.84427e-20)
(0.397046 -0.372239 -3.27857e-19)
(0.761746 0.205307 3.33245e-20)
(1.03365 0.0029367 -2.53981e-19)
(1.20437 0.333956 -1.63692e-20)
(1.48669 0.166773 0)
(1.1118 0.591006 -3.71169e-19)
(1.0032 -0.00293698 9.79048e-20)
(0.676704 0.605337 2.59869e-19)
(1.38076 -0.521517 -1.67327e-21)
(1.07162 -0.008932 -3.10586e-20)
(1.13122 0.0127999 8.82658e-22)
(2.35256 0.0833021 1.41421e-20)
(0.481781 0.134335 0)
(1.04424 -0.0388141 0)
(1.05014 -0.0340753 6.01246e-19)
(1.00219 -0.00162725 0)
(-0.0412709 -0.0637041 0)
(0.925643 -0.567257 0)
(1.00047 0.000683641 -5.69457e-19)
(1.156 -0.68571 9.77859e-20)
(1.02291 -0.00498574 1.19879e-20)
(1.34934 0.954231 -2.57732e-20)
(1.53725 1.00327 -9.06257e-21)
(1.08289 -0.376371 -2.93618e-20)
(1.6081 0.110783 2.64717e-19)
(1.5681 0.262465 0)
(0.0172212 0.364054 0)
(2.13971 -0.189328 4.86283e-19)
(1.118 -0.601537 0)
(1.00021 -0.00463127 -1.7604e-19)
(1.01041 -0.000729215 3.42182e-19)
(1.4518 0.143338 -7.02828e-20)
(-0.0052103 -0.124147 1.80582e-19)
(0.972464 -0.00146076 1.85886e-19)
(0.114531 0.0294138 1.8185e-20)
(0.353979 -0.110892 1.53796e-20)
(1.59497 0.113605 1.07946e-22)
(0.926235 0.0175445 -1.88326e-19)
(1.00335 0.00382368 2.21424e-19)
(1.00019 -0.000646318 1.3069e-20)
(0.790931 -0.0124412 0)
(0.729515 -0.0260791 0)
(0.725472 -0.0262146 7.84597e-22)
(0.701081 -0.0286129 0)
(1.37025 -0.164669 0)
(0.697793 -0.168361 0)
(0.0438056 -0.104108 1.18155e-20)
(0.155057 -0.0825231 -2.19516e-21)
(1.27196 -0.15151 0)
(1.36342 -0.145996 1.49341e-20)
(1.57071 0.0724537 0)
(-0.00573894 0.100023 0)
(0.0132827 -0.00103291 0)
(0.22276 0.0583741 -2.77902e-21)
(0.80574 0.158671 3.77896e-20)
(0.783102 0.0229938 0)
(0.790413 0.0203116 0)
(0.963934 0.0197334 -2.31969e-19)
(0.817179 0.00850733 4.31927e-19)
(1.00725 -0.00117861 0)
(0.999883 -0.000570336 4.08918e-19)
(0.999966 -0.00084074 -2.97647e-22)
(0.790234 0.0226684 3.68395e-19)
(0.992502 -0.00748703 -2.13452e-19)
(0.0397921 0.0912789 0)
(0.291789 -0.0676336 -1.53894e-20)
(1.00079 -0.00129423 -2.06542e-19)
(1.00085 0.00120934 -3.54688e-19)
(1.33576 0.0714638 0)
(0.998731 0.00204214 0)
(0.999657 0.000242067 0)
(1.65931 -0.606777 -7.12175e-21)
(0.554279 -0.163138 3.65641e-20)
(0.893925 0.3168 0)
(-0.314582 0.367126 2.00252e-19)
(-0.527163 0.443311 -4.97048e-19)
(1.0202 -0.0158704 -2.75442e-19)
(-0.332498 -0.457631 -8.62766e-20)
(1.01834 0.00407456 -2.22061e-19)
(1.17041 -0.219712 -1.18467e-19)
(0.800189 -0.474164 3.20522e-19)
(-0.0417506 -0.0673888 -6.14455e-20)
(1.02904 0.0126333 0)
(1.05578 -0.0118415 -5.96626e-20)
(0.853823 0.0251793 0)
(-0.0653203 0.061581 2.70718e-19)
(0.915472 -0.473946 0)
(-0.437053 -0.378017 -2.24119e-19)
(0.239763 0.0798407 -1.38273e-20)
(1.66982 0.674682 -3.45288e-22)
(-0.0668861 -0.00941288 0)
(1.05398 -0.0377718 1.85898e-19)
(1.05076 -0.381626 4.23725e-21)
(0.928643 -0.00910102 2.91115e-19)
(1.01284 -0.00691802 -1.87459e-19)
(1.68931 0.855358 4.11866e-20)
(0.525644 0.493714 0)
(0.448994 0.404179 2.04696e-19)
(1.929 -0.525859 -6.154e-22)
(1.15685 0.128144 1.97324e-19)
(1.08681 -0.71425 0)
(1.02162 0.00443249 0)
(0.998929 -0.0178174 -4.31627e-19)
(1.01743 0.016811 -4.2176e-19)
(-0.147807 -0.326311 0)
(1.22525 0.820238 -1.28825e-19)
(1.542 -0.550249 1.78171e-21)
(1.01545 0.00647884 1.62161e-19)
(1.01155 0.0137574 -2.03517e-19)
(-0.515973 -0.335875 -2.25572e-20)
(1.07692 -0.258222 -1.13791e-19)
(1.01909 -0.0145714 6.91149e-19)
(1.32422 -0.423082 0)
(1.87807 0.635061 -4.94317e-20)
(1.01559 -0.0110623 -2.15426e-19)
(2.12039 0.0776765 -1.31648e-19)
(1.06328 0.00640216 -4.95303e-22)
(1.0093 -0.00935214 4.30497e-20)
(2.07684 -0.324577 -2.22377e-19)
(1.01483 0.00763092 2.09272e-19)
(0.905936 0.349069 1.28227e-21)
(1.01717 0.00405883 0)
(0.937297 0.15251 5.0581e-20)
(-1.00218 -0.0629957 6.37073e-21)
(0.996569 0.022085 2.07949e-19)
(1.0388 0.0208423 -5.73558e-22)
(1.32215 -0.453648 -1.22132e-20)
(1.26096 0.318157 4.15814e-19)
(0.997927 0.0170585 1.43152e-19)
(1.01728 -0.0126002 4.72224e-22)
(1.73188 0.244934 -2.26193e-20)
(1.81294 0.947787 -1.09058e-19)
(0.771509 -0.692935 6.52017e-20)
(0.448358 -0.322391 -3.15825e-19)
(1.00805 -0.0100971 0)
(1.01969 0.00364901 5.1968e-20)
(1.01146 -0.00807939 1.09444e-19)
(0.866056 0.0393222 6.57934e-21)
(1.0134 0.00728706 -2.17889e-19)
(1.02559 -0.0234706 2.50256e-19)
(1.0086 -0.00605932 -2.04584e-19)
(1.01373 0.00708032 -5.11405e-22)
(1.0126 0.00449041 -3.91589e-22)
(1.02421 0.0148104 2.08704e-19)
(0.903365 0.0894848 5.22327e-19)
(1.77323 0.688436 0)
(0.700511 -0.505473 3.07412e-19)
(1.01169 -0.00295496 0)
(1.02208 -0.0197131 -6.03942e-20)
(1.54516 0.438258 -8.09159e-20)
(2.06166 -0.0619031 0)
(2.34233 -0.214089 -1.3177e-19)
(1.25119 0.476161 -6.54518e-20)
(0.755686 -0.0149908 0)
(1.87701 -0.247958 0)
(0.191904 0.375864 -2.52023e-19)
(1.25633 -0.102303 -3.06034e-20)
(1.01705 -0.00167033 -2.19395e-19)
(1.1178 -0.567365 -6.66605e-20)
(1.27719 -0.328788 -3.90175e-20)
(1.2696 0.506063 0)
(1.50348 -0.558117 0)
(1.97291 0.483134 0)
(0.066435 0.239665 8.42808e-20)
(0.915896 0.188779 1.2321e-19)
(-0.499536 0.162852 0)
(-0.0112475 0.137732 -2.24877e-19)
(1.71441 0.965172 -6.05101e-20)
(1.00801 -0.00265552 -4.28931e-19)
(0.913931 -0.0133979 3.43123e-20)
(1.02224 0.00930118 2.84144e-19)
(0.686171 -0.0403657 0)
(-0.129238 -0.294948 -1.85339e-20)
(0.61499 0.434754 -3.44226e-19)
(1.80295 0.581897 1.22429e-19)
(0.12838 0.272372 0)
(0.782767 0.0705199 8.57809e-20)
(0.52362 0.500871 5.19782e-20)
(1.18964 0.884338 -3.47205e-20)
(-0.0324431 -0.016828 8.92018e-20)
(1.0202 0.0137716 0)
(1.09726 0.34252 5.82006e-20)
(1.0117 -0.00205005 1.60951e-19)
(2.28927 0.133706 0)
(1.01171 0.00788877 2.7006e-19)
(0.123493 -0.463262 -1.30434e-19)
(1.01944 0.0122582 -1.67118e-19)
(1.29986 0.336834 0)
(2.24482 -0.186262 5.78526e-22)
(1.00916 0.00413037 -1.12119e-19)
(0.99474 -0.0283111 2.9579e-19)
(1.09657 0.098516 -3.21761e-21)
(1.06723 0.540848 -3.06878e-20)
(-0.148126 -0.0626812 2.32323e-19)
(2.01093 0.230141 1.6038e-19)
(0.345702 0.186443 3.39424e-20)
(0.803031 0.0151945 -4.05299e-19)
(0.806739 0.0262828 0)
(0.303264 0.0236171 6.00466e-20)
(1.0218 -0.0146927 -3.24441e-20)
(0.973792 0.0266091 0)
(1.05247 0.000530697 -2.05515e-19)
(-0.190114 -0.222917 -1.37614e-20)
(-0.978618 -0.294595 2.51126e-19)
(2.13287 -0.617687 0)
(-1.07897 0.131279 -6.10537e-19)
(1.51309 -0.349852 0)
(1.04136 -0.0174088 6.03536e-20)
(1.15109 0.0704663 9.98779e-22)
(1.0125 -0.000811118 1.74254e-19)
(-0.859148 -0.32835 3.40133e-19)
(1.01883 0.00269277 0)
(0.993372 0.0038013 -4.18011e-19)
(1.00746 0.00933842 2.21458e-19)
(0.748259 -0.0447247 0)
(0.741647 -0.00242473 -7.79671e-21)
(0.95735 -0.000976973 -1.89324e-19)
(-0.269666 -0.477263 2.8974e-19)