/*--------------------------------*- C++ -*----------------------------------*\
| =========                 |                                                 |
| \\      /  F ield         | OpenFOAM: The Open Source CFD Toolbox           |
|  \\    /   O peration     | Version:  2306                                  |
|   \\  /    A nd           | Website:  www.openfoam.com                      |
|    \\/     M anipulation  |                                                 |
\*---------------------------------------------------------------------------*/
FoamFile
{
    version     2.0;
    format      ascii;
    arch        "LSB;label=32;scalar=64";
    class       volScalarField;
    location    "26";
    object      p;
}
// * * * * * * * * * * * * * * * * * * * * * * * * * * * * * * * * * * * * * //

dimensions      [0 2 -2 0 0 0 0];

internalField   nonuniform List<scalar> 
2186
(
1.15426
0.111692
0.401761
1.46688
-0.79435
0.135682
1.08752
-0.482245
-0.291849
1.69923
1.31351
-0.463859
-0.491871
1.35899
-0.10179
1.35517
1.38464
-0.855368
0.0845877
-0.770757
1.73892
-0.728323
1.36684
-0.535733
1.35814
1.44198
1.58056
1.30441
0.822236
1.3591
-0.742139
1.35841
-0.726355
-0.585558
-0.463188
0.296978
-0.621223
1.71968
-0.679319
0.119891
-0.492978
-0.70716
-0.211542
-0.835395
1.18431
1.67927
0.774312
0.932786
-1.07016
-0.861864
-0.751893
1.14721
-0.203646
1.63758
-0.720915
1.35148
-0.261497
1.37842
-0.774177
1.18646
-0.725178
0.88606
0.784229
0.149048
0.813848
0.876702
0.906278
1.63493
1.53035
-0.258699
-0.477448
-0.697322
1.61818
1.39499
1.50292
1.55272
-0.861932
1.37858
-0.46569
-0.695115
-1.03228
0.164474
1.3541
0.863799
1.34934
1.3555
1.62453
0.134574
0.0196224
-0.478338
1.35043
-0.779533
1.29356
1.53708
1.36712
0.63652
0.28363
0.836565
-0.824146
1.39097
-1.22439
-1.07191
0.898994
1.30873
1.38664
-0.811907
1.50251
-0.106471
1.32766
-1.19108
-0.643349
-0.836687
0.959063
1.62243
-0.330743
-0.560571
0.0149631
-1.06574
-0.478942
1.62549
0.148864
-0.914859
1.10495
-0.888335
1.36076
0.0227273
-0.816326
1.54022
-0.853058
1.06955
1.7728
1.63526
0.667149
1.06154
-1.10265
-0.884404
1.32335
-0.245819
-0.515722
-0.458585
1.04344
0.239983
-0.478464
1.11082
1.28614
1.32164
-0.0821249
-0.792732
1.01949
-0.817764
-0.807646
0.993023
1.38175
1.57877
1.4406
0.942898
1.61136
0.672809
0.561907
0.842649
-0.459441
-0.429128
1.31943
1.38223
0.0930638
0.12174
-0.413162
-0.475348
-0.275856
-0.319009
0.572736
1.39469
1.38516
1.50817
0.640632
-0.1783
-0.776897
1.3206
-0.556838
1.12452
-0.466102
1.37176
-0.761051
0.776177
0.751156
-0.769277
-0.603668
1.41513
-0.446513
-0.512139
-0.703227
1.60122
-1.11504
1.36656
-0.459364
-1.32927
0.263248
1.51818
1.34515
-0.737227
-0.442392
-1.49945
0.517318
1.39179
-0.46842
-0.800081
-0.489867
-0.874891
1.27999
-0.912504
0.933825
0.0840724
1.61351
1.0754
1.17874
1.34972
1.47406
1.36057
1.30119
1.39611
0.798874
-0.568959
-0.75919
0.284516
0.620308
-0.874728
-0.80802
1.31184
1.50985
-0.536348
-0.414037
-1.29171
0.794793
1.06208
1.16474
1.30349
1.52182
-0.923216
1.28464
-0.462449
-0.850018
-0.57082
1.26937
0.96921
1.43864
1.53905
1.39596
1.36843
-0.467027
1.23401
1.43916
-0.47729
1.25377
1.02031
-1.27483
-0.450319
-0.446493
1.4384
1.37964
-0.500765
-0.290906
-0.31862
1.36057
-0.933496
1.00832
1.36343
1.23889
-0.416895
-0.754996
1.34261
0.888193
-0.0772095
-0.417105
1.66646
-0.799838
-0.471943
1.21902
1.58408
1.35175
-0.807865
-0.800555
-0.216728
1.21112
-0.484839
0.963731
1.33753
1.41085
0.249646
0.030345
1.30091
-0.419307
1.32293
1.59556
1.376
1.3734
0.0597141
-0.882701
-0.542376
-0.77441
-1.23861
-1.11876
0.804411
-0.0919271
0.837644
1.57212
1.49713
1.20905
-0.138105
1.47651
-0.407473
0.049306
-0.458293
-0.457312
-0.526
0.775462
-0.806848
-0.780484
0.353883
1.23248
-0.928531
0.591194
-0.835183
-0.0642
-0.536423
-0.824656
1.56971
0.156998
-0.22859
-0.768138
1.20008
0.807525
-0.306814
0.937349
-1.67577
-0.512521
0.894901
1.38624
1.35492
-1.37434
1.50319
1.2972
0.589479
1.64437
1.34916
1.30737
0.789619
-0.468125
-0.460315
1.14227
-0.846803
-0.476565
-0.417248
-0.587564
-0.486039
1.67362
-0.754395
-0.75406
-0.47054
1.34907
-0.770289
-1.29961
-0.890928
1.17234
-0.281225
-0.465755
1.58917
1.65209
1.53005
-0.4797
-0.516721
1.68535
1.35526
-0.72687
0.674339
-0.463677
0.605395
1.50475
1.27409
1.25545
1.68569
-0.0261893
-0.496511
-0.674761
-0.681943
-0.248522
-0.705162
0.165205
1.60794
-0.948762
-0.257831
1.33843
1.00154
-0.448512
-0.982808
-0.459839
-0.874525
-0.459371
-0.459817
-0.810227
-0.792817
1.56278
-0.6247
-0.558301
1.3735
-0.415009
1.66184
-0.604712
-1.19114
-0.895393
1.35708
-0.459047
1.37834
1.25697
-0.538458
1.42513
-0.934865
-0.465885
-0.446859
1.41786
1.31115
-0.438799
-0.463657
-0.466164
1.26957
-0.433247
-0.426236
0.731867
1.26092
1.25685
1.09925
-0.443271
-0.773874
1.13358
-0.368018
1.19135
-0.884005
1.3789
0.132251
1.52947
-0.476764
1.26237
0.975075
1.38512
-0.417314
1.34281
-0.762346
-0.465548
1.36012
-1.25883
0.329587
-0.587352
-0.000359933
1.35762
0.551034
0.717799
1.3506
0.440821
0.340147
-0.0179885
-0.75351
0.677311
-0.50073
0.963492
-0.620291
1.35197
1.53893
-0.464894
-0.460217
-0.509671
-0.728248
0.651243
-0.547882
1.08894
0.422848
-0.499607
1.42022
-0.529958
0.582867
0.72659
-0.355238
1.04814
0.55229
-0.61397
-1.34475
-0.227234
-0.652134
1.37176
-1.20466
1.48417
1.62581
1.60996
0.898296
1.45506
-0.795358
-0.684455
1.27073
0.650161
1.33987
-0.710077
-0.50831
-0.590133
1.18398
-0.461529
-0.766128
-0.758823
-0.801402
0.186825
-0.239109
0.995208
0.982875
-0.529677
-0.191085
1.16353
0.513331
1.42223
-0.888661
-0.0227922
-0.460473
1.00837
-0.0763705
1.57688
1.70058
-0.702752
-0.805738
-0.380889
0.502863
-1.0205
1.44515
-0.226456
1.40184
1.0459
-0.535543
1.1695
1.13196
-1.21294
1.25276
-0.798191
-0.767591
-0.979398
-0.442933
-0.781968
-0.86534
-0.647856
1.36131
0.414442
-0.818279
1.00949
1.50714
1.61383
0.107488
1.14588
-0.383841
1.19033
-0.175004
-1.08363
-0.781715
0.725126
1.08686
1.3629
-0.551041
-0.444395
-0.251452
-0.484065
0.331167
1.14334
-0.380071
0.190193
-0.543689
1.22335
-1.67801
1.29242
-0.647919
-0.724439
1.3168
1.06207
-0.872053
-0.0208851
1.3061
1.68995
1.38087
-1.89468
-0.902617
1.2043
-0.60466
1.19028
-0.50449
0.666493
1.30265
-0.519206
-0.753137
1.31964
-0.359083
1.5474
-0.047172
1.28814
0.112952
1.03568
-0.425975
1.60822
-0.758462
-1.16513
1.2321
0.751543
0.738146
-0.490772
-0.747406
-0.294002
1.07328
-0.126632
-0.736977
-1.64923
1.37276
0.615411
-0.900617
1.01827
1.17016
1.32875
-0.660566
-0.648937
-0.792853
1.37237
1.47339
0.914809
1.36891
0.067539
1.44475
0.107742
-0.162177
-0.738868
1.29531
1.33476
-0.491434
1.11054
-0.763809
1.08931
-0.782739
1.27895
1.34374
1.37282
-0.953587
1.21106
-1.13069
-0.646903
1.5354
-0.750507
-1.08103
1.43556
-0.253801
1.39794
-0.938373
-0.771994
1.32433
1.19138
1.75195
1.3582
-0.964648
1.49024
1.39924
-0.51052
0.875698
-0.132203
-0.399968
1.85314
-0.457709
1.4409
-0.810974
0.73112
1.35908
-0.508287
1.33523
-0.564531
1.19581
1.31941
1.37544
0.19049
-0.523458
-0.143161
0.987946
1.06079
1.45223
-0.414955
1.09006
-0.839815
-0.266482
-0.716584
1.23866
1.5514
-0.912575
-0.383959
-0.15989
1.57915
-0.180999
0.987654
-0.0612831
-1.29482
-0.469938
-0.741933
-1.70817
1.09858
-1.22929
-0.548929
-0.170155
-0.0347611
-0.778026
-0.441235
-0.498874
1.31363
1.37654
-0.50405
0.108658
1.33083
1.30703
1.37758
-1.28143
1.32755
1.43619
1.35953
1.46733
-1.29193
-0.0425354
-0.75581
0.860564
1.36481
1.12271
0.591163
0.13867
-0.916744
0.055692
1.66006
-0.27866
0.217933
-0.131232
0.0606894
-0.487226
1.05473
-0.496369
-0.361651
-0.463816
1.35209
1.36115
1.36335
-0.0152886
0.558165
1.64227
0.140653
1.35909
0.0430681
-0.0221341
1.02516
1.37479
1.37821
0.144589
1.32023
1.32036
-0.899343
0.199219
1.36419
1.37774
1.37615
-0.457968
-0.528105
1.37677
1.02816
1.36098
0.411901
0.0435252
0.136832
-0.798191
-0.599553
-0.822665
-0.374587
-0.457532
1.38131
1.38556
1.04372
-0.49284
1.35159
0.180814
0.181779
-0.0322959
1.36054
1.38251
1.37759
1.38809
1.364
1.35624
1.34515
-0.148105
0.133284
0.16101
0.184177
0.0485319
0.106562
-0.00487566
0.0816485
0.170105
0.22803
-0.0603593
1.35588
1.37378
1.36894
1.39021
1.38691
1.37793
1.38002
1.36416
1.36132
0.0982543
0.186607
1.37759
1.37781
-0.0364106
1.38042
1.37764
0.120924
0.199648
0.158664
-0.777397
-1.22111
1.35929
-0.481434
1.35897
1.03367
1.47891
-0.458602
1.36
1.2816
1.31637
-0.753088
-0.547384
-0.512664
0.229715
0.136562
-0.742877
1.37071
0.194153
1.44817
1.36201
-0.00851765
1.47307
1.63238
-0.00470078
1.18725
1.08285
1.35392
1.3724
1.36879
-0.457965
0.715578
0.138523
1.36174
1.37388
-0.546628
0.289029
1.36256
0.112284
-0.188774
1.36331
-0.42971
1.33592
1.37459
-0.201926
1.37132
0.148835
1.36106
1.4148
-1.04399
1.37818
1.38527
0.183605
0.964919
1.36409
1.36496
0.346679
-0.638834
1.1357
1.75003
1.37083
1.36559
1.36747
0.262957
1.36438
1.35536
1.36787
1.36339
1.36507
1.36441
1.45442
-1.49879
-0.560923
1.36622
1.35738
0.51019
-0.483607
-0.487378
-1.80417
1.20062
-0.31478
-2.06024
0.178162
1.36067
1.1402
0.248381
-0.331912
-0.0145465
-1.07885
-0.856183
0.196184
-1.78875
-0.986526
-0.181719
1.36936
0.367354
1.35619
1.25748
-0.456209
1.55739
-1.39324
-0.938097
1.14577
1.43049
0.686936
-0.470942
1.35453
0.0687004
1.36657
-0.805906
1.36746
-0.358913
1.35768
0.0495831
-0.543051
1.36881
1.38427
1.27634
-0.0978611
-0.47965
-0.674673
-0.0389766
1.38337
1.23841
0.148454
1.35601
1.4006
1.34631
0.000908852
-0.895489
-0.188615
-1.40197
0.761292
1.36218
-0.083682
1.36377
-1.07592
1.3581
1.39697
1.371
0.0259084
-0.0568075
1.39818
-0.465142
1.37324
1.37566
0.458989
-0.485072
1.22777
1.45969
1.3558
1.34814
-0.350228
-0.74234
1.33981
0.843479
1.37118
1.2584
-0.747893
-0.474551
1.17393
1.62696
1.35705
0.776034
-1.96466
0.0846385
-1.38251
-2.02252
1.35277
-0.874394
1.33869
-0.808104
-0.457727
-0.800415
0.708986
-0.417423
-1.72931
-1.04645
1.35623
-0.471304
1.19769
-0.461298
0.279438
-0.574103
0.263865
-1.31552
1.32219
-0.0295053
-0.415183
-0.831748
-0.919601
1.35452
-1.54254
0.312511
-1.39163
1.40481
-1.43022
-0.462189
1.42703
1.35289
1.34625
0.904951
-0.446534
1.36045
1.38241
-1.29121
-0.789692
1.35615
1.21266
1.5738
1.37513
-0.716081
-1.19203
-0.812578
-0.561752
-0.753498
-0.463273
-0.129242
-0.384036
1.21612
0.426166
1.37096
1.54782
1.35213
-0.480617
-0.432928
1.3575
-0.872801
-0.992567
1.34535
0.224407
-0.738245
-1.0529
-0.555177
1.29073
1.26005
-1.46433
1.2234
0.953483
-1.23122
1.35096
-0.371743
1.13254
-0.778536
1.37542
-1.36502
0.850606
1.35892
1.39435
-1.41102
-0.760566
1.15477
1.72826
1.37881
1.31806
-1.19445
1.65265
-0.411214
-0.80674
-0.348703
0.900444
-1.26017
1.46697
1.55956
-0.465091
-1.11957
1.35248
-0.691704
1.25583
1.38787
1.30761
-1.41834
1.35838
0.070882
1.38911
-0.0464347
-1.13928
0.0467664
1.36188
0.129147
-0.324784
-1.71403
1.38021
-1.49651
1.50684
0.699912
1.64217
1.28233
-0.773663
1.34918
-0.776591
1.31955
1.32491
-0.401342
-1.7615
1.43711
1.34228
1.53622
1.30243
0.529137
1.30151
1.35639
1.18633
1.36436
-0.433011
-0.808408
-1.10118
1.47555
-0.714244
-0.78654
-0.763288
-0.920198
-1.27429
0.00420677
1.15683
-1.06174
1.32714
1.38518
-0.793956
-0.271128
-0.763535
-0.263488
-0.8962
-0.772362
1.35801
-1.36365
1.37465
1.63091
1.41691
-0.0198156
1.38151
1.27795
-0.460385
1.33579
1.33528
-0.727136
1.33562
1.24008
0.131237
-0.785811
1.83109
-1.26557
-0.704747
-0.489611
0.675628
1.34459
-0.783464
-1.37294
-0.741517
1.48534
-0.889927
1.14682
1.36631
1.35454
-0.354667
1.3464
-1.29545
1.37034
1.38563
-0.277839
1.37656
0.765163
1.36004
1.1228
-1.21145
0.192364
0.073708
0.14381
1.57118
0.0638561
1.37941
1.72851
-0.900331
0.0117337
1.42778
0.0309174
1.42502
0.000359759
0.0191951
1.42101
1.42577
0.857753
-0.352406
1.05072
-0.698184
-0.845353
-0.548893
1.37946
1.36968
1.81977
-0.472293
-0.688808
1.16277
-0.528559
1.42216
1.31187
1.36529
1.34679
1.32791
-0.719632
-0.461175
-0.486773
1.12626
1.26268
-1.47611
-0.779968
-0.459919
1.37717
1.40342
-0.756277
-0.864162
1.39433
-0.830548
0.468657
1.0607
1.21989
-0.562791
-0.496592
-0.0483191
-0.530424
-0.680864
-0.469667
-1.13552
1.78026
1.67715
-0.778504
-0.546544
1.37647
1.35346
-0.782033
0.391398
0.10124
0.935518
1.45
-0.269428
1.36531
-0.642579
-0.486226
-0.835795
-0.73883
-0.841345
1.35613
-0.531211
-0.258023
1.69145
-0.51781
1.36712
1.55598
-0.781246
1.45956
1.66282
-0.794037
1.55497
-0.507146
-0.471022
1.3487
-0.624542
1.42943
1.37006
-0.497713
1.43237
0.58993
-0.783782
1.39878
1.44758
-0.42251
-0.502643
1.28773
1.35927
-0.475521
-1.42011
1.59555
-0.489577
1.24966
-0.0515795
1.32117
-0.470435
-0.739546
-0.461476
-0.789516
1.40065
1.40673
1.69991
1.51836
1.28123
1.41807
1.37212
-0.459343
1.44324
1.55666
-0.798042
-0.482259
-0.73182
1.63737
-0.973355
-0.463265
0.166262
1.23904
-0.800131
-0.770011
1.32675
1.43723
-0.465043
-0.787763
-0.47068
0.376305
-1.33893
-0.796662
-0.458278
1.18947
1.31448
-0.775028
-0.279411
-0.384619
1.13748
-0.488581
-0.785133
-0.457676
1.36422
-0.379208
-0.791737
1.73915
1.2776
0.830103
1.60728
-0.31129
1.39894
1.36842
1.49574
1.62083
-0.848144
0.969919
1.31901
0.707532
-0.458132
1.77785
1.34377
1.30479
1.43991
-0.795804
-0.387629
1.24972
1.11587
1.33671
-0.626493
-0.994426
1.35359
-0.455823
1.22335
-0.700413
1.73099
-0.460057
1.02768
1.16542
-0.762458
-0.462373
-1.03996
1.46557
-0.766572
-0.467855
1.1276
0.902817
-0.627791
1.42282
1.2439
-0.770102
-0.775478
1.29691
-0.615622
-0.466105
-0.456666
-0.740581
-0.192951
1.32186
1.38256
-1.05037
1.05044
1.3695
1.68701
0.717998
0.552681
0.263684
1.30002
0.0181014
-0.758807
-0.824165
-0.429711
-0.75574
1.34639
-0.766241
0.434472
-0.469084
0.830302
1.00257
-0.751056
1.06515
-0.645437
0.932637
-0.747436
0.750306
-0.759289
0.831391
-0.476116
0.660469
-0.744295
1.24225
-0.427812
-0.745015
-0.752396
-0.462521
1.37718
0.539711
-0.782598
-0.486779
0.29103
0.375133
-0.763171
-0.457345
-0.827958
0.340154
-0.501546
0.11476
-0.53407
-0.108203
-0.910096
0.173364
1.2247
0.149633
-0.5677
1.32956
0.14244
-0.0855155
0.881488
1.34228
-0.999303
-0.930086
-0.481917
-0.67151
1.28495
1.75031
-0.822872
-1.12949
0.475446
-0.527357
-0.200423
0.104146
1.31612
-0.733004
1.32886
-1.02976
1.80437
0.883388
1.82467
-0.783947
1.60297
-0.371263
1.4181
-0.209428
-0.478802
1.49221
1.36524
-1.20316
-0.469192
-0.74721
1.30246
-0.8404
1.34204
-0.917354
-0.453233
-0.463218
1.65942
1.3801
1.52528
1.35923
1.38001
-1.02125
0.00171425
1.51927
-0.522931
-0.551424
1.73658
-0.798236
1.25452
1.34692
1.73802
1.81426
-0.823786
-0.322805
1.40423
0.670256
0.0107151
-0.695552
-1.33446
-0.822813
-0.784911
0.969394
-0.71995
1.61406
-0.487831
1.35846
1.46935
1.37408
-1.07085
-0.450826
-0.568217
1.45453
-0.585977
1.48566
-0.569688
-0.672672
1.55403
1.71323
-0.489262
0.336843
1.32037
-0.596988
-0.758957
1.07713
1.58852
1.60954
-0.85229
1.21571
1.14912
-0.47623
1.62534
0.547696
-0.778694
-0.636339
-0.024397
0.117389
1.43602
-0.612846
0.522769
0.0636384
-0.0679959
-0.669237
-0.46667
1.34159
-1.04465
1.36087
0.124745
0.535153
1.10147
0.702883
-0.47719
-0.448767
-0.697224
-0.139621
0.153525
-1.00895
1.23985
-0.500579
-0.295186
1.343
-0.526368
-0.800333
1.37624
-0.353138
1.27906
0.0100483
-0.450878
0.136257
1.19656
-0.342165
-0.307675
1.28919
-0.459201
1.44521
-0.111544
-0.614153
-0.53851
-0.475604
1.88049
-1.1226
1.51815
0.179826
1.33597
1.53746
1.13372
1.40668
1.47125
0.0531532
-1.26323
1.34416
1.49501
1.75141
-0.523906
1.39795
0.961499
-0.511974
1.20456
1.62226
-0.414599
1.6573
0.391547
-0.774485
1.25158
-0.502182
-0.747988
1.3197
-0.293104
1.42727
1.47219
1.29822
-0.782444
1.22439
1.5746
-0.808567
-0.149289
-1.30391
-1.09718
-0.588507
-0.466229
1.76129
1.17089
-0.79247
1.32952
-0.493252
-0.606941
1.68267
1.53751
-1.06979
-0.577262
-0.472974
-0.45602
1.35843
-0.795516
0.524017
-0.768176
-0.292636
1.43184
-0.478164
1.70451
1.40024
1.27646
1.37047
1.61591
-0.65257
-0.485645
1.40106
1.54394
-0.713733
1.37737
-1.09541
-0.459876
-0.471584
1.39162
1.42166
-0.463
-0.801994
0.972495
0.383518
-0.956738
1.33397
1.26248
-0.677722
1.30485
1.35005
-0.305575
-0.798567
-0.787094
-0.457832
-0.469029
1.71623
-0.672247
1.21322
-0.801044
1.71953
1.21705
1.16136
1.26785
-0.699233
-0.865785
-0.456745
0.801596
-0.79091
1.33753
0.734611
-0.46006
1.18249
1.42054
1.40005
1.3591
0.0443425
1.40403
-0.0242294
0.84406
1.11898
-0.417896
-0.797376
-0.848086
-0.553434
1.37461
1.38449
1.37459
-0.293257
-0.335246
-0.457202
-0.673556
1.3685
1.60553
1.38238
-0.794333
-0.662739
-0.664514
-0.386497
-0.471498
-0.475494
-0.0135381
1.34766
-0.765257
-0.773128
0.0305006
0.358224
1.00349
-1.0317
-0.458804
-0.305293
1.26322
1.7946
0.255548
1.47282
1.82802
0.938055
1.54143
-0.802585
-0.322274
1.80288
-0.460876
0.744637
-0.786845
-0.46965
-0.742098
-0.765191
1.36646
1.15532
1.50228
1.46268
0.0279699
1.20011
0.265144
0.0219259
-0.463909
1.47847
1.00546
1.37794
1.39446
0.0084903
0.133557
1.39557
-0.410177
-0.480309
-0.769186
-0.75511
1.00733
-0.761231
1.33302
1.09368
-0.461713
1.6431
-0.794179
-0.149608
1.35098
-0.639982
-0.567306
-0.405845
0.868911
-0.777937
-0.966886
1.2087
1.38616
-0.172944
0.49619
-0.556424
-0.467249
-0.879884
-1.01618
0.267134
1.02911
-0.619854
-0.758333
1.57827
0.499231
0.609879
-0.753736
-0.471967
1.36446
1.45952
0.792384
0.966071
-0.749241
-0.536003
-0.286799
0.709089
0.878124
-0.745891
1.17331
0.371257
-0.742252
1.76302
-0.745433
-0.299698
-0.467411
-0.683143
1.26296
-0.762312
-0.791657
-0.491139
0.455235
-0.801724
0.213403
-0.770889
0.135576
1.4994
-0.861493
0.278571
-0.518265
0.0175813
1.65566
1.79387
1.54179
1.36936
1.51693
-0.581307
1.35289
-0.795523
1.45509
-0.483482
-0.444066
1.67205
-0.218059
0.904031
-1.04696
1.78302
0.153963
1.72243
0.867075
1.08104
-0.781934
-0.78666
-0.478359
-0.941848
1.67569
1.5202
1.34792
1.03982
1.36007
1.28654
1.09649
-0.740313
-0.452432
0.481114
0.262746
1.06882
1.37008
0.418109
-0.78527
-0.737505
-0.308062
-0.480074
-1.18176
1.74986
1.38913
1.36535
-0.0472845
0.103367
1.39168
-1.15436
-0.468678
-0.51678
-0.517353
1.05742
-0.768808
-0.749676
0.146081
1.35098
-0.372218
-0.466982
1.35864
1.03665
1.11382
1.35403
-0.4712
1.15727
1.5725
1.25756
-0.473931
1.35687
0.792922
0.708622
-0.634613
-0.762218
1.7841
0.687164
-0.937331
0.485793
1.19998
1.29575
-0.542592
-0.547191
0.00765664
-0.82453
-0.415281
-0.791599
0.0117054
1.34793
-0.829142
1.33313
1.66304
1.50349
1.32211
1.39767
1.46354
1.35862
-0.631847
-0.193873
-0.250626
-0.561302
-0.317737
-0.74758
1.477
1.35775
-0.493492
1.34717
-0.713362
-0.39406
-0.745905
-1.09434
0.955566
-0.333851
1.34305
1.19072
-1.00595
0.0568226
1.69307
-0.326023
-0.344455
-0.315982
-0.788657
-0.711495
1.4103
1.05301
1.489
-0.548563
-0.97494
-0.449644
-0.195829
-0.497312
-0.398677
-0.802309
-0.468483
1.20145
-0.265646
1.84957
-1.00424
-0.102096
-0.513379
-0.745762
1.3145
-0.523658
-0.571548
-0.376448
0.154191
1.49861
1.61292
-0.666676
-1.07502
1.10631
-0.499743
-0.372509
1.49221
-1.02201
-1.25464
-0.94393
1.02681
0.0344638
-0.502182
1.34807
0.220251
-0.873225
1.3549
-0.693238
-0.774805
-0.830626
-0.827301
0.386671
-0.504154
1.62943
-0.460038
0.602628
-0.483423
1.07032
-0.727626
-0.6307
0.910895
1.16106
1.41932
1.33568
1.5061
-0.758938
1.23578
0.967542
-0.786023
1.2565
-0.210605
-0.762996
-0.39974
1.5721
1.55494
-0.753708
-0.654935
-0.599204
1.30579
-0.708094
0.292285
-0.277693
-0.751639
1.5961
1.31607
-0.784263
-0.781423
-0.790957
-0.775316
1.23781
-0.80692
1.27758
0.459417
0.97508
1.11765
-0.725124
-0.677867
1.23614
-0.749754
-0.00619889
1.64129
-0.458483
-0.770629
1.09447
-0.810942
-0.786454
0.271588
-0.545744
1.72303
-0.152356
0.58636
-0.786744
1.71212
-0.790297
-0.775237
0.905676
-0.291416
-0.482841
1.71584
0.937907
1.42139
-0.78988
1.53613
-0.830345
-0.257512
-0.794071
-0.794443
-0.792779
1.56987
0.832475
-0.468681
-0.790185
-0.511489
1.44993
-0.760424
1.68803
-0.481655
1.01313
-0.766921
0.611562
0.792615
0.755619
0.667947
0.621798
-0.761751
1.31466
-0.795379
-0.557847
-0.331499
0.707367
1.72708
0.166212
-0.784124
-0.806076
-0.769581
0.496185
-0.994437
-0.764184
1.26241
0.624156
-0.777227
1.78934
-0.50627
-0.795341
1.73388
-0.771144
0.371805
-0.733361
-0.746932
-0.761598
1.76428
-0.734648
1.65806
-0.759335
-0.703595
1.49679
0.255077
-0.758554
0.82173
-0.537322
0.226722
0.0550578
-0.763991
1.2044
-0.435868
-0.765119
-0.748471
-0.747684
-0.488706
1.23839
0.0389794
0.0461387
-0.780065
1.6822
-0.390359
-0.78334
-0.710972
0.281034
-0.883956
-0.728484
-0.777935
0.37105
1.55204
-0.797866
-0.477481
-0.858783
-0.208972
-0.0480096
-0.49394
1.76746
1.69201
0.658676
-0.679569
-0.485452
0.566551
-0.484083
1.77041
0.43545
1.4852
0.966093
1.6912
0.306795
-0.891602
-0.658269
0.141689
-0.794959
0.14102
0.333414
-0.758805
1.67187
0.200268
0.448364
0.0923828
-0.469674
-0.705285
)
;

boundaryField
{
    frontback
    {
        type            empty;
    }
    Top
    {
        type            zeroGradient;
    }
    outlet
    {
        type            fixedValue;
        value           uniform 0;
    }
    bottom
    {
        type            zeroGradient;
    }
    Inlet
    {
        type            zeroGradient;
    }
    rectangle
    {
        type            zeroGradient;
    }
}


// ************************************************************************* //
