/*--------------------------------*- C++ -*----------------------------------*\
| =========                 |                                                 |
| \\      /  F ield         | OpenFOAM: The Open Source CFD Toolbox           |
|  \\    /   O peration     | Version:  2306                                  |
|   \\  /    A nd           | Website:  www.openfoam.com                      |
|    \\/     M anipulation  |                                                 |
\*---------------------------------------------------------------------------*/
FoamFile
{
    version     2.0;
    format      ascii;
    arch        "LSB;label=32;scalar=64";
    class       surfaceScalarField;
    location    "26";
    object      phi;
}
// * * * * * * * * * * * * * * * * * * * * * * * * * * * * * * * * * * * * * //

dimensions      [0 3 -1 0 0 0 0];

oriented        oriented;

internalField   nonuniform List<scalar> 
3181
(
-1.00249
0.384375
0.61811
-0.376786
0.352875
0.0239111
0.502979
-0.346569
-0.156411
0.111424
-0.186962
0.0755384
-0.0649843
0.0752413
-0.010257
0.634112
1.20492
-1.83903
0.141575
-0.135579
-0.00599603
-0.00513364
-0.000279307
0.00541294
0.503509
-0.731222
0.227712
-0.0766909
0.126859
-0.0501685
-0.0106256
-0.0546105
0.0652362
0.131534
0.041003
-0.172537
-0.000250837
0.00492243
-0.00467159
-1.09729
0.155168
0.94212
-0.31189
0.67393
-0.36204
-1.12419
0.643663
0.480523
0.0839491
-0.930341
0.846392
-0.147079
0.122017
0.0250625
-1.43194
-0.215913
-0.0030111
0.0825188
-0.0795077
0.0550113
-0.0971077
0.0420963
-0.0694888
0.0656379
0.00385089
1.062
-1.04033
-0.0216728
0.0327888
0.0281268
-0.0609155
-0.957205
0.332928
0.624277
-0.105104
0.216528
0.300907
-0.258936
-0.0419711
0.0279809
0.0590571
-0.087038
-0.430057
0.355448
0.0746092
-0.0352869
-0.0198211
0.0238725
-0.00405137
-0.0429716
-0.914233
0.0984356
-0.0642318
-0.0342039
0.377288
1.26721
-1.6445
-0.0568409
0.0439473
0.0128936
0.186848
0.289023
-0.475871
1.8812
-1.50391
0.0780194
-0.023008
1.6369
-0.869047
-0.767849
-0.842603
1.47671
-0.00151599
0.00126515
-0.0592992
-0.0101896
-0.395421
0.083531
-0.158112
0.0988126
-0.652555
0.124685
0.52787
-0.136965
0.0602738
-0.161443
0.16538
-0.00393628
-0.258364
-0.0751276
0.333492
0.0997845
1.36612
-1.4659
0.0823942
0.0692356
-0.15163
-0.0228322
-0.105898
0.11239
-0.0064917
0.488825
0.185105
-0.093779
0.155044
-0.0612651
0.0755931
0.0228426
-0.161865
0.18641
-0.0245441
0.155834
0.0565317
-0.212365
0.102801
-0.108457
0.00565591
1.29405
0.342849
-0.827392
-0.175094
0.0236657
-1.59344
1.56978
0.570406
0.244886
-0.815292
-0.461499
-0.218593
0.680092
-1.39527
0.552663
-0.28681
0.857216
-0.3081
-0.102018
0.410118
-0.214889
-0.215168
-0.181093
0.173013
0.00808022
0.158332
0.274912
-0.433244
-0.210233
0.713743
-0.00425173
-0.000881907
-1.93864
1.96231
0.168533
0.132374
-0.164836
-0.110087
0.274923
-0.266636
0.370051
-0.103416
-0.0748644
0.0833563
-0.00849182
-1.83886
-0.919941
0.0109102
0.909031
-0.0225222
-0.0343187
-1.13226
0.844108
0.288157
0.231441
-0.191237
-0.0402048
-1.17879
-0.216473
1.10139
-0.946219
-0.748309
1.14382
-0.201704
1.05842
0.181905
-0.169499
-0.0124062
1.75833
-0.553408
1.4328
-1.4328
-0.00752503
-0.00175111
0.00927614
-0.198523
-0.0529301
0.251453
0.124684
-0.0916659
-0.0330183
-0.45659
0.817941
-0.36135
-0.0363064
-0.213896
0.250202
-1.08237
0.0420374
0.363838
0.0570223
-0.420861
0.126193
-0.890836
1.13572
0.085778
0.0280582
-0.113836
-0.0180048
-0.143861
-0.119888
-0.115396
0.235284
-0.0598863
-0.0600013
0.126677
-1.01751
0.313088
-0.769678
0.924559
-0.84061
-0.0128404
0.153182
-0.140341
0.0930197
0.054906
-0.147926
-1.28279
-0.102736
1.38553
-0.228247
0.391659
-0.163412
-0.810647
-0.0320878
0.842735
-0.50083
-0.631435
0.122061
-0.0396673
-0.146039
0.140647
0.00539178
-0.079594
-0.0203139
0.0999079
-0.551308
-0.179914
0.0147084
-0.00368722
-0.0110212
-0.860986
-0.590756
1.45174
1.73186
-0.365743
-0.0175809
0.0100559
0.018252
0.150281
-0.210149
0.396997
0.0650698
0.058327
-0.123397
0.146844
0.0719944
-0.218839
0.113152
0.0383851
-0.151537
-0.59357
-0.530616
-1.35253
0.491544
-0.0297837
0.115562
-0.0947333
0.172504
-0.0777705
-0.0339271
0.0234442
0.118131
-0.0559053
0.0619416
-0.00603626
-0.0882882
-0.0186807
0.106969
0.0713522
-0.0713522
-0.176586
0.20003
0.171555
0.134305
0.0983403
0.0880693
-1.1688
0.958571
-1.60375
0.0905441
1.51321
0.00575387
-0.00781964
0.00206577
-0.0280966
-0.0544025
0.0824992
0.510242
-0.0154826
-0.494759
0.00611998
-0.0063114
0.000191413
-0.190088
0.0135017
0.168509
0.649432
-0.350845
0.519354
-0.127377
-1.15541
-0.0849642
0.0199799
0.465939
-0.28744
-0.1785
0.120132
-0.110591
-0.00954124
0.0467604
-0.305125
0.0228718
-0.942813
0.0477007
-0.142434
-0.26994
-0.383228
0.0881261
1.44384
-0.974663
-0.469179
1.12495
0.318888
0.0647423
0.26875
0.00222292
0.00353095
0.00731705
0.0468131
-0.0541301
-0.246568
-0.60045
0.847017
-0.338333
0.326393
0.793322
-1.00924
0.164323
0.0246321
-0.0324558
0.00782376
-1.83635
0.119126
1.71722
-0.0910602
-1.74529
-0.317642
0.68148
-0.90747
-0.0144587
0.00612822
-0.280633
0.274504
1.51197
-1.64111
0.129139
-0.0765516
-0.00841259
0.584416
-0.830983
0.136176
-0.18871
0.0525344
-0.304748
-0.129376
0.434123
0.188955
-1.00945
-0.0729205
-0.0268812
-0.0526265
-0.584288
0.365695
-0.259066
0.0192393
0.239826
-0.00281676
-0.0737349
-0.0197364
0.0197364
-0.127889
0.140729
-0.0128401
-0.277068
-1.32668
-0.00250125
-0.00197918
0.00448043
-0.0232266
-0.0301184
0.0533451
-0.232941
0.0518475
1.57136
-0.375383
-1.19598
-0.173526
0.427936
-0.25441
0.00398889
-0.00460015
0.000611258
-1.05363
0.242987
-0.194704
-0.00509359
0.199798
-0.159558
0.317889
-0.108423
0.106664
0.00175896
0.0795224
0.0119645
-0.0914868
-0.041133
0.0268749
0.0142581
0.183821
0.770226
-0.954047
-0.21087
-0.0484812
0.259351
-0.679559
0.662251
0.0173086
-0.00714689
0.0352737
0.0354066
-0.0368066
0.0014
-0.0162595
-0.0446561
0.971155
0.760707
0.169466
-0.898309
0.728842
-0.0356963
2.0385
-2.00281
0.363922
0.475305
0.957499
0.07545
0.215427
-0.0685826
-0.0757345
-0.030164
0.221993
0.16912
-0.0761003
0.733733
-0.400805
0.0584846
0.192968
0.0598797
-0.178414
0.118534
-0.735504
-0.129719
0.865223
0.0112261
-0.0112261
-0.0770722
-0.278003
0.567026
0.0111072
-0.221977
0.0428382
0.0791784
0.0442627
-0.0740464
0.145267
-0.155893
-0.346896
0.31059
0.0264473
0.0374882
-0.0639355
0.37066
-0.329657
0.103304
0.0502639
-0.153568
-0.197186
0.261928
0.180577
-0.468017
-0.199962
0.584338
0.156825
-0.0314943
0.0314943
0.00557915
0.138354
-0.143933
0.362927
0.0287319
-0.00212477
0.000235094
0.00188967
-0.123572
0.0246692
-0.00996081
-0.0513299
0.196597
-0.1907
0.254263
-0.0635632
0.140793
0.0283271
-0.379953
0.121017
0.204017
-0.0632243
-0.0486923
-0.0597306
0.00234275
0.00669802
-0.00904077
0.140129
-0.099566
-0.0405631
-0.0354846
0.415686
-0.380202
-0.00716738
0.00291565
0.111067
-0.115638
0.00457026
0.0247266
0.32637
-0.223066
-0.0501186
0.0279503
0.0221683
-0.0331969
0.0760858
-0.042889
-0.099562
0.0964178
-0.72002
0.623602
-0.00401724
-1.32009
-0.430246
1.75034
0.134781
1.30785
-1.44263
0.0782573
-0.113698
0.152083
0.295389
0.258622
-0.554011
-0.211844
0.271723
0.131155
-0.857052
0.725897
-0.0558078
0.0226109
-0.042079
0.0151978
-0.979258
0.440428
0.53883
0.974663
-0.847986
-1.56364
1.4609
-1.51197
1.60251
0.0361917
-0.0974568
0.0047611
0.0306455
0.00146085
0.765359
-0.634204
0.113225
-0.0655242
0.409704
0.734121
-0.0938564
-1.72155
1.68585
-0.643147
-0.525658
-0.243381
-0.409174
-0.00590223
-0.157734
0.204494
-0.569554
-0.352672
0.179146
0.742371
-0.232129
-0.828973
-0.734667
0.753882
-0.01922
-0.0365877
0.264524
0.0353163
-0.0353163
0.669059
0.150411
-0.81947
-0.226841
0.895899
0.597915
-0.610933
0.0130181
0.129403
0.00490241
0.00480432
0.00879439
-0.0135987
-1.59344
-1.00537
0.639624
1.02589
0.545476
-0.0333184
-0.128125
-0.238444
0.727269
-0.208371
-0.0506949
-0.00262625
-0.0722382
-0.0589949
0.113901
0.388797
-0.264112
-0.770524
-0.30212
-0.0437858
0.0393332
0.00445256
-1.10101
1.57631
-0.0466338
0.0316892
0.0149446
0.0181691
-0.0159462
0.0015443
-0.00342219
0.00187789
0.0106796
0.399438
0.0696743
0.0504577
0.0194896
0.0236887
-0.0431783
-0.0167903
-0.177914
-0.746084
0.388163
0.357921
1.12869
-2.24853
1.11985
0.145485
-0.167769
0.022284
0.0220672
0.0999942
-0.108865
-1.32394
-0.00597079
0.00751509
-0.0914829
0.0518156
0.150483
-0.360632
-1.89114
0.427434
1.46371
0.047612
0.0880731
0.0520561
-0.735504
0.725612
-0.541791
0.0109633
-0.0143855
0.0458927
-0.641418
-0.0381416
0.0638557
0.140162
-0.283408
0.0195148
-0.452759
0.11605
0.363433
-0.306411
-0.105514
0.017226
0.218902
0.843453
-1.06236
0.106221
-0.700866
0.594645
-0.901639
0.77192
-1.45381
0.0388116
1.415
-0.000273039
-0.000322251
0.00059529
0.183059
-0.487807
0.219975
-0.128235
-0.0917406
0.0551203
0.0209656
-0.0369892
-0.00679659
-0.00851035
0.0166316
-0.0328911
0.0194886
0.0917997
-0.111288
0.732696
0.00540296
-0.00522284
-0.000180116
0.0141653
-0.0112496
0.862565
0.0458343
-0.0542469
-0.241316
-0.764051
0.0978281
0.031575
0.00698724
0.0810859
-1.415
1.32394
0.0347605
-0.112243
0.0774823
-0.266321
0.0968223
0.120465
-0.132871
-0.00119575
0.084552
0.00584067
-1.99687
0.105731
-0.0533365
0.0728251
0.741635
-0.261112
-0.0903678
0.0671412
0.36245
-0.00514468
0.00301991
-0.00749857
0.0788508
0.140609
0.229443
0.15734
-0.348276
0.190937
0.101494
0.547937
-0.0267739
-0.110191
0.875119
-0.228015
-0.647104
-1.45381
-0.467984
1.59667
1.8812
-0.0932512
0.148796
-0.0555444
0.383644
-0.0779009
-0.305743
-0.00503897
-1.17375
-0.08096
0.0823771
-0.0014171
0.0390596
-0.138614
0.0995546
0.399986
-0.849399
0.449412
0.0384401
0.666855
-0.705295
-0.0422964
-0.103743
-0.0453084
-0.00481018
0.171673
-0.166094
0.00160638
-0.00187942
0.041499
0.0425265
-0.0840256
0.0343576
-0.0270406
0.00772156
0.0104476
0.0472883
0.105893
-0.033218
-0.00358861
0.205412
-0.419308
-0.0919811
1.39983
-0.00565566
-0.0055704
-0.990258
-0.0191874
0.00982388
-0.0671957
-0.0383186
0.029356
0.10682
0.29187
-0.710954
0.419083
0.0762972
0.0215309
-0.937649
-0.00857015
-0.00600856
-0.64956
0.745978
-0.0164841
0.173309
0.209672
-0.820605
0.188399
-0.425803
0.237404
-0.0434964
0.101823
0.00489187
-0.0055359
0.000644035
-0.0248926
-0.0162404
-0.0192007
-0.12466
0.730542
-0.624321
-0.0226975
0.00155334
-0.0122762
0.326464
-0.169124
-0.0193696
0.968621
-0.340718
-0.627902
-0.127169
0.146408
-0.511664
-0.23442
-0.543965
0.577825
-0.565397
-0.0124281
-0.0408783
0.0181808
-1.72155
0.569489
-0.569489
-1.73527
1.73527
0.765359
-0.143185
0.240934
-0.0977488
-0.899308
-0.0909501
0.658804
-0.385343
-0.273461
0.147531
-0.225301
-0.0126321
-0.00494888
-0.926615
-0.0908986
-0.933058
0.213037
0.0358436
0.00348962
0.696369
-0.0967637
-0.599606
1.60882
0.272382
-0.00330202
0.00819389
-0.959321
0.743042
-0.692778
-0.0853779
-0.629759
0.715136
0.0161589
-0.910598
-0.730511
0.222253
-0.815823
-0.865223
1.28416
-0.418937
-0.13586
0.269097
-0.133237
-0.0384421
0.734812
-0.112438
-0.946646
0.946646
-0.628855
0.597819
0.0310363
0.00238842
0.00301454
0.0069461
-0.45292
0.888403
-0.0442947
-0.0920369
-0.0326901
0.00512448
0.000347126
0.00364177
1.83727
-1.79846
-0.350319
0.429842
-0.666543
1.06202
-0.395481
-0.0183194
0.0123487
0.131221
-0.0592269
0.337514
-0.00111309
0.00603552
0.359715
0.0559717
0.0446904
-0.260046
0.215356
0.132861
0.032519
0.103125
0.190176
1.67453
0.287775
-0.450852
0.413169
0.0376827
-1.29729
1.41641
0.24638
-0.147567
0.0736421
-0.765696
0.692054
-0.594038
0.11059
-0.457486
-0.0745989
0.125208
-0.050609
0.116659
-0.191258
-0.469203
-0.115085
-0.0773392
0.0807601
-0.00342087
-0.00731005
-0.0259079
0.031841
-0.00899842
0.634204
-0.594645
-0.0395592
-0.279429
0.290536
0.881894
0.648397
-0.264754
0.00362269
-0.00560187
-0.103647
-0.0850636
0.157402
-0.55569
0.398289
-0.00562928
9.33768e-05
0.214473
-0.302428
0.0879551
0.00610399
-0.0125999
0.00649588
-0.025982
0.0176884
0.00829364
-1.10979
0.556379
-0.0797833
-1.24031
-0.210581
-0.847986
1.60251
1.4609
-0.183101
-0.165313
0.116832
-0.06792
0.074075
-0.00615499
-0.386031
0.558368
-0.172337
0.579184
0.0796197
-0.00220196
-0.00342733
0.127851
-0.925096
0.0326901
-0.0576273
0.00429085
-0.276171
0.172524
-0.0431094
0.0873721
-0.233306
0.603966
1.12495
0.057975
-0.0573521
0.000961048
0.0563911
1.81506
-0.354153
-0.0574589
-0.0509983
-1.01267
0.164685
0.410168
-0.221213
-0.487518
-0.144782
0.6323
0.848406
-0.383362
-0.465044
-0.0905919
0.382462
-1.68585
0.0924075
-0.0153537
-0.0557174
0.0710711
0.292055
1.74645
-0.166012
0.170816
-0.0131828
2.22805
-0.625532
-0.669485
0.0412966
0.628188
0.403477
0.0240789
-0.360438
0.503927
0.775512
0.102545
0.0722078
-0.0201518
-1.40051
0.248686
1.15183
1.31794
0.0887356
-0.069246
-0.0551654
-0.370952
0.118945
-0.330788
0.389042
0.579579
-0.011258
-0.0296203
0.171808
-0.265059
-0.0229366
0.0157898
0.105951
-0.141296
0.0353451
-0.285414
0.297083
-0.0116689
0.115128
-0.455847
-1.7477
0.329505
1.41819
0.00276182
-0.0444354
0.0416736
0.28779
0.0386743
0.374561
0.351051
-0.674047
0.674047
1.56978
1.60882
-0.700866
0.309394
0.466118
-0.193226
0.0492926
0.961579
-0.382394
0.0116891
-0.885945
0.874256
0.117805
0.00905471
0.0252505
0.116326
0.258235
0.0818977
-0.165462
-0.111226
0.276689
0.115967
-0.489877
0.324415
-1.14611
-0.300283
-0.662358
0.00635832
-0.00468797
-0.000534867
-0.229332
-0.0224058
0.0268584
0.0314909
-0.157682
0.126191
-0.549019
-0.0798358
-0.00535723
0.0644144
-0.101476
-0.0344142
0.13589
-0.54243
0.36393
-0.138355
0.175843
0.223664
-0.0102263
-0.0318527
-0.87798
0.502598
0.0367806
0.0742869
-0.0322454
0.0199692
0.211852
0.00812342
-0.443182
1.60836
0.506498
0.529496
0.86532
-0.791678
0.824185
-0.461735
-0.641194
0.188274
0.158414
-0.797761
0.778723
0.0190378
0.860653
-0.471611
-0.209785
-0.140534
-0.0955355
0.00386958
0.949975
-0.839122
-0.110853
-0.196936
0.120836
0.0260101
0.114637
0.877055
-0.056492
0.0882976
-0.0318056
-0.313535
-0.0391367
-0.0620731
-0.0394032
0.135093
1.25043
1.8685
-0.259683
0.162035
0.547791
-0.709826
-0.0597084
0.0531633
-0.0206507
0.0104244
-0.52873
-0.112464
0.0900866
-0.0929034
-0.199215
0.147885
-0.509736
0.255325
-0.992537
-0.145097
-0.29687
-0.706425
1.56606
-0.0528492
-0.298291
-0.13744
-0.138731
0.596051
0.317281
0.0424333
1.14962
-0.749635
-0.203376
0.140152
-0.191925
-0.00890629
0.200831
-0.0297573
0.0144035
0.0520534
-0.0603724
-0.225042
-0.106074
0.698184
-0.428397
-0.269787
0.0134688
0.12482
-0.0902745
-0.0345458
0.24639
0.070891
0.00795933
-1.45059
-0.101409
0.147302
0.133511
-0.190003
-0.0406275
-0.00226144
-0.0275038
0.0115754
0.0159285
-0.00946398
0.00164433
-0.255473
0.0770587
-0.0587751
-0.532789
0.396929
0.0286995
0.03688
-0.0341181
-0.697213
1.4881
-0.908517
0.015625
-0.204496
0.188871
-0.147018
-0.526122
0.67314
0.0621264
-0.703544
-1.19622
-0.55148
0.00818884
0.000104935
-0.00829378
-0.239587
-0.577825
-0.157679
-0.125136
-1.40051
-0.244201
0.175619
0.0693762
-1.19754
-0.18013
0.0810156
0.0991139
0.251701
0.104733
0.494439
0.259202
-0.753641
-0.0453995
0.0261794
1.00457
0.162397
-1.16697
-0.214474
0.119545
1.29687
-0.254658
0.191095
-0.457097
0.576642
0.0740882
-0.189484
0.00394998
-0.00248914
-0.012263
1.16739
-0.637894
0.761929
0.0864769
-1.69549
-0.301376
0.253082
0.708497
0.874496
0.000622643
-0.019878
-1.8685
-0.662358
-0.712523
0.723433
0.00463458
-0.828973
0.666855
0.583524
-0.930072
0.737881
0.000768185
-0.798529
-0.315213
0.638966
-0.761252
0.122286
0.0756986
0.0491216
-0.976185
-0.37182
1.74364
-1.37182
0.000138663
-0.00482664
-0.276938
0.226243
0.701093
0.210692
-0.197191
-0.172812
0.573927
-1.16468
0.271767
-0.369516
0.355997
0.287147
-0.643144
-1.42451
1.6732
0.0895851
-0.123999
0.103972
0.780009
-1.15183
0.00074135
0.223542
-0.00881518
0.0454694
-0.0356455
0.00985543
-0.0280781
0.0182227
-1.0284
-0.0339557
0.305336
-0.806147
-0.916928
1.58767
-0.670739
0.386412
0.675612
-0.0453941
0.0484594
-0.00306533
-0.262994
0.836921
-0.719956
0.818548
0.23012
-1.14705
0.329974
-0.106432
-0.5842
-0.408337
-0.874769
1.23077
-0.0522598
-0.885177
-1.91088
-0.091924
0.780009
0.0512959
-0.857443
0.830616
-0.646144
-0.184472
-0.981933
0.397734
0.00806868
0.10948
0.000688795
-0.110169
-0.971445
0.563108
-0.202651
0.913303
-0.921873
0.201415
-0.218205
-0.100599
0.251083
0.423038
0.688316
-0.108766
-1.19922
0.571315
0.863114
-0.760569
-0.552837
-0.518459
1.0713
0.447163
0.0194525
-0.0106581
-0.73925
0.705295
0.17088
-0.433874
-0.957499
0.689218
0.268281
1.23914
0.348525
0.771258
-0.806545
-0.493476
-0.449337
-0.471837
-0.499608
0.804209
-0.804209
0.687955
-0.687955
-0.73925
-0.472746
0.472746
-0.689218
-1.20613
-0.45014
-0.337853
0.0734081
-0.0734081
0.17088
-0.433874
0.771258
0.764508
-0.764508
0.806545
0.758445
-0.758445
0.506524
0.528163
0.481541
0.244288
-0.500392
-0.550663
1.07883
-0.706653
-1.64182
0.767053
0.170489
-0.0809042
-0.346135
-0.0109651
0.0567995
-0.884088
0.087569
0.796519
-0.0176765
0.0117742
-0.993233
0.592428
0.881303
-0.571909
-0.122409
0.00174352
-0.000930459
-0.821996
-0.0763125
-0.53883
-0.0140667
0.0292646
0.406017
-0.020482
0.00609644
0.181683
-0.00185476
-0.00739044
0.0092452
-0.812347
0.0682172
0.744129
0.137837
0.285201
-0.525427
0.427325
0.098101
0.915241
-0.745506
-0.169735
0.0834594
0.313537
-0.0143389
-0.0630003
-0.0677007
-0.0132593
0.637253
-1.73826
-0.870881
0.0944322
-0.747978
0.794977
-0.0469984
0.120213
-0.900392
0.780178
-0.803892
0.902093
-0.0982006
-0.015204
0.00574003
0.0202198
-0.300852
0.40618
0.824586
-0.089821
-0.794267
0.914746
-0.0893946
-0.825351
-0.00590181
-0.0124176
0.308326
0.82542
-1.43285
0.480863
-0.401243
0.097715
-0.891982
1.50391
0.231363
-0.794737
-0.003792
1.0166
-0.896389
1.09366
0.889416
-1.01417
0.124757
-0.884953
-0.10828
-0.42936
0.0491584
-0.138955
0.558039
-0.783695
0.783695
-0.627018
-0.0822664
-0.863402
0.117896
-0.9945
0.909122
0.0800746
-0.208309
-0.0544932
0.0498409
0.0121007
0.185562
0.83104
0.819827
0.774085
0.136028
-0.910113
-0.84793
0.767026
-0.784836
-0.101048
0.885884
0.161185
-0.88114
-0.677841
0.885751
-0.788036
-0.102046
0.461678
-0.00518613
-0.456492
-0.417477
1.58342
-1.16595
0.287106
-0.18105
-0.106057
-0.886883
-0.828291
0.0803133
0.550682
0.273503
-1.7905
0.749912
-0.597568
0.597568
-0.719376
-0.479842
0.217575
0.0406601
-0.609381
0.938886
0.784703
-0.191328
0.814821
-0.258442
1.14148
-0.924441
-0.217036
-0.490665
-1.75787
0.123585
0.0414859
-0.0542378
-0.487554
0.0560582
0.316771
-0.233312
0.782617
-0.880818
0.753911
0.0131149
-0.142
0.734429
0.597735
-0.597735
-0.0281487
0.0122025
0.118849
-0.087358
1.20526
0.378165
0.123354
0.000880315
0.00687248
-0.0077528
-0.677086
0.691268
-0.0141822
-0.131426
-0.882746
0.104266
-0.892301
-1.11186
1.40439
-0.292524
0.0230636
0.872272
-1.73821
1.60679
-0.756274
0.612234
-0.650376
-0.678302
0.166638
0.25873
0.0266875
0.120554
-0.0722419
0.330972
0.000166518
0.000757411
0.0611483
0.733828
0.686765
-0.0745307
0.0690415
0.793524
-0.280762
-0.269656
0.550419
-0.329365
0.493964
0.235778
-0.911499
0.69632
0.215179
-0.685134
-0.130689
0.827939
-0.225093
0.0589996
-0.0317728
0.485895
0.514105
-0.771771
-0.109046
-0.270584
-0.758721
-0.121286
-0.24666
0.400945
0.599055
-0.0258137
0.0145641
-0.861166
-0.0531712
-0.597205
-0.153535
-0.234207
0.387741
0.00517327
0.000667408
0.120142
0.0764547
-0.128206
-0.127267
0.763992
-0.649828
0.71887
0.613348
-0.68559
-0.332586
0.55135
-0.218764
-0.744362
-0.183084
0.927446
-0.230504
0.218651
-0.0256828
-0.0569989
-0.016736
-0.00236142
0.737303
-0.139735
0.108648
0.115017
-0.734286
0.0572003
0.967487
0.33173
-0.139518
-0.0140499
-0.0135776
-0.279639
1.01376
-0.00121337
0.110774
-0.123957
-0.0010692
-0.0504194
-0.000744159
0.15159
0.815898
0.290222
-0.682971
0.392749
0.844306
-0.0311163
0.00328294
0.0278333
0.135767
0.00110774
0.000498638
0.208892
-0.10294
0.194414
-0.803795
0.701
-0.410778
0.00449675
0.271813
-0.131621
-1.06986
1.34984
-0.279977
-0.778776
0.827248
-0.0484726
0.213446
0.0858547
-0.0117665
-0.0843981
1.35685
-0.467896
-0.0575307
0.269399
0.437478
0.178015
-0.615493
0.382753
0.0269458
0.664322
-0.572204
0.576516
-0.00431187
1.24
-0.643948
-0.0481495
0.0564478
-0.00829832
0.702305
-0.00979165
-0.0822317
0.0182691
1.25893
0.753082
-0.539636
0.0917416
0.0234776
-0.067913
0.0835708
-0.00912816
-0.0744426
0.0157222
-0.00586672
0.549036
-0.386639
-0.0185411
0.208859
-0.0244643
-0.0753561
0.237431
0.0918069
0.00375087
0.0303645
0.763453
0.95266
-0.719565
-0.233095
-0.881306
0.290082
0.591224
0.644164
0.117673
-0.0400609
-0.0175155
0.0575764
-0.234
0.338043
-1.26248
-0.0138611
0.767743
0.729009
0.602105
-0.22449
-0.751695
0.805349
0.0778693
-0.0972389
-0.908226
0.137734
-0.272332
-0.364008
-0.168868
0.699291
0.0641623
0.0143444
0.457198
-0.371343
-0.00760507
0.167814
0.0118359
-0.108944
0.421736
-0.0590529
-0.200965
-0.0640748
0.135216
-0.494314
-0.386992
-0.144552
0.215882
-0.025433
-0.108642
-0.00299742
0.000334485
0.00266293
-1.34654
0.702587
-0.000458111
0.940524
-0.225353
-0.623324
0.658363
-0.0350386
0.366538
0.756491
0.248057
-0.466821
0.0824271
-0.183027
0.641434
0.115058
0.905473
0.67084
-0.281038
0.761901
0.176299
0.639599
-0.584088
0.352065
0.232022
-0.162721
-0.0707456
0.0399512
0.0714858
-0.0504016
1.2412
0.735692
0.0696569
0.637185
0.209832
-0.88068
-0.0825403
-0.682251
0.678459
-0.0290769
-0.559928
0.406394
0.857978
0.66838
0.023918
-0.00376976
-0.135143
-0.322343
0.65822
0.829875
0.682831
0.0392184
0.814368
-0.174769
0.356833
1.09491
-0.0830713
0.347547
-0.727708
0.920573
-0.192865
-0.414811
-0.169277
-0.0576907
-0.135656
-0.171338
0.837288
0.0302928
-0.00660418
0.62588
-0.000634602
-0.0134153
0.615208
-0.130984
0.218869
0.790465
0.253131
-1.0436
0.276789
-0.922933
0.354502
-1.26302
-0.163971
0.751902
-0.587931
-0.678176
-0.0461434
-0.0108555
-0.056611
-1.43789
0.00643887
-0.0339427
0.63899
0.0947542
-0.106696
0.011942
-0.0107304
-0.569554
-0.00438643
0.115161
-1.65661
-0.00524166
0.0033869
0.143196
-0.0553308
-0.605016
0.032812
0.56796
0.290019
1.05864
0.691703
-0.227245
-0.390552
0.617796
0.202467
-0.619737
0.619737
-0.242894
-0.961628
1.20452
0.0318314
-0.159
0.669881
-0.101921
-0.218015
-0.137804
0.196803
0.488746
1.08034
-0.0941082
0.189671
-0.101545
-0.304731
0.482427
0.0940887
0.0750966
0.00292278
-2.01755
-0.218341
-0.0483462
0.693253
0.306747
-0.218341
0.693253
0.214132
0.0748989
0.214132
-0.696496
0.696496
0.303504
-0.0134878
0.0422238
-0.0790397
0.237382
0.104897
-0.490823
0.636073
-0.0208646
0.642055
-0.50591
-0.136145
-0.0465737
0.0422186
0.00435511
-0.0157031
0.0165834
-0.57637
0.0177146
-0.0263838
-0.434546
-0.371591
0.14226
0.0366192
0.817185
-0.269394
-0.468937
0.330207
-0.0176306
-0.0611587
-0.00086022
0.693058
0.0746854
-0.0205991
-0.042997
-0.000181302
-0.0136507
0.08368
0.548517
-0.480335
-0.0681817
2.09709
0.561542
-0.0234224
0.937094
0.0120237
-0.0664263
0.113235
0.172158
0.0260656
1.18343
-0.392967
-0.000764541
0.00712286
0.402235
-0.38743
0.0188255
-0.0188255
0.0232252
-0.0232252
-0.0132638
0.0132638
-0.00565566
0.366303
0.464641
-0.00933261
-0.688823
0.456693
0.180447
0.0284442
-0.0858429
-0.481925
0.62122
0.113313
-0.798447
-1.01227
0.191661
0.0153353
0.0212481
-0.0035597
0.00387221
-0.00387221
0.141379
0.00376727
-0.00376727
0.700351
0.107439
-0.0338655
-0.00913152
0.00620484
-0.063557
-0.0207157
0.0207157
-0.0112919
0.0112919
-0.0239469
0.0239469
0.00315374
-0.00315374
0.0302799
-0.3007
-0.0766596
0.218059
0.00318277
-0.00318277
-0.37924
0.496407
-0.117167
0.479266
-0.210169
-0.442745
-0.0261922
0.55723
0.0163236
0.0876377
0.570725
0.564308
0.00234436
-0.00234436
-0.0323656
0.0269325
-0.0269325
0.00320317
-0.00320317
0.780695
-1.24667
0.0379387
-0.606031
0.303603
-0.00117758
0.00117758
0.0123137
-0.0123137
0.019438
-0.019438
0.0211392
-0.0211392
-0.0251142
0.0251142
0.0371932
-0.0371932
0.4997
-0.0337824
0.0337824
0.000678945
-0.000678945
0.025593
-0.025593
-0.00893764
0.00893764
-0.00253577
0.00253577
-0.0552716
-0.0283496
0.0283496
0.251559
0.0140395
-0.0417634
0.0417634
0.00753763
-0.00753763
0.0145683
-0.0145683
0.0355414
-0.0355414
0.0241484
-0.0241484
-0.00151207
0.00151207
-0.00622802
0.00622802
-0.0498841
-0.170169
-0.0111262
0.0111262
8.36553e-05
-8.36554e-05
-0.0403158
0.0403158
-0.0264164
0.0264164
0.00335066
-0.00335066
-0.434194
0.687276
0.254347
-0.0338241
0.0338241
0.00591462
-0.0121664
0.0121664
-0.00059066
0.00059066
0.0351971
-0.0351971
-0.155949
0.0587102
0.00753278
-0.00753278
-0.0205115
0.0205115
-0.474021
0.0414447
0.518613
-0.0295412
0.0295412
-0.433434
0.0307935
0.017666
-0.0253253
-1.67017
-0.0388
0.0388
-0.212578
0.153525
-0.0388332
-0.00120192
0.00120192
-0.0156141
0.0577104
0.266951
-0.321996
-0.260596
0.582593
0.174064
-0.0084102
0.0084102
-0.0418853
0.180373
-0.138488
0.747163
-0.37432
-0.372843
-0.483416
-0.658051
-0.0307652
0.360972
-0.115293
-0.214072
-0.575804
-0.0224086
0.191472
-1.15675
0.0189343
-0.0189343
-0.00141636
0.00141636
0.0325849
-0.0325849
0.0247587
-0.0247587
-0.00148922
0.00148922
-0.00150973
0.00150973
-0.0628947
-0.128342
0.159187
-0.281596
0.00208444
-0.00208444
-0.0424733
0.0424733
-0.0425649
0.0425649
0.0242633
0.0590918
-0.0833552
0.017775
0.295731
-0.521084
-0.00275122
0.00275122
-0.0173471
0.0173471
-0.107577
0.228544
-0.259309
-0.00215377
0.00215377
0.0288222
0.0136829
0.896282
-0.488877
-0.0950734
0.583951
-0.61648
0.334264
-0.473219
-0.0364772
0.0364772
-0.672561
0.266201
0.0522443
-0.0522443
-0.67698
0.403518
0.250724
0.113288
-0.00107219
0.00107219
-0.874328
-0.000537324
0.000537324
0.326814
0.407997
0.0868304
-0.0564346
0.0564346
-0.00259486
0.00259486
-0.0447014
0.0447014
-0.0508656
0.0508656
-0.000357206
0.000357206
-0.0562573
0.0562573
-0.000419643
0.000419643
-0.0481742
0.0481742
-0.0139281
-0.0427695
0.0427695
0.00451847
-0.00451847
0.0508244
-0.0508244
-0.000925928
0.000925928
0.0449104
-0.0449104
-0.215657
-0.00269371
0.00269371
-0.00459683
0.00459683
-0.0401528
0.0788508
-0.0110927
0.0110927
0.00504579
-0.00504579
-0.0625333
0.0625333
0.307336
-0.0193864
0.0193864
-0.0543865
0.0543865
-0.00742549
0.00742549
-0.0707241
0.0707241
-0.0129099
0.0129099
-0.0844795
0.0844795
-0.0229703
0.0229703
-0.0897316
0.0897316
-0.704243
0.275908
-0.545433
0.510395
-0.910598
-0.129901
-0.541493
0.372626
-0.00529267
0.0187614
0.00382053
-0.00382053
0.110372
-0.696316
0.049746
-0.0468232
-1.43326
1.70565
1.33152
0.245059
0.0074243
-0.0141122
-0.377523
-0.596454
-0.0567969
0.394451
-1.2879
-0.0268156
0.0268156
-0.723624
0.0159305
-0.0159305
-0.00508439
0.00508439
0.327707
-0.344029
-0.00276735
0.00276735
0.0179436
0.0135507
0.599171
0.00731898
-0.0124201
-0.0106238
-0.00925423
-0.109922
0.513341
-0.403419
0.153771
-0.0301859
0.000282976
1.05731
0.0175642
0.040142
-0.410634
0.459792
-0.505707
-0.937906
-0.217508
-0.0780821
0.0190872
-0.0490862
-0.131964
-0.00925762
-0.00788131
-0.00379397
0.803694
-0.532928
-0.0470329
0.0588688
-0.0401348
0.0430062
-0.000782425
0.413347
0.248904
-0.162999
0.204358
0.0144085
-0.00244408
-1.0545
0.0225823
-0.0822468
-0.0244495
-0.0176504
-1.29
-0.0724255
0.271876
-0.35465
0.410622
0.230592
-0.937017
0.0431338
0.0213458
-0.0337635
-0.357657
0.455758
-0.0249396
0.0273274
-0.00238784
-0.0290138
0.0290138
0.187052
-0.451806
-0.0649237
0.0348053
-0.0884639
0.059387
-0.0588956
-0.00398818
0.0628838
-0.0368323
-0.159218
0.0477409
-0.00730142
-0.284073
-0.338379
0.622452
0.0176875
0.0646896
0.148847
-0.0401992
-0.081045
0.0764525
-0.166574
0.324988
-0.00110642
0.0289398
-0.0160558
0.164903
0.00284917
0.271655
0.00428522
-0.00428522
-0.53219
0.889023
0.0991036
-0.181644
-0.0173686
0.0335275
1.39599
0.210793
0.0349011
-0.0151646
-0.536646
-0.00878723
0.065294
0.105142
-0.710854
0.32846
-0.0560323
0.361859
-0.645932
0.203191
0.493129
-0.0941505
0.0941505
0.000688796
-1.43748
0.254379
1.1831
-0.22394
0.167329
0.0602508
-0.131287
-0.32456
-0.0217492
-0.0447471
0.0495082
0.929411
0.181019
-0.157101
-0.0704157
-0.809187
-0.337861
-0.0272188
-0.263137
0.767064
0.556394
-0.260663
-0.288188
0.560001
-0.0343857
0.183181
-0.265759
0.0226887
-0.455282
0.338115
0.118176
-0.118176
0.00359375
-0.040012
0.0364183
-0.00178345
0.00395133
0.0115754
-0.065609
-0.168391
0.213905
-0.185453
-0.0284514
0.526129
-1.12348
0.147963
-0.912014
0.684469
-0.106828
-0.174768
-0.0259004
-0.0801735
-0.500202
0.0656556
-0.301011
-0.000613532
-0.0176504
0.396846
-0.00512438
0.00130456
2.90323e-05
0.014503
-0.0109103
-0.00359268
-0.0965383
-0.0177708
-0.174798
0.192569
-0.110116
-0.345165
0.0179436
0.34953
0.00109734
-0.391489
0.0946187
0.00298556
0.089662
-0.0989946
-0.0133306
0.0133306
-0.00168597
0.00102174
-0.00878074
2.04074e-05
0.00995883
0.000423489
-0.00116729
0.0515894
0.0552303
-0.00239747
0.00239747
0.00903804
0.498973
0.000165676
-0.282429
0.525539
1.19041
-0.467773
0.316834
-0.440052
-0.0710339
0.00611016
0.210917
-0.21547
0.0175539
-0.00341728
0.00105586
0.00119486
-0.177563
-0.368014
0.824707
0.379706
-0.4426
0.0281248
-0.0016518
0.0125382
0.0105254
-0.000147229
-0.000223569
-0.00319371
-0.0278726
0.00144758
-0.0006277
0.740412
-0.66396
-0.249229
0.27741
0.663823
-0.000674318
0.00130475
-0.0388332
-0.00539279
0.817609
-0.432022
0.526111
-0.807067
0.905802
-0.171761
0.555977
-0.183352
0.718777
0.000527442
0.00358394
0.0176641
-0.124099
0.137733
-0.076271
0.00800675
0.00214553
0.0707764
-0.0582265
-0.0125499
0.00087742
-0.0183628
0.0485086
-0.0301458
-0.0939771
0.00706988
-0.000197395
0.002121
0.495221
-0.440809
0.00277882
0.000599446
1.22222
-0.96784
0.371253
-0.0062151
-0.000214441
0.0442681
-0.0628092
-0.0495568
-0.0953198
-0.0108872
-0.00376491
0.135886
0.042625
-0.00289502
0.392978
0.00114363
0.0012885
-0.0012885
0.00166511
-0.0122889
0.000595225
-0.322012
-0.00389965
0.0762841
-0.107713
0.140724
0.254405
-0.065192
0.000666779
0.00190311
0.444889
0.00041703
-0.000253717
-0.057437
-0.00213657
0.000934564
0.0296272
0.0937271
-0.709896
0.450844
-0.818858
0.0965802
-0.000441093
0.563352
0.0214434
0.0346148
0.561571
-0.0143883
-0.0339019
-0.00419022
-0.00141993
-0.557503
-0.00347273
-6.24349e-05
0.00564085
0.902979
-0.520227
-0.00265025
-0.000506285
-0.00609871
-0.00176778
0.0713176
-0.0210592
0.0210592
-0.0325293
0.033551
-0.0023797
-0.00819088
0.0374177
-0.0361131
-0.175331
0.104585
-0.00548443
-0.0137553
0.0361823
-0.0186951