/*--------------------------------*- C++ -*----------------------------------*\
| =========                 |                                                 |
| \\      /  F ield         | OpenFOAM: The Open Source CFD Toolbox           |
|  \\    /   O peration     | Version:  2306                                  |
|   \\  /    A nd           | Website:  www.openfoam.com                      |
|    \\/     M anipulation  |                                                 |
\*---------------------------------------------------------------------------*/
FoamFile
{
    version     2.0;
    format      ascii;
    arch        "LSB;label=32;scalar=64";
    class       volVectorField;
    location    "26";
    object      U;
}
// * * * * * * * * * * * * * * * * * * * * * * * * * * * * * * * * * * * * * //

dimensions      [0 1 -1 0 0 0 0];

internalField   nonuniform List<vector> 
2186
(
(1.27927 -0.0660317 2.75177e-19)
(1.57219 -0.907557 1.5116e-20)
(1.41932 -0.88559 1.02989e-20)
(0.709723 -0.547667 -1.7501e-19)
(-0.361943 0.359848 -1.65362e-19)
(1.68344 -0.484738 0)
(0.698158 -0.64426 0)
(0.0139064 0.0335114 5.86452e-20)
(1.44134 -0.126487 6.10597e-20)
(0.52724 -0.263855 -2.13121e-21)
(0.712569 0.645222 0)
(0.84571 -0.265234 -6.86051e-20)
(0.0181992 0.0283972 -2.40057e-20)
(1.20165 0.0271016 -4.32764e-19)
(1.75482 -0.658818 3.77054e-21)
(1.01597 0.00134363 2.02481e-19)
(0.980092 0.0126686 0)
(-0.332137 0.187248 0)
(1.63184 -0.405129 0)
(-0.070699 0.331923 -6.13994e-20)
(0.49361 0.158233 -1.26382e-19)
(-0.179791 0.220544 8.25168e-20)
(1.19116 0.0303717 3.56514e-19)
(-0.185512 -0.0670378 4.88261e-21)
(1.02892 0.013498 -2.80698e-19)
(0.760333 -0.524372 0)
(0.759707 0.00762192 1.65533e-19)
(0.588821 -0.568343 -2.08866e-19)
(1.25719 0.748102 0)
(0.961159 0.0258062 -3.82829e-19)
(-0.0215804 0.108876 0)
(1.02275 -0.00556286 1.32718e-20)
(-0.0170305 0.311848 0)
(2.4154 -0.142378 1.36301e-19)
(-0.189233 -0.11398 -1.99534e-22)
(1.59528 0.810777 1.02214e-19)
(2.06438 0.0380479 9.8409e-20)
(0.52435 0.205609 -3.7629e-19)
(2.02975 0.247246 -2.89611e-19)
(1.42988 -0.406181 -1.80286e-20)
(-0.00440591 0.00269925 0)
(-0.139463 0.202501 0)
(1.832 -0.842254 4.47436e-20)
(-0.42295 0.252549 0)
(1.13992 0.303173 1.75862e-19)
(0.575284 -0.246821 3.22084e-19)
(0.89177 -0.758841 0)
(1.14977 -0.760042 1.53218e-19)
(2.38126 -0.206289 0)
(-0.324747 0.349213 1.67019e-19)
(-0.0111924 0.182185 9.07905e-20)
(0.660321 0.60985 9.06252e-20)
(2.01567 -0.718536 2.81603e-20)
(0.617095 0.327286 -3.02741e-19)
(-0.247355 0.156978 3.21279e-20)
(0.734637 -0.621887 0)
(1.62539 -0.930794 1.77354e-20)
(0.558945 -0.519454 0)
(2.39897 0.221084 9.21572e-20)
(1.10928 -0.15553 -4.44817e-19)
(1.86155 -0.0337226 1.26335e-19)
(1.39936 0.324057 -2.10355e-19)
(1.39162 0.565479 0)
(1.29455 -0.352321 1.97461e-20)
(1.40825 0.407738 -1.30535e-19)
(1.21512 -0.703552 -2.2286e-19)
(1.21508 0.695613 6.09341e-20)
(0.684668 0.115193 -6.22135e-19)
(0.82417 0.0917614 0)
(1.95804 -0.1303 -1.77553e-20)
(-0.00967875 0.0195293 -6.65082e-20)
(2.30328 -0.193259 -1.07016e-19)
(0.72311 0.00524113 -2.7567e-19)
(0.846129 -0.486908 0)
(0.84189 0.216571 -1.01638e-19)
(0.522343 -0.480441 -3.48932e-19)
(2.19894 -0.180801 0)
(1.00716 0.0102331 4.17432e-19)
(-0.189393 -0.113488 0)
(2.09825 0.40917 0)
(0.576853 0.0135105 8.38342e-20)
(1.28053 -0.338424 2.45214e-20)
(1.02276 0.00974272 4.66389e-20)
(1.36698 0.441289 3.25414e-20)
(0.965935 0.0258776 4.89622e-19)
(1.03533 0.0321322 -1.15947e-20)
(0.681783 0.225057 -3.68761e-19)
(1.54725 -0.390001 3.65807e-21)
(1.41482 -0.157147 0)
(-0.0702268 -0.0615909 5.05404e-20)
(0.83092 -0.592005 -2.00677e-19)
(-0.15293 0.424744 -2.26671e-21)
(1.09708 -0.0623099 2.9328e-19)
(0.801848 -0.149617 0)
(0.97122 0.0237635 4.66115e-20)
(1.41719 0.676351 0)
(1.57761 -0.918391 0)
(1.3465 0.236408 0)
(-0.364872 0.361457 0)
(0.760219 -0.633618 3.50883e-19)
(-0.21636 0.338163 -2.65804e-19)
(0.426823 0.160818 1.46999e-19)
(1.61877 0.199611 0)
(1.13428 -0.0908787 -2.68111e-19)
(1.12347 0.0244936 2.06471e-19)
(-0.0277726 0.392407 1.21484e-19)
(0.674931 0.550229 0)
(2.06536 -0.16134 -2.6992e-20)
(0.93806 -0.44866 9.82798e-20)
(-1.01216 -0.740657 1.48926e-19)
(1.82354 0.337538 1.07734e-19)
(-0.299964 0.383325 -2.50946e-19)
(0.790049 -0.717194 0)
(0.598888 0.401481 1.81995e-19)
(1.61249 -0.137808 -1.89153e-19)
(0.0290781 0.102916 -2.81318e-19)
(1.2746 0.771195 -6.29476e-21)
(1.90865 -0.291091 0)
(-0.0928126 -0.0810706 -1.50935e-19)
(0.702534 -0.0304153 8.75506e-20)
(1.61807 0.918614 0)
(-0.245233 0.248669 -2.32603e-19)
(0.926731 0.798984 -3.04524e-19)
(-0.325714 0.197092 2.57908e-19)
(1.03188 -0.0217795 0)
(1.50221 0.840884 7.93451e-21)
(-0.358528 0.382542 0)
(0.669059 -0.4591 -1.25522e-19)
(-0.310189 0.191734 -1.44262e-19)
(0.762831 -0.695231 0)
(0.406269 -0.2175 4.66654e-19)
(0.511431 -0.418653 3.23088e-19)
(0.399835 -0.361588 0)
(0.951837 -0.753971 -1.70682e-19)
(0.0578074 0.114061 0)
(-0.221802 0.311811 -1.30892e-19)
(0.781167 -0.667957 1.71129e-19)
(2.20718 -0.197512 6.98534e-20)
(2.2778 0.169968 0)
(-0.047318 -0.00554765 0)
(0.716985 0.666443 -3.82019e-19)
(1.72916 -0.593597 -3.22561e-20)
(0.0317975 0.0385216 0)
(0.951871 -0.777307 -1.81029e-20)
(1.12832 -0.0898382 0)
(1.06797 -0.108864 4.63952e-19)
(1.98116 -0.139335 -1.67768e-20)
(-0.356131 0.356197 0)
(1.18828 -0.530025 -7.26622e-20)
(-0.148169 0.404579 -4.00986e-20)
(-0.308995 0.424202 0)
(1.06253 -0.784881 1.173e-20)
(1.00648 0.00476689 -6.97236e-19)
(0.621962 -0.442749 -1.22482e-20)
(0.789045 -0.482913 0)
(1.16564 -0.70243 -1.27719e-19)
(0.678698 0.284498 2.83951e-19)
(1.26925 0.129718 0)
(1.55158 0.0809584 -3.0967e-19)
(1.16444 -0.826459 -3.06177e-19)
(-0.0586115 -0.0149726 -5.30459e-20)
(-0.135962 -0.0666083 -6.70988e-20)
(1.08232 0.0140631 2.61078e-19)
(0.8907 -0.434091 -1.236e-19)
(1.57481 -0.43513 -3.38644e-21)
(1.04175 -0.138625 -6.09216e-20)
(0.752496 -0.1247 6.26531e-20)
(-0.108191 -0.0569087 -1.41191e-19)
(1.71141 -0.131423 0)
(2.29241 -0.276084 6.78733e-20)
(1.49558 0.680176 1.65946e-19)
(0.779248 -0.582956 -2.55899e-19)
(0.994992 0.0096135 1.42841e-20)
(0.690906 -0.497453 3.45139e-19)
(1.35311 0.835669 1.48544e-19)
(1.92441 0.0395294 1.21226e-20)
(-0.339621 0.331791 0)
(1.0939 0.0643265 -2.70708e-19)
(-0.343181 0.037343 -1.12154e-19)
(1.11059 0.519273 8.93303e-20)
(0.157665 -0.127474 8.53111e-20)
(1.16094 0.0302204 -4.9621e-20)
(-0.172089 0.297972 -1.49083e-19)
(1.34355 0.613429 -9.03824e-20)
(1.18303 0.923901 0)
(-0.323897 0.318721 -8.10571e-20)
(0.0653083 0.145738 0)
(0.689447 0.598256 -3.02111e-19)
(2.15918 0.177534 -1.84259e-20)
(0.014736 0.0254076 8.43193e-20)
(-0.27202 0.200894 -4.27501e-19)
(0.73144 0.119123 2.73412e-19)
(2.12599 -0.0216699 -4.20508e-20)
(0.955877 -0.320718 -3.57595e-20)
(-0.0295764 -0.014421 0)
(-1.07944 -0.988701 3.30856e-19)
(1.37882 1.01092 -3.29219e-20)
(0.848293 0.111139 -1.50642e-19)
(0.583979 0.549171 2.10924e-19)
(0.444628 0.196935 0)
(-0.114783 -0.0771433 -9.64829e-20)
(-1.18176 -0.962865 2.84778e-19)
(1.26047 -0.92799 8.87662e-22)
(0.983787 -0.0138426 -2.17752e-19)
(-0.138825 -0.152864 5.42439e-21)
(-0.199862 0.222997 1.39508e-19)
(-0.236863 -0.187384 -1.019e-19)
(1.88247 -0.222925 0)
(1.1472 0.0512275 -3.64049e-19)
(2.41667 0.010299 1.86518e-19)
(1.23951 -0.592899 1.42048e-19)
(1.03617 -0.103579 -4.11564e-21)
(0.621285 0.381325 0)
(0.983812 0.785852 -1.8095e-20)
(0.715307 0.659611 2.0291e-19)
(0.868638 -0.533451 1.80758e-19)
(0.721467 0.542955 0)
(1.0201 0.00812346 9.34204e-21)
(0.852276 -0.633859 2.58277e-19)
(0.870144 0.459703 -5.00645e-19)
(1.18298 -0.0993652 0)
(0.0414732 0.0750076 -2.07935e-19)
(2.35874e-05 0.386576 -9.37132e-20)
(1.64327 0.754252 0)
(1.31114 -0.907516 -7.59576e-22)
(-0.357931 0.190393 0)
(-0.369007 0.397177 1.04579e-19)
(0.772567 0.688382 -1.07197e-19)
(0.83577 -0.186234 0)
(-0.173978 -0.0338022 0)
(1.59316 -0.433156 0)
(-0.0604383 -0.0501702 4.30106e-19)
(1.17617 -0.854516 2.00105e-19)
(1.14427 -0.577319 8.07107e-20)
(1.02631 -0.157949 -2.05135e-19)
(0.846645 -0.663491 -2.0554e-19)
(0.178639 -0.181784 0)
(-0.338112 0.252893 0)
(0.972806 -0.484186 2.17258e-19)
(-0.0133426 0.0171033 0)
(-0.355022 0.313766 0)
(0.00174717 0.125921 2.43801e-19)
(0.829704 0.706244 9.30332e-20)
(1.05357 0.829525 0)
(0.733446 0.593825 -9.22415e-20)
(0.828555 -0.00791077 -2.50655e-19)
(0.781864 0.600461 -2.47584e-19)
(0.621386 0.580138 -1.81518e-19)
(-0.0477083 0.00228225 1.2726e-22)
(0.694405 -0.621592 0)
(0.915952 0.206129 -3.58176e-19)
(-0.0342853 -0.00932355 2.94317e-20)
(0.632116 0.587307 4.1109e-19)
(0.997549 0.833513 0)
(-0.254264 -0.218314 3.27576e-19)
(-0.200112 -0.0455058 1.59556e-19)
(-0.182112 0.0920903 -7.95931e-20)
(0.700667 0.60902 -1.59881e-20)
(0.968847 -0.00681351 6.74311e-20)
(-0.0145699 -0.000932038 0)
(2.10961 -0.153088 -7.3993e-20)
(1.67332 -0.370106 -1.53631e-19)
(0.627211 -0.578959 -9.14389e-20)
(-0.231894 0.216173 9.12231e-21)
(1.23394 0.486565 2.04735e-19)
(0.917005 0.448617 0)
(1.02589 -0.156012 2.29869e-19)
(-0.190481 -0.0504163 1.64505e-22)
(-0.11499 0.223952 3.45701e-19)
(0.910377 0.0205132 -6.08542e-20)
(1.1605 0.160169 0)
(1.79113 -0.0412704 -3.25648e-20)
(1.97563 0.0619784 0)
(0.567174 0.309434 -4.95858e-19)
(-0.232319 0.267125 0)
(-0.0107039 0.0217307 1.29982e-19)
(0.670765 0.0947052 0)
(0.590037 -0.477347 -2.11119e-19)
(1.13353 0.0216549 2.40966e-19)
(-0.373381 0.320707 3.58483e-20)
(2.07866 -0.0683486 7.14369e-22)
(1.9697 -0.188947 -3.90909e-20)
(1.14318 0.249155 -2.46225e-19)
(-0.0353493 -0.0187951 -5.73743e-20)
(1.042 -0.821883 0)
(0.807142 0.0170463 -1.75231e-19)
(0.90293 -0.34757 -3.37875e-19)
(1.67641 -0.551313 5.04569e-21)
(1.64005 0.0141028 -1.24915e-20)
(1.09499 -0.0010747 4.35543e-19)
(-0.151849 -0.0251102 -6.77426e-20)
(0.969311 -0.410387 -1.52311e-19)
(0.187089 -0.179615 2.96877e-19)
(1.0082 -0.00644599 0)
(1.00439 -0.00420511 0)
(0.137408 -0.0661706 1.93614e-20)
(-0.1872 0.350233 -9.2925e-20)
(0.199555 -0.111639 -7.87468e-20)
(1.8722 -0.0523222 6.08371e-21)
(1.00709 -0.0994163 0)
(2.00509 -0.0247292 -1.24435e-19)
(0.914339 -0.793573 -1.21454e-19)
(1.74514 -0.534218 -2.12627e-20)
(1.14764 0.872391 0)
(0.448468 -0.427848 0)
(0.641434 0.558791 -1.90765e-19)
(1.12914 0.301901 -4.52393e-19)
(2.14267 -0.227798 7.28366e-23)
(0.877978 0.189318 1.53934e-19)
(-0.127193 -0.0508078 -1.73154e-19)
(1.50946 -0.257471 1.19656e-20)
(-0.10692 -0.0909898 0)
(-0.0945112 -0.0289144 0)
(-0.0314264 0.0168458 0)
(1.30261 -0.696113 -1.42132e-19)
(-0.306923 0.444748 -2.06039e-19)
(-0.181654 0.291862 0)
(1.33677 1.01281 -4.24587e-20)
(1.13899 0.166369 -4.7401e-19)
(2.63552 0.330646 -1.16748e-19)
(1.12195 0.95896 9.85101e-20)
(-0.269624 0.424962 1.29008e-19)
(1.21475 -0.0720366 0)
(-0.0355254 0.0400738 -1.87432e-19)
(-0.334755 0.422714 2.42711e-19)
(0.782653 0.0681298 2.04085e-19)
(1.58808 0.983624 -2.00277e-20)
(1.85721 0.946819 -4.91082e-20)
(-0.180653 0.418758 -1.69178e-21)
(0.719289 -0.655344 -4.65569e-20)
(1.16893 -0.0297039 0)
(1.75533 -0.0159851 0)
(0.969441 0.0454387 0)
(-0.623326 -0.421991 -3.51551e-19)
(-0.062349 -0.0168865 5.92295e-20)
(1.08849 0.879886 0)
(0.993747 0.0116093 5.84037e-19)
(0.80476 0.643097 -2.47817e-19)
(-0.945583 -0.824309 -1.77556e-19)
(0.867945 0.0479153 -4.61404e-20)
(0.688874 -0.626314 -2.67249e-19)
(1.43455 0.740433 -3.89726e-20)
(0.531961 -0.408492 -3.3368e-19)
(1.13311 0.00430883 -5.23728e-19)
(0.793497 0.0445855 5.23912e-20)
(1.47338 -0.174026 1.09886e-19)
(1.57993 -0.0659905 -6.47579e-20)
(-0.00686294 0.00665635 1.96676e-22)
(1.11448 0.500022 -2.98027e-19)
(1.37499 0.646257 6.85433e-20)
(-0.241146 0.0462293 0)
(-0.105566 -0.101686 6.53699e-20)
(0.0539978 0.145972 8.89735e-20)
(-0.165334 -0.139344 -7.0544e-20)
(0.512904 0.377201 0)
(1.5778 0.0993195 0)
(-0.0222272 0.0303481 -1.25451e-19)
(-0.0713829 -0.0302135 -2.9605e-20)
(1.05187 -0.0270031 2.07614e-19)
(-0.326699 0.359809 -4.06025e-20)
(1.49557 -0.147725 -3.8845e-19)
(-0.0888814 0.371071 0)
(0.804643 -0.711783 -3.801e-19)
(1.41854 -0.0554459 9.42221e-20)
(-0.236606 0.0125321 7.04257e-20)
(0.734913 0.203539 3.59499e-19)
(0.636459 0.192965 1.15564e-19)
(0.477674 -0.44945 2.35499e-19)
(0.0333939 0.039414 -7.10426e-20)
(1.87527 0.893896 0)
(0.429153 0.402044 -2.0748e-19)
(1.03037 -0.0111841 -3.30467e-19)
(-0.299635 0.200184 1.70005e-19)
(1.47077 0.506933 -1.42001e-19)
(-0.0179379 0.0188179 -2.62613e-20)
(0.665616 -0.6067 -1.06047e-19)
(0.837286 0.22168 -2.26772e-19)
(1.00839 0.456528 2.53378e-20)
(1.13071 -0.124007 4.14882e-20)
(0.589368 -0.183284 -3.38106e-19)
(1.93786 -0.303327 -1.36151e-20)
(1.67084 0.000409579 0)
(2.20115 0.256357 -6.47119e-20)
(2.11049 -0.130656 1.10065e-20)
(0.366826 0.0256851 2.7899e-20)
(0.975464 0.371262 -1.66521e-19)
(1.50249 -0.361 -4.13429e-20)
(0.451313 0.428711 -2.69909e-19)
(-0.283819 0.0970109 1.88006e-19)
(1.72319 -0.1101 0)
(0.944966 0.00786091 0)
(0.844125 -0.745579 7.78831e-20)
(-0.194865 -0.0325883 -1.7511e-19)
(-0.280733 0.277236 -1.74956e-19)
(-0.00608692 0.0117576 -1.12281e-19)
(-0.336652 0.254006 -1.29898e-19)
(-0.161617 -0.0349872 0)
(-0.0908911 -0.0427777 2.02544e-20)
(0.207818 0.408538 -9.26886e-20)
(-0.216287 0.234553 -3.17969e-19)
(0.791451 -0.0752467 0)
(1.75452 -0.279623 7.04627e-20)
(0.0440118 0.0826038 0)
(0.992986 0.0246571 4.2059e-19)
(-0.121291 -0.0701626 1.33946e-20)
(0.508682 -0.380069 4.47391e-19)
(-0.354403 0.116807 1.85851e-19)
(-0.885719 -0.441208 0)
(0.103973 0.27598 1.07842e-19)
(1.00002 0.0275666 -1.26853e-20)
(-0.0683207 -0.079028 0)
(1.00487 -0.0081953 -6.52224e-20)
(0.82948 -0.697144 -3.5456e-19)
(1.32379 -0.354128 0)
(0.915053 -0.243195 2.41564e-19)
(-0.0734599 0.218268 1.93995e-19)
(-0.0424349 -0.034752 0)
(-0.105616 -0.0887875 -2.62893e-21)
(0.69633 -0.602974 -5.01598e-19)
(0.935998 -0.0220247 -3.10647e-19)
(-0.198428 -0.0142796 2.02912e-19)
(-0.0454244 0.00492301 7.93244e-20)
(-0.122049 -0.0674195 0)
(0.990853 0.506983 0)
(-0.200952 -0.00919586 7.21533e-20)
(1.40965 -0.257839 -6.56816e-20)
(1.11651 0.933395 2.13289e-20)
(1.09215 0.231423 -1.39513e-19)
(1.11695 0.0105319 -2.63871e-19)
(1.01671 -0.0589762 -9.80652e-20)
(-0.160591 -0.0410043 -1.86532e-19)
(1.94573 0.0718502 3.7333e-19)
(0.706273 0.0412556 2.37153e-19)
(1.86933 -0.120397 6.14553e-20)
(1.02224 -0.136409 0)
(0.138456 -0.225288 2.26049e-19)
(1.14302 0.0273481 -5.69808e-19)
(1.80565 0.646876 2.27012e-20)
(0.712123 -0.418435 -1.8552e-19)
(-0.0899945 -0.0769781 1.12907e-19)
(0.76862 -0.671781 4.62531e-19)
(1.27604 0.20997 8.53537e-20)
(1.00735 -0.00803226 2.88738e-19)
(-0.14447 -0.0745095 -7.47642e-20)
(1.03201 0.0274941 0)
(2.10323 0.0590261 -2.05898e-19)
(-0.0616886 -0.0444424 0)
(1.01473 0.0159154 -1.71418e-19)
(-0.865566 -0.574323 -4.79791e-19)
(1.7751 0.323727 4.58901e-20)
(0.0201005 0.171414 1.18598e-19)
(1.66356 0.0363714 3.90121e-21)
(1.01566 -0.0158418 5.98535e-20)
(1.26523 -0.0831197 0)
(1.40433 -0.585275 -2.1854e-19)
(1.02929 0.0480057 -1.76502e-19)
(1.49289 0.822952 -7.63823e-20)
(1.29333 -0.0542498 0)
(0.496125 0.321679 -5.77275e-21)
(-0.0268211 0.0358846 0)
(1.27188 0.0454902 0)
(-0.0449534 -0.0277831 0)
(1.28031 0.472955 0)
(1.97335 0.300776 4.62549e-20)
(0.778505 0.652792 4.34566e-19)
(0.278718 -0.279676 -2.78848e-19)
(-0.0739585 -0.0194426 -1.86083e-19)
(-0.0410532 -0.0186791 0)
(2.33547 -0.171622 8.23499e-20)
(1.39152 0.543543 0)
(1.5133 0.304841 0)
(-0.0638511 0.0494676 8.14704e-20)
(0.844062 0.746821 1.42247e-19)
(1.59547 -0.0204727 0)
(0.0326068 0.0433367 4.6397e-20)
(0.929541 0.253325 2.10067e-19)
(1.87725 -0.091261 -5.73034e-20)
(1.28865 0.964648 5.302e-20)
(0.891439 -0.80109 -5.72561e-20)
(1.58516 -0.0423379 -3.40773e-20)
(0.829959 0.750439 1.46611e-19)
(1.22386 0.962803 0)
(2.04557 -0.165982 1.18816e-19)
(0.444387 -0.6425 0)
(1.5213 -0.328284 3.45724e-20)
(1.03787 0.12757 1.72067e-19)
(1.0057 -0.00268421 0)
(-0.59475 -0.708364 3.18355e-19)
(0.874641 -0.1404 5.49324e-20)
(0.600711 -0.366732 0)
(0.642536 -0.339372 2.41218e-19)
(1.28307 0.586193 -3.79979e-20)
(0.502817 0.476499 2.98749e-19)
(-0.246816 0.281582 3.76515e-20)
(0.229893 0.041566 9.26556e-20)
(0.734946 0.0619114 0)
(1.28699 -0.869801 -1.46503e-19)
(1.03723 -0.0424852 4.60828e-19)
(1.56169 0.354088 1.31889e-19)
(0.0321029 0.0401904 3.97105e-20)
(-0.429901 0.00932032 0)
(1.20059 -0.223878 -1.39058e-19)
(-0.0394406 -0.0293484 -9.32602e-20)
(-0.64857 -0.643417 -2.19987e-20)
(-0.139756 0.0525493 -7.19215e-22)
(-0.216622 0.101694 2.82107e-19)
(1.14906 -0.259769 -1.79221e-20)
(2.18187 -0.144098 9.91052e-20)
(1.23585 0.487351 -3.30176e-19)
(0.90315 -0.0678585 0)
(1.89716 -0.0759049 2.00236e-19)
(1.7375 0.0596426 2.09977e-20)
(0.8795 -0.736224 1.7735e-19)
(1.12226 -0.942218 -8.18287e-20)
(0.506185 0.47152 2.01349e-19)
(0.684998 -0.371001 0)
(1.82832 0.604386 1.84431e-20)
(-0.0459615 -0.0307303 -1.89867e-19)
(0.922167 0.806122 0)
(1.5502 0.898952 0)
(0.278592 -0.277371 -3.58118e-21)
(0.360254 0.359242 0)
(-0.483729 0.0456927 -2.00482e-19)
(-0.329984 0.373668 -1.10707e-19)
(1.70394 -0.402946 0)
(1.31375 0.0758991 2.29389e-19)
(-0.244458 0.188926 1.46477e-19)
(0.510577 -0.483258 -5.46875e-19)
(1.81823 -0.0526107 -1.53719e-20)
(0.586563 -0.529958 0)
(1.06981 0.140159 0)
(1.35951 -0.224615 0)
(1.14465 0.247254 -2.64976e-19)
(1.39094 0.113683 3.78221e-19)
(-0.761138 -0.195604 0)
(0.861921 -0.0507027 0)
(1.9977 -0.0731772 6.35823e-22)
(-0.168766 0.311462 9.62852e-20)
(2.34116 -0.101852 -2.45734e-19)
(1.05335 -0.488029 9.53359e-20)
(1.92217 0.00682953 -2.58215e-19)
(-0.298588 0.238581 -1.12325e-19)
(2.01699 0.0616003 -1.68283e-19)
(1.01531 -0.0120718 4.75562e-19)
(1.57607 0.631779 0)
(-0.360942 0.396942 2.98483e-20)
(0.970046 -0.799356 2.29424e-19)
(0.855297 0.0161979 5.39307e-20)
(0.603806 -0.390702 0)
(1.84147 -0.496084 -5.38792e-21)
(1.17688 -0.177647 1.86316e-19)
(1.68676 -0.191979 0)
(0.584924 -0.542252 5.55447e-19)
(1.46298 0.155246 -1.95985e-20)
(2.45592 -0.117603 4.23227e-19)
(-0.217843 0.373847 -2.00869e-19)
(1.38185 0.650002 1.73451e-19)
(1.18691 0.433646 4.11921e-21)
(0.934975 0.408968 2.4759e-19)
(1.49442 -0.208917 -9.05161e-20)
(-0.153015 -0.0474267 7.37872e-22)
(0.373357 -0.0418815 0)
(-0.131617 -0.102649 1.85639e-19)
(1.05917 -0.918563 0)
(1.02915 -0.623483 2.71615e-20)
(0.661616 -0.197648 -1.62305e-19)
(1.5589 0.413105 -4.21222e-20)
(-0.181812 0.0506474 -1.88683e-19)
(1.02518 0.517525 1.93443e-19)
(-0.752933 -0.715238 3.88158e-19)
(0.705571 -0.0406311 0)
(1.78976 -0.0418737 0)
(2.01312 -0.0457333 2.02044e-21)
(0.770003 -0.0111969 0)
(1.32315 -0.196843 -1.91717e-19)
(-0.396228 0.242032 3.05903e-19)
(1.98839 0.519458 -6.46719e-21)
(1.05463 -0.0314876 0)
(0.522847 -0.301065 1.20352e-19)
(1.00824 0.0262603 2.25501e-19)
(0.225845 -0.522126 -3.41462e-19)
(-0.247299 0.163472 0)
(1.07663 -0.451518 6.01477e-19)
(1.70945 -0.0266213 -3.60742e-22)
(1.06853 -0.46878 -2.61469e-19)
(2.40128 0.230488 1.5705e-19)
(1.33573 0.827306 0)
(0.885342 0.0242956 0)
(0.00837663 0.0337407 -1.04464e-19)
(-0.0251806 0.0347443 1.41179e-19)
(0.98128 0.398473 -2.30118e-19)
(-0.097672 -0.0749621 -5.29684e-20)
(0.679988 0.455733 2.61332e-19)
(0.719796 0.371297 0)
(0.516511 -0.479829 0)
(0.00783463 0.0844994 2.37743e-21)
(1.1954 -0.480863 -1.26531e-19)
(0.754292 0.0133282 6.98261e-21)
(0.723805 -0.10955 1.3289e-19)
(-0.125132 0.226065 -2.53551e-19)
(1.18104 0.0700501 2.22983e-19)
(0.693771 0.647851 0)
(1.31919 0.729183 0)
(1.6752 0.270524 0)
(-0.121296 -0.0384939 -7.93137e-20)
(1.31318 0.59494 1.90371e-19)
(1.92474 -0.00430584 1.49961e-20)
(0.962517 -0.0195345 0)
(2.31444 -0.271623 0)
(2.12964 -0.0797358 -2.86257e-19)
(0.541526 -0.335748 4.12216e-19)
(1.00529 0.00618813 -2.25345e-19)
(1.54468 0.503858 0)
(-0.310875 0.220312 0)
(1.28673 0.341762 3.27667e-19)
(1.06129 0.560849 -1.44756e-19)
(1.07894 0.0330472 0)
(1.12555 -0.26158 0)
(2.07316 0.703345 -2.71539e-19)
(-0.185705 0.460915 -3.90776e-21)
(0.993646 0.0157485 0)
(0.743628 0.517644 -3.62084e-20)
(0.903721 -0.795257 0)
(1.00226 0.0178799 5.24676e-20)
(-0.797641 0.00795257 -2.19235e-20)
(0.879751 -0.292144 3.57142e-19)
(0.181869 -0.40401 -1.40307e-20)
(2.0103 -0.114068 6.66068e-20)
(2.02198 0.124371 1.11327e-19)
(0.775476 -0.0219693 0)
(1.0014 0.0135844 0)
(-0.316064 0.0547839 0)
(0.696964 0.667916 -2.0819e-19)
(-0.0933033 0.155775 1.71081e-19)
(1.20281 0.373866 -5.24762e-19)
(-0.348843 0.273006 0)
(0.868081 0.681624 1.83581e-19)
(0.981649 -0.304959 0)
(1.00556 0.000115981 1.31803e-19)
(-0.107443 -0.501808 3.23198e-20)
(1.0701 0.434118 2.86771e-19)
(1.44041 0.157325 0)
(2.25919 0.128349 -7.19715e-20)
(0.818593 -0.0758889 -4.10576e-19)
(-0.562156 -0.00439052 -2.74537e-19)
(0.73591 -0.288313 0)
(0.901969 0.27641 1.93091e-19)
(1.80357 -0.178691 0)
(0.812261 0.562408 3.94406e-19)
(-0.483475 0.193672 1.2548e-19)
(-0.129883 0.22474 0)
(0.621666 0.592397 -7.70702e-20)
(0.993614 -0.610535 -1.89337e-19)
(0.449692 -0.186551 -1.36448e-19)
(1.01934 -0.00609988 0)
(-0.242861 0.110343 -1.5325e-19)
(0.608498 -0.537037 9.47476e-20)
(0.931875 0.323276 0)
(1.63053 -0.12369 7.00156e-20)
(1.02423 0.87404 2.72474e-20)
(0.699895 -0.080799 5.51041e-21)
(0.0756265 0.106549 -1.24473e-19)
(0.203834 0.0683601 -6.04636e-19)
(-0.0536802 0.00186926 4.85692e-21)
(0.849646 0.397231 2.70035e-19)
(-0.326295 0.425521 -5.044e-21)
(1.37131 -0.620737 3.19408e-21)
(1.02139 0.0205098 -3.92925e-19)
(-0.182131 0.0103574 0)
(1.03823 0.0461339 -4.61039e-19)
(1.90518 -0.263995 7.52649e-20)
(0.927254 0.727285 3.10127e-19)
(1.11954 -0.0578174 1.85659e-19)
(1.00079 -0.0139788 1.81778e-19)
(1.73179 0.493743 3.79547e-20)
(0.0461495 0.053878 3.20383e-22)
(1.68851 -0.836522 1.46677e-20)
(1.09919 -0.119963 -9.78521e-20)
(0.751605 0.0444655 1.13197e-19)
(0.887213 -0.262896 1.0314e-19)
(1.82326 0.233864 0)
(1.00287 0.771666 0)
(0.391389 -0.472633 -3.85322e-20)
(2.11055 0.212999 -1.84251e-20)
(-0.355013 0.145942 1.0487e-19)
(0.999059 -0.50926 -6.24589e-19)
(0.586077 -0.498773 4.50032e-19)
(1.39446 0.183716 -1.34031e-19)
(-0.168311 -0.0655176 6.82796e-21)
(1.5167 -0.295911 0)
(0.762606 0.159497 -7.43905e-21)
(1.56513 -0.210268 -6.97082e-20)
(1.08181 0.797923 0)
(0.65935 -0.252364 0)
(0.298046 0.212417 0)
(0.00571569 0.0320668 -3.13697e-20)
(-0.139096 0.177487 0)
(1.37079 -0.149568 4.67294e-19)
(1.25595 0.193694 7.30022e-21)
(-1.00926 -0.632039 1.8392e-19)
(2.05657 0.854004 3.05501e-20)
(1.90507 0.484771 -4.91646e-20)
(2.03705 -0.287849 -9.90056e-21)
(-0.184137 0.0165548 -1.9734e-19)
(-0.121628 -0.0841865 1.95904e-21)
(1.81228 0.180003 0)
(0.684777 -0.0350347 0)
(1.00097 0.000828744 1.91337e-22)
(-0.139598 -0.0175768 0)
(1.41462 0.00338626 1.77827e-20)
(0.68369 -0.031299 0)
(1.04062 0.012976 1.49336e-19)
(0.989756 0.0167001 -5.12769e-20)
(1.23968 0.101743 1.3204e-19)
(1.07279 -0.0124219 -1.05473e-21)
(0.929704 -0.16613 -6.20609e-20)
(1.01843 -0.0195579 4.23198e-19)
(0.641173 -0.576847 2.15776e-19)
(-1.1323 -0.942105 -2.41972e-19)
(1.48845 0.672258 -1.24292e-22)
(-0.0324613 0.0573174 0)
(1.1697 0.830922 0)
(1.02195 0.00708512 0)
(0.969356 -0.743009 -1.35045e-19)
(1.00583 -0.86117 8.80925e-20)
(1.12918 0.533906 2.49353e-20)
(-0.54396 -0.441126 -4.48552e-19)
(0.570291 0.0273702 1.10967e-20)
(0.554046 -0.33488 -7.16306e-19)
(1.87963 0.477146 -8.7613e-20)
(0.119942 0.0512996 -6.27429e-20)
(1.97488 -0.25024 1.68721e-20)
(1.06851 0.126797 2.20159e-23)
(0.0264433 0.0370552 -6.75537e-20)
(1.15304 0.585177 2.21795e-19)
(-0.269884 -0.124843 0)
(-0.0919398 -0.110179 1.19966e-19)
(-0.123556 -0.0721668 -1.47896e-22)
(1.02912 -0.0431153 3.77572e-19)
(1.02027 0.0113856 -9.74635e-21)
(1.11141 -0.008051 -1.04357e-19)
(1.40618 0.374284 2.16418e-21)
(1.69469 0.333494 7.28633e-20)
(0.373764 -0.346937 -3.59293e-19)
(0.738069 0.461807 -4.63273e-20)
(1.02873 0.0131222 -2.78993e-19)
(1.59361 0.574315 1.28013e-22)
(1.21582 0.48796 0)
(1.15131 0.623705 -4.16191e-19)
(1.00284 -0.00322492 1.07537e-19)
(0.711954 0.641324 2.8045e-19)
(1.13722 -0.281579 -2.68888e-21)
(1.07922 -0.00390307 -3.43374e-20)
(1.13657 0.0200562 9.74284e-22)
(2.35287 -0.0280007 1.54674e-20)
(0.989509 0.267497 0)
(1.04375 -0.0394173 0)
(1.04775 -0.034171 6.60396e-19)
(1.00263 -0.00208938 0)
(-0.0690283 -0.0323753 0)
(0.941321 -0.559472 0)
(1.00076 0.00014178 -6.25556e-19)
(1.12047 -0.652621 1.12833e-19)
(1.02162 0.00111385 1.31826e-20)
(1.39437 0.994371 -3.45412e-20)
(1.58349 1.04427 4.1745e-20)
(0.575351 -0.118444 -2.0368e-20)
(1.23505 -0.271286 1.25028e-19)
(2.06021 0.11933 0)
(-0.0550601 0.40705 0)
(1.80942 -0.140693 1.29812e-19)
(0.936923 -0.340208 0)
(0.999833 -0.00451757 -1.93227e-19)
(1.0109 -0.000947877 3.75684e-19)
(1.49702 0.146844 -8.0042e-20)
(0.020907 -0.11464 1.47583e-19)
(0.980811 0.00177346 2.0456e-19)
(0.257429 0.0828405 -3.60317e-20)
(0.801101 -0.11346 2.95136e-20)
(1.44544 0.405735 -1.04145e-22)
(0.92481 0.0186638 -2.07045e-19)
(1.00351 0.00469173 2.43164e-19)
(1.00016 0.000149759 1.43556e-20)
(0.790506 -0.0129562 0)
(0.730529 -0.0264775 0)
(0.726524 -0.0269782 7.91337e-22)
(0.70356 -0.0292573 0)
(1.429 -0.0838116 0)
(1.18937 -0.16397 0)
(0.704191 -0.124799 -5.14726e-20)
(0.522964 -0.101434 2.88966e-20)
(1.52648 -0.439696 0)
(1.22512 -0.0309135 3.93081e-20)
(1.58504 0.292971 0)
(0.0533028 0.206994 0)
(0.22895 0.068216 0)
(0.596087 0.180213 -4.05938e-21)
(1.45281 0.255432 1.97228e-20)
(0.773402 0.0242594 0)
(0.785976 0.0202433 0)
(0.963784 0.0217142 -2.54969e-19)
(0.815374 0.00775008 4.74023e-19)
(1.00793 -0.00130851 0)
(1.00012 -0.000442239 4.49215e-19)
(1.00028 -0.000602768 -2.9272e-22)
(0.783703 0.022455 4.04969e-19)
(0.998358 -0.00512868 -2.34818e-19)
(-0.0202435 0.200924 0)
(0.940236 -0.162578 -2.9533e-20)
(1.00072 -0.000623844 -2.26855e-19)
(1.00005 0.00188801 -3.89641e-19)
(1.06579 0.243306 0)
(0.998852 0.00168349 0)
(0.999703 0.000416167 0)
(1.67447 -0.395628 -1.80117e-20)
(0.0642272 0.196748 4.66972e-20)
(1.06578 0.558155 0)
(-0.323254 0.340501 1.9061e-19)
(-0.214123 -0.46808 -3.15867e-19)
(1.02102 -0.00920928 -3.02948e-19)
(-0.0632052 -0.0517558 -5.70827e-20)
(1.01742 0.011369 -2.44177e-19)
(1.13457 -0.200256 -1.37913e-19)
(0.769151 -0.436289 3.52608e-19)
(-0.0196596 0.00303259 -4.54155e-20)
(1.02823 0.0176238 0)
(1.07075 -0.00857903 -6.6132e-20)
(0.841374 0.0270833 0)
(-0.0830629 0.138761 2.4866e-19)
(0.828449 -0.154149 0)
(-0.0875588 -0.0253257 -1.5409e-19)
(0.584255 0.149669 3.75663e-20)
(1.72024 0.714637 -3.86927e-20)
(-0.0597925 0.00375501 0)
(1.05195 -0.0371602 2.04318e-19)
(0.282164 0.11021 3.63295e-21)
(0.930558 0.0158612 3.18343e-19)
(1.01322 -0.00475788 -2.06214e-19)
(1.73656 0.89848 2.31745e-20)
(0.5543 0.52394 0)
(0.483098 0.452187 2.17106e-19)
(2.15026 -0.31885 -1.11062e-21)
(1.1798 0.13787 2.20148e-19)
(1.0519 -0.6813 0)
(1.02471 0.00928173 0)
(1.00014 -0.0166863 -4.74251e-19)
(1.01827 0.0186981 -4.63575e-19)
(-0.0825453 -0.0136627 0)
(1.2683 0.858315 -1.51619e-19)
(1.3632 -0.373352 2.86293e-21)
(1.01631 0.0089882 1.78353e-19)
(1.0115 0.0160559 -2.23573e-19)
(-0.102826 0.0388746 -1.59623e-20)
(0.437962 -0.0640742 -9.98908e-20)
(1.01962 -0.00987901 7.6019e-19)
(1.52417 -0.368329 0)
(1.92932 0.682747 -2.92532e-20)
(1.01666 -0.00715451 -2.3691e-19)
(1.98972 -0.0143611 -5.67903e-20)
(1.06859 0.0152428 -5.46053e-22)
(1.00974 -0.00815449 4.72974e-20)
(1.90229 -0.175702 -6.80085e-20)
(1.01517 0.00858569 2.29999e-19)
(1.05222 0.729978 7.43011e-21)
(1.01829 0.0104993 0)
(0.950852 0.178193 5.53626e-20)
(-1.02507 -0.47366 3.28379e-21)
(0.997334 0.023024 2.28376e-19)
(1.03902 0.0218153 -5.72554e-22)
(1.0399 -0.258097 -1.53247e-20)
(1.29661 0.334502 4.74502e-19)
(0.993341 0.0188178 1.57349e-19)
(1.01802 -0.0102631 5.02009e-22)
(1.81987 0.254678 -3.03572e-20)
(1.84754 0.987652 -1.00639e-19)
(0.74632 -0.668567 7.37781e-20)
(0.416357 -0.265601 -3.4434e-19)
(1.00816 -0.00778972 0)
(1.01908 0.00579583 5.71132e-20)
(1.01154 -0.00589887 1.20356e-19)
(0.994388 0.586334 7.87438e-21)
(1.01455 0.0107801 -2.39495e-19)
(1.02342 -0.0135472 2.75148e-19)
(1.00879 -0.00501208 -2.24916e-19)
(1.01399 0.00986985 -5.16684e-22)
(1.01312 0.00618683 -3.7073e-22)
(1.02356 0.0186757 2.29435e-19)
(0.913417 0.118316 5.69822e-19)
(1.98141 0.342292 0)
(0.109658 -0.492201 7.16009e-20)
(1.01011 0.00131045 0)
(1.02333 -0.0100807 -6.64459e-20)
(1.59507 0.467232 -1.02798e-19)
(1.88513 -0.118762 0)
(1.91531 -0.0812115 -8.60206e-20)
(1.44067 -0.0108346 -9.4522e-20)
(0.785398 -0.018708 0)
(1.62903 -0.218306 0)
(0.366139 -0.0376407 -4.93804e-19)
(1.29176 0.256769 -4.18449e-20)
(1.01797 0.00118965 -2.41206e-19)
(1.08383 -0.536184 -7.48803e-20)
(0.848801 -0.158085 -5.57425e-20)
(1.0268 0.795473 0)
(1.47261 -0.291634 0)
(2.29667 0.192496 0)
(0.0750134 0.226526 9.75666e-20)
(0.966789 0.445426 7.83158e-20)
(-0.717987 -0.330115 0)
(-0.14106 0.203761 -2.20164e-19)
(1.76111 1.00774 -3.4042e-20)
(1.00731 0.000145729 -4.71382e-19)
(0.72096 0.316487 5.53704e-20)
(1.02092 0.0170347 3.12443e-19)
(0.707191 -0.0443098 0)
(-0.130277 -0.0408124 -1.40147e-20)
(0.650001 0.482763 -3.68988e-19)
(1.86669 0.367381 2.99576e-19)
(0.0532208 0.256362 0)
(0.753439 0.0726725 9.61257e-20)
(0.549454 0.527814 5.59585e-20)
(1.23294 0.922626 -4.13047e-20)
(-0.0683553 -0.0574064 7.03793e-20)
(1.02441 0.023297 0)
(0.973007 0.578078 2.04223e-20)
(1.01156 0.00219446 1.76925e-19)
(2.38745 0.0514321 0)
(1.01172 0.0117391 2.96801e-19)
(-0.0505141 -0.0827961 -5.5145e-20)
(1.01874 0.0168996 -1.8384e-19)
(1.53173 0.977042 0)
(2.30899 -0.204754 3.9017e-22)
(1.00858 0.0068932 -1.23196e-19)
(0.995809 -0.00916303 3.24617e-19)
(1.1166 0.110926 -3.43193e-21)
(1.10171 0.795901 1.30816e-20)
(-0.124759 -0.111631 1.89345e-19)
(2.12059 0.287874 1.74119e-19)
(0.171992 0.465353 -1.74858e-20)
(0.80003 0.0145214 -4.45055e-19)
(0.827161 0.0311666 0)
(0.0841162 0.134463 3.76101e-20)
(1.02484 -0.0057441 -3.56913e-20)
(0.971326 0.0471756 0)
(1.05529 0.00680602 -2.2633e-19)
(-0.581029 0.314061 3.25303e-20)
(-0.544885 0.0281605 1.08657e-19)
(2.08713 -0.530451 0)
(-0.531963 -0.164915 -5.83014e-19)
(1.46333 -0.326691 0)
(1.04239 -0.0154636 6.63765e-20)
(0.882193 0.328493 1.54613e-21)
(1.01267 0.00490082 1.91533e-19)
(-0.29291 0.262819 2.97571e-19)
(1.01973 0.00821457 0)
(0.994613 0.00373426 -4.58576e-19)
(1.00849 0.0101057 2.43368e-19)
(1.03336 -0.308645 0)
(0.381073 0.131282 -6.5371e-21)
(0.957028 -0.00114522 -2.07787e-19)