/*--------------------------------*- C++ -*----------------------------------*\
| =========                 |                                                 |
| \\      /  F ield         | OpenFOAM: The Open Source CFD Toolbox           |
|  \\    /   O peration     | Version:  2306                                  |
|   \\  /    A nd           | Website:  www.openfoam.com                      |
|    \\/     M anipulation  |                                                 |
\*---------------------------------------------------------------------------*/
FoamFile
{
    version     2.0;
    format      ascii;
    arch        "LSB;label=32;scalar=64";
    class       surfaceScalarField;
    location    "41.2";
    object      phi;
}
// * * * * * * * * * * * * * * * * * * * * * * * * * * * * * * * * * * * * * //

dimensions      [0 3 -1 0 0 0 0];

oriented        oriented;

internalField   nonuniform List<scalar> 
3181
(
-0.988772
0.375409
0.613363
-0.379452
0.352248
0.027204
0.500793
-0.346757
-0.154037
0.108342
-0.183032
0.0746905
-0.0411995
0.0779555
-0.0367559
1.25968
-0.704951
-0.554729
0.140855
-0.13493
-0.00592439
-0.0203436
0.00207782
0.0182658
0.463234
-0.760757
0.297523
-0.0775277
0.124277
-0.0467489
-0.0107359
-0.0553476
0.0660835
0.159226
0.0268035
-0.186029
-0.00997003
0.023519
-0.0135489
-1.09786
0.156753
0.94111
-0.304614
0.674219
-0.369605
-1.12429
0.644613
0.479673
0.0839991
-0.929972
0.845973
-0.204031
0.308313
-0.104282
0.259653
-1.00995
0.00504927
0.0632414
-0.0682907
0.0601955
-0.100265
0.04007
-0.0766205
0.0724202
0.00420031
1.06179
-1.04142
-0.0203787
0.0401766
0.0196933
-0.0598699
-0.958075
0.335015
0.62306
-0.104716
0.213057
0.299022
-0.26247
-0.0365521
0.0277107
0.0588374
-0.086548
-0.436464
0.36079
0.0756736
-0.036069
-0.0221343
0.0239522
-0.00181795
-0.0458431
-0.912232
0.0670406
-0.0686068
0.00156617
0.35675
0.994453
-1.3512
-0.0564821
0.0431532
0.0133289
0.189538
0.293198
-0.482735
1.56884
-1.21209
0.0797187
-0.0195232
1.66976
-0.907332
-0.762428
0.0595329
1.20015
0.0225278
-0.0324978
-0.0681846
-0.00843593
-0.398714
0.0941
-0.163201
0.095016
-0.658595
0.124278
0.534317
-0.133871
0.056343
-0.16158
0.165479
-0.00389914
-0.255181
-0.0760478
0.331229
-0.307976
1.60416
-1.29619
0.0877828
0.245967
-0.33375
-0.017085
-0.107153
0.113676
-0.00652337
0.473363
0.200856
-0.0929876
0.159049
-0.0660612
0.0999591
-0.0329185
-0.159729
0.183827
-0.0240988
0.153783
0.060979
-0.214762
0.101886
-0.107542
0.00565667
1.3077
0.362058
-0.818424
-0.170348
0.342501
-1.09812
0.75562
0.579169
0.246116
-0.825285
-0.467635
-0.221903
0.689538
-1.39977
1.4593
-0.290239
0.869408
-0.303872
-0.10422
0.408092
-0.217863
-0.2186
-0.178441
0.17489
0.00355127
0.164903
0.272415
-0.437318
-0.308407
0.771641
-0.00974631
-0.0105973
-1.54945
1.89195
0.16315
0.135872
-0.160901
-0.110401
0.271302
-0.265825
0.373491
-0.107666
-0.0735862
0.0823203
-0.00873414
-1.85743
-0.920096
0.0109835
0.909113
-0.0227673
-0.0337148
-1.1682
0.854206
0.313993
0.588265
-0.340396
-0.247869
-1.63357
0.233799
1.10087
-0.944117
-0.757874
1.14307
-0.201959
1.05503
0.185806
-0.167968
-0.0178381
0.635549
-1.3405
1.18739
-1.18739
-0.00734876
-0.00254578
0.00989454
-0.19467
-0.0534712
0.248141
0.0853266
-0.0846024
-0.000724123
-0.457749
0.812553
-0.354803
-0.0421101
-0.207491
0.249601
-1.08263
0.0412168
0.368676
0.0578329
-0.426509
0.121341
-0.898163
1.14428
0.0770089
0.167256
-0.244265
-0.0183873
-0.141341
-0.619851
0.33336
0.286491
-0.347994
-0.271858
0.12401
-1.02217
0.308361
-0.76611
0.925554
-0.841555
0.0353221
0.133544
-0.168867
0.0960986
0.055694
-0.151793
-1.19744
-0.149534
1.34697
-0.223534
0.387499
-0.163965
-0.401801
-0.279746
0.681547
-0.509915
-0.658284
0.173624
-0.0858414
-0.145608
0.140136
0.00547252
-0.0800135
-0.0224845
0.102498
-0.604931
-0.155827
0.0815035
-0.0205415
-0.060962
-1.1282
-0.572338
1.70054
1.69726
-0.0930951
-0.0206072
0.0132585
0.012526
0.150624
-0.213141
0.402679
-0.0180269
0.302191
-0.284164
0.149228
0.0731222
-0.22235
-0.0326758
0.396884
-0.364208
-0.592434
-0.531852
-1.69332
0.565119
-0.0694822
0.146491
-0.0914992
0.169624
-0.0781249
-0.236707
0.0230561
0.117799
-0.0557233
0.0596841
-0.00396075
-0.0865215
-0.0178437
0.104365
0.0720979
-0.0720979
-0.175268
0.198324
0.240271
0.22794
0.0965865
0.0872409
-1.13617
0.827761
-1.57599
0.059944
1.51605
0.0065202
-0.00928912
0.00276892
-0.028546
-0.0549248
0.0834708
0.495123
-0.00462932
-0.490494
0.00967688
-0.010557
0.000880112
-0.18799
0.0127218
0.171331
0.641222
-0.345486
0.516817
-0.0665937
-1.13085
-0.17748
0.13628
0.461249
-0.281612
-0.179636
0.0806945
-0.0832407
0.00254619
0.0472753
-0.302456
0.022958
-0.943054
0.0475418
-0.139041
-0.265617
-0.37992
0.0928181
1.45337
-0.987796
-0.465575
1.12929
0.32408
0.0656089
0.26562
0.0014939
0.0050263
0.142884
-0.0291886
-0.113695
-0.244224
-0.604672
0.848896
-0.333935
0.895201
0.0072569
-1.0172
0.199402
0.00726377
-0.00449103
-0.00277273
-0.890567
-0.0630445
0.953612
0.239808
-1.13038
-0.3217
0.690376
-0.907014
-0.013408
0.00615655
-0.284754
0.278597
1.51617
-1.65267
0.136506
-0.085656
-0.0918237
0.586939
-0.831162
0.477746
-0.376779
-0.100967
-0.307841
-0.132258
0.440099
0.206666
-1.01068
-0.0719525
-0.00598063
-0.0623101
-0.592282
0.370379
-0.262966
0.0196458
0.24332
0.136783
-0.222439
-0.0744196
0.0744196
-0.130188
0.143311
-0.0131229
-0.246082
-1.32991
-0.0416301
0.00124538
0.0403847
0.0914197
-0.176453
0.0850333
-0.235863
0.0574218
1.76284
-0.347916
-1.41492
-0.167863
0.422642
-0.254779
0.0068461
-0.00761471
0.000768601
-0.776877
0.375076
-0.197595
-0.00509903
0.202694
-0.15502
0.319923
-0.109745
0.107954
0.0017907
0.0822126
0.010823
-0.0930356
-0.0182913
-0.0197383
0.0380296
1.2073
-0.242275
-0.965022
-0.211053
-0.0476917
0.258745
-0.67582
0.663077
0.012743
-0.00902624
0.0287196
-0.0112836
0.0125539
-0.00127032
-0.024522
-0.0353479
0.651623
1.04563
0.1681
-0.902415
0.734315
-0.150048
1.99721
-1.84716
0.357029
-0.0900591
1.27744
0.0790353
0.218827
-0.0695989
-0.0765539
-0.0305989
0.217831
0.172665
-0.0765668
0.733598
-0.398583
0.0582941
0.189847
0.0627883
-0.182165
0.119377
-0.717148
-0.119791
0.83694
0.0469897
-0.0469897
-0.0332847
-0.282002
0.5752
0.00934994
-0.220403
0.282801
0.0255117
0.0220263
-0.0915086
0.147905
-0.158641
-0.348423
0.306313
-0.00375007
0.061401
-0.0576509
0.369372
-0.342568
-0.472779
0.804062
-0.331283
-0.195379
0.260988
0.180751
-0.462363
-0.198721
0.57413
0.154881
-0.0315862
0.0315862
0.287814
0.117769
-0.405582
0.357291
0.0302074
-0.00183287
-0.000991328
0.0028242
-0.166494
0.105869
-0.0243655
-0.0520306
0.199935
-0.193649
0.258191
-0.0645415
0.144236
0.0284289
-0.376311
0.113842
0.207939
-0.0637029
-0.0493827
-0.0603619
0.012855
0.00269722
-0.0155522
0.139215
-0.098858
-0.0403565
-0.0403862
0.421315
-0.380929
0.0102791
-0.0200254
0.112391
-0.117013
0.00462157
0.0251774
-0.0144536
-0.458325
-0.0553333
0.0347657
0.0205676
-0.0297645
0.0707981
-0.0410336
-0.101759
0.0963727
-0.720083
0.62371
-0.0191023
-1.22586
-0.286381
1.51224
0.590989
0.723553
-1.31454
0.0777868
0.0904354
0.306449
0.300265
0.261469
-0.561735
-0.213456
0.276244
0.128329
-0.849327
0.720999
-0.0719934
0.0422289
-0.0250441
0.0190635
-0.974915
0.441044
0.533871
0.987796
-0.863785
-1.45275
1.30322
-1.51617
1.57611
0.0350278
-0.101089
-0.00324141
-0.00804215
0.00225771
0.753774
-0.625445
0.111009
-0.0634667
0.408194
0.734875
-0.107985
-1.59733
1.44728
-0.662435
-0.473733
-0.244442
-0.414153
-0.0222187
-0.156084
0.203359
-0.566721
-0.347067
0.179203
0.736785
-0.241662
-0.772156
-0.680598
0.755039
-0.0596259
-0.0123675
0.258678
0.0352142
-0.0352142
0.668985
0.150565
-0.819549
-0.226888
0.895873
0.0695948
-0.805386
0.735791
0.242837
-0.0148964
0.00179616
0.0136105
-0.0154066
-1.09812
-1.46749
1.37439
0.893278
0.869559
-0.0335738
-0.128006
-0.252866
0.726229
-0.211488
-0.0514777
-0.00249879
-0.0710874
-0.0605239
0.116218
0.392651
-0.268373
-0.729028
-0.306211
-0.00227146
0.0822581
-0.0799866
-0.910161
0.820102
-0.0210552
-0.0298086
0.0508639
0.0214551
-0.0199612
0.0618978
-0.0647757
0.00287794
0.0130872
0.395005
0.0463943
0.0343002
-0.00363491
0.00829586
-0.00466095
-0.0171329
-0.180462
-0.752294
0.392621
0.359673
1.27888
-2.11144
0.832557
0.147533
-0.170191
0.0226576
0.0261923
0.147432
-0.482743
-0.704642
0.0210471
0.0408506
-0.133251
0.0474093
0.152682
-0.365823
-2.21149
0.732487
1.479
0.0520419
0.0873633
0.0518513
-0.717148
1.23696
-0.0296644
-0.0237777
-0.040998
0.0467027
-0.642212
-0.0336077
0.0647124
0.143227
-1.01915
0.0130466
-0.450365
0.114952
0.36865
-0.310817
-0.102425
0.0159032
0.216858
0.845764
-1.06262
0.107805
-0.69446
0.586655
-0.883489
0.763698
-0.414489
-0.0503454
0.464834
-0.00151808
0.000696945
0.000821133
0.186793
-0.494634
0.222651
-0.12944
-0.0932115
0.0485025
0.0222956
-0.0734503
0.0711788
-0.0274299
0.0119317
-0.0364537
0.0189828
0.0960469
-0.11503
0.660584
0.00273889
-0.00277771
3.882e-05
0.00481272
-0.0248381
0.861471
0.0255327
-0.117356
-0.195029
-1.27246
0.186048
0.056789
0.00668764
0.0806756
-0.464834
0.704642
-0.0700167
-0.214485
0.284502
-0.269679
0.101711
0.120612
-0.13845
-0.00112912
0.0834495
0.0117547
-1.97383
-0.237665
-0.0561009
0.0750837
0.742403
-0.26273
-0.137473
0.228893
0.367838
-0.00853937
0.0067065
-0.00776287
0.0798608
0.138939
0.234553
0.158168
-0.353259
0.195091
0.0974252
0.543796
-0.0229817
-0.110889
0.840415
-0.198069
-0.642346
-0.414489
-0.293586
1.57247
1.56884
-0.279372
0.189717
0.089655
0.395116
-0.0826199
-0.312497
-0.807753
-0.825812
-0.0829193
0.0844751
-0.00155578
-0.251626
0.0301312
0.221495
0.26314
-0.844491
0.581351
0.0374689
0.67008
-0.707549
-0.0422407
-0.103368
-0.05725
0.00191668
0.247303
0.0405111
0.00143915
-0.00295722
0.252989
-0.0699849
-0.183005
0.0893661
0.0535175
0.0100352
0.0114199
-0.00236526
0.13591
0.0107405
0.00181336
0.208432
-0.415924
-0.124281
0.847833
-0.0230297
-0.02396
-0.991191
-0.0194881
-0.102639
-0.0659331
-0.0364916
0.21687
0.260876
0.023873
-0.247995
0.224122
0.145599
0.0404491
-0.937181
-0.00693669
-0.0082411
-0.649321
0.745693
-0.0160936
0.170974
0.386451
-1.19184
0.191002
-0.421664
0.230662
0.0866152
0.215576
0.00800244
-0.00881794
0.000815498
-0.0413702
0.0230789
-0.0186851
-0.122656
0.728944
-0.621139
-0.0150212
-0.00584216
0.0683108
0.331144
-0.172976
-0.183712
0.791441
-0.0694698
-0.721971
-0.128937
0.148583
-0.513683
-0.238611
-0.540967
0.566464
-0.555053
-0.011411
-0.0433095
0.0282883
-1.59733
0.576874
-0.576874
-1.45531
1.45531
0.753774
-0.447591
0.447709
-0.000118082
-0.900528
-0.0906635
0.668231
-0.390499
-0.277732
0.143158
-0.221283
-0.0135888
-0.00701848
-0.93109
-0.0910831
-0.933033
0.21295
0.0388284
0.0434297
0.696089
-0.0932246
-0.602865
1.46432
0.104521
-0.00359141
0.0115939
-0.957559
0.527741
0.276321
-0.0883818
-0.642277
0.730659
0.0784392
-0.915564
-0.73711
0.223741
-0.816174
-0.83694
1.23457
-0.397629
-0.139038
0.268747
-0.129709
-0.0414956
0.737585
-0.114085
-0.893681
0.893681
-1.08866
0.344996
0.743663
0.000223437
0.00251546
-0.04288
-0.457609
0.911724
-0.0575185
-0.0939281
-0.0327154
-0.0107395
0.000932716
0.00591339
1.25466
-1.305
-0.357264
0.439477
-0.678704
1.07895
-0.40025
-0.0625429
0.0835901
0.133042
-0.05992
0.340888
0.000538215
0.0229808
0.361632
0.0596825
0.0454543
-0.263898
0.218444
0.132679
0.0327998
0.104496
0.192988
1.23935
0.652604
-0.31892
-0.0668536
0.385774
-0.520798
0.457753
0.253091
-0.158075
0.0734106
-0.765635
0.692224
-0.766511
0.104833
-0.453256
-0.0750496
0.123138
-0.0480881
0.1124
-0.18745
-0.475175
-0.117107
-0.0783433
0.0817825
-0.00343926
0.004939
0.00580152
-0.016625
-0.0162935
0.625445
-0.586655
-0.0387895
-0.278707
0.288057
0.883233
0.66799
-0.272873
0.0196763
-0.0184309
0.0799299
-0.456709
0.151198
-0.546735
0.395538
-0.00866655
-0.000151392
-0.273799
-0.0429066
0.316706
0.00674906
-0.0134984
0.00674935
-0.0274802
0.0190576
0.00842262
-0.244845
-1.09566
-0.119968
-1.10589
-0.213706
-0.863785
1.57611
1.30322
-0.181302
-0.165501
0.117809
-0.0686596
0.0747908
-0.0061312
-0.11533
0.135143
-0.0198129
0.586118
0.0821136
-0.00272189
-0.00594466
0.129674
-0.960831
0.0327154
-0.0601787
0.00407773
-0.469601
0.549531
-0.0167188
0.0387451
-0.253909
0.623281
1.12929
0.337738
-0.0569097
0.000858354
0.0560514
1.57527
-0.272054
-0.056915
-0.0506272
-1.02718
0.163394
0.459441
-0.252775
-0.490157
-0.148178
0.638336
0.853977
-0.387031
-0.466947
-0.141185
0.165058
-1.44728
0.349164
0.00336772
-0.0390997
0.035732
0.48894
1.50827
-0.173506
0.175302
-0.24644
2.14765
-0.571542
-0.666419
0.0374826
0.628937
0.408374
0.0132404
-0.363265
0.483919
0.764561
0.327036
0.0720042
-0.0201529
-1.60146
0.155172
1.44629
1.38222
0.0398239
-0.0434588
-0.0561297
-0.374941
0.122482
-0.335938
0.418023
0.373418
0.00684285
-0.0501523
0.0796442
-0.359017
-0.0228112
0.0137849
0.106073
-0.142278
0.036205
-0.283018
0.293584
-0.0105657
0.119087
-0.188557
-0.9537
0.465475
0.488226
-0.0844323
-0.0245451
0.108977
0.292676
0.0384683
0.845527
0.391435
-0.679736
0.679736
0.75562
1.46432
-0.69446
0.300923
0.463638
-0.33704
-0.0685421
0.975953
-0.389835
0.0129733
-0.889721
0.876748
0.114021
0.0102553
0.025026
0.808183
0.0373437
0.031175
-0.166418
-0.107905
0.274324
0.341131
-0.484677
0.318258
-1.15341
-0.30466
-0.666763
0.0432626
-0.00304865
0.000270938
-0.230777
-0.0600823
-0.0199043
0.0305871
-0.160908
0.130321
-0.735472
-0.353188
-0.00539364
0.064231
-0.228097
-0.586551
0.814648
-0.537003
0.357367
-0.191309
0.25271
0.220958
0.00198585
-0.02703
-1.11229
0.764379
0.0372809
0.0751103
0.00513429
0.0631765
0.215193
0.007458
-0.450306
0.470868
0.550322
0.741329
0.865035
-0.791624
0.836996
-0.469158
-0.64853
0.190921
0.160418
-0.797677
0.781112
0.0165646
0.456916
-0.0388927
-0.213269
-0.143995
-0.0641446
-0.0204579
0.948858
-0.838693
-0.110165
-0.200897
0.12433
0.0255936
0.114542
0.876905
-0.0143301
-0.114296
0.128626
-0.311271
-0.0357951
-0.757467
0.52937
0.206926
1.14005
1.89504
-0.430723
0.16059
0.548376
-0.708965
-0.315452
0.0537562
-0.00562612
0.00761197
-0.533487
-0.115043
0.245479
-0.108696
-0.202808
0.150778
-0.504022
0.249243
-0.992523
0.332379
-0.299543
-0.872023
1.5537
-0.0376532
-0.302082
-0.007747
-0.461854
0.520917
0.322115
0.0395176
1.05993
-0.79679
-0.207236
0.143534
-0.33554
0.157235
0.178305
-0.00484499
0.00821271
0.0526062
-0.0613464
-0.221672
-0.102472
0.69799
-0.431417
-0.266573
0.33658
0.122708
-0.0888664
-0.0338412
0.247847
0.074268
-0.27548
-1.03906
-0.102779
0.149482
-0.0532743
0.0389442
-0.0993943
0.0583607
-0.029181
0.00978589
0.0193951
-0.0132377
0.00394855
-0.259074
0.0769092
-0.0358313
-0.528474
0.389435
0.0315708
0.0789622
-0.163394
-0.697896
1.14894
-0.775524
0.015733
-0.207946
0.192213
-0.149188
-0.522297
0.671485
0.05788
-0.700092
-0.603075
-0.350626
0.0307162
0.00263274
-0.0333489
-0.244931
-0.566464
-0.150685
-0.12027
-1.60146
-0.248166
0.178567
0.058579
-1.1934
-0.390795
0.057176
0.333619
0.249386
0.102274
0.523595
0.286551
-0.810146
-0.0384935
-0.0211324
0.38634
-0.394675
0.00833478
-0.212257
0.205039
0.252714
-0.258657
0.194115
0.170071
0.0349687
0.632644
-0.299284
0.00778989
-0.00553218
-0.0101997
0.730444
0.0108853
0.767696
0.0862813
-1.91244
-0.0613871
0.26267
0.713283
0.866853
-0.0264385
-0.0207311
-1.89504
-0.666763
-0.712452
0.723435
0.0840965
-0.772156
0.67008
0.579756
-0.929357
1.05087
0.00267066
-0.800347
-0.316831
0.640265
-0.758342
0.118076
0.0747418
0.0479658
-0.742832
-0.418546
2.17947
-1.76092
-0.00193728
-0.00111138
-0.281136
0.229658
0.698146
0.208041
-0.195319
-0.173264
1.23071
-1.80305
0.382141
-0.382259
0.695556
-0.540223
-0.155333
-1.66714
1.82231
0.640609
-1.22716
0.137825
1.02774
-1.44629
0.00471682
0.226393
-0.00914839
-0.0263191
-0.0763197
0.0119381
-0.0327959
0.0208578
-1.02958
-0.0330457
0.30218
-0.805836
-0.362617
0.860066
-0.497449
0.394516
0.684438
-0.0446995
0.0477341
-0.0030346
-0.284735
1.51544
-0.720859
1.21864
0.600401
-0.963018
0.334971
-0.108577
-0.584089
-0.408434
0.527785
0.167771
-0.0500503
-0.887051
-1.90414
0.0569838
1.02774
0.0521581
-0.857994
0.830641
-0.646288
-0.184354
-0.981864
0.397775
0.0109679
0.112527
0.00229316
-0.11482
-0.97149
0.563056
-0.199169
0.914154
-0.921091
0.204239
-0.221372
-0.102011
0.254693
0.274425
0.437103
-0.112078
-1.09324
0.371273
0.415741
-0.0887049
-0.552881
-0.518214
1.0711
0.447119
0.0229233
-0.00931287
-0.740595
0.707549
0.158595
-0.44333
-1.27744
1.51155
-0.234109
0.139544
0.720521
0.76868
-0.804749
-0.493437
-0.449618
-0.471568
-0.499922
0.8041
-0.8041
0.688437
-0.688437
-0.740595
-1.74535
1.74535
-1.51155
-0.242188
-0.339752
-0.166777
-0.422968
0.422968
0.158595
-0.44333
0.76868
0.763532
-0.763532
0.804749
0.757994
-0.757994
0.506563
0.528432
0.481786
-0.264373
-0.500078
-0.550382
1.07881
-0.0420348
-0.208096
0.735881
1.17446
-0.533855
-0.58441
-0.0221749
0.0477076
-0.883223
0.0853222
0.797901
0.00429366
-0.0265124
-0.992825
0.594242
0.863642
-0.562719
-0.122459
0.00346587
0.00192282
-0.826698
-0.0757174
-0.533871
-0.00523783
0.0243013
0.585812
0.0221038
-0.0631018
0.1847
-0.00137228
-0.00887739
0.0102497
-0.812871
0.0686908
0.74418
-0.66907
0.943495
-0.522976
0.430683
0.0922929
0.914633
-0.746764
-0.167869
0.0845862
0.318092
-0.0144589
-0.0638843
-0.0700516
-0.0128676
-0.178244
-0.731917
-0.877188
0.0944149
-0.749882
0.793884
-0.0440017
0.119723
-0.900359
0.780636
-0.804759
0.901567
-0.0968079
-0.013381
0.000143279
0.0205781
-0.305332
0.866421
-0.69865
-0.0879803
-0.795243
0.914924
-0.0891942
-0.825729
-0.0963872
0.0338443
0.505394
0.826652
0.311692
0.489473
-0.407359
0.0958124
-0.891056
1.21209
0.243215
-0.794567
-0.00578059
1.01598
-0.896258
1.03469
1.09107
-1.5595
0.468433
-0.886411
-0.106414
-0.434282
0.053353
-0.166474
0.390596
-0.78302
0.78302
-0.634364
-0.0806541
-0.862991
0.116227
-1.00852
0.920137
0.082144
-0.211584
-0.0542547
0.0472336
0.0124505
0.184679
0.831303
0.820913
0.774829
0.134956
-0.909785
-1.49512
0.96127
-0.785744
-0.0987438
0.884488
0.158447
-0.879306
-0.678312
0.885108
-0.789296
-0.100178
0.461231
-0.000317286
-0.460914
-0.829423
1.50408
-0.674658
-0.138774
0.199004
-0.0602303
-0.885922
-0.827692
0.0778096
0.559715
0.277282
-1.58048
-0.0989787
-0.605403
0.605403
-0.773548
-0.319696
0.936066
-0.898722
-0.0166545
0.482129
0.786364
-0.18804
-0.0412787
-1.05438
1.46982
-1.38242
-0.087398
-0.733494
-1.37795
0.143233
-0.404056
1.16441
-1.19407
0.30811
0.321326
-0.23674
0.783248
-0.880056
1.62412
-0.662849
-0.138825
0.733067
0.604019
-0.604019
-0.0293387
0.00937756
0.121263
-0.0906761
0.752369
0.751712
0.256025
0.00247164
0.00878699
-0.0112586
-0.679578
0.690981
-0.0114036
-0.338599
-1.2209
0.102674
-0.89197
-1.11925
1.35382
-0.234574
-0.0864015
0.871687
-1.95672
1.61812
-0.757014
0.615026
-0.648634
-0.684195
0.170513
0.248915
0.0251902
0.149296
-0.852228
1.10114
-0.00138422
-0.758726
0.0577504
0.736134
0.684771
-0.0697447
0.0664035
0.795067
-0.277578
0.41505
-0.137472
-0.343287
0.47232
-0.155638
-0.897392
0.680419
0.216973
-0.684593
-0.131582
0.945397
-0.204142
0.244653
-0.0297908
0.485913
0.514087
-0.772035
-0.108021
-0.95796
-0.940314
-0.903362
-0.162457
0.400451
0.599549
-0.00891876
-0.0159194
-0.861229
-0.0497022
-0.598932
-0.160726
-0.227908
0.388634
0.00978298
0.00197172
0.12227
0.077665
-0.128216
-0.130859
0.765272
-0.652584
0.718987
-0.0935702
-0.758658
0.371149
-0.500729
0.129581
-0.74383
-0.180163
0.923993
-0.228953
0.216213
-0.0263661
-0.11312
-0.109319
-0.00276711
0.747109
-0.141706
0.104502
0.116456
-0.73369
0.0541123
0.837087
0.342416
0.731138
-1.06242
0.265685
-0.276876
1.01175
0.000500525
0.124579
-0.371019
-0.00258841
-0.0117798
0.0264609
0.742187
0.0948998
0.750108
5.66174e-05
-0.750164
0.843082
-0.0341866
0.00211147
0.0320752
0.138003
0.000660002
0.000779144
0.210781
-0.104708
1.05848
-1.07514
-0.0667476
0.816855
0.00331726
0.268132
-0.500673
-1.13296
1.38758
-0.254622
-0.778151
0.824085
-0.0459344
-1.26082
0.281594
0.351049
-0.0880918
1.49456
-0.470991
-0.0519854
0.267921
0.434511
0.170532
-0.605043
0.370506
0.0238466
0.667135
-0.571537
0.580925
-0.00938766
0.749677
-0.22876
-0.0127945
0.0100025
0.00279195
0.704257
-0.0103283
-0.0818724
0.0177704
1.30423
-0.334536
-0.926284
0.0725866
0.168313
-0.192858
0.242691
-0.162267
-0.0804241
0.0201841
-0.00824602
-0.320762
-0.0739129
-0.0583978
0.205885
-0.0244686
-0.071155
0.24065
0.0898193
0.00237898
0.0236915
0.762007
0.801048
0.406781
-1.20783
0.0380028
0.694193
-0.732196
0.643922
0.121525
-0.0183674
-0.0783638
0.0967313
-0.0469072
-0.100828
-1.28159
-0.016713
0.771752
0.732931
0.760563
-1.24134
0.49851
0.802369
-0.0467912
-0.13692
-0.917252
0.119285
-0.27336
-0.510203
-0.171445
0.701846
0.0601612
0.014429
1.0156
-0.734001
0.158735
0.170235
0.00790335
-0.108169
0.421775
-0.0595812
-1.29956
-0.0625433
0.153316
-0.471515
0.509518
-0.141712
0.820566
-0.0196817
-0.108883
-0.0034842
0.000564645
0.00291956
-0.91653
0.687769
0.00244369
0.98216
-0.225999
-0.625141
0.663615
-0.0384738
0.316868
0.755958
-0.291209
0.420789
0.0836367
-0.185648
0.644098
0.11186
1.05992
-0.239819
-0.285635
0.775107
-0.791332
0.886232
-0.579261
0.353202
0.226059
0.525647
-0.0705762
0.040585
0.0735623
-0.0509293
1.27005
0.735645
0.0667242
0.641854
0.207042
-0.883733
-0.0829064
-0.684954
0.679174
-0.0305294
-0.556649
0.395922
0.853721
0.667944
0.0372284
0.137494
-0.128345
-0.324911
0.479427
0.669515
-0.0559715
0.00870205
0.438697
0.447535
0.535371
1.16517
-0.084347
0.859486
-0.723897
0.917953
-0.194056
-0.415082
-0.164178
-0.0102483
-0.0728499
-0.137086
0.885653
0.00644952
0.00184635
0.625639
-0.161775
-0.900646
0.618242
-0.131107
0.21378
0.79873
0.261971
-1.0607
0.276649
-0.922937
0.240421
-1.01595
-0.160051
0.7465
-0.586448
-0.681332
-0.0103492
-0.102771
-0.0571682
-0.496061
0.00243674
-0.0316177
1.21262
0.327896
-0.201246
-0.12665
-0.0385863
-0.566721
-0.190423
0.315002
-1.40815
-0.00535438
0.00398209
-0.982255
-0.055953
-0.608889
0.037352
0.568304
0.285417
0.867567
0.644672
-0.222459
-0.391696
0.614155
-0.0800802
-0.619746
0.619746
-0.233601
-0.975254
1.20885
0.0323459
-0.161283
0.665925
-0.0976205
-0.218745
0.316791
-0.0721379
0.142377
0.321449
-0.476095
0.193237
-0.100419
-0.999845
0.481814
0.099111
0.0800019
-0.000283186
-1.80867
-1.60227
-0.662068
0.69279
0.30721
-1.60227
0.69279
-0.460544
-0.54363
-0.460544
-0.696386
0.696386
0.303614
-0.0134638
-0.123111
-0.0800897
0.236797
0.132535
-0.498904
0.634992
-0.0167499
0.637541
-0.505873
-0.131667
-0.0439738
0.0386478
0.00532607
-0.0187042
0.0211758
-0.575474
0.0177494
-0.0742834
-0.434599
-0.376875
0.146097
0.0340333
0.815196
-0.26682
-0.43582
-0.0260334
-0.021376
-0.109877
0.000830141
0.695079
0.0766722
-0.538406
-0.00637509
0.00171414
-0.0192231
0.0833837
0.545141
-0.481601
-0.06354
1.66397
0.565247
-0.821377
0.95423
0.0121545
-0.0670793
0.114946
-0.0946664
7.47122e-05
1.19548
-0.396753
0.00233686
0.0409258
-0.0196863
-1.33158
0.0183388
-0.0183388
0.0234326
-0.0234326
0.00526755
-0.00526755
-0.0230297
0.366362
0.466495
0.133995
-0.682362
0.440699
0.180759
0.0300224
-0.0870207
-0.480595
0.660996
0.113814
-0.798406
-0.926672
-0.265165
-0.0385116
0.02272
-0.00366241
0.0136638
-0.0136638
0.341299
0.0110311
-0.0110311
0.699721
0.111365
-0.00928601
0.00291093
0.00620553
-0.0631153
-0.0207035
0.0207035
0.00738982
-0.00738982
-0.0238629
0.0238629
0.0075294
-0.0075294
0.0123522
-0.302607
-0.0756001
0.217561
0.0061678
-0.0061678
-0.380962
0.492881
-0.111918
0.475344
-0.206596
-0.139256
-0.296564
0.55586
0.174625
0.0907159
0.572899
0.563923
0.00226402
-0.00226402
-0.187356
0.0269089
-0.0269089
0.00511585
-0.00511585
0.785795
-1.39161
0.0349121
-0.514955
0.472048
-0.000372603
0.000372603
-0.00691708
0.00691708
0.0193925
-0.0193925
0.0210189
-0.0210189
-0.0250379
0.0250379
0.0372892
-0.0372892
0.503874
-0.0338215
0.0338215
-0.000406539
0.000406539
0.0255237
-0.0255237
0.0078116
-0.0078116
-0.00314413
0.00314413
-0.172616
-0.0284646
0.0284646
-0.118962
0.0354312
-0.0419108
0.0419108
-0.00654128
0.00654128
-0.00108766
0.00108766
0.0356122
-0.0356122
0.0242848
-0.0242848
-0.000937246
0.000937246
0.00490519
-0.00490519
0.548983
0.129435
0.00835465
-0.00835465
-0.00122767
0.00122767
-0.0404671
0.0404671
-0.0266044
0.0266044
-0.00239108
0.00239109
-0.440183
0.702854
0.269402
-0.0339438
0.0339438
0.0144998
0.00643187
-0.00643187
-0.00210513
0.00210513
0.0353656
-0.0353656
0.0549801
-0.1919
-0.00608075
0.00608075
-0.0202583
0.0202583
-0.462881
0.0408985
-0.00884569
-0.0297089
0.0297089
-0.430427
0.0301889
0.0175452
-0.422836
-1.4896
-0.0390844
0.0390844
-0.216312
0.156731
-0.0392981
-0.00287373
0.00287373
-0.0203516
0.0604216
0.268669
-0.322601
-0.254236
0.576837
0.167969
0.00709001
-0.00709001
-0.0349896
-0.157897
0.192887
0.739136
-0.365688
-0.373448
-0.489984
-0.657173
-0.412503
0.386469
-0.25134
-0.0919474
-0.577126
-0.0291954
0.192401
-1.51926
0.0193548
-0.0193548
-0.00284246
0.00284246
0.0327751
-0.0327751
0.0249323
-0.0249323
0.00079613
-0.00079613
-0.00269106
0.00269106
-0.0773878
-0.263008
0.154732
-0.27719
-0.00126671
0.00126671
-0.0426817
0.0426817
-0.0429167
0.0429167
-0.0377247
0.247226
-0.209501
0.0232789
0.289471
-0.51547
0.00181431
-0.00181431
-0.014772
0.014772
-0.111297
0.0194573
-0.43196
-0.00350656
0.00350656
0.0221102
0.0155163
0.867993
-0.490223
-0.0992336
0.589456
-0.613268
0.132814
-0.299288
-0.0367574
0.0367574
-0.670087
0.265296
0.0528561
-0.0528561
-0.685656
0.407924
0.248038
0.107317
0.000409419
-0.000409419
-0.891884
0.000138482
-0.000138482
0.330579
0.407006
0.0607439
-0.0571425
0.0571425
-0.00384179
0.00384179
-0.0451106
0.0451106
-0.0511885
0.0511885
9.96639e-05
-9.96639e-05
-0.056661
0.056661
-0.000224961
0.000224961
-0.04866
0.04866
-0.00717511
-0.0431972
0.0431972
0.0056103
-0.0056103
0.0513827
-0.0513827
-0.000907463
0.000907463
0.0450852
-0.0450852
-0.260472
-0.00285441
0.00285441
-0.00488659
0.00488659
-0.0441433
0.0798608
-0.0116359
0.0116359
0.00501322
-0.00501322
-0.0633761
0.0633761
0.311953
-0.0200586
0.0200586
-0.0553921
0.0553921
-0.00756938
0.00756938
-0.071729
0.071729
-0.0131135
0.0131135
-0.0857004
0.0857004
-0.0235493
0.0235493
-0.0915971
0.0915971
-0.706675
-0.0702393
-0.549918
0.511444
-0.915564
-0.261048
-0.536767
0.365322
0.305541
0.031039
0.0038829
-0.0038829
0.274045
-0.688289
0.0512703
-0.0515535
-1.26955
1.37407
1.07172
0.247436
0.0330531
0.00207784
-0.374234
-0.601519
-0.127687
0.395657
-1.35794
-0.0282632
0.0282632
-0.712958
0.015112
-0.015112
0.00391593
-0.00391593
0.334924
-0.237897
-0.00306452
0.00306452
0.0180792
0.013507
0.600525
-0.371422
-0.0165927
-0.0117782
-0.00895295
-0.113438
0.519151
-0.405713
0.152458
-0.00922491
-0.00215833
1.15301
0.028953
0.0364396
-0.412357
0.46571
-0.51159
-0.888911
-0.241934
-0.0798305
0.0193066
-0.0378089
0.236813
-0.0445015
-0.00890832
0.00844205
0.809603
-0.527596
-0.0497679
0.0576713
-0.0415371
-0.0848018
-0.0383091
0.410805
0.252272
-0.167213
0.207963
0.0126087
-0.00178568
-0.647589
0.000716531
-0.307188
0.105941
-0.0176689
-1.11078
-0.0727782
0.27407
-0.356362
0.416045
0.204927
-1.07695
0.0428632
0.115362
-0.0815173
-0.360437
0.45273
-0.0510773
0.110302
-0.0592245
-0.028963
0.028963
0.189031
-0.461904
-0.206176
0.0297225
-0.0910927
0.0605633
-0.0574889
-0.00328607
0.060775
-0.0381206
-0.161584
0.130588
0.148468
-0.283628
-0.331728
0.615357
0.018576
0.0658991
0.148368
-0.0438659
-0.236479
0.07912
-0.16954
0.329958
0.00320847
0.0288667
-0.0128284
0.161196
0.00292799
0.275669
-0.00314158
0.00314158
-0.515597
1.05097
0.101926
-0.184832
-0.0248272
0.103266
1.6825
-0.0643784
0.0870524
-0.0126328
-0.53762
-0.0122975
-0.0336834
0.109348
-0.719877
0.330042
-0.0586998
0.353917
-0.637546
0.189691
0.490728
-0.0954317
0.0954317
0.00229316
-1.27845
0.0125229
1.26592
-0.22765
0.170482
-0.330711
0.195706
-0.384263
0.00981309
-0.0118723
0.00863091
0.929418
0.27429
-0.237061
-0.0709192
-0.697781
-0.265237
-0.0272788
-0.274983
0.758902
0.550473
-0.261003
-0.323949
0.592082
0.146754
0.0429636
-0.266227
0.0182136
-0.45288
0.340962
0.121619
-0.121619
-0.0642843
-0.0822616
0.146546
-0.00936594
0.00758703
0.00978589
0.0262032
-0.0731103
0.210231
-0.186044
-0.0241869
0.521171
-1.13386
-0.086032
-1.18643
0.681074
-0.102755
-0.174435
-0.0218679
-0.0806043
-0.505093
0.070494
-0.305621
-0.00350165
-0.0176689
0.40347
-0.00503207
0.00417989
-0.0013616
0.0155306
-0.0117197
-0.00381088
-0.0946251
-0.0179528
-0.177413
0.195365
-0.105615
-0.347265
0.0180792
0.350845
0.00116432
-0.396876
0.0973335
0.00304594
0.256477
-0.122482
-0.0139984
0.0139984
-0.00191951
0.000472752
-0.00876125
-0.00105196
0.0854746
0.000315325
-0.00117493
0.0182332
0.242643
-0.00328871
0.00328871
-0.00100955
0.494727
0.000964819
-0.286439
0.55079
1.21093
-0.466052
0.31061
-0.441096
-0.120576
-0.0855999
0.20434
-0.211638
0.0722804
-0.00406897
0.00130186
-0.0135531
-0.1794
-0.372399
0.813099
0.445919
-0.523307
-0.033142
-0.001677
-0.00485316
-0.0815483
0.0004852
2.49061e-05
-0.00409388
0.571879
0.00144365
-0.000760529
0.747017
-0.667897
-0.250779
0.175484
0.394416
-0.000877458
-0.00117556
-0.0392981
-0.00542419
0.817701
-0.432061
0.531172
-1.60238
0.906759
-0.706087
0.550911
-0.185588
0.724617
-0.000721588
0.00349076
0.0192292
-0.12698
0.137794
0.111764
0.00679931
0.00240898
0.0725167
-0.0606947
-0.011822
-0.00100926
-0.0906337
0.130362
-0.0397283
-0.0954336
0.00934007
-0.000553086
0.0023216
0.502793
-0.444358
0.0158596
-0.000576774
0.848074
-0.835551
0.368777
-0.00630931
3.12727e-05
0.0961708
-0.154569
-0.0519694
-0.0894651
-0.00886806
-0.00383224
0.140231
0.0268728
-0.00322687
0.383697
-0.000989266
0.000962152
-0.000962152
0.00147005
-0.0132482
-0.000470585
-0.323255
-0.00392512
0.0771615
-0.107713
-0.0375761
0.143082
-0.0652044
-0.000547603
0.00203218
0.435957
-0.000386712
0.0026644
-0.0129127
-0.0021939
-0.000750501
0.0842973
0.171728
-0.709987
0.43256
-0.804959
0.25627
-0.000335233
-0.160317
0.21683
0.0912801
0.538115
-0.0144311
-0.167862
-0.00428645
-0.00147341
-0.558227
-0.00354942
-0.000324624
0.0236871
0.912279
-0.541772
-0.00272271
-0.000682502
-0.00623358
-0.00194695
0.0711985
-0.0212107
0.0212107
0.00429448
-0.00382173
-0.00255616
-0.00835286
0.0276675
-0.0234876
-0.178499
0.107923
-0.0055441
-0.0139714
0.034687
-0.0192672
0.0678094
-0.0485029
-0.623951
0.57995
-0.00876374
-0.00113032
0.392888
-0.239572
-0.0622279
-0.648469