/*--------------------------------*- C++ -*----------------------------------*\
| =========                 |                                                 |
| \\      /  F ield         | OpenFOAM: The Open Source CFD Toolbox           |
|  \\    /   O peration     | Version:  2306                                  |
|   \\  /    A nd           | Website:  www.openfoam.com                      |
|    \\/     M anipulation  |                                                 |
\*---------------------------------------------------------------------------*/
FoamFile
{
    version     2.0;
    format      ascii;
    arch        "LSB;label=32;scalar=64";
    class       volVectorField;
    location    "20.4";
    object      U;
}
// * * * * * * * * * * * * * * * * * * * * * * * * * * * * * * * * * * * * * //

dimensions      [0 1 -1 0 0 0 0];

internalField   nonuniform List<vector> 
2186
(
(1.33266 -0.0775733 2.39632e-19)
(1.60957 -0.950737 -2.7966e-20)
(1.46003 -0.926531 6.4914e-21)
(0.750423 -0.593037 -1.55095e-19)
(-0.30426 0.420092 -1.70199e-19)
(1.47786 -0.394391 0)
(0.727864 -0.67291 0)
(-0.270755 -0.410168 8.64373e-20)
(1.39178 -0.310629 1.37742e-19)
(0.560402 -0.323763 -2.20201e-21)
(0.671987 0.605181 0)
(0.746957 -0.276788 -9.31413e-20)
(-0.327411 -0.468165 -3.52503e-20)
(1.20187 0.0241279 -3.88088e-19)
(1.79349 -0.705891 -3.82597e-20)
(1.01295 -0.00463286 1.81758e-19)
(0.982355 0.0128832 0)
(-0.450831 0.0490661 0)
(1.44425 -0.144696 0)
(-0.0778488 0.215561 -6.38519e-20)
(0.483821 0.078819 -1.1717e-19)
(-0.167319 0.157235 8.73679e-20)
(1.18898 0.0269717 3.19894e-19)
(-0.202919 0.00384179 5.88929e-21)
(1.03158 0.00550855 -2.51863e-19)
(0.801542 -0.56945 0)
(0.762872 -0.0396459 1.50146e-19)
(0.616981 -0.596594 -1.82437e-19)
(1.20779 0.706381 0)
(0.964826 0.0230935 -3.43515e-19)
(-0.0378791 0.0581148 0)
(1.02445 -0.0119301 1.19007e-20)
(-0.084938 0.146655 0)
(2.7173 0.122107 2.52159e-19)
(-0.123934 -0.17853 3.48836e-21)
(1.53673 0.768021 7.89192e-20)
(1.9815 0.131559 1.51129e-19)
(0.508897 0.127277 -3.49082e-19)
(1.88162 0.235714 -2.64536e-19)
(1.12285 -0.211749 8.16963e-21)
(-0.375874 -0.500782 0)
(-0.113435 0.122512 0)
(1.86287 -0.898317 6.27598e-20)
(-0.385211 0.141719 0)
(1.10889 0.275962 1.57546e-19)
(0.604072 -0.305251 2.91703e-19)
(0.924343 -0.789838 0)
(1.19652 -0.801337 1.26839e-19)
(2.29509 -0.0183894 0)
(-0.201858 0.435322 1.69879e-19)
(-0.0259642 0.107069 9.43625e-20)
(0.626804 0.577773 8.22238e-20)
(2.06159 -0.794684 6.23476e-20)
(0.589686 0.261555 -2.80768e-19)
(-0.257924 -0.0450851 3.35248e-20)
(0.773215 -0.660327 0)
(1.64507 -0.974127 1.74492e-20)
(0.58716 -0.547544 0)
(2.23793 0.23082 7.91067e-20)
(1.14867 -0.174835 -3.87635e-19)
(2.03874 -0.118214 1.62789e-19)
(1.34904 0.300193 -1.83514e-19)
(1.33683 0.526544 0)
(0.843064 -0.204138 -8.94785e-21)
(1.35458 0.383762 -1.11888e-19)
(1.2592 -0.744095 -1.81097e-19)
(1.16622 0.65582 5.42002e-20)
(0.676847 0.0607522 -5.7084e-19)
(0.819094 0.0462901 0)
(2.04637 -0.294396 -5.08775e-20)
(-0.274237 -0.467746 -1.00068e-19)
(2.21377 -0.0370495 -1.69357e-19)
(0.726898 -0.0497048 -2.51997e-19)
(0.885588 -0.528775 0)
(0.821051 0.171478 -9.28902e-20)
(0.55576 -0.51753 -3.11158e-19)
(2.54913 -0.0685849 0)
(1.00655 0.00925951 3.75223e-19)
(-0.115687 -0.251573 0)
(1.99646 0.351746 0)
(0.653967 0.1733 8.43367e-20)
(0.957207 -0.273212 -1.12076e-20)
(1.02584 0.00557653 4.18347e-20)
(1.31626 0.411364 2.82014e-20)
(0.969507 0.0218737 4.39063e-19)
(1.04185 0.0277648 -1.03969e-20)
(0.664282 0.164907 -3.39697e-19)
(1.38445 -0.245232 1.20902e-21)
(1.09652 -0.235636 0)
(-0.0638357 -0.0364124 6.82108e-20)
(0.872484 -0.634274 -1.75802e-19)
(-0.0776061 0.283127 -9.25291e-22)
(1.11777 -0.0793137 2.6124e-19)
(0.824553 -0.193332 0)
(0.973751 0.0228491 4.1841e-20)
(1.36354 0.639734 0)
(1.62609 -0.968024 0)
(1.2997 0.220134 0)
(-0.288794 0.468983 0)
(0.802989 -0.677178 3.09134e-19)
(-0.0752658 0.249427 -2.19338e-19)
(0.501688 0.0188701 1.44821e-19)
(1.55765 0.194576 0)
(1.15079 -0.104148 -2.38817e-19)
(1.11905 0.0235146 1.8573e-19)
(-0.0227265 0.339111 1.13429e-19)
(0.628984 0.49535 0)
(2.2289 -0.219888 -1.05548e-19)
(0.974611 -0.488262 8.67851e-20)
(-1.18541 0.539743 2.71282e-19)
(1.73971 0.283351 1.12251e-19)
(-0.15912 0.475993 -2.52368e-19)
(0.82139 -0.747406 0)
(0.558324 0.335918 1.69812e-19)
(1.61207 -0.301501 -3.90634e-19)
(-0.400792 -0.285468 -3.48999e-19)
(1.29621 0.311973 1.11178e-20)
(1.78887 -0.0517637 0)
(-0.0851593 -0.0422991 -2.0446e-19)
(0.711076 -0.0834155 7.98508e-20)
(1.55794 0.874566 0)
(-0.125987 0.387275 -2.42688e-19)
(0.878757 0.753916 -2.76949e-19)
(-0.573092 -0.159114 3.31214e-19)
(1.02982 -0.0248214 0)
(1.57255 0.385231 -1.40099e-20)
(-0.243282 0.467363 0)
(0.708751 -0.507431 -1.11859e-19)
(-0.531646 -0.0606934 -1.82536e-19)
(0.79533 -0.72613 0)
(0.44385 -0.292768 4.22999e-19)
(0.550957 -0.468161 2.89298e-19)
(0.412016 -0.373124 0)
(0.992864 -0.792189 -1.42925e-19)
(0.417078 0.172877 0)
(-0.0611295 0.474716 -1.33174e-19)
(0.821478 -0.708004 1.49526e-19)
(2.45435 -0.31377 2.33631e-19)
(2.2416 0.168576 0)
(-0.0803143 -0.157319 0)
(0.681437 0.632928 -3.45147e-19)
(1.78527 -0.649441 -1.2799e-20)
(-0.163875 -0.218932 0)
(0.995039 -0.817773 -1.53163e-20)
(1.1566 -0.101449 0)
(1.09087 -0.129746 4.14334e-19)
(2.16141 -0.225397 -8.79953e-20)
(-0.328273 0.416558 0)
(1.23335 -0.565113 -6.1338e-20)
(-0.254401 0.26199 -4.18338e-20)
(-0.162419 0.368186 0)
(1.10408 -0.825278 1.18612e-20)
(1.00538 0.00578877 -6.26779e-19)
(0.661329 -0.492205 -1.09448e-20)
(0.828028 -0.527425 0)
(1.21039 -0.742112 -1.06169e-19)
(0.651965 0.22637 2.63164e-19)
(1.21869 0.119571 0)
(1.48475 0.0824386 -2.54714e-19)
(1.20654 -0.867126 -2.42545e-19)
(-0.0710578 -0.138903 -7.76815e-20)
(-0.185465 -0.445796 -1.50533e-19)
(1.06833 0.00578512 2.33959e-19)
(0.92882 -0.475099 -1.09134e-19)
(1.48589 -0.255003 -1.1193e-21)
(1.3509 -0.191889 -2.24007e-20)
(0.658305 -0.0959313 8.1849e-20)
(-0.200102 -0.0685245 -1.80041e-19)
(1.79475 -0.42277 0)
(2.00125 -0.451366 7.28139e-20)
(1.44289 0.645141 1.3991e-19)
(0.82069 -0.626353 -2.25494e-19)
(0.994648 0.00805537 1.28437e-20)
(0.732002 -0.543701 3.07533e-19)
(1.29787 0.792687 1.27828e-19)
(1.81038 0.0919032 1.42137e-20)
(-0.363333 0.34218 0)
(1.08238 0.0513738 -2.42063e-19)
(-0.579525 -0.537671 -2.34435e-19)
(1.06619 0.482987 8.05711e-20)
(0.00591244 -0.102666 1.08833e-19)
(1.15778 0.0275323 -4.45575e-20)
(-0.16078 0.136741 -1.5417e-19)
(1.29233 0.577639 -7.82028e-20)
(1.12981 0.878398 0)
(-0.400052 0.316825 -8.88926e-20)
(-0.138235 -0.0599016 0)
(0.646046 0.553312 -2.79324e-19)
(2.00118 0.187223 -1.84139e-20)
(-0.399154 -0.453853 1.20071e-19)
(-0.648724 -0.0457046 -5.52631e-19)
(0.724142 0.0636309 2.50765e-19)
(1.96551 0.150404 -3.90979e-20)
(0.990875 -0.356834 -3.17796e-20)
(-0.021695 -0.0363467 0)
(-0.841729 0.442361 4.21215e-19)
(1.32462 0.965658 -2.01012e-20)
(0.838203 0.0648723 -1.37519e-19)
(0.551213 0.516668 1.94424e-19)
(0.478401 0.191769 0)
(-0.158555 -0.484974 -1.71077e-19)
(-0.772231 0.645301 2.86378e-19)
(1.30078 -0.965858 6.15549e-22)
(0.989321 -0.0378934 -1.95473e-19)
(-0.187997 -0.131833 7.24841e-21)
(-0.123359 0.161144 1.41994e-19)
(-0.283886 -0.139753 -1.32521e-19)
(1.87359 -0.174525 0)
(1.13324 0.043321 -3.24911e-19)
(2.20975 0.147072 2.0179e-19)
(1.2851 -0.632925 1.15984e-19)
(0.601907 -0.0951589 -2.44586e-21)
(0.586949 0.316637 0)
(0.934437 0.740874 -1.63914e-20)
(0.679019 0.623829 1.85192e-19)
(0.908963 -0.575305 1.5869e-19)
(0.675747 0.490314 0)
(1.02133 0.000397216 8.38514e-21)
(0.894125 -0.675691 2.26312e-19)
(0.828742 0.413809 -4.59701e-19)
(1.242 -0.113458 0)
(-0.144974 -0.135456 -2.36899e-19)
(0.00424489 0.230061 -9.38014e-20)
(1.58539 0.715354 0)
(1.35644 -0.950428 -5.26811e-22)
(-0.398828 0.107001 0)
(-0.279814 0.445744 1.07409e-19)
(0.727292 0.643543 -9.8436e-20)
(0.857919 -0.229618 0)
(-0.203851 -0.167403 0)
(1.54517 -0.47944 0)
(-1.1254 0.152823 4.92095e-19)
(1.22114 -0.89529 1.58574e-19)
(1.18704 -0.616096 6.81146e-20)
(1.06339 -0.180936 -1.78509e-19)
(0.890931 -0.70585 -1.79336e-19)
(0.187032 -0.19128 0)
(-0.812258 -0.373773 0)
(1.01343 -0.523197 1.8926e-19)
(-0.127537 -0.227385 0)
(-0.198979 0.445278 0)
(-0.400082 -0.258353 2.98727e-19)
(0.782649 0.660687 8.54025e-20)
(1.00356 0.784816 0)
(0.686759 0.542485 -8.5256e-20)
(0.832788 -0.0536051 -2.27964e-19)
(0.735847 0.551739 -2.28124e-19)
(0.585698 0.544126 -1.67426e-19)
(-0.238939 -0.481643 2.01083e-21)
(0.726345 -0.652452 0)
(0.895761 0.167754 -3.26109e-19)
(-0.329733 -0.52769 4.58939e-20)
(0.599067 0.554857 3.77299e-19)
(0.947605 0.788059 0)
(-1.20489 0.260693 3.54155e-19)
(-0.0961698 -0.416608 2.32474e-19)
(-0.00861018 -0.337831 -1.19275e-19)
(0.655016 0.559646 -1.48087e-20)
(0.969147 -0.00825207 6.06428e-20)
(-0.389843 -0.481972 0)
(2.44881 -0.102624 -2.85575e-19)
(1.88439 -0.419832 -2.98022e-19)
(0.658898 -0.610552 -8.00719e-20)
(-0.495094 -0.105294 1.02687e-20)
(1.18671 0.45401 1.81688e-19)
(0.878153 0.403928 0)
(1.0542 -0.174143 2.03484e-19)
(0.0758819 -0.47713 -7.36301e-21)
(-0.0805503 0.091373 3.57545e-19)
(0.924703 0.019209 -5.44585e-20)
(1.11745 0.143236 0)
(2.01433 -0.0773194 -2.23564e-19)
(1.85977 0.104296 0)
(0.540292 0.242294 -4.61229e-19)
(-0.132515 0.189802 0)
(-0.25164 -0.427791 1.96022e-19)
(0.693984 0.109866 0)
(0.631295 -0.526395 -1.88454e-19)
(1.13668 0.0161104 2.15867e-19)
(-0.321218 0.411825 3.92395e-20)
(2.12901 -0.0716591 4.79868e-21)
(2.10286 -0.318283 -9.6434e-20)
(1.11108 0.226708 -2.20652e-19)
(-0.345666 -0.528578 -9.08483e-20)
(1.08488 -0.861796 0)
(0.811918 0.0175282 -1.57034e-19)
(0.937354 -0.387488 -3.01628e-19)
(1.7371 -0.597709 -3.5272e-22)
(1.78106 0.0217138 1.7226e-19)
(1.08235 -0.00605269 3.89321e-19)
(0.0544873 -0.446299 -1.21313e-19)
(1.00647 -0.449107 -1.34002e-19)
(0.197278 -0.189938 2.65281e-19)
(1.00826 -0.00825137 0)
(1.00516 -0.00612011 0)
(0.857652 -0.243783 1.50297e-19)
(-0.00682422 0.455718 -9.07382e-20)
(0.161637 -0.12191 -1.01931e-19)
(2.06284 0.00782423 -1.57902e-21)
(1.06512 0.0307803 0)
(1.76105 0.153053 -1.22863e-19)
(0.947335 -0.826363 -9.61958e-20)
(1.78994 -0.586999 -4.70944e-20)
(1.09617 0.827455 0)
(0.478019 -0.46046 0)
(0.596587 0.508027 -1.77417e-19)
(1.09099 0.276186 -4.05366e-19)
(2.30575 -0.309592 2.90107e-22)
(0.855697 0.151324 1.40178e-19)
(-0.0426804 -0.442354 -3.64661e-19)
(1.22382 -0.486878 5.00886e-21)
(-0.272713 -0.399294 0)
(-0.0918657 -0.170716 0)
(-0.456838 -0.402745 0)
(1.34879 -0.73749 -1.08536e-19)
(-0.161724 0.37173 -2.05153e-19)
(-0.062951 0.130329 0)
(1.28359 0.967471 -3.3948e-20)
(1.11045 0.148093 -4.24221e-19)
(2.17484 0.554956 -5.10115e-20)
(1.07346 0.915536 8.34348e-20)
(-0.137715 0.461772 1.29338e-19)
(0.872746 -0.177075 0)
(-0.460243 -0.350021 -2.55125e-19)
(-0.205115 0.473406 2.44987e-19)
(0.774948 0.021383 1.86107e-19)
(1.52934 0.936548 -3.46267e-21)
(1.85778 0.614882 7.05951e-21)
(-0.0991503 0.261492 -1.76675e-21)
(0.751525 -0.686629 -4.00475e-20)
(1.11249 -0.018976 0)
(1.68506 -0.0773056 0)
(1.04256 0.0569629 0)
(-1.32111 0.486774 -2.61548e-19)
(-0.427511 -0.415649 9.16471e-20)
(1.03697 0.834171 0)
(0.999202 -0.00596434 5.24896e-19)
(0.757619 0.593604 -2.28443e-19)
(-1.55074 0.558901 -2.49654e-19)
(0.860276 0.00887191 -4.18884e-20)
(0.722475 -0.659506 -2.32844e-19)
(1.38083 0.699873 -3.20575e-20)
(0.572683 -0.463577 -2.99467e-19)
(1.13246 -0.00121294 -4.7e-19)
(0.811445 0.0454647 4.67156e-20)
(1.55329 -0.186477 8.29889e-20)
(1.57487 -0.154319 -6.57482e-20)
(-0.0437592 -0.0649379 4.17349e-23)
(1.07364 0.460141 -2.68525e-19)
(1.34403 0.611576 7.4019e-20)
(-0.0748702 -0.373083 0)
(-0.0754973 -0.398476 1.35379e-19)
(-0.209882 -0.177243 9.99532e-20)
(-0.188361 -0.0756186 -9.45741e-20)
(0.469614 0.301964 0)
(1.25375 -0.465611 0)
(-0.00749891 0.00926195 -1.30519e-19)
(-0.286892 -0.559272 -5.17446e-20)
(1.04821 -0.029175 1.86281e-19)
(-0.339061 0.358259 -4.14728e-20)
(1.22393 0.311281 -4.04712e-19)
(-0.0166596 0.4546 0)
(0.841026 -0.746505 -3.25796e-19)
(1.23799 -0.165941 7.96244e-20)
(-0.342579 -0.496722 1.38508e-19)
(0.71585 0.149937 3.30978e-19)
(0.620621 0.125824 1.06979e-19)
(0.507103 -0.480771 2.09737e-19)
(-0.18478 -0.274006 -1.04889e-19)
(1.47635 0.559964 0)
(0.386385 0.333685 -1.9507e-19)
(1.02736 -0.0149656 -2.9664e-19)
(-0.687692 -0.0991022 2.16614e-19)
(1.41368 0.474044 -1.19702e-19)
(-0.151423 -0.290422 -3.90494e-20)
(0.68573 -0.627023 -7.42529e-20)
(0.809334 0.176682 -2.07721e-19)
(0.970236 0.416855 2.29387e-20)
(1.15824 -0.144038 3.65617e-20)
(0.612961 -0.242472 -3.06165e-19)
(2.022 -0.403503 -9.29937e-20)
(1.86316 -0.0814985 0)
(1.6761 0.43777 -3.26122e-20)
(2.05027 0.0617498 -1.46201e-20)
(0.784533 -0.319337 1.0732e-19)
(1.00212 0.340734 -1.78765e-19)
(1.0347 -0.319611 1.41759e-20)
(0.413431 0.380764 -2.52761e-19)
(-0.172397 0.0484972 2.02312e-19)
(1.87477 -0.278326 0)
(0.932141 0.0039451 0)
(0.878789 -0.778408 6.51187e-20)
(-0.0957754 -0.484289 -2.54272e-19)
(-0.826399 -0.264088 -1.97111e-19)
(-0.0641075 -0.103378 -1.66661e-19)
(-0.248146 0.344538 -1.50059e-19)
(-0.315797 -0.411415 0)
(-0.0740153 -0.12676 2.90983e-20)
(0.129175 0.352905 -8.69382e-20)
(-0.139925 0.181594 -3.24042e-19)
(0.807536 -0.122101 0)
(1.68103 -0.517669 1.25536e-19)
(-0.203041 -0.212099 0)
(0.99574 0.0233359 3.77852e-19)
(-0.154607 -0.457119 1.73679e-20)
(0.548267 -0.43523 4.0143e-19)
(-0.724693 -0.551923 3.8794e-19)
(-1.3401 0.193658 0)
(0.198359 0.392339 9.7642e-20)
(1.00674 0.0228114 -1.13832e-20)
(-0.172063 -0.138149 0)
(1.0049 -0.00967548 -5.86513e-20)
(0.870868 -0.736133 -3.07128e-19)
(1.3319 -0.242586 0)
(0.941766 -0.280102 2.15705e-19)
(0.0887326 0.351776 2.025e-19)
(-0.0131339 -0.00880908 0)
(-0.206169 -0.43591 -4.95743e-21)
(0.735632 -0.642979 -4.42973e-19)
(0.958404 -0.0287803 -2.7709e-19)
(-0.100837 -0.519473 3.21037e-19)
(-0.202333 -0.407158 1.19424e-19)
(-0.303122 -0.411731 0)
(0.951613 0.466485 0)
(-0.340612 -0.564023 1.72797e-19)
(1.84869 -0.104505 -2.35692e-19)
(1.06692 0.888286 1.86672e-20)
(1.06624 0.211075 -1.24946e-19)
(1.14936 0.00747344 -2.33572e-19)
(1.0621 -0.0739922 -8.5199e-20)
(-0.0951157 -0.535489 -2.98207e-19)
(1.94725 0.113403 3.97737e-19)
(0.671277 0.0310542 2.09615e-19)
(2.13148 -0.120193 1.50628e-19)
(1.06037 -0.156284 0)
(-0.00579023 0.485792 5.56555e-19)
(1.1386 0.0257361 -5.11983e-19)
(1.74373 0.61134 9.61255e-21)
(0.750388 -0.465917 -1.66074e-19)
(-0.0698486 -0.0369159 1.52871e-19)
(0.805433 -0.707686 4.01932e-19)
(1.23772 0.195006 7.46172e-20)
(1.00713 -0.00788692 2.59695e-19)
(0.0209001 -0.46579 -1.34556e-19)
(1.02328 0.0151211 0)
(1.76925 0.149118 -2.39253e-19)
(-0.0278264 -0.0168669 0)
(1.01539 0.0119384 -1.53854e-19)
(-1.38634 0.359103 -5.74833e-19)
(1.67087 0.293492 3.52939e-20)
(-0.340893 -0.196295 1.31907e-19)
(1.59565 -0.00387061 -3.84443e-21)
(1.01261 -0.0187464 5.37513e-20)
(1.34579 -0.0927132 0)
(1.45497 -0.624302 -1.69342e-19)
(1.02163 0.0309838 -1.5847e-19)
(1.4375 0.781685 -5.69554e-20)
(1.40937 -0.0596995 0)
(0.784918 0.0790299 -1.59528e-20)
(-0.0112633 0.0105225 0)
(1.36563 0.0458983 0)
(-0.412467 -0.456429 0)
(1.23483 0.435792 0)
(1.85308 0.260758 4.42805e-20)
(0.731749 0.606008 4.00426e-19)
(0.293064 -0.294679 -2.48272e-19)
(-0.261141 -0.539175 -2.8865e-19)
(-0.0246544 -0.0381743 0)
(2.1018 -0.32599 1.2263e-19)
(1.37354 0.511267 0)
(1.44733 0.293072 0)
(-0.493832 -0.33061 1.12826e-19)
(0.801661 0.706984 1.28733e-19)
(1.70868 -0.0381709 0)
(-0.323219 -0.413671 6.74604e-20)
(0.905137 0.214645 1.9135e-19)
(2.11788 -0.334698 -6.07106e-20)
(1.23423 0.918985 4.53044e-20)
(0.923327 -0.83197 -4.3553e-20)
(1.63175 -0.135455 -1.81459e-20)
(0.788702 0.711827 1.32197e-19)
(1.17254 0.91887 0)
(2.49866 -0.151141 1.88029e-19)
(0.9483 0.589821 0)
(1.53089 -0.576116 4.54938e-20)
(1.04634 0.0922238 1.8946e-19)
(1.00616 -0.00567168 0)
(0.215971 0.52176 5.04106e-19)
(0.893833 -0.180737 4.9401e-20)
(0.639003 -0.420142 0)
(0.677169 -0.392344 2.17172e-19)
(1.23464 0.550824 -3.36515e-20)
(0.471328 0.444101 2.77614e-19)
(-0.166153 0.243468 3.83844e-20)
(0.0996997 -0.0874544 9.2999e-20)
(0.755219 0.0663631 0)
(1.32958 -0.91102 -1.03683e-19)
(1.03111 -0.0422867 4.13286e-19)
(1.52294 0.325584 1.416e-19)
(-0.351445 -0.431244 5.83187e-20)
(-0.784663 -0.612068 0)
(1.23491 -0.248066 -1.21154e-19)
(-0.010671 -0.0099658 -1.33512e-19)
(0.210515 -0.155538 -6.41292e-20)
(-0.137239 0.0551527 -8.86512e-22)
(-0.206922 0.102021 2.97018e-19)
(1.44404 -0.372782 -1.20475e-20)
(2.46575 -0.114438 3.82345e-19)
(1.18865 0.453842 -2.92989e-19)
(0.853881 -0.0529449 0)
(1.85499 -0.12618 2.04355e-19)
(1.92209 0.0969991 9.88459e-20)
(0.920509 -0.774317 1.52135e-19)
(1.15633 -0.978013 -5.63105e-20)
(0.475828 0.441286 1.86221e-19)
(1.38048 0.342267 0)
(1.75803 0.562283 2.8279e-20)
(-0.0172501 -0.0223615 -2.72523e-19)
(0.877811 0.764667 0)
(1.36813 0.462181 0)
(0.294186 -0.294133 -3.61806e-21)
(0.320227 0.295151 0)
(-0.819731 -0.509038 -3.77517e-19)
(-0.225007 0.371737 -1.12589e-19)
(1.71451 -0.448729 0)
(1.23596 0.105168 1.84535e-19)
(-0.542101 -0.229443 1.63673e-19)
(0.538709 -0.511513 -4.83513e-19)
(2.07964 -0.101295 -4.84183e-20)
(0.61683 -0.560498 0)
(1.0298 0.124395 0)
(1.31939 -0.261257 0)
(1.116 0.225243 -2.35942e-19)
(1.34496 0.10709 3.34776e-19)
(-1.08958 0.0060175 0)
(0.894095 -0.0633609 0)
(2.10705 -0.114488 -7.75637e-21)
(-0.0726201 0.133585 9.8654e-20)
(2.49626 0.0442599 -2.63153e-19)
(1.04 -0.511362 1.3488e-19)
(1.99559 0.0572244 -2.92003e-19)
(-0.750354 -0.26844 -1.38576e-19)
(1.92055 0.106215 -1.73958e-19)
(1.01697 -0.0241052 4.26934e-19)
(1.51694 0.594274 0)
(-0.230558 0.451147 3.03464e-20)
(1.01162 -0.837328 1.92259e-19)
(0.85902 -0.024971 4.89623e-20)
(0.643044 -0.443077 0)
(1.90474 -0.566004 3.76749e-22)
(1.21632 -0.195485 1.60523e-19)
(1.79474 -0.49619 0)
(0.611683 -0.568122 4.7771e-19)
(0.734942 0.110926 -2.04541e-20)
(2.32504 0.0584299 4.10135e-19)
(-0.0918245 0.206481 -2.03143e-19)
(1.3309 0.613247 1.50038e-19)
(1.14416 0.399042 3.69091e-21)
(0.90051 0.366606 2.26117e-19)
(1.97279 -0.0525133 -2.73484e-19)
(-0.118406 -0.537716 -4.8027e-21)
(0.723433 -0.270227 0)
(-0.156717 -0.0947641 2.51885e-19)
(1.08775 -0.949044 0)
(1.07266 -0.663145 2.33456e-20)
(1.21602 -0.258238 -6.94886e-19)
(1.36703 0.0380888 -2.85404e-20)
(-0.554242 -0.351879 -3.22313e-19)
(0.98379 0.476564 1.75819e-19)
(-0.22475 0.749427 2.89207e-19)
(0.691641 -0.0382982 0)
(2.02545 -0.031156 0)
(1.70365 0.159793 2.4096e-20)
(0.782702 -0.0137262 0)
(1.37721 -0.213844 -1.65176e-19)
(-1.00185 -0.43743 4.54018e-19)
(1.92024 0.488888 9.90741e-21)
(1.04133 -0.0336754 0)
(0.559344 -0.361038 1.07696e-19)
(1.00955 0.0271054 2.02689e-19)
(0.226992 0.522701 -2.54956e-19)
(-0.252115 0.176631 0)
(1.12036 -0.488914 5.21925e-19)
(1.8563 -0.135441 -5.28106e-22)
(1.10878 -0.506098 -2.27043e-19)
(2.28585 0.241323 1.47981e-19)
(1.28441 0.785067 0)
(0.864242 0.0180058 0)
(-0.406514 -0.420629 -1.48271e-19)
(-0.00878563 0.0082677 1.46853e-19)
(0.944089 0.361087 -2.08968e-19)
(0.183794 -0.394428 -1.19393e-19)
(0.640422 0.399662 2.43167e-19)
(0.991019 0.0950307 0)
(0.541298 -0.503415 0)
(0.633468 -0.282513 5.4205e-21)
(1.23938 -0.518156 -1.07717e-19)
(0.581208 -0.0333161 9.02691e-21)
(0.736955 -0.163674 1.20668e-19)
(-0.0614775 0.0793295 -2.61777e-19)
(1.01704 0.0576412 1.87754e-19)
(0.657079 0.612147 0)
(1.26831 0.689557 0)
(1.60843 0.259565 0)
(-0.399687 -0.381805 -1.36022e-19)
(1.28005 0.559495 2.02966e-19)
(2.10423 0.0460053 4.72165e-20)
(0.926262 -0.00963669 0)
(1.97961 -0.504753 0)
(2.12447 -0.0749052 -3.02042e-19)
(0.561624 0.555875 2.95531e-19)
(1.00547 0.00494322 -2.02497e-19)
(1.48194 0.465102 0)
(-0.193098 0.299077 0)
(1.24266 0.314117 2.90048e-19)
(1.01969 0.521628 -1.30603e-19)
(1.07019 0.022976 0)
(1.72835 0.111952 0)
(2.00262 0.65636 -2.93894e-19)
(-0.081766 0.348606 -8.25091e-22)
(0.997394 0.0131054 0)
(0.700685 0.464411 -3.34633e-20)
(0.939254 -0.829279 0)
(1.00269 0.0169372 4.71137e-20)
(0.478597 -0.444023 9.83092e-22)
(0.910449 -0.330878 3.18293e-19)
(0.728057 -0.500099 -5.96086e-20)
(2.24547 -0.179202 2.83212e-19)
(1.43313 0.137393 1.01726e-19)
(0.792991 -0.0280443 0)
(1.01677 0.00922389 0)
(-0.577945 -0.591633 0)
(0.662663 0.634111 -1.89309e-19)
(-0.0380267 0.0471195 1.76543e-19)
(1.16511 0.342309 -4.65149e-19)
(-0.417363 0.272533 0)
(0.819979 0.633354 1.68429e-19)
(1.01475 -0.341519 0)
(1.0049 -0.0020592 1.18444e-19)
(0.568018 0.00161008 7.85092e-20)
(1.02901 0.398708 2.58346e-19)
(1.22111 0.153881 0)
(2.10307 0.150603 -6.97584e-20)
(0.830004 -0.119368 -3.71803e-19)
(-0.973306 -0.534349 -5.53005e-19)
(1.19284 0.289132 0)
(0.873536 0.234745 1.76598e-19)
(2.02176 -0.250487 0)
(0.767611 0.512817 3.63508e-19)
(-1.08355 -0.463724 2.10319e-19)
(-0.0440963 0.0794366 0)
(0.58721 0.558247 -7.08505e-20)
(1.03582 -0.650632 -1.63318e-19)
(0.484488 -0.259021 -1.23744e-19)
(1.01964 -0.0177397 0)
(-0.279811 -0.0295644 -1.67705e-19)
(0.6452 -0.576105 8.42436e-20)
(0.902755 0.282767 0)
(1.69534 -0.419778 1.56312e-19)
(0.976617 0.830536 2.43997e-20)
(0.91732 -0.538495 -3.47286e-21)
(0.19502 -0.253471 -1.79876e-19)
(0.234192 -0.0528508 -5.56754e-19)
(-0.109649 -0.222627 7.20812e-21)
(0.810064 0.349872 2.47906e-19)
(-0.177005 0.402728 -5.07032e-21)
(1.42047 -0.661687 3.43057e-21)
(1.02297 0.00762724 -3.52708e-19)
(-0.461688 -0.394764 0)
(1.03242 0.0318943 -4.13147e-19)
(2.27247 0.141863 2.27378e-19)
(0.878103 0.680269 2.82611e-19)
(1.13471 -0.0729063 1.65924e-19)
(1.00445 -0.0319597 1.63211e-19)
(1.37762 0.053509 2.57719e-20)
(-0.295714 -0.329205 -1.35457e-23)
(1.71979 -0.884307 1.45915e-20)
(1.15294 -0.131288 -8.37592e-20)
(0.80432 0.0542133 9.64177e-20)
(0.916414 -0.301705 9.25981e-20)
(1.0787 0.239753 0)
(0.952869 0.724874 0)
(0.783313 0.117484 -9.3574e-20)
(2.06571 0.174979 -2.16027e-20)
(-0.866107 -0.522345 1.70933e-19)
(1.03762 -0.54741 -5.45856e-19)
(0.624316 -0.542255 4.01874e-19)
(1.21004 0.167792 -1.11828e-19)
(0.260651 -0.435104 1.36609e-20)
(1.5013 -0.578428 0)
(0.750689 0.10606 -6.81766e-21)
(1.59475 -0.545178 -7.8879e-20)
(1.03127 0.752066 0)
(1.25055 -0.61134 0)
(0.0751078 0.0985332 0)
(-0.186315 -0.312045 -4.7413e-20)
(-0.0693569 0.150653 0)
(1.80446 0.597302 3.74502e-19)
(1.22295 0.181189 6.45315e-21)
(-1.02057 0.260757 2.37033e-19)
(1.97456 0.680181 1.37068e-20)
(1.82439 0.441772 -6.38377e-20)
(2.16593 -0.36598 -2.87766e-20)
(-0.178189 0.0212317 -2.08552e-19)
(-0.212648 -0.429955 3.69567e-21)
(1.10005 0.120035 0)
(0.676557 -0.0344025 0)
(1.00191 -0.000466748 1.72357e-22)
(-0.423733 -0.38381 0)
(1.58049 -0.00187325 -6.98068e-20)
(0.678917 -0.0301841 0)
(1.06362 0.00849663 1.3297e-19)
(0.991398 0.0145859 -4.60856e-20)
(0.93429 0.27412 1.09918e-19)
(1.06469 -0.0171538 -9.44785e-22)
(0.953348 -0.19719 -5.58104e-20)
(1.02369 -0.0330351 3.79784e-19)
(0.678821 -0.617285 1.9117e-19)
(-0.951867 0.435321 -2.75055e-19)
(1.15484 0.421921 1.47829e-20)
(-0.0110083 0.0144151 0)
(1.11868 0.786118 0)
(1.029 -0.0084411 0)
(1.01174 -0.78386 -1.14721e-19)
(1.03915 -0.892887 6.0639e-20)
(0.984462 0.249041 -1.80284e-20)
(0.186883 0.24121 -1.09166e-18)
(1.20181 -0.530008 1.92926e-20)
(0.591966 -0.393138 -6.45061e-19)
(1.35856 0.427274 -4.00608e-20)
(0.719896 -0.25498 -1.13787e-19)
(2.07708 -0.37238 7.30191e-20)
(0.472544 0.0749013 -1.60414e-20)
(-0.301679 -0.42746 -1.0044e-19)
(1.11011 0.54588 1.98277e-19)
(-0.083693 -0.336769 0)
(0.0861839 -0.44011 3.0551e-19)
(-0.0863809 -0.113402 1.57592e-22)
(1.02603 -0.0438246 3.38902e-19)
(1.02301 -0.000334971 -8.74794e-21)
(1.11145 -0.0119567 -9.37263e-20)
(1.47835 0.0854826 2.07348e-20)
(1.6175 0.314852 5.92797e-20)
(0.402923 -0.378329 -3.21992e-19)
(0.783664 0.194514 3.18046e-20)
(1.0354 0.00136666 -2.50366e-19)
(1.1766 0.315691 -1.52187e-20)
(1.47953 0.169082 0)
(1.10548 0.584938 -3.71741e-19)
(1.00305 -0.00425965 9.66481e-20)
(0.668505 0.596693 2.594e-19)
(1.36084 -0.514257 -1.44889e-21)
(1.06975 -0.00961431 -3.07236e-20)
(1.13018 0.0116939 8.72725e-22)
(2.39623 0.0970441 1.53544e-20)
(0.457665 0.1309 0)
(1.04465 -0.0389267 0)
(1.05086 -0.0345105 5.93947e-19)
(1.00241 -0.00172891 0)
(-0.0481083 -0.0717992 0)
(0.932605 -0.573255 0)
(1.00069 0.000653342 -5.62173e-19)
(1.16445 -0.692293 9.37973e-20)
(1.02285 -0.00514923 1.18294e-20)
(1.33823 0.9478 -2.69201e-20)
(1.52416 0.996898 1.19375e-21)
(1.10591 -0.384337 -3.0771e-20)
(1.61326 0.135531 2.60169e-19)
(1.52601 0.265716 0)
(0.0227362 0.390193 0)
(2.17741 -0.161566 5.10304e-19)
(1.16652 -0.636453 0)
(1.00032 -0.00409108 -1.73895e-19)
(1.01041 -0.000651019 3.37975e-19)
(1.44504 0.142803 -6.99721e-20)
(-0.00717693 -0.123479 1.96772e-19)
(0.971323 -0.00190503 1.8368e-19)
(0.121661 0.0245168 1.80476e-20)
(0.308781 -0.104228 6.88506e-21)
(1.59183 0.128267 9.97905e-23)
(0.926507 0.0168665 -1.85758e-19)
(1.00289 0.00386345 2.1862e-19)
(1.00005 -3.67166e-05 1.29022e-20)
(0.790859 -0.0125113 0)
(0.729233 -0.0261532 0)
(0.725071 -0.0262919 7.75273e-22)
(0.700277 -0.0284862 0)
(1.32406 -0.165317 0)
(0.628505 -0.156485 0)
(-0.00872266 -0.0997767 2.51403e-20)
(0.153165 -0.0541172 -1.03716e-20)
(1.26226 -0.0895194 0)
(1.33995 -0.101857 1.28081e-20)
(1.57644 0.0870298 0)
(-0.00488316 0.0940797 0)
(-0.00439776 -0.00340023 0)
(0.200463 0.0524985 -2.72153e-21)
(0.768221 0.149647 3.5657e-20)
(0.784606 0.0230182 0)
(0.791524 0.0200906 0)
(0.964256 0.019834 -2.28836e-19)
(0.817163 0.00860341 4.26393e-19)
(1.0072 -0.00122105 0)
(0.999994 -0.000802108 4.03722e-19)
(0.999979 -0.00105087 -3.12096e-22)
(0.791616 0.0229578 3.6339e-19)
(0.991867 -0.00764748 -2.10918e-19)
(0.0627081 0.0799058 0)
(0.210401 -0.0470354 -6.88952e-21)
(1.00067 -0.000665145 -2.03961e-19)
(1.00076 0.00184481 -3.50181e-19)
(1.32191 0.0734316 0)
(0.998872 0.00189638 0)
(0.999648 -3.92828e-05 0)
(1.62564 -0.606402 -3.15046e-21)
(0.62245 -0.183224 3.54612e-20)
(0.908043 0.303784 0)
(-0.312969 0.35959 1.94015e-19)
(-0.523262 0.501967 -4.91795e-19)
(1.0202 -0.0179274 -2.71955e-19)
(-0.353801 -0.500525 -9.39399e-20)
(1.01948 0.0029698 -2.19154e-19)
(1.17737 -0.219998 -1.13341e-19)
(0.806723 -0.481282 3.14122e-19)
(-0.048338 -0.075607 -6.70937e-20)
(1.0289 0.0132288 0)
(1.05391 -0.0110672 -5.90463e-20)
(0.856209 0.0238018 0)
(-0.0563033 0.0555978 2.59081e-19)
(0.996988 -0.491442 0)
(-0.456822 -0.38421 -2.40479e-19)
(0.233897 0.0760759 -1.37652e-20)
(1.65645 0.673458 -7.03929e-21)
(-0.0640543 -0.0143599 0)
(1.0544 -0.037668 1.83641e-19)
(1.104 -0.381856 4.24923e-21)
(0.927726 -0.0141996 2.87681e-19)
(1.01279 -0.00782815 -1.8514e-19)
(1.67481 0.851563 3.68835e-20)
(0.518164 0.485801 0)
(0.44062 0.393008 2.03884e-19)
(1.87122 -0.531487 -8.01322e-22)
(1.15344 0.127125 1.96013e-19)
(1.09521 -0.721202 0)
(1.021 0.00453247 0)
(0.998824 -0.0181806 -4.26368e-19)
(1.01805 0.0161487 -4.16272e-19)
(-0.157046 -0.350608 0)
(1.21623 0.813661 -1.30491e-19)
(1.52023 -0.523386 1.54277e-21)
(1.01584 0.00507094 1.60102e-19)
(1.01134 0.0140728 -2.00904e-19)
(-0.532251 -0.334265 -2.39572e-20)
(1.11961 -0.243604 -1.08897e-19)
(1.01914 -0.015611 6.82561e-19)
(1.29412 -0.390353 0)
(1.86019 0.635989 -4.48525e-20)
(1.01563 -0.0118389 -2.12721e-19)
(2.09754 0.0847892 -1.36904e-19)
(1.06199 0.00608356 -4.89577e-22)
(1.0092 -0.0090632 4.25231e-20)
(2.09839 -0.311784 -2.46216e-19)
(1.01466 0.00767027 2.06554e-19)
(0.919909 0.287947 7.73934e-22)
(1.01788 0.00360838 0)
(0.93318 0.147384 5.0166e-20)
(-1.02389 -0.0396754 6.57854e-21)
(0.996795 0.0216187 2.05242e-19)
(1.03908 0.0206799 -5.85341e-22)
(1.31054 -0.416482 -1.08489e-20)
(1.25284 0.312757 4.15192e-19)
(0.998502 0.0156564 1.41224e-19)
(1.01736 -0.0136648 4.54372e-22)
(1.72002 0.248947 -2.33476e-20)
(1.79048 0.938487 -1.0446e-19)
(0.778834 -0.6997 6.30971e-20)
(0.455608 -0.334501 -3.10943e-19)
(1.00805 -0.0106449 0)
(1.02018 0.00258709 5.13029e-20)
(1.01054 -0.00863054 1.08082e-19)
(0.913395 0.011256 6.75115e-21)
(1.01267 0.0063103 -2.15069e-19)
(1.02726 -0.0233286 2.46756e-19)
(1.00872 -0.00596914 -2.02013e-19)
(1.0136 0.00741224 -4.96952e-22)
(1.01217 0.0038478 -3.86042e-22)
(1.02444 0.0132642 2.05962e-19)
(0.900009 0.0829937 5.17196e-19)
(1.75379 0.682222 0)
(0.689261 -0.395946 3.09594e-19)
(1.01096 -0.00295708 0)
(1.02145 -0.0193779 -5.96281e-20)
(1.53405 0.439294 -8.219e-20)
(2.02577 -0.049757 0)
(2.34241 -0.238063 -1.28093e-19)
(1.23301 0.4838 -6.12407e-20)
(0.752195 -0.0148234 0)
(1.91387 -0.213912 0)
(0.125438 0.363378 -2.28841e-19)
(1.27721 -0.0783105 -2.75049e-20)
(1.01752 -0.00335145 -2.16595e-19)
(1.12555 -0.573017 -6.46727e-20)
(1.27959 -0.279004 -3.59304e-20)
(1.28947 0.481705 0)
(1.47649 -0.569017 0)
(1.93673 0.48772 0)
(0.0895748 0.292816 8.11161e-20)
(0.961126 0.152069 1.16513e-19)
(-0.478172 0.242797 0)
(-0.0117305 0.227355 -2.36975e-19)
(1.69943 0.959838 -5.4191e-20)
(1.00884 -0.00369388 -4.23396e-19)
(0.958727 -0.0237201 3.13113e-20)
(1.02231 0.00733446 2.80424e-19)
(0.685096 -0.0398479 0)
(-0.137249 -0.312553 -2.02985e-20)
(0.607142 0.42461 -3.42806e-19)
(1.79987 0.581949 1.10137e-19)
(0.121852 0.349824 0)
(0.790556 0.066467 8.35338e-20)
(0.516678 0.493553 5.18761e-20)
(1.18033 0.877565 -3.53016e-20)
(-0.0356792 -0.0215279 9.77117e-20)
(1.01926 0.0117969 0)
(1.12825 0.30283 5.91736e-20)
(1.01149 -0.00151717 1.58894e-19)
(2.31263 0.153938 0)
(1.01184 0.00776307 2.66573e-19)
(0.165984 -0.471217 -1.44694e-19)
(1.02005 0.00980888 -1.64981e-19)
(1.28326 0.291627 0)
(2.20402 -0.211314 5.71171e-22)
(1.00906 0.00338543 -1.10696e-19)
(0.99457 -0.0313175 2.92078e-19)
(1.0936 0.0976132 -3.06463e-21)
(1.05501 0.478643 -3.65413e-20)
(-0.146336 -0.0680743 2.54412e-19)
(1.98408 0.251039 1.56817e-19)
(0.400427 0.16439 4.10334e-20)
(0.803146 0.0152207 -4.00032e-19)
(0.803172 0.0253962 0)
(0.386422 -0.010614 5.98297e-20)
(1.02137 -0.0157113 -3.20393e-20)
(0.973966 0.0234724 0)
(1.05152 -0.00108531 -2.03073e-19)
(-0.112173 -0.311955 -2.09097e-20)
(-1.0953 -0.300477 2.61633e-19)
(2.14837 -0.622063 0)
(-1.17754 0.0837274 -6.37286e-19)
(1.52409 -0.353658 0)
(1.04047 -0.0176359 5.96206e-20)
(1.14677 0.0729277 9.36274e-22)
(1.01284 -0.00181413 1.71998e-19)
(-0.885814 -0.308278 3.59812e-19)
(1.01825 0.00189315 0)
(0.993137 0.00381495 -4.12922e-19)
(1.00767 0.00835334 2.18605e-19)
(0.759224 -0.0056939 0)
(0.732897 -0.00455896 -7.11604e-21)
(0.957272 -0.00111817 -1.86921e-19)