/*--------------------------------*- C++ -*----------------------------------*\
| =========                 |                                                 |
| \\      /  F ield         | OpenFOAM: The Open Source CFD Toolbox           |
|  \\    /   O peration     | Version:  2306                                  |
|   \\  /    A nd           | Website:  www.openfoam.com                      |
|    \\/     M anipulation  |                                                 |
\*---------------------------------------------------------------------------*/
FoamFile
{
    version     2.0;
    format      ascii;
    arch        "LSB;label=32;scalar=64";
    class       volScalarField;
    location    "37";
    object      p;
}
// * * * * * * * * * * * * * * * * * * * * * * * * * * * * * * * * * * * * * //

dimensions      [0 2 -2 0 0 0 0];

internalField   nonuniform List<scalar> 
2186
(
1.1337
0.129596
0.411422
1.4278
-0.78729
-0.141702
1.07214
-0.489342
-0.334562
1.64014
1.21983
-0.416108
-0.503142
1.2991
-0.0794053
1.28426
1.32035
-0.862606
0.0367778
-0.982517
1.67538
-0.9499
1.30522
-0.482728
1.29684
1.40522
1.51675
1.27631
0.698488
1.29836
-0.949632
1.29698
-0.927964
-0.716066
-0.421254
0.153754
-0.686622
1.65615
-0.754522
0.00118672
-0.502222
-0.911985
-0.182199
-1.09342
1.07691
1.62183
0.772195
0.927689
-0.0451693
-0.905244
-0.961461
1.04295
-0.179443
1.56864
-1.00573
1.32049
-0.229831
1.34551
-0.798683
1.16226
-0.0735768
0.760202
0.657436
0.0797075
0.687274
0.873496
0.785299
1.56811
1.46171
-0.334088
-0.481861
0.00895058
1.55551
1.36249
1.42506
1.50579
-0.107009
1.31363
-0.425499
-0.813159
-1.01457
0.0257227
1.2931
0.740933
1.29069
1.29479
1.55412
-0.0794568
-0.191355
-0.434117
1.32094
-0.941376
1.25351
1.4857
1.30505
0.503059
0.297062
0.706256
-0.843985
1.35737
-1.13718
-1.04303
0.773349
1.27289
1.32275
-0.956025
1.425
-0.159263
1.30059
-1.73829
-0.797747
-0.898724
0.950577
1.55452
-0.335656
-0.558536
0.308652
0.123906
-0.434833
1.56499
-0.000127336
-0.972475
0.997927
-0.872746
1.29028
0.366657
-0.84668
1.49518
-0.855713
1.05528
1.70734
1.58067
0.671271
1.04797
-1.00389
-0.935537
1.29472
-0.348989
-0.431999
-0.443283
0.933244
0.259039
-0.480749
1.09515
1.25177
1.28733
-0.116388
-0.785683
1.01111
-1.05983
-0.896961
0.984608
1.31686
1.53034
1.40416
0.936365
1.53963
0.545307
0.435934
0.840377
-0.441858
-0.486946
1.23858
1.35049
0.0302985
0.286069
-0.346355
-0.423048
-0.216972
-0.0394669
0.436378
1.36155
1.32069
1.46572
0.50973
-0.223851
-0.739963
1.23769
-0.719625
1.01436
-0.423551
1.30927
-0.971683
0.647213
0.6256
-0.728249
-0.59174
1.33006
-0.426262
-0.522608
-0.657333
1.53322
-0.688007
1.3354
-0.438112
-1.97366
0.117834
1.44546
1.25393
-0.956742
-0.441727
-1.569
0.523964
1.33338
-0.427768
-0.85397
-0.435642
0.244437
1.19315
-0.418655
0.930363
-0.203524
1.54356
0.966202
1.07661
1.3206
1.39308
1.29841
1.27485
1.30594
0.801876
-0.574646
-0.954039
0.139757
0.623939
-0.899309
-0.832723
1.21797
1.46185
-0.462838
-0.372981
-0.861064
0.792873
1.0514
1.1449
1.27681
1.47793
-0.906089
1.26117
-0.455293
-0.878492
-0.568761
1.17253
0.853889
1.35457
1.47797
1.30789
1.27965
-0.46515
1.21082
1.35713
-0.480813
1.15611
0.907905
-0.879797
-0.415061
-0.388745
1.35512
1.31132
-0.513343
-0.511195
0.451754
1.32878
-0.916978
0.889199
1.27071
1.20869
-0.390551
-0.951107
1.28756
0.765836
-0.14538
-0.39663
1.59918
-0.861078
-0.47169
1.19072
1.53522
1.29414
-0.809295
-0.413327
-0.270233
1.10667
-0.492745
0.955124
1.28083
1.37653
0.268301
-0.0101848
1.21422
-0.39642
1.29669
1.54569
1.30831
1.30582
0.392967
-0.950349
-0.492601
-0.172147
-0.0351146
-0.574595
0.800548
-0.0722067
0.715836
1.5232
1.4199
1.10373
-0.165826
1.39755
-0.418446
-0.383311
-0.473549
-0.437697
-0.534983
0.776711
-0.906265
-0.924677
0.212324
1.13237
-0.424135
0.459308
-0.919975
-0.272996
-0.545681
-0.886103
1.50335
0.00770329
0.350949
-0.948083
1.1792
0.682821
-0.321416
0.934179
-1.77364
-0.525006
0.77607
1.32513
1.26396
-1.66327
1.4367
1.2697
0.454579
1.58906
1.27676
1.26144
0.790936
0.0938557
-0.448075
1.03258
-1.05436
-0.420052
-0.444873
-0.585137
-0.4392
1.61264
0.320726
-0.95651
-0.4713
1.27703
-0.723837
-0.426845
-0.97159
1.15325
-0.094869
-0.572336
1.51635
1.58402
1.48521
-0.484309
0.282433
1.62691
1.28488
-0.683132
0.541563
-0.459957
0.611054
1.42586
1.17314
1.22439
1.62716
-0.0158013
0.12854
-0.208666
-0.591024
-0.434707
-0.933709
-0.0922294
1.54269
-0.991999
-0.431694
1.26431
0.991315
-0.419095
-0.956615
-0.450955
-0.897832
-0.498002
-0.434486
-0.981746
-0.839123
1.50747
-0.00606266
-0.570265
1.31046
-0.452048
1.60464
-0.732407
-1.34529
-0.972622
1.29518
-0.411846
1.31012
1.23292
0.410339
1.38682
-1.00919
-0.433612
-0.451826
1.38196
1.26513
-0.41216
-0.458402
-0.488633
1.16873
-0.517659
-0.823644
0.605799
1.16352
1.22122
1.08687
-0.422548
-0.46724
1.02383
-0.470514
1.16779
-1.90782
1.31561
-0.0208319
1.48546
-0.434118
1.23761
0.853016
1.31672
-0.420736
1.26684
-0.58597
-0.431292
1.29811
-1.38613
0.204129
-0.582877
-0.0810459
1.28771
0.551568
0.724221
1.27423
0.301415
0.332614
0.0347268
-0.956916
0.681355
-0.512789
0.845317
-0.740728
1.26115
1.49336
-0.461542
-0.437169
0.160197
-0.943809
0.519224
-0.553366
0.981519
0.41703
-0.511605
1.33447
0.0728127
0.449725
0.726757
0.0131666
0.938269
0.418643
0.158335
-1.92171
-0.518435
-0.990635
1.30502
-2.14442
1.43747
1.57303
1.55871
0.775029
1.37438
-0.830596
-0.884636
1.23161
0.653826
1.26573
-0.949889
-0.521664
-0.828197
1.1671
-0.431586
-1.41451
-0.980668
-1.02158
-0.611578
-0.39819
0.87657
0.871112
-0.44388
-0.306828
1.1449
0.520192
1.33758
-1.64458
-0.180667
-0.432272
0.895689
0.215243
1.52787
1.64485
-0.922292
-0.839788
-0.353746
0.370166
-1.04968
1.40648
-0.353011
1.36702
0.935305
-0.48761
1.06469
1.0262
-1.27445
1.21922
-0.285469
-0.941898
-0.364959
-0.401193
-0.364857
-0.826707
-0.483394
1.30043
0.271131
-0.868376
0.99862
1.444
1.56223
0.127432
1.13193
-0.159409
1.17009
-0.211354
-0.483244
-0.927187
0.595773
0.972702
1.26974
-0.961194
-0.427564
-0.4273
-0.437267
0.343553
1.12694
-0.818129
-0.280843
-0.553411
1.12011
-2.036
1.20855
0.0429198
-0.524603
1.26786
1.05194
-0.87553
-0.175438
1.22589
1.63112
1.31722
-1.80908
-0.937289
1.18714
0.096827
1.17312
-0.578165
0.535745
1.22194
-0.53275
-0.95272
1.2225
-0.398532
1.47129
0.120355
1.26178
-0.498985
1.02631
-0.341505
1.55032
-0.951332
-0.929325
1.13326
0.624465
0.604347
-0.504892
-0.963596
-0.42236
0.964287
-0.360169
-0.477237
-1.832
1.30655
0.482479
-0.936002
0.90209
1.06334
1.24978
-1.17767
-0.845774
-0.937529
1.30878
1.3914
0.907545
1.30587
-0.776207
1.40729
-0.486987
-0.23251
-0.336617
1.25389
1.28401
-0.635922
1.00442
-0.949781
0.977027
-0.755318
1.18218
1.31267
1.30576
-1.60978
1.10588
-1.05158
-0.542823
1.47881
-1.03615
-1.75198
1.35012
-0.426133
1.30926
-1.03998
-0.939564
1.23167
1.17251
1.68801
1.29558
-1.0189
1.44836
1.30894
0.521933
0.75625
-0.82632
-0.346548
1.79118
-0.447258
1.3542
-0.888028
0.736
1.29661
-0.53696
1.25703
-0.994627
1.09304
1.27714
1.31518
-0.286298
-0.530838
-0.11581
0.983324
1.05437
1.41309
-0.058856
0.981056
-1.42466
-0.305859
-0.764824
1.21847
1.50489
-0.988774
-0.372573
-0.777224
1.50747
-0.650124
0.872566
-0.850743
-1.15699
-0.47003
-0.96226
-1.68501
0.987779
-1.57388
0.253907
-0.328341
-0.0363783
-0.999409
-0.456968
-0.0952844
1.23463
1.31127
-0.521038
0.0803266
1.25533
1.264
1.31383
-0.979979
1.25018
1.39377
1.30338
1.42736
-1.15564
-0.137084
-0.951937
0.739085
1.30841
1.10753
0.596053
0.344737
-1.96383
-0.728247
1.60347
-0.322094
-0.199658
-0.139988
-0.119572
-0.492338
0.940633
-0.433161
-0.440422
-0.430956
1.28019
1.29938
1.29222
-0.244723
0.423875
1.58743
0.264091
1.30049
0.0790267
-0.116485
0.909265
1.30794
1.28985
-0.692474
1.23846
1.24226
-0.503252
-0.0472163
1.29349
1.30859
1.30897
-0.433266
-0.481043
1.31048
1.01778
1.29819
0.271939
-0.109915
-0.46219
-1.35649
-0.344047
-0.953314
-0.726663
-0.336202
1.31362
1.31772
0.928393
-0.444101
1.2796
0.185131
-0.0380818
-0.201377
1.29992
1.31748
1.31123
1.3192
1.2939
1.28494
1.27218
-0.168287
-0.11829
0.155323
0.0977003
-0.124075
0.0766805
-0.104658
0.193377
0.256258
0.226254
-0.187482
1.29626
1.31127
1.30682
1.32627
1.32247
1.31191
1.31255
1.30303
1.2906
0.187689
0.0071526
1.31047
1.3121
-0.115672
1.31496
1.31092
-0.610982
-0.369182
0.168989
-0.732147
-2.17259
1.29157
-0.488834
1.29531
1.02525
1.43914
-0.445349
1.29722
1.1965
1.26473
-0.955572
-0.635318
-0.523609
0.041482
-0.0142432
-0.95406
1.30103
-0.392147
1.38195
1.29326
-0.163161
1.39413
1.56881
-0.562966
1.08499
1.06975
1.28476
1.30385
1.30449
-0.445175
0.587904
-0.459475
1.29363
1.30931
-0.549822
-0.547314
1.29373
-0.51193
-0.346229
1.29593
-0.586979
1.26042
1.30598
-0.32113
1.30709
0.233503
1.29661
1.33183
-1.51175
1.31512
1.32156
-0.68501
0.843052
1.30113
1.29687
0.20503
-0.830921
1.11817
1.68576
1.30217
1.30186
1.30052
-0.266188
1.29966
1.29736
1.29971
1.29733
1.29751
1.30068
1.37824
-0.947258
-0.994291
1.3017
1.28899
0.379147
-0.624758
0.282702
-1.37914
1.10407
-0.596739
-1.82313
-0.0979573
1.29499
1.12619
-0.524347
0.37429
-0.702835
-0.583865
-1.01187
0.0333205
-1.65224
-1.06241
-0.347427
1.30451
-0.368829
1.2914
1.16812
-0.434481
1.48327
-0.543921
-1.03656
1.12781
1.3473
0.558281
-0.432232
1.28206
0.4238
1.30095
-0.641254
1.30246
-0.412312
1.29129
0.392213
0.210704
1.30272
1.32099
1.1798
0.3649
-0.434538
-0.814967
0.199941
1.31999
1.14619
-0.0645735
1.28713
1.33491
1.27327
-0.437432
-1.06463
-0.168217
-1.21056
0.762935
1.29288
-0.112659
1.29979
-1.03387
1.28965
1.3284
1.30579
-0.00660706
-0.00815736
1.33353
-0.465334
1.30815
1.31042
0.470385
-0.492904
1.12832
1.37414
1.2896
1.27564
-0.0139968
-0.357708
1.28408
0.839255
1.30533
1.23504
-0.706682
-0.478875
1.07482
1.57046
1.28654
0.776892
-1.5392
0.0253076
-0.709515
-1.51099
1.29521
-0.243364
1.26398
-0.778575
-0.439253
-0.830446
0.580909
-0.402762
-0.942977
-0.496592
1.28918
-0.431666
1.09554
-0.45393
0.293578
-0.359352
-0.368597
-0.974467
1.24535
-0.325571
-0.35035
-0.459747
-0.866626
1.29643
-1.11815
-0.199719
-1.15334
1.31499
-0.531779
-0.45337
1.35929
1.29391
1.29031
0.902334
-0.415172
1.28842
1.3074
-1.48705
-0.897193
1.2895
1.19138
1.49934
1.3056
0.307193
-1.0083
-0.915817
-0.583085
-0.714492
-0.431462
-0.876266
-0.374656
1.19517
0.435654
1.309
1.47145
1.28079
-0.435959
-0.430376
1.28976
-0.242869
-0.500768
1.28925
0.208355
-0.674102
-1.12172
0.199955
1.20201
1.16824
-1.44523
1.19455
0.833566
-0.466334
1.29533
-0.519498
1.02519
-0.96856
1.34058
-0.4469
0.85114
1.29189
1.30747
-0.78993
-0.867154
1.05237
1.66392
1.31103
1.22395
-0.842585
1.59641
-0.365251
-0.539423
-0.310259
0.893999
-0.430304
1.39848
1.51293
-0.46107
-1.25984
1.28196
-0.552908
1.23439
1.31958
1.21964
-0.756594
1.2902
-0.0710955
1.32455
-0.148753
-0.41152
-0.106195
1.29464
-0.369877
-0.495714
-0.744912
1.33589
-0.807984
1.42699
0.700948
1.5776
1.18669
-0.739544
1.296
-0.936039
1.2369
1.24831
-0.584677
-0.888979
1.35128
1.26738
1.4616
1.22031
0.540638
1.21509
1.30333
1.08199
1.2954
-0.383164
-0.804387
-0.724344
1.42575
-1.11199
-0.651961
-0.94965
-1.24209
-0.176098
0.311784
1.05298
-0.273117
1.27788
1.33787
-0.891741
-0.401467
-0.646599
-0.504483
-0.925113
-0.927778
1.28402
-0.62953
1.30651
1.57769
1.35265
-0.15642
1.31268
1.1921
-0.846237
1.28942
1.25762
-0.679815
1.26034
1.1401
-0.467544
-0.542453
1.76532
-0.126076
-0.676889
-0.500775
0.677576
1.28753
-0.748013
-0.906246
-0.952783
1.40929
-0.588512
1.04082
1.29097
1.30406
-0.624185
1.30491
-0.743717
1.30062
1.31648
-0.402303
1.30841
0.640656
1.30839
1.10873
-1.11628
0.133023
-0.0879094
-0.819896
1.49584
0.199689
1.30175
1.66643
-0.677956
0.0660357
1.36393
0.110479
1.36098
0.0455637
0.115307
1.35238
1.35716
0.851949
-0.464706
0.938852
-0.928847
-0.93359
-0.739238
1.30928
1.32069
1.74938
-0.432563
-0.318057
1.14408
-0.537036
1.34241
1.21425
1.31953
1.27372
1.27694
-1.0723
-0.431943
-0.532642
1.01564
1.17077
-0.920957
-0.916622
-0.450779
1.31264
1.35087
-1.00625
-0.883422
1.32484
-0.02758
0.344181
0.951712
1.12019
-0.221387
-0.51105
-0.169728
-0.542146
-0.955751
-0.967264
-0.115168
1.71144
1.62107
-0.71311
-0.557968
1.31078
1.28919
-0.751115
0.408793
0.121067
0.817227
1.37719
-0.470473
1.29601
0.580004
-0.499006
-0.790038
-0.702081
-1.06239
1.30714
-0.544447
-0.547134
1.62848
-0.530559
1.29782
1.47949
-0.909305
1.41972
1.60499
-0.80337
1.4853
-0.520038
-0.485626
1.25415
0.0314838
1.39306
1.30233
-0.509302
1.38133
0.599045
-1.30892
1.32687
1.40901
-0.383022
-0.569105
1.1968
1.28966
-0.479139
-0.928993
1.53015
-0.499231
1.15613
0.598036
1.27846
-0.421579
-1.67348
-0.45559
-0.776826
1.31536
1.3564
1.63832
1.44435
1.18565
1.34705
1.28288
-0.449731
1.36165
1.50939
-0.86496
-0.489726
-0.687118
1.57615
0.271049
-0.47151
-0.870414
1.14012
-0.846992
-0.676479
1.23422
1.39941
-0.462789
-0.905946
-0.475134
-0.649783
-1.07404
-0.826126
-0.444252
1.08764
1.2858
-0.933572
-0.461024
-0.351269
1.03253
-0.497561
-0.746906
-0.439786
1.33293
-0.566176
-0.894053
1.67388
1.23772
0.830145
1.5557
-0.692407
1.36414
1.29538
1.44171
1.56826
-0.0952
0.854984
1.22439
0.709013
-0.435614
1.71632
1.30545
1.27522
1.3916
-0.880601
-0.638964
1.22346
1.00428
1.28415
-1.00236
-1.16994
1.29389
-0.438847
1.20219
0.0371423
1.67974
-0.433185
0.91617
1.14534
-0.949418
-0.431415
-1.0961
1.42647
-0.945519
-0.430231
1.11153
0.78455
-0.618275
1.349
1.22223
-0.940012
-0.631265
1.2043
-1.01822
-0.431448
-0.452142
-0.952882
-0.299389
1.23138
1.33015
-1.62746
1.03665
1.30548
1.62086
0.72255
0.419139
0.114314
1.27449
0.0395121
-0.952346
0.223933
-0.58282
-0.95429
1.26765
-0.955587
0.295962
-0.43119
0.708488
0.99274
-0.955549
1.05354
-1.17488
0.925898
-0.956565
0.624862
-0.954686
0.82669
-0.433571
0.531027
-0.95816
1.22059
-0.652923
-0.962915
-0.974514
-0.430976
1.3096
0.54748
-1.00519
-0.440567
0.146291
0.251668
-0.966207
-0.430741
-1.04847
0.35087
-0.453435
-0.0376514
-0.484017
-0.27182
-1.13019
0.192536
1.12425
-0.200788
-0.879401
1.24371
0.036477
-0.547655
0.881144
1.28857
-1.00175
-1.33742
-0.436759
-0.714491
1.25537
1.69281
-0.779424
-0.120575
0.486222
-0.536194
-0.290827
0.123196
1.22612
-0.674798
1.28189
-0.658716
1.75755
0.880766
1.75317
-0.916543
1.55182
-0.552542
1.38322
-0.328413
-0.434573
1.44923
1.31105
-1.1186
-0.431373
-0.962549
1.20498
-0.973534
1.2666
-0.790439
-0.443399
-0.459097
1.59252
1.29392
1.48141
1.27339
1.31579
-0.162931
-0.0251026
1.44454
-0.876041
-0.559536
1.68274
-0.926813
1.16018
1.31291
1.67409
1.74719
-0.939081
-0.462429
1.3461
0.676848
0.0317783
-0.925113
-1.23208
-1.61955
-0.906743
0.965339
-0.721866
1.56238
-0.721858
1.26635
1.38708
1.28378
-0.995931
-0.407016
-0.565581
1.39196
-0.576564
1.40749
-0.766235
-0.639681
1.48194
1.65155
-0.437066
0.194129
1.27145
-0.596799
-0.717552
1.06823
1.52079
1.55648
-0.870737
1.11852
1.04174
-0.432681
1.57149
0.413754
-0.92552
0.464513
0.180546
-0.496194
1.34934
-0.589363
0.386942
0.315127
-0.914808
-0.600049
-0.422443
1.25901
-1.03003
1.27095
-0.0249579
0.542185
1.09169
0.707959
-0.43027
-0.631036
-0.639084
-0.167706
0.0451617
-0.828518
1.13945
-0.758069
-0.674141
1.24882
-0.538021
-0.862072
1.31019
-0.315146
1.18131
-0.00131838
-0.431628
0.155173
1.17912
-0.305408
-0.516308
1.26285
-0.45147
1.39096
-0.0802481
-0.59565
-0.554441
-0.433421
1.80888
-1.17926
1.47321
0.138654
1.28157
1.46359
1.12034
1.36193
1.39173
-0.0551836
-0.42789
1.29647
1.45335
1.68768
-0.538908
1.31791
0.843754
-0.526786
1.18624
1.56802
-0.592999
1.59832
0.248076
-0.694847
1.22888
-0.514771
-0.965302
1.27858
-0.462265
1.3708
1.43068
1.20449
-0.730247
1.12024
1.50721
-0.795037
-0.28532
-1.05377
-1.32312
-0.577546
-0.431435
1.69421
1.15311
-0.790995
1.29966
-0.504118
-0.58906
1.62278
1.46567
-1.0653
-0.621081
-0.432454
-0.444574
1.31796
-0.815781
0.537292
-0.917236
-0.401602
1.37208
-0.484008
1.6506
1.32273
1.25072
1.28776
1.55271
-0.624982
-0.49521
1.35944
1.49844
-0.620666
1.32267
-1.15337
-0.452797
-0.472147
1.30409
1.33835
-0.459266
-0.809974
0.96727
0.399777
-1.05276
1.25272
1.16526
-0.703314
1.21084
1.25927
-0.401255
-0.856213
-0.762422
-0.446866
-0.4694
1.65477
-0.194369
1.11293
-0.83747
1.65611
1.11563
1.05796
1.1672
-1.47687
-1.0365
-0.441356
0.677184
-0.900592
1.3074
0.733216
-0.573096
1.07535
1.38411
1.33155
1.27862
0.0271399
1.33983
0.00695074
0.846466
1.00933
-0.594693
-0.873558
-1.06227
-0.753955
1.30862
1.35151
1.30913
-0.544098
-0.295784
-0.437066
-0.89493
1.29848
1.53703
1.31299
-0.887873
-0.617559
-0.637985
-0.564564
-0.431605
-0.433995
-0.166414
1.26662
-0.655967
-0.937118
0.0541929
0.370215
0.890421
-1.9587
-0.434289
-0.330358
1.16241
1.73073
-0.248023
1.41641
1.77245
0.821471
1.46389
-0.853719
0.519061
1.73267
-0.431985
0.751247
-0.911868
-0.470909
-0.9592
-0.947845
1.32885
1.13741
1.42604
1.38287
-0.0431763
1.17901
0.120536
0.00377824
-0.430915
1.41783
0.892647
1.30945
1.32565
0.146173
0.141933
1.3316
-0.611644
-0.436386
-0.943104
-0.973501
1.00194
-0.951134
1.27912
1.07845
-0.433272
1.58695
-0.881064
-0.312369
1.29217
-0.602314
-0.565843
-0.709862
0.748905
-0.930121
-1.05284
1.10852
1.31759
-0.709413
0.506535
-0.883907
-0.430719
-0.220064
-1.09787
0.283685
1.01753
-0.600648
-0.953589
1.50871
0.363404
0.478551
-0.955047
-0.475289
1.29916
1.41994
0.668804
0.957804
-0.955818
-0.546635
-0.262132
0.581727
0.872287
-0.957277
1.06792
0.230022
-0.958878
1.71255
-0.965894
-0.598839
-0.466597
-0.891868
1.23715
-0.985204
-0.792956
-0.444194
0.46405
-1.02361
0.0653084
-0.702471
0.275432
1.41812
-1.08158
0.292886
-0.468527
-0.139373
1.59512
1.72597
1.46921
1.30227
1.44214
-0.820035
1.28233
-0.87217
1.41666
-0.437876
-0.395226
1.61367
-0.355981
0.902757
-1.12066
1.71773
0.0143893
1.66074
0.747122
0.967629
-0.921456
-0.899644
-0.434869
-1.04907
1.61107
1.44063
1.2744
1.03342
1.29561
1.25938
0.990294
-0.948584
-0.437138
0.342335
-0.561343
0.961099
1.30103
0.427715
-0.921109
-0.952911
-0.430504
-0.435251
-0.369366
1.68418
1.32057
1.29601
0.13858
0.0129447
1.32772
-1.15696
-0.431889
-1.22203
-0.529336
0.947783
-0.936476
-0.954979
0.16345
1.26784
-0.564831
-0.465153
1.29308
1.02461
1.10107
1.2834
-0.431904
1.05125
1.52188
1.23416
-0.432121
1.29752
0.789792
0.58137
-0.607749
-0.947942
1.72636
0.692039
-0.90606
0.494308
1.09624
1.19944
-0.550606
-0.590909
0.154752
-1.00314
-0.373627
-0.7854
0.280641
1.27581
-0.831225
1.24642
1.60565
1.46062
1.22881
1.30759
1.3789
1.28937
-0.646324
-0.164599
-0.421058
-0.508709
-0.313892
-0.955556
1.39415
1.26487
-0.50282
1.30997
-0.636576
-0.50199
-0.961302
-0.660809
0.953235
-0.391556
1.26958
1.08896
-1.14905
0.0804388
1.62771
-0.510461
0.0566005
-0.348463
-0.774951
-0.931776
1.35532
0.939547
1.44748
-0.558345
-0.836119
-0.408101
-0.356469
-0.507981
-0.742255
-0.778336
-0.757271
1.09818
-0.240227
1.77819
-1.2278
-0.0837308
-0.464218
-0.955135
1.2815
-0.481733
-0.568838
-0.334612
0.152886
1.42199
1.56081
-1.13377
-1.19323
0.99665
-0.45216
-0.345681
1.44839
-0.988813
-0.570075
-1.09749
0.912364
0.0527583
-0.513503
1.27611
0.095189
-0.987329
1.27705
-0.634996
-0.759088
-0.836283
-1.04837
0.394516
-0.513281
1.5643
-0.434699
0.611315
-0.438194
0.95879
-0.940917
-0.603715
0.793183
1.1473
1.35842
1.2894
1.42556
-0.976348
1.20853
0.963327
-0.751627
1.15767
-0.37681
-1.02036
-0.637681
1.52361
1.50711
-0.913929
-0.616829
-0.590712
1.21198
-0.654538
0.176537
-0.373465
-0.96049
1.52609
1.22001
-0.911393
-0.734527
-0.912516
-0.929792
1.13951
-0.864855
1.17917
0.321637
0.860614
1.00884
-0.938938
-0.635377
1.13457
-0.958366
0.0509194
1.57636
-0.442368
-0.933612
0.98726
-0.794513
-0.764881
0.282061
-0.552686
1.65946
-0.133969
0.590212
-0.906375
1.64939
-0.886921
-0.720251
0.787651
-0.378801
-0.437641
1.65387
0.821539
1.38453
-0.780977
1.46379
-0.254664
-0.265412
-0.80602
-0.802249
-0.879885
1.50088
0.710979
-0.466112
-0.894262
-0.523078
1.36352
-0.665356
1.6281
-0.437036
0.893201
-0.942961
0.480501
0.669277
0.63056
0.539096
0.628348
-0.687951
1.21792
-0.816334
-0.741917
-0.371297
0.715621
1.66372
0.171944
-0.756028
-0.875558
-0.940313
0.360399
-1.20967
-0.945455
1.23811
0.634094
-0.920721
1.7206
-0.517642
-0.800503
1.67053
-0.933343
0.231124
-0.658523
-0.958016
-0.950559
1.6981
-0.956505
1.59966
-0.951569
-0.657008
1.41506
0.259026
-0.696039
0.699675
-0.54697
0.0794431
0.0680035
-0.945858
1.18715
-0.421891
-0.941522
-0.957208
-0.959937
-0.442364
1.217
-0.116414
0.0345407
-0.91651
1.62144
-0.350048
-0.751862
-0.906489
0.295757
-1.09985
-0.944245
-0.926064
0.378701
1.4809
-0.873376
-0.432092
-0.873648
-0.208467
-0.206506
-0.447059
1.70272
1.62859
0.529445
-0.63966
-0.439843
0.433564
-0.437865
1.70603
0.297232
1.44357
0.850959
1.63167
0.163729
-1.10668
-0.624522
-0.00937289
-0.811191
-0.00899906
0.348279
-0.952198
1.61024
0.198541
0.31061
0.0765557
-0.424953
-0.664447
)
;

boundaryField
{
    frontback
    {
        type            empty;
    }
    Top
    {
        type            zeroGradient;
    }
    outlet
    {
        type            fixedValue;
        value           uniform 0;
    }
    bottom
    {
        type            zeroGradient;
    }
    Inlet
    {
        type            zeroGradient;
    }
    rectangle
    {
        type            zeroGradient;
    }
}


// ************************************************************************* //
