/*--------------------------------*- C++ -*----------------------------------*\
| =========                 |                                                 |
| \\      /  F ield         | OpenFOAM: The Open Source CFD Toolbox           |
|  \\    /   O peration     | Version:  2306                                  |
|   \\  /    A nd           | Website:  www.openfoam.com                      |
|    \\/     M anipulation  |                                                 |
\*---------------------------------------------------------------------------*/
FoamFile
{
    version     2.0;
    format      ascii;
    arch        "LSB;label=32;scalar=64";
    class       surfaceScalarField;
    location    "37";
    object      phi;
}
// * * * * * * * * * * * * * * * * * * * * * * * * * * * * * * * * * * * * * //

dimensions      [0 3 -1 0 0 0 0];

oriented        oriented;

internalField   nonuniform List<scalar> 
3181
(
-1.02995
0.400553
0.6294
-0.380789
0.35877
0.0220189
0.512346
-0.351933
-0.160413
0.117036
-0.194521
0.0774849
-0.0312041
0.0328289
-0.00162479
0.560793
1.52717
-2.08796
0.144158
-0.138045
-0.00611229
0.0114299
-0.000207425
-0.0112225
0.549127
-0.731534
0.182407
-0.0756204
0.131839
-0.056219
-0.0106831
-0.0533996
0.0640827
0.112738
0.0516835
-0.164422
5.22956e-05
-0.0103884
0.0103361
-1.09936
0.152252
0.947109
-0.32198
0.684594
-0.362614
-1.12381
0.64029
0.483517
0.0838414
-0.929555
0.845713
-0.124316
0.0220045
0.102312
-1.93576
0.277393
0.0100909
0.0501044
-0.0601953
0.0459324
-0.0915976
0.0456651
-0.0396255
0.044196
-0.00457045
1.0653
-1.0411
-0.0242032
0.0272465
0.0336976
-0.0609441
-0.956625
0.328147
0.628478
-0.106624
0.22366
0.304245
-0.25158
-0.0526647
0.0285968
0.0600418
-0.0886386
-0.421604
0.34666
0.0749441
-0.0340622
-0.0297127
0.0309693
-0.00125659
-0.0390787
-0.917546
0.0459322
-0.0577533
0.0118211
0.234411
1.47886
-1.71327
-0.0574499
0.0467887
0.0106612
0.187628
0.27946
-0.467088
1.77895
-1.54454
0.0751005
-0.0291681
1.58397
-0.888094
-0.695879
-1.10257
1.66336
-0.0401799
0.0402322
-0.0252228
-0.0144027
-0.399553
0.0775725
-0.130014
0.104791
-0.643926
0.128518
0.515409
-0.142826
0.0672052
-0.16386
0.167866
-0.00400642
-0.26507
-0.0755767
0.340647
0.127881
0.96491
-1.09279
0.0421304
0.0425151
-0.0846455
-0.0196218
-0.104364
0.110783
-0.00641939
0.507918
0.176676
-0.0952724
0.14811
-0.0528374
0.0799093
-0.0339771
-0.166474
0.191816
-0.0253426
0.159888
0.0542045
-0.214092
0.105086
-0.110823
0.00573696
1.17243
0.411543
-0.847782
-0.182171
-0.0844768
-1.25244
1.33692
0.562708
0.235106
-0.797814
-0.456457
-0.209532
0.665989
-1.76619
0.66362
-0.275123
0.837831
-0.316559
-0.101471
0.418031
-0.212513
-0.209091
-0.186155
0.169757
0.0163981
0.145274
0.279922
-0.425195
-0.174381
0.723508
-0.00860862
0.0200385
-1.67671
1.59224
0.178261
0.125984
-0.172332
-0.110606
0.282938
-0.268196
0.362864
-0.0946681
-0.0774522
0.0856463
-0.008194
-1.54883
-0.920423
0.0111146
0.909308
-0.0286306
-0.0288193
-1.13675
0.80111
0.335642
0.148364
-0.256765
0.108401
-1.43793
-0.328262
1.10012
-0.947871
-0.73158
1.14819
-0.201078
1.06104
0.174863
-0.172274
-0.00258868
1.87587
-0.348697
2.30838
-2.30838
-0.00752562
-0.00149956
0.00902518
-0.206013
-0.0527444
0.258757
0.0588609
-0.0521063
-0.00675456
-0.452807
0.825033
-0.372226
-0.0267475
-0.22568
0.252427
-1.08389
0.0427938
0.352566
0.0596938
-0.41226
0.131557
-0.871501
1.10661
0.0404292
0.0135261
-0.0539553
-0.0176471
-0.148827
-0.05833
0.0830773
-0.0247473
-0.126023
0.0676926
0.118099
-0.989599
0.32332
-0.776127
0.924776
-0.840935
0.0340668
0.0591587
-0.0932255
0.0878465
0.0537845
-0.141631
-1.35817
-0.0896079
1.44778
-0.2376
0.401294
-0.163694
-0.148671
-0.0919232
0.240594
-0.481135
-0.655616
0.0644726
-0.0223422
-0.148554
0.14311
0.00544318
-0.0790042
-0.0166696
0.0956738
-0.530341
-0.201193
-0.0405661
0.0100216
0.0305445
-1.1082
0.246743
0.861461
1.20911
-0.2442
-0.0170791
0.00955351
0.0284745
0.149786
-0.204737
0.392365
0.0438124
0.0280805
-0.071893
0.14302
0.0707787
-0.213798
0.239795
-0.221945
-0.0178501
-0.594848
-0.528959
-0.844095
-0.264109
-0.0133245
0.0537537
-0.10059
0.178327
-0.0777367
0.115478
0.0240625
0.120095
-0.0562691
0.0660417
-0.00977253
-0.0917325
-0.0201648
0.111897
0.0719607
-0.0719607
-0.180505
0.204568
0.0223417
0.0863276
0.101687
0.0901294
-1.22661
1.05223
-1.43763
0.0279845
1.40964
0.010662
-0.0116156
0.000953616
-0.0277232
-0.0538213
0.0815445
0.528834
-0.0229776
-0.505856
-0.00077076
0.000855917
-8.5157e-05
-0.194901
0.0143958
0.163781
0.661252
-0.359928
0.523708
-0.158778
-1.19939
-0.0320832
0.000879134
0.476377
-0.297226
-0.17915
0.0508855
-0.0471645
-0.00372102
0.0471457
-0.312215
0.0226986
-0.943121
0.0482749
-0.148865
-0.278956
-0.392136
0.0795903
1.38786
-0.93828
-0.449582
1.06689
0.32097
0.0651945
0.275452
0.00775034
0.00291162
-0.144713
0.136292
0.00842146
-0.252195
-0.592939
0.845134
-0.348206
-0.0598882
0.932112
-0.654718
0.139985
0.0404858
-0.0480462
0.00756037
-1.63779
-0.372052
2.00984
0.230316
-1.86811
-0.316877
0.669443
-0.906856
-0.0161939
0.00390146
-0.274441
0.270539
1.40312
-1.54385
0.140728
-0.0440188
0.0119356
0.576283
-0.828478
-0.211248
-0.0833928
0.294641
-0.301049
-0.122801
0.423851
0.18047
-1.00965
-0.0742391
-0.00217608
-0.0580192
-0.570843
0.361312
-0.254413
0.0195013
0.234911
-0.0345529
-0.00946593
0.00932865
-0.00932865
-0.124358
0.136619
-0.0122617
-0.190095
-1.24753
0.0339066
0.00264726
-0.0365539
-0.126561
0.0838405
0.0427202
-0.227257
0.0411024
1.39811
-0.225505
-1.1726
-0.183829
0.439154
-0.255324
0.0044056
-0.0048793
0.000473698
-0.221801
0.0731296
-0.193535
-0.004491
0.198026
-0.168006
0.31328
-0.106404
0.104649
0.00175495
0.0787623
0.0228579
-0.10162
-0.0940962
0.0969211
-0.00282489
-0.497085
0.52803
-0.030945
-0.214145
-0.0496972
0.263843
-0.687952
0.661729
0.0262224
-0.00616651
0.0398641
0.0182053
-0.0191922
0.000986863
-0.01495
-0.0459942
0.770807
0.438304
0.172834
-0.890748
0.717914
-0.0580615
1.75107
-1.69301
0.374905
0.588346
1.72004
0.0691055
0.210772
-0.0677526
-0.0746281
-0.0297355
0.230194
0.163441
-0.0755945
0.734487
-0.40634
0.0594549
0.199303
0.0539747
-0.171496
0.117521
-0.764371
-0.13641
0.900781
-0.00560856
0.00560856
-0.0236865
-0.279508
0.558968
0.0124369
-0.226582
-0.0424146
0.0644191
0.018478
-0.0318025
0.141014
-0.151697
-0.346434
0.319686
0.0399272
0.0337044
-0.0736317
0.377165
-0.325482
0.648836
0.0100953
-0.658932
-0.2016
0.266795
0.182916
-0.480142
-0.203382
0.603934
0.161142
-0.0317539
0.0317539
-0.392349
0.260866
0.131483
0.374268
0.0270261
-0.00763064
0.00693104
0.000699601
-0.0711195
-0.0342544
-0.00631177
-0.0506369
0.191651
-0.186202
0.249191
-0.0629889
0.13501
0.0284309
-0.386039
0.134459
0.197806
-0.062796
-0.047762
-0.0586418
-0.0152911
0.0223731
-0.00708192
0.142897
-0.101632
-0.0412656
-0.0251282
0.405582
-0.380454
-0.0453219
0.0367133
0.109134
-0.113675
0.00454111
0.0245704
0.936902
-0.288066
-0.0607741
0.0201963
0.0405778
-0.0527068
0.0618732
-0.0091664
-0.0959269
0.0966977
-0.720189
0.623491
-0.00627326
-1.4405
-0.47723
1.91773
-0.490919
1.2654
-0.774477
0.0797433
-0.214787
-0.00715757
0.284568
0.257879
-0.542447
-0.210235
0.264209
0.13666
-0.877586
0.740926
-0.0275343
-0.0251725
-0.0245869
0.0224108
-0.986273
0.442584
0.543689
0.93828
-0.820182
-1.65496
1.56535
-1.40312
1.43111
0.0382361
-0.0910735
0.00242946
0.0157758
0.00474737
0.786749
-0.650088
0.117555
-0.0692805
0.413539
0.734648
-0.0530761
-1.39827
1.34021
-0.655007
-0.571602
-0.242538
-0.401389
-0.00508975
-0.161522
0.208667
-0.572734
-0.364469
0.180639
0.757908
-0.229074
-0.871922
-0.783034
0.749117
0.0606354
-0.0881697
0.27546
0.0358843
-0.0358843
0.669439
0.150297
-0.819736
-0.226732
0.896171
0.462664
0.0553291
-0.517993
0.0796536
0.00667399
0.00734255
0.00499478
-0.0123373
-1.25244
-0.728988
0.484788
0.796941
0.601166
-0.0337214
-0.130138
-0.2324
0.740318
-0.203723
-0.0506894
-0.00283308
-0.0746192
-0.0563948
0.110179
0.383345
-0.254827
-0.813785
-0.293324
-0.0979538
0.00368051
0.0942733
-1.43424
2.02258
-0.108332
0.109454
-0.00112176
0.022128
-0.0143777
-0.0650471
0.0516412
0.0134059
0.00905211
0.408978
0.0295682
0.0213173
0.00599525
0.013174
-0.0191692
-0.0179963
-0.175538
-0.73587
0.379033
0.356837
0.622249
-1.8878
1.26555
0.143094
-0.165378
0.022283
0.0123286
0.052144
-0.359717
-1.94867
-0.0503723
-0.0146748
-0.0441091
0.0217668
0.151314
-0.356051
-1.30334
0.663134
0.640208
0.0351744
0.0899182
0.0529791
-0.764371
-0.403806
-0.0932789
0.0669508
-0.0153096
0.0454675
-0.639945
-0.0480066
0.0628399
0.134966
0.306229
0.0319841
-0.45718
0.118726
0.359307
-0.299613
-0.111241
0.0195082
0.222134
0.840178
-1.06231
0.105241
-0.709733
0.604492
-0.930788
0.794378
-1.4389
-0.279454
1.71835
-0.00176454
0.00143958
0.000324963
0.175309
-0.476358
0.2276
-0.134098
-0.0935021
0.0566383
0.00523485
-0.0164096
-0.0815442
0.00372009
0.0177871
-0.032737
0.0203713
0.0847756
-0.105147
-0.0282557
0.0100972
-0.0104904
0.000393184
0.0447005
-0.00798718
0.862424
0.023098
-0.0111624
0.0307941
-0.759782
0.0346751
0.0449785
0.00730631
0.0826119
-1.71835
1.94867
0.18251
-0.0111575
-0.171352
-0.259714
0.0874399
0.120242
-0.12283
-0.00129729
0.0869435
-0.000978185
-1.31429
0.0109517
-0.0484838
0.0688551
0.741423
-0.257906
-0.0925653
-0.0339954
0.349112
-0.00255474
-0.0050759
-0.00747818
0.0794389
0.143802
0.219062
0.157593
-0.339963
0.18237
0.106856
0.554396
-0.0334142
-0.109411
0.914479
-0.251832
-0.662647
-1.4389
-0.624683
1.24693
1.77895
-0.0391767
0.193095
-0.153918
0.406317
-0.0769932
-0.329324
0.10724
-1.54517
-0.0775607
0.0786869
-0.00112626
0.111624
-0.143855
0.032231
0.468632
-0.892426
0.423794
0.0400901
0.662086
-0.702177
-0.043046
-0.105508
-0.0347382
-0.026036
0.0147853
-0.407134
-0.000499256
-0.00126529
0.00268309
0.0346713
-0.0373544
0.000358598
-0.145072
0.00762308
0.0145049
-0.0268019
0.0859606
-0.0170116
-0.00218057
0.200563
-0.426243
0.420213
0.845184
0.00162245
0.00398611
-0.990973
-0.018677
0.119882
-0.0696662
-0.0415746
-0.26285
0.0516015
0.0576952
-0.582372
0.524677
0.059424
-0.0247489
-0.935573
-0.0122982
-0.00811893
-0.649665
0.746363
-0.0170944
0.178236
0.21398
-0.158651
0.185851
-0.435102
0.249251
-0.0605001
0.0885807
0.00439833
-0.00498991
0.000591579
-0.02791
-0.0661862
-0.020088
-0.128739
0.742221
-0.63698
-0.0599106
0.0198183
-0.107974
0.319504
-0.161911
0.190931
1.09189
-0.378117
-0.713773
-0.124964
0.144466
-0.510463
-0.225406
-0.554266
0.600066
-0.583367
-0.0166991
-0.0629729
0.00306223
-1.39827
0.551453
-0.551453
-1.84276
1.84276
0.786749
0.65198
-0.140641
-0.511339
-0.899389
-0.0915847
0.650659
-0.372717
-0.277942
0.155616
-0.233352
-0.0125116
-0.0045675
-0.905105
-0.0844942
-0.933398
0.21321
0.0430927
-0.0394122
0.697512
-0.104651
-0.592861
1.36827
0.410681
-0.0033433
0.00774163
-0.959776
0.674296
-0.6642
-0.106616
-0.605715
0.712331
-0.0305343
-0.856452
-0.687397
0.219926
-0.814774
-0.900781
1.33918
-0.438401
-0.135469
0.273421
-0.137952
-0.0309451
0.728457
-0.107782
-0.992627
0.992627
-1.52004
0.475822
1.04422
0.00125626
0.00884094
0.0606776
-0.447012
0.896182
-0.0950726
-0.0888575
-0.0330512
0.0376186
0.00093793
0.00346767
1.4479
-1.72735
-0.362011
0.440774
-0.657025
1.03814
-0.381115
0.000851248
-0.0512236
0.129008
-0.0582291
0.346555
-0.000389488
-0.00999894
0.357664
0.0479178
0.0448344
-0.256124
0.211289
0.134999
0.0328667
0.101285
0.187929
1.52647
0.0657708
-0.313808
0.995579
-0.68177
-1.51063
1.13858
0.316069
-0.211278
0.0743067
-0.765734
0.691428
0.338172
0.120621
-0.467054
-0.0742449
0.129357
-0.0551119
0.124385
-0.19863
-0.460761
-0.110083
-0.0756401
0.078983
-0.0033429
-0.00353897
-0.0134726
0.0289065
-0.0628836
0.650088
-0.604492
-0.0455967
-0.284504
0.296941
0.880268
0.692413
-0.286097
-0.00616188
0.00880914
-0.388968
0.305575
0.166609
-0.568609
0.402
-0.00518564
0.000195726
0.681202
-0.220544
-0.460658
0.0112895
-0.017407
0.00611755
-0.0288526
0.0211936
0.00765899
-1.4121
1.0634
-0.107134
-1.33337
-0.202882
-0.820182
1.43111
1.56535
-0.187595
-0.167733
0.118036
-0.0667213
0.0728527
-0.00613137
-0.624892
1.14678
-0.521887
0.557497
0.0931615
-0.00198079
-0.00320485
0.125855
-0.180961
0.0330512
-0.0530875
0.00460374
-0.234355
-0.154613
-0.0191963
0.0376742
-0.222581
0.599747
1.06689
-0.200002
-0.0585554
0.00111623
0.0574391
1.94989
-0.384546
-0.0588024
-0.0520205
-0.984687
0.164505
0.38143
-0.20096
-0.484475
-0.136495
0.62097
0.829039
-0.370359
-0.45868
-0.483388
0.541083
-1.34021
0.0877736
-0.00407043
-0.0296705
0.0337409
0.290016
1.46106
-0.163567
0.17091
0.243016
1.90732
-0.476218
-0.675098
0.0492434
0.625855
0.389935
0.00964467
-0.354055
0.525507
0.796009
-0.665446
0.0733831
-0.020404
-0.74285
0.300216
0.442634
1.08696
0.036425
-0.0304298
-0.0509485
-0.367138
0.111679
-0.321914
0.538127
0.553763
-0.050541
-0.0124319
0.240318
-0.279495
-0.0233617
0.0171952
0.107497
-0.142871
0.0353736
-0.291984
0.305052
-0.013068
0.241741
-0.619858
0.760678
-0.793849
0.0331715
0.125971
-0.139532
0.0135613
0.279581
0.0399234
0.00749547
-0.411301
-0.663976
0.663976
1.33692
1.36827
-0.709733
0.321113
0.474896
-0.162892
0.294374
0.947628
-0.390131
0.00880315
-0.878187
0.869384
0.124778
0.00706123
0.0253877
-0.791234
0.798729
0.0692099
-0.16575
-0.116811
0.282561
-0.10198
-0.50119
0.335441
-1.07819
-0.295711
-0.655173
-0.023148
-0.00979005
-0.000700333
-0.228284
0.0282485
0.0660248
0.033186
-0.152149
0.118963
-0.654106
-0.865933
-0.0053784
0.0654202
-0.239349
0.180968
0.0583804
-0.554011
0.37486
-0.104012
0.137717
0.229038
-0.00186969
-0.0227172
-0.919293
0.693788
0.0359092
0.0732252
-0.114168
0.00619463
0.217396
0.010204
-0.433234
1.65013
0.509049
0.204345
0.865748
-0.791441
0.805827
-0.456716
-0.626024
0.179012
0.156779
-0.796352
0.771911
0.0244408
1.12696
-0.588829
-0.222984
-0.139028
-0.0415353
-0.010571
0.94991
-0.838063
-0.111847
-0.190263
0.114668
0.0266543
0.116456
0.875671
0.463085
0.253779
-0.716863
-0.319655
-0.0448141
-0.222387
-0.0169623
0.112237
1.33554
1.36753
0.000737612
0.166044
0.551073
-0.717117
0.283484
0.0525539
-0.0128316
0.0109619
-0.521521
-0.104503
0.0347661
-0.0693189
-0.193604
0.142967
-0.521515
0.26619
-0.992467
-0.765533
-0.293988
-0.896952
1.39716
0.0124796
-0.291784
-0.459223
0.224868
0.465009
0.308745
0.0489189
1.25072
-0.782092
-0.19695
0.134154
0.088711
-0.62067
0.531959
-0.0149752
0.0109048
0.0512492
-0.0598759
-0.232108
-0.112488
0.697467
-0.422587
-0.27488
-0.151013
0.129028
-0.0931676
-0.0358603
0.245047
0.0636983
0.302864
-1.07734
-0.0995984
0.145066
0.202292
0.260793
-0.00221686
-0.00694954
-0.0247442
0.0149501
0.00979401
-0.00594982
-0.00566575
-0.249168
0.0776724
-0.0253976
-0.543697
0.408229
0.0223688
0.0359295
0.0900416
-0.69759
1.6625
-1.10874
0.0159735
-0.199269
0.183296
-0.142358
-0.532182
0.67454
0.0703488
-0.710294
0.214786
0.545892
-0.00807948
-0.000478878
0.00855836
-0.239665
-0.600066
-0.164305
-0.133804
-0.74285
-0.238391
0.170638
-0.0843312
-1.1068
-0.214455
0.319828
-0.105373
0.257457
0.109361
0.424074
0.381582
-0.805656
-0.001517
0.0621524
1.25091
-0.121597
-1.12931
-0.218612
-0.377594
1.51617
-0.249033
0.186045
-0.866135
0.488541
-0.106664
0.189741
-0.001244
0.00599137
-0.0327972
1.40943
-1.20509
0.7406
0.088439
-1.33625
0.0219588
0.271731
0.675896
0.897763
0.0167164
-0.0175632
-1.36753
-0.655173
-0.711948
0.723063
-0.078239
-0.871922
0.662086
0.599863
-0.929647
0.669041
-0.00391283
-0.792439
-0.314481
0.637551
-0.767442
0.129891
0.0777742
0.0512536
-0.357971
0.0251287
1.29597
-1.3211
-0.00350572
-0.00628434
-0.271398
0.220709
0.7079
0.216384
-0.201988
-0.175212
1.13822
-0.891477
-0.320166
-0.191174
0.383216
0.429851
-0.813067
-0.998921
1.29914
0.27251
-0.091541
0.0839779
0.467763
-0.442634
-0.00088634
0.220969
-0.0169934
0.0876516
0.0322306
0.00971887
-0.0303328
0.0206139
-1.027
-0.0353116
0.3119
-0.807075
-0.0416857
0.548084
-0.506398
0.382545
0.655596
-0.0468806
0.0500395
-0.0031589
0.236752
0.901469
-0.718199
1.11501
0.806749
-0.848434
0.322595
-0.101627
-0.583666
-0.4088
-0.948602
1.33182
-0.0565664
-0.8821
-1.71016
0.0171509
0.467763
0.0504511
-0.857526
0.831309
-0.646508
-0.184801
-0.98198
0.398314
0.00856101
0.109363
-0.000531947
-0.108831
-0.971417
0.562616
-0.209221
0.911628
-0.923926
0.197401
-0.215397
-0.0980508
0.249364
0.488231
0.605069
-0.048247
-1.31983
0.606054
0.173043
-0.838489
-0.552536
-0.518551
1.07109
0.447464
0.0161353
-0.0111406
-0.737488
0.702177
0.928044
-0.691291
-1.72004
1.36662
0.353423
0.124945
0.423138
0.773812
-0.807875
-0.493839
-0.449283
-0.471948
-0.499469
0.804103
-0.804103
0.687037
-0.687037
-0.737488
-1.03835
1.03835
-1.36662
-1.56824
0.122678
-0.0535643
-1.31792
1.31792
0.928044
-0.691291
0.773812
0.765081
-0.765081
0.807875
0.75837
-0.75837
0.506161
0.528052
0.481449
-0.389878
-0.500531
-0.550717
1.07877
-0.567928
-1.85366
0.905058
0.368534
-0.0960249
0.223529
-0.000432959
0.023531
-0.885615
0.0920145
0.7936
-0.0666997
0.0616099
-0.9944
0.58806
0.908349
-0.587235
-0.123341
0.0023932
-0.00591813
-0.812817
-0.0779311
-0.543689
-0.00939014
0.0318009
-0.693092
-0.0923146
0.0770049
0.186251
-0.00926495
-0.0063907
0.0156556
-0.812597
0.0677344
0.744862
0.163121
0.325111
-0.529547
0.419956
0.109591
0.916853
-0.744474
-0.17238
0.0873078
0.305057
-0.0142524
-0.0613877
-0.0635704
-0.0139902
0.602754
-2.03699
-0.854833
0.0958313
-0.744095
0.795841
-0.0517453
0.120764
-0.900154
0.779391
-0.803617
0.903081
-0.099464
-0.0286634
0.0227136
0.0212124
-0.295653
0.244828
1.08699
-0.0927797
-0.792835
0.915464
-0.0900898
-0.825374
0.0801616
-0.0793103
0.531655
0.824074
-1.84314
0.483801
-0.39064
0.0999962
-0.892831
1.54454
0.298218
-0.793778
0.00133905
1.01742
-0.896661
1.16447
-0.0138842
-0.0499733
0.0638575
-0.880952
-0.113448
-0.420685
0.0402318
0.228093
0.296584
-0.783758
0.783758
-0.618803
-0.0841058
-0.863916
0.119442
-0.976566
0.86995
0.0747585
-0.208857
-0.0554335
0.0545065
0.0115352
0.186751
0.830674
0.818975
0.773388
0.137044
-0.910433
0.182662
-0.278686
-0.782828
-0.104042
0.88687
0.167857
-0.886056
-0.677165
0.886515
-0.786519
-0.104951
0.46133
-0.0150357
-0.446295
0.0527295
1.47723
-1.52996
0.431419
-0.482537
0.0511177
-0.887779
-0.829966
0.08587
0.530954
0.274873
-1.42449
1.46216
-0.58315
0.58315
-0.773494
-0.546333
-0.243881
1.04261
-0.671964
-0.121886
0.782473
-0.197581
1.20601
-0.142606
0.851291
-0.758752
-0.0925389
-0.14026
-1.74754
0.032622
0.168777
-0.598794
0.505515
-0.0282692
0.316612
-0.229304
0.781414
-0.880878
-0.268376
-0.01031
-0.147847
0.735907
0.586045
-0.586045
-0.0386397
0.0242621
0.115015
-0.0818288
1.48169
-0.00445254
0.0638318
0.000781881
0.00646577
-0.00724765
-0.672021
0.693694
-0.0216734
0.299115
-0.349088
0.106365
-0.892884
-1.02036
1.20111
-0.18075
0.1159
0.874487
-0.283559
0.582675
-0.75584
0.607119
-0.655125
-0.668313
0.15785
0.502203
0.0273406
0.200303
0.089739
0.412464
0.00289549
-0.0276835
0.0667182
0.729123
0.691145
-0.0840259
0.0737281
0.788696
-0.752892
-0.162393
0.915285
-0.370512
0.517737
0.453514
-0.935035
0.717802
0.217233
-0.68544
-0.129334
1.28257
0.0296014
-0.436736
-0.0363654
0.485935
0.514065
-0.77097
-0.109908
-0.0951259
-1.10064
-0.714643
-0.925292
0.400695
0.599305
-0.0714795
0.0634923
-0.861059
-0.0621347
-0.592991
-0.15133
-0.242303
0.393633
-0.000942837
-3.53482e-05
0.116752
0.0748993
-0.128722
-0.120446
0.761039
-0.646167
0.719895
0.915524
-0.825785
-0.162632
0.857186
-0.694554
-0.744966
-0.189285
0.934251
-0.235322
0.224415
-0.0251121
-0.0249062
0.0154403
-0.000388081
0.717086
-0.133936
0.116149
0.112889
-0.735986
0.063965
1.21828
0.38478
-0.699607
0.040675
0.443817
-0.284851
1.0195
-0.00508202
0.166367
0.0766489
-0.00196768
-0.0227352
-0.045077
-0.232036
1.45032
-0.737545
-0.327286
1.06483
0.846909
-0.0312751
0.00265888
0.0286162
0.132725
-0.000727362
0.000228106
0.210927
-0.103429
-0.551291
-0.120673
0.310959
-1.0485
0.00691319
0.277418
0.5299
-1.08549
1.25078
-0.16529
-0.776194
0.830515
-0.0543217
0.816474
-0.31571
0.209046
-0.0768669
1.24965
-0.461989
-0.0675582
0.274533
0.446918
0.186744
-0.633662
0.398787
0.0354872
0.658207
-0.573175
0.56878
0.00439452
1.47963
-1.01462
-0.0206547
0.0242317
-0.00357701
0.699062
-0.00935833
-0.0830435
0.0187127
0.836577
0.460789
0.355684
0.0418968
-0.165829
0.0262966
0.00821728
0.0652409
-0.0734582
0.0162991
-0.00658023
0.627737
-0.749334
0.0645078
0.215056
-0.0248349
-0.084439
0.231242
0.0952562
0.00397892
0.0575089
0.76578
0.0437535
-0.324787
0.281034
-0.289008
-0.645241
0.934249
0.641231
0.120704
-0.0261943
0.00810199
0.0180923
-0.591069
0.344827
-1.10358
-0.00716965
0.756286
0.72081
0.274539
0.115627
-0.473598
0.809088
0.123825
0.0671057
-0.891914
0.114867
-0.272264
-0.58398
-0.168792
0.694878
0.0709024
0.0142109
0.18888
-0.50459
-0.369068
0.165633
0.0188777
-0.110475
0.421422
-0.0586378
0.429844
-0.0670454
0.1355
0.439313
-0.728322
-0.148806
0.219674
-0.0372237
-0.108967
2.77619e-05
0.000198841
-0.000226602
-1.53156
0.516942
-0.00686335
0.920945
-0.225731
-0.622012
0.649192
-0.0271803
0.164451
0.758843
-0.0944435
-0.600111
0.0828885
-0.180939
0.635711
0.123131
1.19174
0.830838
-0.269055
0.752857
0.699131
0.751185
-0.593686
0.350876
0.24281
-1.14295
-0.0712996
0.0402122
0.0681059
-0.0495928
1.18491
0.734262
0.0748257
0.629181
0.215953
-0.875186
-0.0822816
-0.678686
0.680025
-0.0266161
-0.57037
0.41904
0.864153
0.671199
0.0552029
-0.0183101
-0.147827
-0.319227
0.926491
0.736007
0.419591
0.0110237
1.08107
-0.329883
1.0169
-0.155441
-0.081073
0.480958
-0.732959
0.92317
-0.190211
-0.413238
-0.180448
-0.0243757
-0.168918
-0.0994192
0.835617
0.0162061
-0.00303209
0.627262
-0.434711
0.475386
0.609064
-0.131425
0.229156
0.744641
0.27221
-1.01685
0.276663
-0.923172
0.29124
-1.39998
-0.171766
0.758769
-0.587003
-0.673149
-0.0548043
0.029898
-0.0563019
-1.7359
0.0133906
-0.0381348
0.0500776
-0.0953434
-0.121393
0.216736
-0.0060221
-0.572734
0.187909
-0.0215415
-1.67022
-0.0135026
0.00423763
0.775275
-0.0550951
-0.597625
0.02445
0.566553
0.297601
1.12381
0.793922
-0.23746
-0.386543
0.624003
0.69506
-0.619303
0.619303
-0.194325
-0.948106
1.14243
0.031532
-0.156496
0.676405
-0.109853
-0.21857
-0.442618
0.00588254
0.000792077
-0.0203928
-0.185329
0.183266
-0.103676
-1.04398
0.483906
0.084874
0.0669108
0.00818971
-1.7468
-0.607073
0.00574454
0.693111
0.306889
-0.607073
0.693111
-1.02664
-0.410208
-1.02664
-0.696448
0.696448
0.303552
-0.013682
0.156056
-0.0783954
0.253186
0.058818
-0.492039
0.638701
-0.0296371
0.650698
-0.504639
-0.146059
-0.0513456
0.0487029
0.00264264
-0.0156147
0.0163965
0.450488
0.0179496
-0.012153
-0.435721
-0.362744
0.13446
0.0412085
0.82719
-0.276117
-0.0907028
0.315571
-0.0158278
-0.0550302
-0.00611188
0.687055
0.0692309
0.406994
-0.0196639
0.000494625
-0.00884512
0.083934
0.556769
-0.478211
-0.0785578
2.21487
0.554675
0.495014
0.913499
0.0119338
-0.0657551
0.110808
0.248011
0.0831996
1.13763
-0.392992
-0.000364773
-0.0227832
0.67316
-0.0889661
0.0198818
-0.0198818
0.0224921
-0.0224921
-0.00820106
0.00820106
0.00162245
0.366821
0.461027
-0.0611017
-0.702652
0.473578
0.183079
0.0278476
-0.0853538
-0.483518
0.664113
0.112664
-0.798103
-0.399415
0.240764
0.0771775
0.0213505
-0.000156855
-0.00027243
0.00027243
0.11778
0.00020645
-0.00020645
0.701339
0.100222
-0.0154807
-0.00418317
0.00628882
-0.0648442
-0.0210061
0.0210061
-0.00780242
0.00780242
-0.0238322
0.0238322
0.000644398
-0.000644398
0.0760557
-0.299046
-0.0788905
0.219005
0.00096141
-0.00096141
-0.376321
0.504573
-0.128253
0.489455
-0.216034
-0.503023
0.41232
0.55907
-0.226382
0.0801042
0.569088
0.566168
0.00133895
-0.00133895
0.61604
0.0266506
-0.0266506
0.00121845
-0.00121845
0.76716
-0.547669
0.0386698
0.0426522
-0.263196
-0.000839322
0.000839322
0.00854853
-0.00854853
0.0194253
-0.0194253
0.0215946
-0.0215946
-0.0250209
0.0250209
0.0370476
-0.0370476
0.491511
-0.0336362
0.0336362
0.000611217
-0.000611217
0.0255567
-0.0255567
-0.00639047
0.00639047
-0.00125379
0.00125379
0.0104366
-0.0277768
0.0277768
-0.0388885
0.00986953
-0.0415887
0.0415887
0.00540361
-0.00540361
0.00712878
-0.00712878
0.0353911
-0.0353911
0.0242818
-0.0242818
-0.00103816
0.00103816
-0.00512608
0.00512608
-0.389049
0.173422
-0.00758418
0.00758418
0.000286253
-0.000286253
-0.0401858
0.0401858
-0.0265421
0.0265421
0.00374467
-0.00374467
-0.41325
0.684982
0.248483
-0.0337664
0.0337664
-0.00182918
-0.00834063
0.00834063
-0.000139266
0.000139266
0.0354374
-0.0354374
-0.176813
0.243919
0.00576202
-0.00576202
-0.0211803
0.0211803
-0.488117
0.0426168
0.198422
-0.0297004
0.0297004
-0.439611
0.0320024
0.0180371
0.172859
-1.50911
-0.0386803
0.0386803
-0.206444
0.147807
-0.039094
-0.000612966
0.000612966
-0.00732711
0.0529922
0.264075
-0.322392
-0.271212
0.593604
0.185346
-0.00617593
0.00617593
-0.102617
0.364447
-0.261829
0.758691
-0.386467
-0.372225
-0.471642
-0.658134
0.368629
-0.0530578
0.206439
-0.576951
-0.574156
-0.0159261
0.190083
-1.09263
0.0178884
-0.0178884
-0.000875788
0.000875788
0.0324989
-0.0324989
0.0249143
-0.0249143
-0.00290526
0.00290526
-0.00107152
0.00107152
-0.21119
-0.0455755
0.167567
-0.290908
0.00323718
-0.00323718
-0.0428639
0.0428639
-0.0424426
0.0424426
0.173025
-0.120274
-0.0527514
0.00799304
0.306617
-0.532348
-0.00349278
0.00349278
-0.00438164
0.00438164
-0.0992255
0.108212
0.260416
-0.0016631
0.0016631
0.0606674
0.0165666
0.950995
-0.487663
-0.0863056
0.573969
-0.62427
0.277513
-0.0494207
-0.0367516
0.0367516
-0.67743
0.271026
0.0522259
-0.0522259
-0.664809
0.386867
0.25722
0.119105
-0.00292948
0.00292948
-0.849942
-0.00222915
0.00222915
0.31883
0.409627
0.0461981
-0.0564992
0.0564992
-0.00215708
0.00215708
-0.0445848
0.0445848
-0.0513392
0.0513392
-0.00262233
0.00262233
-0.0567824
0.0567824
-0.00294646
0.00294646
-0.0480668
0.0480668
-0.0128959
-0.0431004
0.0431004
0.00405535
-0.00405535
0.0507416
-0.0507416
-0.00337888
0.00337888
0.0453183
-0.0453183
0.106671
-0.00465169
0.00465169
-0.00579334
0.00579334
-0.0444584
0.0794389
-0.0119109
0.0119109
0.00482105
-0.00482105
-0.0627301
0.0627301
0.307784
-0.0195699
0.0195699
-0.054604
0.054604
-0.00717193
0.00717193
-0.0711315
0.0711315
-0.0128693
0.0128693
-0.0852764
0.0852764
-0.0229313
0.0229313
-0.0899776
0.0899776
-0.696983
0.252517
-0.53647
0.50929
-0.856452
-0.386864
-0.552164
0.383372
-0.0633144
-0.0876986
0.00362479
-0.00362479
0.056978
-0.708859
0.0469866
-0.0387969
-1.25105
1.66173
1.42251
0.247152
-0.00844426
0.0308296
-0.385591
-0.586889
-0.010754
0.390988
-1.15545
-0.0239894
0.0239894
-0.744044
0.0175928
-0.0175928
-0.00456248
0.00456248
0.339606
-0.382373
-0.00255579
0.00255579
0.017993
0.013761
0.598047
0.195624
-0.0129558
-0.0136772
-0.00388602
-0.102026
0.502652
-0.400626
0.130963
-0.0983413
0.00687585
1.07003
0.0101264
0.0469264
-0.409538
0.449769
-0.495843
-0.986262
-0.21313
-0.0751629
0.0187681
-0.142357
-0.34018
0.0140078
-0.00610094
0.000361468
0.790041
-0.543476
-0.0422633
0.061141
-0.037955
0.0758541
0.080202
0.419684
0.242045
-0.162142
0.205098
0.0340365
-0.0111786
-1.39568
0.00875099
0.144258
-0.265651
-0.0178472
-1.42203
-0.0722906
0.267981
-0.353154
0.401071
0.0854211
-0.982373
0.0458127
-0.0571777
-0.0221326
-0.351417
0.461008
-0.0192992
-0.0382362
0.0575353
-0.0288996
0.0288996
0.16496
-0.451056
0.0285274
0.055313
-0.084113
0.0574969
-0.0615677
-0.00520245
0.0667702
-0.0384338
-0.15865
0.00719633
-0.107454
-0.285265
-0.349015
0.63428
0.0161522
0.0625347
0.150316
-0.0341668
-0.0364481
0.0701761
-0.161251
0.31803
-0.000235934
0.0288521
-0.0216554
0.171971
0.00410781
0.266431
0.00421213
-0.00421213
0.142516
0.874386
0.0938259
-0.176107
-0.0102623
-0.020272
-0.147481
0.730156
-0.00460688
-0.00472177
-0.534783
-0.00168702
-0.00437825
0.0966157
-0.694651
0.304521
-0.0549919
0.373296
-0.658561
0.214992
0.50281
-0.0957739
0.0957739
-0.000531947
-0.0212959
0.225772
-0.204476
-0.218041
0.161739
0.359188
-0.222089
-0.397769
-0.0903919
-0.018923
0.0213525
0.929437
0.163663
-0.10846
-0.0702345
-0.00845346
-0.839981
-0.0419621
-0.259749
0.785256
0.567585
-0.260968
-0.267133
0.544551
-0.086894
0.279989
-0.266157
0.047745
-0.460911
0.332658
0.117825
-0.117825
0.0764769
-0.0332227
-0.0432542
0.00135002
0.00388492
0.0149501
-0.626936
0.0358672
0.221528
-0.185882
-0.035646
0.536223
-1.08039
0.00583479
-0.765617
0.688589
-0.114193
-0.176714
-0.0328919
-0.0795962
-0.491899
0.0561783
-0.294445
0.000437946
-0.0178472
0.39137
-0.0052847
-0.00107228
0.000317011
0.0185487
-0.00882327
-0.00972539
-0.101587
-0.0200603
-0.173873
0.193934
-0.119784
-0.341126
0.017993
0.348562
-0.000139567
-0.382284
0.0882964
0.00281834
0.0276936
-0.0887952
-0.0126513
0.0126513
-0.00129852
0.000746112
-0.0088953
0.000257035
-0.0484984
0.00058848
-0.00118864
0.200086
-0.148484
-0.00205157
0.00205157
0.0388999
0.506884
0.000218233
-0.283612
0.588827
1.17326
-0.471201
0.327447
-0.439665
-0.0964622
0.12499
0.221741
-0.223161
-0.00898852
-0.00083949
0.000451409
0.00102638
-0.177304
-0.37109
0.844668
0.312045
-0.523235
0.201236
-0.00165644
0.0780642
0.0378359
-0.000207907
-0.000150616
-0.000688873
-0.866745
0.00140293
-0.000414269
0.726281
-0.656105
-0.247824
0.149124
0.963815
-0.000425518
0.000635936
-0.039094
-0.00541864
0.817618
-0.43239
0.517264
-1.0949
0.906194
-1.3355
0.566761
-0.183388
0.709409
0.000214544
0.0033614
0.0179891
-0.11145
0.137997
-0.189511
0.00899413
0.00123934
0.0679608
-0.0541157
-0.0138451
0.000413911
0.0249938
-0.00759322
-0.0174005
-0.100669
0.00657128
-0.00010551
0.00200378
0.491309
-0.434077
-0.00274714
0.000251886
-0.0394939
0.265266
0.378709
-0.00618141
-0.000262822
0.0830247
-0.0185169
-0.0454619
-0.106953
-0.0141953
-0.00376226
0.127567
0.0187512
-0.00228897
0.404619
0.000563602
0.000887544
-0.000887544
-0.00683237
-0.00684478
0.000331919
-0.321734
-0.00387871
0.0753631
-0.107656
0.291283
0.431281
-0.0652592
0.000255611
0.00114165
0.456976
-2.4224e-05
-2.49451e-05
-0.0243507
-0.00214218
0.000467459
0.0106895
0.0531423
-0.709962
0.46996
-0.84105
-0.231968
-0.000493979
0.0675044
-0.0207023
-0.00756684
0.58492
-0.0145876
0.0917669
-0.00427325
-0.00148428
-0.554299
-0.00348206
-0.000324132
-0.00709423
0.9147
-0.515913
-0.0026748
-0.000432417
-0.00623098
-0.00127281
0.0783686
-0.0211637
0.0211637
-0.0163134
0.0170595
-0.00235089
-0.00840135
0.0130914
-0.0141637
-0.169735
0.0984351
-0.00569734
-0.0141449
0.0389304
-0.017666