/*--------------------------------*- C++ -*----------------------------------*\
| =========                 |                                                 |
| \\      /  F ield         | OpenFOAM: The Open Source CFD Toolbox           |
|  \\    /   O peration     | Version:  2306                                  |
|   \\  /    A nd           | Website:  www.openfoam.com                      |
|    \\/     M anipulation  |                                                 |
\*---------------------------------------------------------------------------*/
FoamFile
{
    version     2.0;
    format      ascii;
    arch        "LSB;label=32;scalar=64";
    class       volVectorField;
    location    "37";
    object      U;
}
// * * * * * * * * * * * * * * * * * * * * * * * * * * * * * * * * * * * * * //

dimensions      [0 1 -1 0 0 0 0];

internalField   nonuniform List<vector> 
2186
(
(1.31048 -0.0723817 2.69853e-19)
(1.58572 -0.931618 1.98618e-20)
(1.43681 -0.907527 1.04747e-20)
(0.731278 -0.572123 -1.70369e-19)
(-0.166197 0.127581 -1.65151e-19)
(1.80462 -0.663713 0)
(0.709614 -0.655181 0)
(-0.0473857 -0.0652495 5.92809e-20)
(1.37379 -0.224456 6.53508e-20)
(0.543964 -0.296522 -1.95565e-21)
(0.697367 0.628811 0)
(0.75968 -0.280393 -6.19101e-20)
(-0.065826 -0.107974 -2.45608e-20)
(1.20856 0.0239107 -4.13801e-19)
(1.76819 -0.692058 8.43175e-21)
(1.01665 -0.00349029 1.91934e-19)
(0.977023 0.0134198 0)
(-0.467854 -0.249306 0)
(1.66807 -0.747932 0)
(-0.118983 0.270453 -7.84982e-20)
(0.488958 0.116276 -1.21745e-19)
(-0.0846814 0.213959 1.07061e-19)
(1.19565 0.0274975 3.40523e-19)
(-0.200197 -0.049182 5.80713e-21)
(1.03063 0.00764704 -2.68245e-19)
(0.782642 -0.549745 0)
(0.761921 -0.0176523 1.59116e-19)
(0.599561 -0.578756 -2.04278e-19)
(1.23668 0.725625 0)
(0.960445 0.0238384 -3.65646e-19)
(-0.0685346 0.125692 0)
(1.02474 -0.010159 1.26743e-20)
(-0.193093 0.164261 0)
(2.65229 0.0301811 1.75327e-19)
(-0.179526 -0.130985 1.02317e-21)
(1.5773 0.78089 6.3609e-20)
(2.04897 0.151749 9.63608e-20)
(0.517468 0.163843 -3.61842e-19)
(2.00518 0.0872307 -3.32827e-19)
(1.50105 -0.504851 -5.63456e-21)
(-0.11162 -0.184668 0)
(-0.0108697 0.192068 0)
(1.84089 -0.878769 4.12434e-20)
(-0.369998 0.210076 0)
(1.12772 0.287396 1.60322e-19)
(0.590083 -0.278815 3.10933e-19)
(0.904371 -0.771657 0)
(1.17504 -0.782397 1.52141e-19)
(1.67712 -0.150211 0)
(-0.178849 0.206562 1.75964e-19)
(-0.0603517 0.171325 1.16003e-19)
(0.651512 0.600441 8.17235e-20)
(2.04281 -0.769876 2.41219e-20)
(0.604346 0.290765 -2.89702e-19)
(-0.27848 -0.0981446 4.29925e-20)
(0.753469 -0.641393 0)
(1.62282 -0.95483 1.69332e-20)
(0.569514 -0.530173 0)
(2.27006 0.0788365 9.51161e-20)
(1.13433 -0.164756 -4.36067e-19)
(1.70688 0.0685185 2.06388e-20)
(1.36679 0.305649 -1.8228e-19)
(1.36886 0.548255 0)
(1.64637 -0.601613 6.1717e-21)
(1.38781 0.395264 -1.09159e-19)
(1.23839 -0.72585 -2.22156e-19)
(1.19319 0.672697 5.32237e-20)
(0.679599 0.0844292 -5.96634e-19)
(0.82322 0.066496 0)
(2.05303 -0.232836 -2.25292e-20)
(-0.0842019 -0.101433 -6.67406e-20)
(2.22152 -0.0641356 1.43351e-20)
(0.724714 -0.0256833 -2.64844e-19)
(0.868122 -0.510391 0)
(0.832295 0.191432 -9.65796e-20)
(0.537442 -0.498103 -3.3841e-19)
(1.56759 -0.0194761 0)
(1.00714 0.0100921 3.978e-19)
(-0.185406 -0.141634 0)
(2.10517 0.27015 0)
(0.418809 -0.241439 8.65408e-20)
(1.52786 -0.486363 -5.606e-21)
(1.02131 0.00647802 4.45612e-20)
(1.34076 0.411174 2.77185e-20)
(0.967248 0.0239212 4.68213e-19)
(1.03781 0.028727 -1.10727e-20)
(0.674218 0.190267 -3.52385e-19)
(1.75762 -0.761816 -8.52241e-22)
(2.01744 0.00198004 0)
(-0.0692758 -0.0582518 4.58745e-20)
(0.853379 -0.615148 -1.96475e-19)
(-0.13724 0.181544 9.65706e-22)
(1.10628 -0.0727214 2.84703e-19)
(0.814294 -0.172929 0)
(0.969818 0.0233213 4.44959e-20)
(1.39198 0.650208 0)
(1.60215 -0.946076 0)
(1.32065 0.227891 0)
(-0.179398 0.177663 0)
(0.782855 -0.656724 3.42419e-19)
(-0.0115906 -0.229534 -2.25961e-19)
(0.201276 -0.034386 1.44912e-19)
(1.57056 0.182146 0)
(1.14522 -0.10025 -2.60268e-19)
(1.1247 0.023746 1.96972e-19)
(-0.16211 0.239907 1.45153e-19)
(0.65353 0.521319 0)
(2.19382 -0.178561 -3.92508e-20)
(0.957262 -0.470502 9.61323e-20)
(-0.0625505 -0.39771 2.57671e-19)
(1.84789 0.235146 1.43606e-19)
(-0.146932 0.204919 -2.71205e-19)
(0.802529 -0.729202 0)
(0.579302 0.364505 1.74189e-19)
(1.62137 -0.226873 -1.91884e-19)
(-0.109829 -0.207578 -2.81379e-19)
(1.01428 -0.361128 -1.11248e-19)
(1.47337 -0.116796 0)
(-0.09232 -0.0775436 -1.37203e-19)
(0.706095 -0.0588698 8.43104e-20)
(1.60407 0.89406 0)
(-0.189736 0.163144 -2.49131e-19)
(0.907709 0.779846 -2.76498e-19)
(-0.488757 -0.26862 2.52508e-19)
(1.03016 -0.0232013 0)
(0.991032 -0.203594 1.40155e-19)
(-0.16636 0.171213 0)
(0.69074 -0.486367 -1.21937e-19)
(-0.498645 -0.322501 -1.44031e-19)
(0.776623 -0.707505 0)
(0.425889 -0.259053 4.49577e-19)
(0.530919 -0.445127 3.12509e-19)
(0.402123 -0.363697 0)
(0.971747 -0.773615 -1.68761e-19)
(0.235179 -0.186715 0)
(-0.126779 0.189574 -1.37873e-19)
(0.801049 -0.687963 1.67519e-19)
(2.36894 -0.263104 1.00739e-19)
(1.99214 0.0535298 0)
(-0.0587419 -0.0381079 0)
(0.707049 0.656995 -3.41801e-19)
(1.76281 -0.628721 -3.40277e-20)
(-0.000201633 -0.00573705 0)
(0.974371 -0.798106 -1.78622e-20)
(1.14306 -0.0985035 0)
(1.08081 -0.121431 4.51538e-19)
(2.07041 -0.195197 -2.44448e-20)
(-0.178494 0.128373 0)
(1.21268 -0.550319 -7.19933e-20)
(-0.228496 0.233455 -5.36509e-20)
(-0.131186 0.186175 0)
(1.08306 -0.805953 1.11561e-20)
(1.00702 0.00574007 -6.64454e-19)
(0.642206 -0.46957 -1.18759e-20)
(0.80949 -0.507236 0)
(1.18974 -0.724303 -1.26631e-19)
(0.667525 0.251643 2.71571e-19)
(1.20543 0.133784 0)
(1.51132 0.0496216 -2.3237e-19)
(1.18509 -0.847853 -3.05691e-19)
(-0.0676967 -0.0426094 -5.09254e-20)
(-0.0326348 -0.454076 -7.45702e-20)
(1.07404 0.0097611 2.45465e-19)
(0.911856 -0.457334 -1.20893e-19)
(1.44657 -0.960251 7.88856e-22)
(0.415256 -0.520754 -4.5285e-20)
(0.682948 -0.12076 5.50807e-20)
(-0.160501 -0.0893033 -1.26596e-19)
(1.75383 0.16926 0)
(2.42464 0.209229 -2.73831e-21)
(1.47236 0.655367 1.29872e-19)
(0.801471 -0.60673 -2.49751e-19)
(0.995688 0.00902696 1.36162e-20)
(0.712275 -0.523404 3.35293e-19)
(1.33304 0.810767 1.20238e-19)
(1.76099 -0.000903914 1.43157e-20)
(-0.195927 0.0636981 0)
(1.08808 0.0536666 -2.53175e-19)
(-0.085227 -0.801314 -1.38807e-19)
(1.08726 0.496538 8.09532e-20)
(0.0527241 -0.137946 7.65262e-20)
(1.16355 0.0281481 -4.73478e-20)
(-0.228171 0.127946 -1.88947e-19)
(1.32093 0.587818 -7.46607e-20)
(1.16376 0.904074 0)
(-0.21444 0.0188493 -7.68401e-20)
(-0.0302346 -0.0532339 0)
(0.671482 0.576815 -2.83332e-19)
(2.05787 0.0694615 -1.97783e-20)
(-0.0994017 -0.182469 8.6219e-20)
(-0.338532 -0.339757 -4.02216e-19)
(0.728505 0.089556 2.62061e-19)
(1.86446 -0.235839 -2.36398e-20)
(0.975398 -0.341481 -3.4912e-20)
(-0.0281605 -0.0175311 0)
(-0.409841 -0.14467 4.43759e-19)
(1.36949 0.993487 -7.511e-21)
(0.845341 0.0853539 -1.43403e-19)
(0.57412 0.53839 1.96869e-19)
(0.547771 0.202992 0)
(-0.138419 -0.302674 -9.5945e-20)
(-0.350664 0.253258 2.5187e-19)
(1.27846 -0.946366 8.95898e-22)
(0.986708 -0.02924 -2.08122e-19)
(-0.173715 -0.155008 6.1429e-21)
(-0.105371 0.120905 1.48433e-19)
(-0.243094 -0.189619 -9.12173e-20)
(1.17307 -0.126554 0)
(1.13421 0.0436696 -3.38767e-19)
(2.25538 -0.0814324 7.71492e-20)
(1.26435 -0.615998 1.41526e-19)
(2.02194 -0.187947 1.89471e-20)
(0.60594 0.3459 0)
(0.963157 0.764921 -1.63018e-20)
(0.70454 0.647865 1.85361e-19)
(0.890298 -0.556781 1.7704e-19)
(0.700027 0.514564 0)
(1.02087 0.00243344 8.91668e-21)
(0.874194 -0.65645 2.52899e-19)
(0.850178 0.434078 -4.68979e-19)
(1.20761 -0.107391 0)
(-0.0127012 -0.032055 -2.09395e-19)
(-0.0887872 0.146091 -1.16681e-19)
(1.62446 0.72329 0)
(1.33331 -0.930272 -7.66678e-22)
(-0.339115 -0.0947459 0)
(-0.151555 0.174035 1.0739e-19)
(0.753198 0.668037 -9.93016e-20)
(0.849659 -0.211262 0)
(-0.214215 -0.0510457 0)
(1.55138 -0.470566 0)
(-1.01362 -0.628196 3.62484e-19)
(1.1988 -0.875578 1.99587e-19)
(1.16734 -0.599065 7.99561e-20)
(1.05543 -0.168851 -2.02267e-19)
(0.870305 -0.686694 -2.0136e-19)
(0.179391 -0.183287 0)
(-0.764046 -0.324953 0)
(0.995457 -0.507449 2.14033e-19)
(-0.0388798 -0.0311917 0)
(-0.201521 0.169334 0)
(-0.119736 -0.215968 2.42865e-19)
(0.808802 0.684837 8.61678e-20)
(1.03312 0.80899 0)
(0.711387 0.566843 -8.66511e-20)
(0.830627 -0.033442 -2.40599e-19)
(0.760595 0.57531 -2.31707e-19)
(0.609397 0.56707 -1.69457e-19)
(-0.107217 -0.119044 3.03939e-22)
(0.708083 -0.635271 0)
(0.906265 0.183076 -3.37577e-19)
(-0.127273 -0.182323 2.95696e-20)
(0.623262 0.577453 3.79927e-19)
(0.977165 0.813453 0)
(-0.852029 -0.660784 2.7219e-19)
(-0.177037 -0.129942 1.48152e-19)
(-0.158223 -0.011198 -7.19295e-20)
(0.680086 0.58449 -1.50434e-20)
(0.96993 -0.00725147 6.40464e-20)
(-0.129035 -0.233762 0)
(2.29074 -0.159839 -1.26437e-19)
(0.864789 0.380787 1.22578e-19)
(0.640014 -0.59188 -8.93442e-20)
(-0.450432 -0.244719 9.19177e-21)
(1.21232 0.463837 1.80424e-19)
(0.898002 0.422781 0)
(1.04965 -0.167928 2.23777e-19)
(-0.102279 -0.192352 -2.8288e-21)
(-0.139645 0.125846 4.37162e-19)
(0.918885 0.0185545 -5.8318e-20)
(1.11574 0.155144 0)
(1.90468 -0.0976128 -6.42234e-20)
(1.76221 0.0032484 0)
(0.553486 0.273704 -4.76505e-19)
(-0.110917 0.131998 0)
(-0.0705784 -0.0790479 1.30374e-19)
(0.703474 0.103301 0)
(0.611674 -0.504193 -2.04776e-19)
(1.14103 0.017906 2.30723e-19)
(-0.201049 0.128724 3.58216e-20)
(1.75951 -0.0429152 -9.10293e-21)
(2.04485 -0.257767 -4.34541e-20)
(1.12587 0.233517 -2.25982e-19)
(-0.13727 -0.218342 -5.82817e-20)
(1.06389 -0.842289 0)
(0.811139 0.017114 -1.67734e-19)
(0.923139 -0.369668 -3.29247e-19)
(1.70698 -0.581827 5.59717e-21)
(1.73856 0.0388434 9.6494e-21)
(1.08396 -0.00432304 4.06986e-19)
(-0.0649855 -0.215722 -6.48538e-20)
(0.990634 -0.432345 -1.49486e-19)
(0.188959 -0.181627 2.87609e-19)
(1.00825 -0.00646894 0)
(1.00485 -0.00465337 0)
(-0.28488 0.715148 -2.49844e-20)
(-0.141266 0.229406 -1.01507e-19)
(0.164072 -0.118584 -7.14322e-20)
(1.2948 0.000497379 1.76206e-20)
(0.529499 -0.182364 0)
(1.80104 -0.215366 -5.65794e-20)
(0.927285 -0.807203 -1.2085e-19)
(1.76166 -0.574015 -1.82186e-20)
(1.12787 0.851454 0)
(0.460846 -0.442177 0)
(0.621226 0.533249 -1.80711e-19)
(1.1087 0.282183 -4.12338e-19)
(2.25758 -0.271824 9.1407e-23)
(0.866384 0.167363 1.45471e-19)
(-0.0775568 -0.301503 -1.81005e-19)
(1.91227 -0.151624 -4.99613e-20)
(-0.118893 -0.383094 0)
(-0.104529 -0.0637374 0)
(-0.157684 -0.301049 0)
(1.32679 -0.720559 -1.4308e-19)
(-0.123616 0.189457 -2.31765e-19)
(-0.0923312 0.125451 0)
(1.32513 0.995315 -2.82282e-20)
(1.12665 0.151262 -4.35054e-19)
(2.1204 0.535978 -6.32451e-20)
(1.10895 0.944909 7.58817e-20)
(-0.142442 0.222524 1.4033e-19)
(2.15511 -0.052593 0)
(-0.159371 -0.306177 -1.89779e-19)
(-0.14061 0.205996 2.6068e-19)
(0.777703 0.0426616 1.95631e-19)
(1.57749 0.956746 1.51793e-20)
(1.20075 0.395998 7.77221e-20)
(-0.148089 0.176355 1.04715e-21)
(0.731983 -0.668129 -4.57791e-20)
(1.13828 -0.0478232 0)
(1.67388 0.00530845 0)
(1.04098 0.047245 0)
(-0.136146 0.663306 -4.00527e-19)
(-0.172381 -0.34098 6.05478e-20)
(1.06855 0.859847 0)
(0.997828 0.00140485 5.58701e-19)
(0.783354 0.617816 -2.31337e-19)
(-0.672917 0.53239 -2.8887e-19)
(0.863026 0.0259589 -4.41578e-20)
(0.704187 -0.64116 -2.6172e-19)
(1.41347 0.712922 -2.85739e-20)
(0.552714 -0.43827 -3.22225e-19)
(1.13134 -0.000259686 -4.95544e-19)
(0.811591 0.0472185 5.05517e-20)
(1.53095 -0.18286 1.10383e-19)
(1.92423 0.0939855 8.50544e-21)
(-0.0115336 -0.00446193 3.90991e-22)
(1.09529 0.478466 -2.7081e-19)
(1.41865 0.636969 9.20039e-20)
(-0.220887 -0.0513982 0)
(-0.0680607 -0.344899 6.81151e-20)
(-0.0385319 -0.0763414 8.91781e-20)
(-0.171248 -0.13112 -6.38438e-20)
(0.492348 0.33624 0)
(0.400807 0.635065 0)
(-0.0580378 0.0597892 -1.58849e-19)
(-0.151148 -0.212805 -3.02059e-20)
(1.04768 -0.0288382 1.96436e-19)
(-0.158374 0.0705304 -3.83147e-20)
(1.33349 -0.229993 -1.3002e-19)
(-0.154547 0.201593 0)
(0.821437 -0.727771 -3.74002e-19)
(2.09121 0.0462371 1.18713e-20)
(-0.0021969 -0.64647 8.0169e-20)
(0.727092 0.17463 3.43283e-19)
(0.62947 0.156545 1.10965e-19)
(0.489725 -0.46307 2.28587e-19)
(-0.00336187 -0.0191318 -7.19677e-20)
(1.26997 0.502512 0)
(0.408966 0.367197 -2.00084e-19)
(1.0286 -0.0140706 -3.13244e-19)
(-0.364307 -0.350019 1.59033e-19)
(1.44616 0.470823 -1.11122e-19)
(-0.0513745 -0.0476393 -2.60818e-20)
(0.670664 -0.612371 -1.07303e-19)
(0.825432 0.195247 -2.14481e-19)
(0.989359 0.434304 2.32482e-20)
(1.14275 -0.132769 4.04824e-20)
(0.601425 -0.21579 -3.26439e-19)
(1.99189 -0.359963 -1.12442e-20)
(1.46507 0.0885112 0)
(1.70576 0.656822 -2.26605e-20)
(2.013 -0.0148812 -7.70369e-21)
(0.516882 -0.181062 4.28258e-20)
(1.11839 0.365902 -2.21445e-19)
(1.93705 -0.595177 3.03543e-20)
(0.435677 0.406402 -2.58626e-19)
(-0.307793 -0.125972 1.99919e-19)
(1.82875 -0.223819 0)
(0.937619 0.00480163 0)
(0.858958 -0.759322 7.7027e-20)
(-0.166762 -0.154507 -1.62369e-19)
(-0.71088 -0.306138 -1.74413e-19)
(-0.0157492 -0.00931498 -1.09818e-19)
(-0.220182 0.100738 -1.32842e-19)
(-0.110284 -0.479085 0)
(-0.0979459 -0.0636059 1.90631e-20)
(-0.0468388 0.167837 -1.10605e-19)
(-0.11485 0.120393 -3.3614e-19)
(0.798096 -0.101698 0)
(1.60924 0.449984 -3.82032e-20)
(-0.0237999 -0.0389253 0)
(0.992022 0.0245667 4.01286e-19)
(-0.0490735 -0.394377 1.24483e-20)
(0.528464 -0.40955 4.32014e-19)
(-0.353103 -0.815385 2.29328e-19)
(-0.643004 -0.632822 0)
(-0.0608046 0.227065 1.22499e-19)
(1.00178 0.0239951 -1.21033e-20)
(-0.119997 -0.0996895 0)
(1.00505 -0.00809262 -6.19933e-20)
(0.850963 -0.716857 -3.47899e-19)
(0.191855 -0.26309 0)
(0.930347 -0.262901 2.35238e-19)
(-0.145789 0.156591 2.07698e-19)
(-0.03902 -0.0302672 0)
(-0.135512 -0.326852 -2.68258e-21)
(0.716258 -0.623214 -4.8847e-19)
(0.958657 -0.0297837 -3.00036e-19)
(-0.165572 -0.180061 1.90727e-19)
(-0.0903996 -0.0906396 7.86931e-20)
(-0.123872 -0.414253 0)
(0.970882 0.483702 0)
(0.00407952 -0.578755 8.73604e-20)
(1.60971 -0.260235 -1.19898e-19)
(1.1001 0.915946 1.77807e-20)
(1.07826 0.217213 -1.29274e-19)
(1.13886 0.0083067 -2.5687e-19)
(1.03524 -0.06827 -9.6736e-20)
(-0.152507 -0.217562 -1.77515e-19)
(1.47382 -0.0469624 2.24835e-19)
(0.673943 0.0355848 2.15367e-19)
(1.98102 -0.173821 8.17517e-20)
(1.0357 -0.145798 0)
(0.69058 -0.380613 4.88183e-19)
(1.14439 0.0260489 -5.43645e-19)
(1.78222 0.611926 -2.89783e-21)
(0.732264 -0.444819 -1.80059e-19)
(-0.0882735 -0.0734089 1.02597e-19)
(0.785819 -0.688885 4.5336e-19)
(1.25296 0.203474 7.52995e-20)
(1.00695 -0.00749364 2.7446e-19)
(-0.0746971 -0.293456 -7.27053e-20)
(1.02625 0.0197232 0)
(1.88211 0.222981 -1.57371e-19)
(-0.0606647 -0.0419241 0)
(1.01195 0.0138203 -1.63539e-19)
(-1.04468 -0.468428 -4.7221e-19)
(1.76453 0.280704 2.79001e-20)
(-0.10579 -0.18232 1.14735e-19)
(1.59656 0.0364578 -8.47005e-21)
(1.01541 -0.0179638 5.67136e-20)
(1.30171 -0.088058 0)
(1.43171 -0.609583 -2.20108e-19)
(1.02382 0.037329 -1.66313e-19)
(1.47427 0.798309 -4.3092e-20)
(1.33608 -0.0628727 0)
(1.707 -0.334489 1.55525e-20)
(-0.0692507 0.0687281 0)
(1.34982 0.0425707 0)
(-0.164608 -0.313384 0)
(1.25917 0.457462 0)
(1.9785 0.177559 5.61206e-20)
(0.757668 0.629831 4.05394e-19)
(0.281893 -0.283018 -2.70629e-19)
(-0.142313 -0.179287 -1.85362e-19)
(-0.0406878 -0.0217331 0)
(2.31274 0.283654 -3.68184e-20)
(1.46576 0.527634 0)
(1.49089 0.286191 0)
(-0.183391 -0.330724 8.24782e-20)
(0.82933 0.731569 1.27754e-19)
(1.67743 -0.0327062 0)
(-0.0422537 -0.072515 4.73558e-20)
(0.918258 0.230418 1.97997e-19)
(1.56459 0.242372 2.14098e-21)
(1.27122 0.944267 4.1947e-20)
(0.903268 -0.812853 -5.73286e-20)
(1.75638 0.128793 -2.03942e-20)
(0.816711 0.737153 1.30647e-19)
(1.20939 0.9454 0)
(1.47805 0.0979273 -1.59122e-20)
(1.28067 0.1398 0)
(1.7074 0.418502 9.97868e-20)
(1.24314 0.09656 2.52581e-19)
(1.00527 -0.00378163 0)
(0.871328 0.0482269 5.69205e-19)
(0.884309 -0.162303 5.32606e-20)
(0.621321 -0.396668 0)
(0.660483 -0.368483 2.33431e-19)
(1.26182 0.565064 -3.30626e-20)
(0.492985 0.465234 2.8234e-19)
(-0.123443 0.135685 3.89457e-20)
(0.377963 -0.120284 1.2161e-19)
(0.759593 0.0676705 0)
(1.30736 -0.89162 -1.47819e-19)
(1.03361 -0.0428327 4.35372e-19)
(1.63107 0.336737 1.75243e-19)
(-0.061253 -0.113631 4.04781e-20)
(-0.265183 -0.726821 0)
(1.21688 -0.237119 -1.37268e-19)
(-0.0354384 -0.0261313 -8.73248e-20)
(0.795349 -0.467591 -4.48985e-20)
(-0.156838 0.086425 -1.14953e-21)
(-0.223312 0.128193 3.58957e-19)
(1.2692 -0.515203 3.30326e-20)
(2.36742 -0.118399 1.69313e-19)
(1.21108 0.460038 -2.90963e-19)
(0.877199 -0.0658235 0)
(1.73414 -0.0135332 1.56964e-19)
(1.86808 0.109307 3.57618e-20)
(0.900134 -0.75513 1.74474e-19)
(1.13517 -0.957632 -8.26901e-20)
(0.497388 0.461799 1.8891e-19)
(1.50376 -0.162889 0)
(1.80524 0.558247 4.17807e-20)
(-0.0437804 -0.0304743 -1.78353e-19)
(0.906323 0.790018 0)
(1.29857 0.0939099 0)
(0.282333 -0.28206 -3.34097e-21)
(0.342578 0.327959 0)
(-0.39994 -0.774679 -2.38713e-19)
(-0.13988 0.165352 -1.17137e-19)
(1.70212 -0.44273 0)
(1.21553 0.0833637 1.70772e-19)
(-0.484406 -0.226061 1.4691e-19)
(0.521695 -0.494238 -5.3228e-19)
(1.96172 -0.113964 -2.29121e-20)
(0.598556 -0.542743 0)
(1.03351 0.132208 0)
(1.33099 -0.256011 0)
(1.13436 0.235366 -2.41657e-19)
(1.35103 0.101007 3.42651e-19)
(-0.957242 -0.904898 0)
(0.873123 -0.0635604 0)
(1.72171 0.0147416 1.59106e-20)
(-0.106235 0.133474 1.19025e-19)
(1.77897 -0.162625 -1.01899e-19)
(1.02735 -0.500438 8.6601e-20)
(1.40337 -0.0250048 -1.16899e-19)
(-0.62696 -0.317074 -1.09737e-19)
(1.72251 -0.0207361 -1.32131e-19)
(1.01629 -0.0206144 4.54032e-19)
(1.5532 0.597885 0)
(-0.16351 0.194553 3.18223e-20)
(0.990285 -0.817941 2.2671e-19)
(0.857879 -0.0063713 5.16143e-20)
(0.624154 -0.420048 0)
(1.88184 -0.538166 -5.97781e-21)
(1.20242 -0.189102 1.84291e-19)
(1.26216 0.436188 0)
(0.595053 -0.551705 5.46143e-19)
(0.830211 0.0981442 -3.36574e-20)
(1.9492 -0.135901 1.98809e-19)
(-0.107033 0.147099 -2.38844e-19)
(1.35885 0.625472 1.43264e-19)
(1.16762 0.414061 3.70615e-21)
(0.919115 0.384913 2.31215e-19)
(1.74507 -0.147985 -1.58615e-19)
(-0.152879 -0.239531 6.49325e-23)
(0.427354 -0.199977 0)
(-0.143305 -0.109232 1.68395e-19)
(1.06766 -0.929659 0)
(1.05194 -0.645874 2.67548e-20)
(0.886734 -0.214632 -3.36336e-19)
(-0.284598 -1.15855 6.05514e-20)
(-0.217711 -0.532203 -1.93853e-19)
(1.00581 0.493633 1.77372e-19)
(0.461402 0.269024 4.42434e-19)
(0.695187 -0.0395189 0)
(1.32348 0.027186 0)
(1.78222 0.150907 2.05071e-20)
(0.773954 -0.0172717 0)
(1.35386 -0.206764 -1.89633e-19)
(-0.735969 -0.461747 3.0982e-19)
(1.95301 0.482081 3.08465e-20)
(1.04551 -0.0333162 0)
(0.54092 -0.334401 1.16568e-19)
(1.00758 0.0270564 2.15129e-19)
(0.866889 0.368552 -3.57371e-19)
(-0.229709 -0.0744514 0)
(1.10326 -0.475474 5.92988e-19)
(1.7693 0.100411 9.82715e-23)
(1.09031 -0.489241 -2.5773e-19)
(2.26969 0.119226 1.75427e-19)
(1.31548 0.805437 0)
(0.872978 0.020357 0)
(-0.114143 -0.215901 -1.06645e-19)
(-0.060282 0.057725 1.78807e-19)
(0.963169 0.376526 -2.13097e-19)
(0.0394178 -0.272071 -5.40515e-20)
(0.66168 0.425244 2.48984e-19)
(1.24488 -0.362386 0)
(0.524831 -0.487669 0)
(0.145318 -0.172165 -1.06164e-20)
(1.21864 -0.502048 -1.25175e-19)
(0.669983 -0.00519573 5.90326e-21)
(0.731835 -0.139042 1.28213e-19)
(-0.102198 0.108527 -3.176e-19)
(1.32018 -0.154401 1.73992e-19)
(0.682888 0.636689 0)
(1.29741 0.705232 0)
(1.62779 0.251918 0)
(-0.169185 -0.414595 -8.14466e-20)
(1.35341 0.586485 2.46732e-19)
(2.05497 0.0307747 2.23472e-20)
(0.9418 -0.0143363 0)
(2.56815 -0.0145162 0)
(1.83129 -0.0640398 -1.79475e-19)
(1.20868 0.56475 4.24006e-19)
(1.00511 0.0060465 -2.14504e-19)
(1.52146 0.490297 0)
(-0.256552 0.0592814 0)
(1.2609 0.318918 2.922e-19)
(1.04088 0.538282 -1.31205e-19)
(1.07512 0.024774 0)
(1.54848 -0.293887 0)
(2.10061 0.654616 -3.58169e-19)
(-0.135242 0.197943 2.20441e-22)
(0.995457 0.0143258 0)
(0.724013 0.488999 -3.4117e-20)
(0.918587 -0.80945 0)
(0.999013 0.0171228 5.0064e-20)
(0.0271915 0.799266 -2.73047e-19)
(0.896574 -0.313759 3.48334e-19)
(0.325775 0.144773 1.37211e-19)
(2.1252 -0.16839 9.81556e-20)
(1.54647 0.178672 6.65976e-20)
(0.779517 -0.0326717 0)
(1.01111 0.0102419 0)
(-0.0399937 -0.746295 0)
(0.688327 0.659052 -1.88762e-19)
(-0.0864103 0.0954373 2.13607e-19)
(1.18526 0.357042 -4.69316e-19)
(-0.263555 0.020971 0)
(0.846284 0.657233 1.7007e-19)
(0.999847 -0.325355 0)
(1.00575 0.0001219 1.25378e-19)
(1.04868 -0.179496 5.46554e-20)
(1.05009 0.413014 2.60457e-19)
(1.53952 -0.126587 0)
(2.10495 0.0321944 -5.94114e-20)
(0.825677 -0.0990592 -3.95591e-19)
(-0.611027 -0.683017 -3.52383e-19)
(1.45191 0.119742 0)
(0.888513 0.251314 1.81965e-19)
(1.89209 -0.222641 0)
(0.791781 0.535868 3.69266e-19)
(-1.00905 -0.71857 1.44552e-19)
(-0.0852657 0.111619 0)
(0.61129 0.581768 -7.15778e-20)
(1.01654 -0.633093 -1.86698e-19)
(0.466769 -0.225768 -1.31289e-19)
(1.02042 -0.0132449 0)
(-0.343684 -0.274759 -1.57413e-19)
(0.626201 -0.55649 9.20648e-20)
(0.918527 0.29909 0)
(1.39167 0.204608 -8.23977e-20)
(1.00758 0.857055 2.394e-20)
(0.375918 0.375272 2.76895e-19)
(0.0269787 0.00723236 -1.09143e-19)
(0.220237 0.00714019 -5.83469e-19)
(-0.0732864 -0.049696 4.75613e-21)
(0.832204 0.369656 2.53206e-19)
(-0.138901 0.190989 -5.49629e-21)
(1.39692 -0.64331 3.23663e-21)
(1.02199 0.0116987 -3.75078e-19)
(-0.192158 -0.506236 0)
(1.03704 0.0364871 -4.33692e-19)
(2.15045 -0.0419214 1.31877e-19)
(0.904982 0.704146 2.83472e-19)
(1.13149 -0.0691496 1.79637e-19)
(1.00302 -0.025916 1.73587e-19)
(-0.336509 -0.78484 -5.6598e-20)
(-0.0331229 -0.0554825 -3.05352e-22)
(1.69657 -0.865587 1.41528e-20)
(1.1188 -0.124038 -9.72993e-20)
(0.803363 0.0490051 1.12588e-19)
(0.905855 -0.285654 1.00216e-19)
(0.828218 0.11996 0)
(0.981138 0.749022 0)
(1.00111 -0.430464 -6.50998e-20)
(1.91341 0.163149 -2.17584e-20)
(-0.571655 -0.672369 1.08369e-19)
(1.0189 -0.529952 -6.13944e-19)
(0.605183 -0.521491 4.36304e-19)
(1.57722 -0.00761291 -1.34695e-19)
(-0.0229057 -0.241152 6.64209e-21)
(1.57 -0.125699 0)
(0.758344 0.129467 -7.11276e-21)
(1.56385 0.144397 -2.33242e-19)
(1.06045 0.775418 0)
(0.785325 0.539023 0)
(-0.155115 -0.271956 0)
(-0.03883 -0.0329668 -3.12086e-20)
(0.00494568 0.166454 0)
(1.98591 0.39566 4.49782e-19)
(1.23278 0.18775 6.58864e-21)
(-0.939045 -0.56378 2.1933e-19)
(1.57958 0.324997 -3.95264e-21)
(1.87843 0.419993 -8.89148e-20)
(2.12463 -0.330913 -1.2146e-20)
(-0.195683 0.0526932 -2.53764e-19)
(-0.125907 -0.356986 1.99864e-21)
(1.15325 0.136894 0)
(0.679043 -0.0340248 0)
(1.00048 0.00138699 1.72007e-22)
(-0.167726 -0.444081 0)
(1.4787 -0.0187019 9.01116e-21)
(0.680974 -0.0306287 0)
(1.05465 0.0122655 1.4405e-19)
(0.986635 0.0165352 -4.89137e-20)
(1.24114 -0.316609 1.02923e-19)
(1.06627 -0.0163976 -9.92822e-22)
(0.944628 -0.183315 -6.01714e-20)
(1.02352 -0.0274875 4.05526e-19)
(0.659564 -0.596781 2.10002e-19)
(-0.764244 -0.182261 -2.50912e-19)
(1.73312 0.0701028 3.95547e-21)
(-0.0677387 0.0675727 0)
(1.14943 0.809071 0)
(1.02536 -0.00185982 0)
(0.99181 -0.764643 -1.33367e-19)
(1.01862 -0.874037 8.90331e-20)
(0.78548 -0.214696 5.45405e-20)
(0.348967 -0.554225 -9.6089e-19)
(0.453342 -0.216445 -6.06202e-20)
(0.572464 -0.366278 -6.91768e-19)
(1.69944 0.589367 -5.53712e-20)
(0.316179 -0.0476115 4.5183e-20)
(2.03684 -0.317185 1.79285e-20)
(0.71313 -0.0851612 -2.50367e-20)
(-0.0429015 -0.0676322 -6.84236e-20)
(1.13194 0.564029 1.97192e-19)
(-0.241996 -0.169956 0)
(0.0504004 -0.353239 1.40412e-19)
(-0.128453 -0.087616 2.71275e-23)
(1.02824 -0.0432046 3.57405e-19)
(1.02185 0.00420457 -9.30251e-21)
(1.1108 -0.0105429 -9.89498e-20)
(0.644344 -0.32841 -3.08358e-20)
(1.64793 0.31245 5.44191e-20)
(0.385676 -0.360653 -3.47563e-19)
(1.49846 -0.320163 -9.68472e-20)
(1.03145 0.00495694 -2.67241e-19)
(0.933022 0.0230649 -4.07194e-21)
(0.961444 -0.477952 0)
(1.13036 0.60198 -3.68965e-19)
(1.00251 -0.00280112 1.02371e-19)
(0.694186 0.621388 2.63108e-19)
(1.52973 -0.194937 1.08787e-20)
(1.07169 -0.00780567 -3.21918e-20)
(1.13117 0.013881 9.17099e-22)
(1.91828 -0.172059 9.42371e-21)
(0.307444 -0.0256593 0)
(1.04472 -0.0394159 0)
(1.04934 -0.034066 6.2737e-19)
(1.0027 -0.00167117 0)
(-0.073272 -0.0436496 0)
(0.919967 -0.561581 0)
(1.00106 0.00066227 -5.95422e-19)
(1.14397 -0.674421 1.11873e-19)
(1.0227 -0.00264477 1.25777e-20)
(1.3791 0.971795 -2.16261e-20)
(1.57198 1.02045 -4.56027e-20)
(0.696005 -0.222515 1.09752e-19)
(1.53206 -0.0659685 1.89943e-19)
(1.59778 0.367146 0)
(-0.14201 0.191553 0)
(2.03443 -0.188075 2.5129e-19)
(0.602916 0.84578 0)
(0.999803 -0.00425484 -1.83754e-19)
(1.01051 -0.000650569 3.57282e-19)
(1.45147 0.133214 -7.06129e-20)
(-0.00484599 -0.116294 1.33207e-19)
(0.97602 -0.000629488 1.93738e-19)
(1.1272 -0.210059 -3.66114e-20)
(1.72728 -0.221752 -2.47637e-21)
(0.367702 -0.279326 -1.00203e-21)
(0.927942 0.0181052 -1.97793e-19)
(1.00386 0.0046017 2.31735e-19)
(0.999979 0.000331342 1.36642e-20)
(0.790277 -0.0127313 0)
(0.729841 -0.0263127 0)
(0.725928 -0.0266699 8.94311e-22)
(0.702261 -0.0285546 0)
(1.9575 0.112634 0)
(1.92458 -0.0941651 0)
(1.2508 -0.175755 -4.43363e-20)
(1.36907 -0.172921 2.10811e-20)
(1.54429 -0.653887 0)
(0.816818 -0.671134 5.82649e-20)
(0.182837 0.167904 0)
(1.27286 -0.123867 0)
(0.923965 -0.111075 0)
(0.553671 -0.0518498 1.15561e-20)
(0.327399 0.112846 5.77032e-20)
(0.776371 0.0225917 0)
(0.784556 0.0196842 0)
(0.966632 0.0208924 -2.43456e-19)
(0.813396 0.00831985 4.52242e-19)
(1.00874 -0.00128302 0)
(1.00033 -0.000372922 4.27739e-19)
(1.0002 -0.000516473 -2.48271e-22)
(0.783619 0.0215466 3.8679e-19)
(0.995777 -0.00671138 -2.2255e-19)
(1.38808 -0.136964 0)
(1.63186 -0.189366 2.47776e-21)
(1.00074 -0.00055773 -2.15783e-19)
(0.999661 0.00200876 -3.71013e-19)
(1.00652 0.0902009 0)
(0.998816 0.00207449 0)
(0.999775 0.000550141 0)
(1.87671 -0.363796 8.25682e-20)
(0.22929 0.143517 -1.09264e-19)
(1.53313 -0.164518 0)
(-0.157057 0.0885609 1.80617e-19)
(0.582868 0.0350512 -5.61513e-19)
(1.02076 -0.0146005 -2.87859e-19)
(-0.166061 -0.298938 -5.83365e-20)
(1.01742 0.00457867 -2.32611e-19)
(1.15791 -0.211155 -1.37638e-19)
(0.789526 -0.461113 3.43165e-19)
(-0.0254137 -0.0112403 -4.39509e-20)
(1.0287 0.013977 0)
(1.05952 -0.0119556 -6.17158e-20)
(0.853576 0.0264272 0)
(-0.130068 0.108504 3.16731e-19)
(0.650156 0.661149 0)
(-0.188531 -0.379737 -1.57198e-19)
(0.903157 -0.262925 2.17821e-20)
(1.6994 0.678934 2.49847e-20)
(-0.0934668 0.0495913 0)
(1.05339 -0.0372899 1.93973e-19)
(0.315687 -0.147858 -9.34809e-21)
(0.928441 -0.00223719 3.03526e-19)
(1.01331 -0.00602746 -1.9573e-19)
(1.72537 0.864321 5.65407e-20)
(0.541273 0.508918 0)
(0.464016 0.422715 2.08948e-19)
(2.45934 -0.194527 -1.31257e-20)
(1.16339 0.129732 2.00765e-19)
(1.07492 -0.703193 0)
(1.02253 0.00585676 0)
(1.00048 -0.0171742 -4.50448e-19)
(1.01805 0.0174388 -4.41851e-19)
(-0.109947 -0.0922023 0)
(1.24893 0.835741 -1.22733e-19)
(1.29872 -0.602152 -1.15841e-20)
(1.01636 0.0070997 1.6947e-19)
(1.01166 0.015046 -2.13081e-19)
(-0.211664 -0.364472 -1.61004e-20)
(0.567016 0.264229 1.89164e-19)
(1.01939 -0.0141633 7.21719e-19)
(1.84494 -0.680553 0)
(1.92364 0.627335 -6.62692e-20)
(1.01631 -0.00998988 -2.25193e-19)
(2.08404 0.0714492 -7.33439e-20)
(1.06619 0.00829146 -5.15402e-22)
(1.00991 -0.00849882 4.49358e-20)
(1.99726 -0.253741 -1.02552e-19)
(1.01589 0.0081712 2.19211e-19)
(0.0922847 0.0435038 -4.43033e-20)
(1.01858 0.00489771 0)
(0.942089 0.157881 5.20122e-20)
(-0.597789 -0.778288 4.74201e-21)
(0.999461 0.0221257 2.1792e-19)
(1.04095 0.0208377 -5.25421e-22)
(1.51531 -0.290432 5.39353e-20)
(1.27979 0.322848 4.13872e-19)
(0.995278 0.0170585 1.50158e-19)
(1.01778 -0.0125151 5.50489e-22)
(1.76335 0.218139 -1.84547e-20)
(1.87497 0.971795 -1.24298e-19)
(0.759819 -0.681571 7.25989e-20)
(0.435763 -0.303091 -3.31824e-19)
(1.00884 -0.00937611 0)
(1.02001 0.00401342 5.4431e-20)
(1.01118 -0.00726515 1.14357e-19)
(-0.384902 -0.00214508 -4.55609e-20)
(1.0137 0.00769232 -2.28189e-19)
(1.02738 -0.0207503 2.63183e-19)
(1.00908 -0.00554173 -2.13702e-19)
(1.01391 0.00751757 -5.20423e-22)
(1.01335 0.00523006 -4.08807e-22)
(1.02404 0.0158456 2.18723e-19)
(0.907337 0.0978269 5.40465e-19)
(2.22401 0.913564 0)
(0.763055 -0.479414 1.62337e-19)
(1.01038 -0.00187704 0)
(1.02293 -0.0169194 -6.31292e-20)
(1.55996 0.430254 -7.60091e-20)
(1.94609 -0.0995784 0)
(1.44238 0.225415 3.84618e-20)
(1.56368 0.771354 -8.28146e-20)
(0.763866 -0.0195814 0)
(1.7386 -0.226954 0)
(1.0434 1.06066 -4.17457e-19)
(-0.167521 -0.808943 4.33615e-20)
(1.01729 -0.00222615 -2.29542e-19)
(1.10627 -0.557002 -7.38699e-20)
(1.08875 -0.712383 6.0352e-20)
(0.552776 0.633242 0)
(1.73703 -0.155967 0)
(2.1479 0.632512 0)
(-0.103311 0.0153234 1.1806e-19)
(-0.137428 -0.167438 -5.81639e-21)
(0.0420724 1.17508 0)
(-0.16326 0.0477848 -2.33929e-19)
(1.75349 0.978585 -8.30551e-20)
(1.00733 -0.00117874 -4.49014e-19)
(-0.202387 -0.296557 -7.96554e-20)
(1.02138 0.0101438 2.97643e-19)
(0.690151 -0.0435159 0)
(-0.140303 -0.102223 -1.32743e-20)
(0.629192 0.450834 -3.50887e-19)
(1.67503 0.759528 1.14078e-19)
(-0.0250969 0.173402 0)
(0.786882 0.0669711 9.4839e-20)
(0.539092 0.515937 5.26665e-20)
(1.21418 0.901845 -3.2681e-20)
(-0.0657453 -0.0541774 6.4737e-20)
(1.02123 0.0154759 0)
(0.154273 -0.0694995 6.22124e-20)
(1.01142 -0.000174163 1.68363e-19)
(2.10502 -0.129942 0)
(1.01103 0.00975084 2.827e-19)
(0.070992 -0.311683 -6.52281e-20)
(1.01924 0.0126595 -1.74887e-19)
(0.660156 -0.235412 0)
(2.25025 0.104895 -1.06292e-22)
(1.00885 0.00601375 -1.17321e-19)
(0.994616 -0.0229157 3.09408e-19)
(1.10624 0.0988759 -3.88405e-21)
(0.665766 0.823351 -5.39385e-20)
(-0.130775 -0.108547 1.71509e-19)
(2.11062 0.147736 2.0116e-19)
(-0.206637 0.60291 5.52196e-20)
(0.797997 0.0148022 -4.24653e-19)
(0.811183 0.0274205 0)
(-0.0471521 0.118457 -6.10089e-20)
(1.02379 -0.0134739 -3.38946e-20)
(0.974081 0.0319057 0)
(1.05442 0.000991492 -2.14144e-19)
(-0.192364 0.941062 1.06739e-19)
(-0.595247 -0.704702 1.5616e-19)
(2.13282 -0.590477 0)
(-1.17964 -0.819965 -4.63667e-19)
(1.49764 -0.343336 0)
(1.04087 -0.0168462 6.29802e-20)
(1.24457 -0.204654 3.04886e-21)
(1.01262 8.46155e-05 1.82491e-19)
(-0.817787 -0.516716 2.99775e-19)
(1.01913 0.00539103 0)
(0.993722 0.00387558 -4.36075e-19)
(1.00777 0.00996593 2.31818e-19)
(1.20112 -0.557269 0)
(1.62388 0.12636 7.76753e-23)