/*--------------------------------*- C++ -*----------------------------------*\
| =========                 |                                                 |
| \\      /  F ield         | OpenFOAM: The Open Source CFD Toolbox           |
|  \\    /   O peration     | Version:  2306                                  |
|   \\  /    A nd           | Website:  www.openfoam.com                      |
|    \\/     M anipulation  |                                                 |
\*---------------------------------------------------------------------------*/
FoamFile
{
    version     2.0;
    format      ascii;
    arch        "LSB;label=32;scalar=64";
    class       volScalarField;
    location    "30";
    object      p;
}
// * * * * * * * * * * * * * * * * * * * * * * * * * * * * * * * * * * * * * //

dimensions      [0 2 -2 0 0 0 0];

internalField   nonuniform List<scalar> 
2186
(
0.906357
-0.237162
0.0731826
1.21666
-0.797585
0.101424
0.807574
-0.807844
-0.902163
1.47352
1.19532
-0.831614
-0.778888
1.16145
-0.465135
1.17062
1.19159
-0.88277
0.164769
-0.723756
1.56289
-0.708754
1.17097
-0.913511
1.16249
1.19033
1.38701
1.03968
0.736949
1.16201
-0.705001
1.16267
-0.667198
-0.636948
-0.864539
0.25049
-0.673932
1.55074
-0.554319
0.0523739
-0.78411
-0.681037
-0.582263
-0.823876
1.05416
1.45513
0.470016
0.642311
-1.36414
-0.745801
-0.710244
1.0413
-0.574551
1.48222
-0.705798
1.09098
-0.635536
1.11943
-0.614369
0.945367
-1.09391
0.785444
0.699428
0.0418773
0.721496
0.582418
0.813977
1.45274
1.34863
-0.928976
-0.815408
-1.1248
1.42212
1.14304
1.33781
1.30738
-1.26002
1.18644
-0.876527
-0.623941
-0.858825
-0.0121506
1.15777
0.768648
1.15014
1.15845
1.45813
0.144467
-0.290608
-0.872895
1.09188
-0.712568
1.07007
1.32017
1.17175
0.563332
-0.0535456
0.736693
-0.782668
1.13379
-1.18815
-1.0716
0.793174
1.08983
1.19343
-0.69017
1.36961
-0.58179
1.07353
-1.17573
-0.605324
-0.758234
0.669294
1.47766
-0.903716
-0.704807
-0.270211
-1.5823
-0.872741
1.42413
0.112121
-0.75086
1.00148
-0.985583
1.17541
-0.404022
-0.783048
1.29712
-0.917179
0.787774
1.54973
1.39623
0.357042
0.779351
-0.966099
-0.732928
1.06074
-0.843348
-0.510069
-0.859513
0.944693
-0.105862
-0.80978
0.832606
1.05719
1.09759
-0.553628
-0.799253
0.737954
-0.773224
-0.750559
0.706755
1.18952
1.33801
1.19117
0.653109
1.45314
0.588328
0.491282
0.545132
-0.863888
-0.978965
1.14668
1.13171
0.179895
0.240801
-0.773083
-0.845233
-0.620827
-0.694419
0.503922
1.13904
1.19247
1.26127
0.568862
-0.174869
-0.807503
1.14822
-0.965761
1.01125
-0.833285
1.1772
-0.71561
0.691707
0.672885
-0.811645
-0.709015
1.28968
-0.425365
-0.746432
-0.820069
1.42153
-1.07724
1.12163
-0.863663
-1.10421
0.219743
1.34195
1.22466
-0.710118
-0.897854
-1.34649
0.197214
1.19212
-0.856354
-0.77775
-0.873264
-1.60754
1.11432
-1.06946
0.64466
-0.236763
1.46553
0.973822
1.07023
1.0929
1.34226
1.16648
1.03804
1.26113
0.492758
-0.686205
-0.691931
0.239008
0.306808
-0.86193
-0.78936
1.19329
1.28996
-0.932765
-0.786904
-1.63776
0.493533
0.783433
0.918061
1.03964
1.27356
-1.14711
1.02541
-0.845311
-0.767327
-0.704076
1.15352
0.87503
1.30989
1.34141
1.26952
1.24629
-0.840213
0.964578
1.2783
-0.818419
1.13979
0.922677
-1.58892
-0.87713
-0.904079
1.31083
1.19189
-0.763988
-0.784099
-1.21602
1.10017
-0.996334
0.901936
1.23037
1.00576
-0.897499
-0.706169
1.13884
0.780916
-0.489041
-0.395037
1.50743
-0.774874
-0.828001
0.987455
1.34223
1.15178
-0.794537
-0.945497
-0.743
1.07504
-0.803661
0.674519
1.13543
1.1689
-0.100635
-0.365146
1.13246
-0.930243
1.07201
1.35345
1.18721
1.18437
-1.36601
-0.707523
-0.937411
-1.10653
-1.62743
-1.13626
0.502962
-0.462875
0.753001
1.3284
1.36579
1.07786
-0.614813
1.30979
-0.977241
-0.247194
-0.894295
-0.866776
-0.737596
0.473333
-0.748027
-0.731519
0.30317
1.09044
-0.745321
0.523946
-0.733834
-0.382686
-0.721193
-0.762462
1.38417
0.119855
-0.823076
-0.707622
0.927713
0.710753
-0.283896
0.64956
-1.05536
-0.754096
0.806403
1.18922
1.23229
-1.32634
1.31675
1.03244
0.52049
1.40715
1.16647
1.09347
0.486814
-0.833783
-0.855323
1.02558
-0.80855
-0.905307
-0.956885
-0.689982
-0.87571
1.52716
-1.46659
-0.711277
-0.836914
1.16583
-0.811326
-1.53345
-0.690745
0.898009
-0.570811
-0.962122
1.42176
1.48194
1.28271
-0.805234
-1.0121
1.54121
1.17002
-0.838849
0.597758
-0.843036
0.291039
1.34514
1.14558
1.02182
1.46771
-0.429959
-0.89088
-0.687707
-0.676819
-1.18533
-0.692397
-0.0170475
1.47034
-0.857071
-0.976155
1.15787
0.714995
-0.879691
-1.1655
-0.851476
-0.790755
-0.936024
-0.867712
-0.688951
-0.780708
1.35332
-0.801929
-0.685554
1.17916
-1.01335
1.42642
-0.944254
-1.40761
-0.677427
1.16212
-0.830378
1.19025
0.989851
-1.74804
1.19494
-0.73439
-0.871413
-0.894002
1.16301
1.09802
-0.893842
-0.846687
-0.893853
1.14398
-1.00252
-0.781039
0.655316
1.11368
1.02956
0.84378
-0.886476
-0.874238
0.994178
-0.675831
0.948788
-0.752488
1.18523
0.0978782
1.28794
-0.872525
0.995265
0.860224
1.19744
-0.941648
1.16457
-0.660869
-0.87064
1.16535
-1.59346
0.282235
-0.704553
-0.0141044
1.17206
0.214113
0.410573
1.17251
0.383451
-0.0422991
0.212056
-0.71125
0.356101
-0.773287
0.859496
-0.532791
1.23053
1.2918
-0.845602
-0.865944
-0.960536
-0.701557
0.577749
-0.724342
0.987091
0.0696898
-0.769507
1.26608
-0.935142
0.516175
0.419467
-0.63275
0.949046
0.487697
-1.182
-0.478933
-0.613306
-0.655621
1.18187
-0.747187
1.26608
1.39038
1.3762
0.803454
1.32744
-0.786009
-0.63642
1.04892
0.338623
1.1588
-0.708991
-0.740704
-0.994348
0.930349
-0.86705
-0.949013
-0.724611
-0.764062
0.272268
-0.734297
0.891197
0.866123
-0.523408
-0.591904
0.889033
0.192492
1.29711
-0.621221
-0.0462995
-0.86745
0.911912
-0.575535
1.33298
1.55565
-1.03656
-0.785897
-0.760242
0.443634
-1.13225
1.19132
-0.605696
1.14484
0.920266
-0.924793
1.03478
0.996521
-1.43752
1.02626
-1.03513
-0.718641
-1.18279
-0.832585
-0.954089
-1.00853
-0.650991
1.16533
0.357559
-0.765443
0.723518
1.31355
1.37621
-0.253897
0.890471
-0.606144
0.917292
-0.503118
-1.17061
-0.728781
0.64565
0.972517
1.22663
-0.749177
-0.888247
-1.19875
-0.871667
-0.00162592
0.868879
-0.797568
0.0588657
-0.839156
1.10354
-0.987518
1.12263
-1.06975
-0.644924
1.10562
0.796431
-1.11342
-0.0432807
1.13281
1.46007
1.18736
-0.588795
-0.867027
0.939342
-1.0146
0.925806
-0.442016
0.592488
1.13024
-0.730232
-0.708884
1.18544
-1.02262
1.40601
0.229437
1.02196
-0.284119
0.756798
-0.845896
1.40102
-0.712421
-1.05834
1.11981
0.671237
0.65027
-0.84932
-0.712368
-0.640849
0.939922
-0.354399
-0.791089
-0.544161
1.18236
0.542634
-0.772758
0.905962
1.05472
1.15271
-0.757837
-0.629817
-0.718774
1.17905
1.33948
0.621657
1.17495
-0.473395
1.2088
-0.19983
-0.673226
-0.719665
1.07799
1.12719
-0.987128
1.0074
-0.713751
0.9698
-0.809689
1.16176
1.10059
1.18328
-0.700056
1.08709
-0.923579
-0.608207
1.33132
-1.0836
-0.494559
1.28422
-0.9224
1.26958
-1.20259
-0.720155
1.2053
0.921274
1.53022
1.16431
-0.927349
1.24037
1.25378
-1.37121
0.788959
-0.0758074
-0.85625
1.66367
-0.857151
1.30159
-0.757472
0.424817
1.16494
-0.859514
1.15837
-0.641737
1.08464
1.10528
1.17781
0.0225199
-0.723682
-0.508613
0.710284
0.802714
1.22172
-0.580631
0.986727
-0.717159
-0.258673
-0.993396
0.975985
1.30658
-0.689408
-0.952092
-0.151028
1.40567
-0.460122
0.891505
-0.362821
-1.33043
-0.827604
-0.723858
-0.541282
0.96804
-1.37578
-0.962583
-0.182383
-0.458356
-0.742631
-0.925029
-0.556728
1.13883
1.18499
-0.838601
-0.289557
1.15196
1.09106
1.18429
-1.18532
1.15056
1.21256
1.15886
1.21559
-1.61371
-0.450368
-0.709229
0.773595
1.16481
0.845885
0.27572
-0.0626554
-0.94276
-0.0405855
1.42661
-0.638183
-0.213591
-0.58487
-0.329623
-0.79113
0.947584
-0.918341
-1.05713
-0.870165
1.16857
1.16611
1.17895
0.00525653
0.497157
1.40269
0.103868
1.16072
-0.380993
0.0627949
0.922135
1.1852
1.25523
0.0592371
1.14659
1.14419
-0.971184
-0.182469
1.17925
1.19095
1.18693
-0.867186
-0.916477
1.18655
0.745101
1.16686
0.356961
0.0152077
0.0571684
-0.623975
-0.523796
-0.700522
-0.779583
-0.697807
1.19292
1.19745
0.920041
-0.882762
1.16845
0.172539
-0.106563
-0.000778532
1.16325
1.19054
1.18738
1.2012
1.17879
1.17234
1.1635
-0.509403
-0.177736
-0.0258756
-0.0394528
0.0633297
0.0351098
-0.0249332
0.192492
0.223897
0.0840648
-0.464288
1.15747
1.17862
1.17313
1.19664
1.19476
1.18724
1.19109
1.1677
1.17657
0.212013
-0.0847536
1.18835
1.1867
0.0167708
1.18896
1.18797
-0.00893093
-0.123463
-0.145072
-0.809933
-0.659881
1.17077
-0.813821
1.16673
0.76972
1.23402
-0.858188
1.16605
1.11425
1.10937
-0.707248
-0.748537
-0.772671
-0.0284698
0.101867
-0.708316
1.1846
-0.011091
1.25893
1.17452
-0.0346922
1.34422
1.49247
-0.20119
1.0464
0.803684
1.16747
1.18526
1.17613
-0.860117
0.638917
0.0659137
1.17337
1.18164
-0.746334
0.0218844
1.17518
0.0803281
-0.197501
1.17425
-0.670094
1.15669
1.18699
-0.757905
1.17856
-0.422341
1.16952
1.252
-1.28462
1.1836
1.19147
0.179631
0.856165
1.16997
1.17687
0.30946
-0.61866
0.859122
1.52338
1.18332
1.17222
1.17798
-0.135493
1.17277
1.1566
1.17986
1.17345
1.17623
1.1712
1.28111
-0.751521
-0.885976
1.17402
1.16942
0.445836
-0.677045
-1.10003
-0.749642
1.04814
-0.907029
-0.942336
0.0987061
1.17037
0.868773
0.249589
-0.911499
-0.130833
-0.704433
-0.656937
-0.390535
-1.25014
-0.786918
-0.196203
1.17744
-0.0253206
1.16496
1.09481
-0.868748
1.41774
-0.846815
-0.702773
0.897654
1.3047
0.612984
-0.87166
1.17116
-0.632551
1.17593
-0.748973
1.17585
-1.07686
1.16816
-0.487831
-1.0612
1.17837
1.19273
1.1244
-0.703662
-0.871932
-0.553952
-0.65802
1.1892
1.07929
-0.451871
1.16948
1.2118
1.16375
-0.454944
-1.17001
-0.569402
-1.55906
0.455818
1.17593
0.0622429
1.17141
-1.31505
1.17052
1.20918
1.17959
0.014532
0.0296101
1.20514
-0.848607
1.18151
1.18546
0.131698
-0.794725
1.11531
1.3157
1.1658
1.16482
-0.670558
-1.07509
1.13733
0.545483
1.18041
0.992273
-0.807775
-0.819895
1.02562
1.41517
1.17179
0.473623
-0.847148
-0.438884
-1.74319
-0.99236
1.15178
-1.135
1.15818
-0.961792
-0.862272
-0.790573
0.626876
-0.924262
-1.0596
-1.39183
1.16709
-0.870682
1.08711
-0.848271
-0.0559826
-0.723966
0.175261
-1.27477
1.14513
-0.39944
-0.822261
-1.13022
-0.74394
1.1556
-1.23648
0.249828
-1.41281
1.26226
-1.08003
-0.852477
1.23975
1.15382
1.14332
0.612958
-0.830594
1.17669
1.20434
-0.492881
-0.750439
1.16632
0.942113
1.42752
1.18859
-1.44645
-1.37132
-0.742687
-0.855317
-0.823235
-0.86982
-0.191734
-1.02012
0.946328
0.0995589
1.17582
1.38652
1.16752
-0.871389
-0.915227
1.16895
-1.74292
-1.44655
1.14432
-0.161159
-0.808376
-1.30042
-1.1146
1.12638
1.09906
-0.436867
0.986669
0.856265
-1.69327
1.14995
-1.05832
0.994033
-0.691426
1.1395
-1.85093
0.554434
1.16966
1.27065
-1.38982
-1.04274
1.01197
1.54477
1.19042
1.19751
-1.39671
1.41402
-0.901963
-1.3541
-0.72145
0.60652
-1.51766
1.28254
1.32298
-0.840316
-0.556321
1.16767
-0.659158
0.999524
1.20005
1.14434
-1.35811
1.17077
0.0556584
1.19639
0.0733368
-1.10604
0.0181523
1.17349
-0.0627396
-0.324201
-1.10601
1.16159
-1.0861
1.36817
0.392041
1.49746
1.16619
-0.636453
1.14586
-0.722547
1.14903
1.14733
-1.12454
-1.11652
1.30468
1.16144
1.4004
1.13097
0.205011
1.13573
1.15295
1.0497
1.17832
-0.961954
-0.797748
-1.6847
1.26302
-0.567899
-1.26148
-0.714397
-0.561063
-1.19997
-0.148104
1.04919
-1.11668
1.11762
1.17111
-0.756454
-1.01988
-0.690685
-0.875128
-0.696061
-0.726272
1.17685
-1.67779
1.18774
1.4026
1.22652
-0.0280985
1.19441
1.11123
-0.653571
1.12162
1.15729
-0.799394
1.15597
1.1252
0.0325171
-0.801079
1.63348
-1.65794
-0.889521
-0.800061
0.365875
1.14334
-0.910901
-0.682503
-0.706508
1.31228
-1.34396
1.03883
1.18863
1.14822
-0.736951
1.12936
-1.64009
1.18455
1.199
-0.275712
1.18847
0.686268
1.15407
0.853095
-1.40835
0.057324
-0.032014
0.00625743
1.41713
0.209625
1.2051
1.56714
-0.592958
-0.0147614
1.23476
-0.0246261
1.23175
0.0355487
0.088987
1.23379
1.2385
0.56062
-1.10226
0.949707
-0.641125
-0.729486
-0.539656
1.19495
1.16004
1.60095
-0.871745
-1.55369
0.887814
-0.766769
1.25312
1.1755
1.15161
1.16427
1.12154
-1.01397
-0.870274
-0.905912
1.00115
1.10343
-1.61854
-0.738086
-0.856265
1.18474
1.1982
-0.580042
-1.08997
1.20881
-1.83842
0.407511
0.960745
1.10845
-0.74128
-0.806825
-0.0501721
-0.720549
-0.684039
-0.782427
-1.79738
1.55078
1.53701
-0.825396
-0.691025
1.18528
1.16151
-0.824104
0.0508293
-0.246339
0.842683
1.27132
-1.12278
1.17917
-1.73271
-0.816666
-0.684059
-0.88225
-0.801521
1.14661
-0.705905
-1.05711
1.53671
-0.725429
1.18032
1.40757
-0.739609
1.20682
1.42409
-0.795754
1.42195
-0.745804
-0.852056
1.20646
-1.00764
1.17472
1.18131
-0.765115
1.2239
0.273858
-1.04214
1.21658
1.19394
-0.808348
-0.919005
1.12903
1.17294
-0.813129
-1.53115
1.46026
-0.782972
1.09412
-0.568941
1.1024
-0.864129
-0.974198
-0.845999
-0.802684
1.27727
1.19717
1.46385
1.38718
1.16556
1.23543
1.24979
-0.852973
1.31678
1.31113
-0.770145
-0.799035
-0.807813
1.49951
-1.63983
-0.858525
-0.102067
1.12635
-0.780186
-0.843908
1.20788
1.18272
-0.837481
-0.743611
-0.840972
0.102477
-1.51314
-0.78829
-0.858343
1.08036
1.05034
-0.72408
-0.285661
-0.77016
1.03244
-0.786365
-0.812361
-0.862521
1.10413
-1.0654
-0.751809
1.50607
1.05584
0.531503
1.36648
-0.71419
1.14138
1.18737
1.28953
1.38007
-1.04175
0.876505
1.19699
0.399103
-0.865447
1.59976
1.12341
1.065
1.22694
-0.760986
-1.06582
1.00849
0.995611
1.13006
-0.972582
-1.17043
1.15667
-0.867259
0.976019
-1.10996
1.58722
-0.8678
0.929968
0.890126
-0.713155
-0.869585
-0.74285
1.22286
-0.716047
-0.872736
0.850314
0.814342
-0.867911
1.24459
0.989612
-0.719331
-0.888863
1.14013
-0.941278
-0.870892
-0.869812
-0.705993
-0.671799
1.16489
1.17637
-1.19958
0.767023
1.17687
1.5201
0.411567
0.489017
0.219207
1.03969
-0.337171
-0.711621
-1.71267
-0.408064
-0.710498
1.17119
-0.710468
0.37902
-0.871276
0.747087
0.715565
-0.709354
0.784577
-0.755115
0.640514
-0.708511
0.672777
-0.71292
0.531849
-0.87296
0.589334
-0.707679
0.97371
-1.02286
-0.709946
-0.717945
-0.875591
1.18835
0.220637
-0.746792
-0.878635
0.245488
0.321464
-0.709101
-0.874729
-0.789896
0.00749548
-0.892255
0.0813495
-0.926141
-0.126566
-0.86807
-0.169207
1.07703
-0.0683784
-0.972689
1.16368
0.121627
-0.259399
0.587723
1.13735
-0.945803
-1.10979
-0.875144
-0.94684
1.0487
1.59199
-0.575205
-1.20477
0.150052
-0.71647
-0.190957
-0.247881
1.15699
-0.804373
1.11794
-0.998528
1.65544
0.593328
1.60114
-0.736336
1.36118
-0.368278
1.1727
-0.723124
-0.874108
1.24162
1.1625
-1.27807
-0.870599
-0.714051
1.16029
-0.614427
1.16175
-0.789889
-0.870538
-0.843888
1.48205
1.22132
1.27854
1.1989
1.18711
-1.2977
-0.427791
1.38693
-0.881056
-0.690013
1.58818
-0.728351
1.09655
1.11155
1.54722
1.60541
-0.712662
-1.15148
1.20585
0.357628
-0.343851
-0.669541
-0.590927
-0.943369
-0.744795
0.695511
-0.937059
1.37259
-0.65655
1.23231
1.31616
1.22288
-0.864956
-0.878606
-0.753543
1.26028
-0.725152
1.35623
-0.561042
-0.804464
1.4184
1.48096
-0.872429
0.286689
1.1112
-0.843065
-0.84179
0.806571
1.4519
1.39287
-0.780025
1.06594
1.0372
-0.869092
1.40552
0.482842
-0.729582
-1.44839
0.0385351
-0.00871772
1.30129
-0.7248
0.460113
-0.330202
-0.20492
-0.781056
-0.884865
1.17128
-1.17105
1.2073
0.0951726
0.215336
0.836475
0.387145
-0.867788
-0.444596
-1.09589
-0.612963
-0.135489
-0.879918
1.12385
-0.993104
-0.971872
1.19771
-0.795603
-0.773589
1.18554
-0.99977
1.15942
0.0563003
-0.872067
-0.228986
0.938665
-0.781263
-1.15303
1.04172
-0.859801
1.24143
-0.473005
-0.761313
-0.696248
-0.871766
1.66791
-1.42032
1.28977
-0.321211
1.12975
1.36525
0.867623
1.18838
1.34189
0.0397269
-1.43456
1.13477
1.25702
1.53534
-0.714663
1.22823
0.865688
-0.735186
0.937232
1.38064
-0.41403
1.51846
0.336685
-0.840276
0.986031
-0.7551
-0.713423
1.10496
-0.300974
1.22703
1.21968
1.14649
-0.824096
1.09618
1.44057
-0.84023
-0.158132
-1.54142
-1.04978
-0.743649
-0.870091
1.52996
0.897837
-0.80126
1.06683
-0.774308
-0.727504
1.44515
1.4054
-1.04706
-0.913482
-0.872914
-0.862851
1.13656
-0.792819
0.196441
-0.702232
-0.281091
1.23529
-0.806873
1.56244
1.22585
1.03125
1.20528
1.4796
-0.815003
-0.791467
1.17727
1.30967
-0.828965
1.17479
-1.3079
-0.84909
-0.823232
1.26844
1.29673
-0.841272
-0.788266
0.68814
0.0370559
-0.69584
1.16212
1.14826
-0.93357
1.18756
1.22947
-1.10127
-0.775198
-0.810878
-0.855789
-0.83067
1.4865
-1.28991
1.10241
-0.785002
1.48485
1.06552
1.05444
1.13433
-0.991641
-0.535043
-0.860771
0.718549
-0.747433
1.07542
0.427663
-0.410775
1.05544
1.16458
1.21263
1.18842
0.0107826
1.21086
0.079157
0.546383
0.990725
-0.410318
-0.765281
-0.807707
-0.542312
1.18383
1.12568
1.18319
-1.14744
-0.709309
-0.86412
-0.649371
1.1829
1.46463
1.19597
-0.75621
-0.764934
-0.85518
-0.389121
-0.870667
-0.873292
-0.0383703
1.17517
-0.857294
-0.72132
-0.114587
0.0237925
0.907667
-0.990605
-0.867445
-1.02938
1.12739
1.6051
-0.0488902
1.27117
1.65973
0.847076
1.38622
-0.779223
-0.884314
1.5758
-0.868936
0.43742
-0.739665
-0.826738
-0.710202
-0.714335
1.13789
0.879335
1.37202
1.33489
0.00562488
0.928342
0.222261
0.00292274
-0.870175
1.28192
0.909344
1.19061
1.20741
0.178909
-0.00984851
1.20221
-0.677805
-0.873528
-0.717095
-0.720386
0.728898
-0.712124
1.12829
0.813941
-0.869103
1.40297
-0.761673
-0.165822
1.1514
-0.748935
-0.716159
-0.976123
0.782922
-0.726381
-0.714709
1.098
1.1989
-0.229619
0.155027
-0.927414
-0.871042
-1.09543
-0.787397
-0.0933739
0.743671
-0.794744
-0.71121
1.44098
0.43932
0.542252
-0.710091
-0.821751
1.17325
1.20636
0.711925
0.676325
-0.708798
-0.704257
-0.707396
0.634518
0.582218
-0.708118
1.02767
0.320231
-0.706644
1.61522
-0.710905
-1.11752
-0.831116
-0.656453
0.994862
-0.727659
-0.795238
-0.882057
0.130797
-0.764923
0.17326
-0.817067
0.122789
1.35844
-0.821879
-0.0580365
-0.909262
-0.00910195
1.51467
1.57241
1.40803
1.18002
1.38525
-0.567439
1.16763
-0.766509
1.20292
-0.876171
-0.927103
1.43502
-0.81621
0.614659
-0.852251
1.57434
0.124838
1.50892
0.781043
0.959437
-0.73259
-0.748053
-0.874824
-0.693056
1.48419
1.37463
1.16686
0.767705
1.16781
1.02036
0.994247
-0.70669
-0.872298
0.432985
0.179942
0.968973
1.1835
0.0913165
-0.732274
-0.704167
-1.18369
-0.874347
-1.33466
1.5193
1.20183
1.17844
0.172916
0.00217494
1.19847
-0.567231
-0.870763
-0.837348
-0.734958
0.958138
-0.722084
-0.70795
-0.202601
1.18471
-1.09482
-0.834406
1.1679
0.752174
0.860433
1.16863
-0.872534
1.04759
1.353
0.989282
-0.871949
1.15956
0.490385
0.633752
-0.761044
-0.714706
1.61683
0.370088
-0.742748
0.134876
1.08491
1.15101
-0.702844
-0.893138
0.112032
-0.621841
-0.804148
-0.800409
-0.240941
1.16432
-0.798443
1.16953
1.44655
1.25407
1.17169
1.26476
1.3247
1.17192
-0.904478
-0.562237
-0.259407
-0.953578
-0.843788
-0.708595
1.32682
1.22953
-0.776811
1.12057
-0.809135
-1.3481
-0.710459
-0.822281
0.6724
-1.10823
1.16193
1.08107
-0.740894
-0.293857
1.50947
-1.18069
-1.58481
-1.05012
-0.802975
-0.681383
1.20854
0.949146
1.25499
-0.802613
-0.586939
-0.837065
-0.207267
-0.767922
-0.737371
-0.899113
-0.965326
1.08777
-0.705921
1.63183
-0.957594
-0.490533
-0.902845
-0.708008
1.08442
-0.911327
-0.778377
-0.950174
-0.240335
1.36811
1.38714
-0.952967
-0.586333
0.998695
-0.891462
-0.842022
1.26575
-0.788235
-1.3358
-0.672871
0.925791
-0.342772
-0.757428
1.16468
0.195617
-0.688608
1.17927
-0.789475
-0.968903
-0.83126
-0.786856
0.0122556
-0.754306
1.48784
-0.867108
0.27675
-0.875611
0.966925
-0.628664
-0.746736
0.821585
0.904349
1.22474
1.12287
1.35525
-0.724544
0.995918
0.683529
-0.864623
1.11401
-0.22379
-0.627024
-1.0262
1.34371
1.3291
-0.610067
-0.759726
-0.801317
1.18817
-0.79161
0.253736
-1.15306
-0.711763
1.45415
1.19047
-0.740074
-0.813093
-0.740909
-0.726794
1.08285
-0.776873
1.15624
0.400777
0.881153
1.01037
-0.69508
-0.775225
1.11729
-0.710853
-0.0538986
1.45196
-0.860641
-0.72568
0.992604
-0.862951
-0.800894
-0.101412
-0.708982
1.52623
-0.558139
0.253276
-0.744467
1.47792
-0.756902
-0.817017
0.816787
-1.1082
-0.875983
1.50789
0.846696
1.16584
-0.802574
1.40352
-0.877963
-0.768634
-0.79503
-0.795496
-0.761768
1.43507
0.748948
-0.834173
-0.753199
-0.740157
1.30392
-0.837965
1.4524
-0.875023
0.897954
-0.717596
0.543435
0.711862
0.677369
0.595861
0.308155
-0.821634
1.18665
-0.790748
-0.546255
-1.05537
0.396268
1.49498
-0.220273
-0.800032
-0.769337
-0.720029
0.436097
-0.952679
-0.715509
0.994712
0.304879
-0.733266
1.56321
-0.749541
-1.0105
1.53134
-0.723643
0.320648
-0.816802
-0.709499
-0.713547
1.53634
-0.703366
1.44652
-0.712159
-0.789618
1.34991
-0.14937
-0.814025
0.738951
-0.708681
0.185283
-0.334013
-0.716988
0.9514
-0.903414
-0.71674
-0.710041
-0.711211
-0.87966
0.990489
0.0102088
-0.366239
-0.736027
1.47532
-0.771592
-0.806124
-0.69105
-0.0591343
-0.841764
-0.698983
-0.729912
-0.016539
1.41819
-0.766203
-0.867645
-0.835833
-0.681065
-0.0717963
-0.885004
1.56467
1.49554
0.587098
-0.7815
-0.876633
0.501393
-0.873694
1.57581
0.379655
1.23414
0.872907
1.45698
0.260281
-0.851268
-0.779969
0.10572
-0.789719
0.105763
-0.00356495
-0.712548
1.47054
-0.21192
0.391227
-0.324163
-0.850194
-0.80129
)
;

boundaryField
{
    frontback
    {
        type            empty;
    }
    Top
    {
        type            zeroGradient;
    }
    outlet
    {
        type            fixedValue;
        value           uniform 0;
    }
    bottom
    {
        type            zeroGradient;
    }
    Inlet
    {
        type            zeroGradient;
    }
    rectangle
    {
        type            zeroGradient;
    }
}


// ************************************************************************* //
