/*--------------------------------*- C++ -*----------------------------------*\
| =========                 |                                                 |
| \\      /  F ield         | OpenFOAM: The Open Source CFD Toolbox           |
|  \\    /   O peration     | Version:  2306                                  |
|   \\  /    A nd           | Website:  www.openfoam.com                      |
|    \\/     M anipulation  |                                                 |
\*---------------------------------------------------------------------------*/
FoamFile
{
    version     2.0;
    format      ascii;
    arch        "LSB;label=32;scalar=64";
    class       surfaceScalarField;
    location    "30";
    object      phi;
}
// * * * * * * * * * * * * * * * * * * * * * * * * * * * * * * * * * * * * * //

dimensions      [0 3 -1 0 0 0 0];

oriented        oriented;

internalField   nonuniform List<scalar> 
3181
(
-1.02549
0.395583
0.629903
-0.389439
0.365143
0.024296
0.520702
-0.358332
-0.16237
0.118871
-0.197658
0.0787869
-0.0133242
0.035118
-0.0217938
0.957583
0.675642
-1.63323
0.148113
-0.141811
-0.00630212
0.0169312
0.00545402
-0.0223852
0.568015
-0.799566
0.23155
-0.0758773
0.134591
-0.0587132
-0.0103988
-0.0518749
0.0622736
0.132387
0.0446879
-0.177075
-0.0161473
-0.00806383
0.0242112
-1.10159
0.152829
0.948762
-0.324064
0.697495
-0.37343
-1.12212
0.638924
0.483195
0.0848468
-0.930937
0.84609
-0.147539
0.219888
-0.0723488
-0.53504
-0.638118
0.00674127
0.0483794
-0.0551206
0.042145
-0.0891745
0.0470294
-0.0678484
0.0640912
0.00375716
1.06747
-1.04278
-0.0246899
0.0342738
0.0303671
-0.0646409
-0.958446
0.3292
0.629246
-0.107939
0.22681
0.305751
-0.249513
-0.0562382
0.0294734
0.0621288
-0.0916022
-0.415795
0.342844
0.0729512
-0.0341213
-0.0216956
0.0234506
-0.00175498
-0.0389419
-0.919504
0.040086
-0.0540586
0.0139726
0.226126
1.13327
-1.35939
-0.0554985
0.0546282
0.000870315
0.18107
0.279281
-0.460351
1.53469
-1.30857
0.0733942
-0.0312492
1.54969
-0.817884
-0.731811
-0.577198
1.53478
-0.0332611
0.0171137
-0.0599228
-0.00792556
-0.409793
0.085729
-0.140161
0.0802385
-0.638146
0.126652
0.511494
-0.145707
0.0698297
-0.168382
0.172616
-0.00423394
-0.268496
-0.0770776
0.345574
0.254918
1.23982
-1.49474
0.04509
0.15363
-0.19872
-0.0149543
-0.101159
0.107303
-0.00614474
0.508333
0.189161
-0.0949393
0.144627
-0.0496873
0.091782
-0.051696
-0.169426
0.195399
-0.0259735
0.162457
0.0581851
-0.220642
0.108277
-0.114189
0.00591224
1.24247
0.307228
-0.842254
-0.183232
-0.03404
-1.76417
1.79821
0.556419
0.234977
-0.791396
-0.44972
-0.209248
0.658969
-1.55639
0.979188
-0.276132
0.832551
-0.320265
-0.103899
0.424164
-0.209079
-0.206716
-0.187782
0.168587
0.0191944
0.14165
0.281335
-0.422985
-0.278235
0.84625
-0.0188707
0.0358019
-2.20008
2.16604
0.18199
0.123761
-0.175086
-0.111477
0.286563
-0.268144
0.359905
-0.0917602
-0.0799131
0.0883152
-0.0084021
-1.94517
-0.919574
0.00968121
0.909893
-0.0423356
-0.0131629
-1.08815
0.80275
0.2854
0.384566
-0.169866
-0.2147
-1.50626
-0.0501225
1.10206
-0.949236
-0.725852
1.15043
-0.20167
1.06312
0.171545
-0.172227
0.000682483
1.21693
-0.541293
1.33625
-1.33625
-0.00724351
-0.00220965
0.00945316
-0.208953
-0.0534007
0.262354
0.0497396
-0.0530862
0.00334657
-0.456276
0.831856
-0.37558
-0.0242663
-0.229955
0.254221
-1.08599
0.043209
0.351022
0.0560182
-0.40704
0.131263
-0.870726
1.1057
0.030724
0.11023
-0.140954
-0.0178574
-0.151569
-0.435416
0.0674369
0.367979
-0.125406
-0.31001
0.121289
-0.992015
0.322641
-0.778918
0.925609
-0.840762
0.0412857
0.0633386
-0.104624
0.0860159
0.0526754
-0.138691
-1.32448
-0.141218
1.4657
-0.241028
0.405895
-0.164867
-0.936913
0.445817
0.491095
-0.478181
-0.609969
0.086699
-0.0416089
-0.152451
0.146833
0.00561776
-0.077929
-0.015623
0.093552
-0.592066
-0.2075
0.0133819
0.00483893
-0.0182208
-1.10077
-0.636851
1.73762
1.82289
-0.583067
-0.0205103
0.0132668
0.0320077
0.149982
-0.203096
0.384166
-0.0210609
0.217086
-0.196026
0.140635
0.0691857
-0.20982
-0.00700531
0.294717
-0.287711
-0.594707
-0.527411
-1.42444
0.323665
-0.036447
0.0671711
-0.102617
0.181149
-0.078532
-0.154544
0.0245924
0.123521
-0.056973
0.0681031
-0.0111301
-0.0938174
-0.0208722
0.11469
0.074784
-0.074784
-0.183667
0.208259
0.25916
0.132569
0.103363
0.0920365
-1.25293
0.97469
-1.57771
0.107608
1.47011
0.0287537
-0.0265811
-0.00217253
-0.0269488
-0.0518868
0.0788356
0.529191
-0.0172121
-0.511979
-0.0208508
0.0205993
0.000251507
-0.198242
0.0145746
0.165537
0.66632
-0.360738
0.526275
-0.113332
-1.21115
-0.100421
0.0870973
0.481832
-0.299687
-0.182145
0.0361197
-0.036847
0.000727378
0.0481412
-0.316638
0.0235253
-0.9431
0.0491027
-0.151719
-0.283025
-0.397342
0.0766056
1.40428
-0.945844
-0.458437
1.09782
0.306464
0.0667626
0.278811
0.0249252
0.00382851
0.0804661
0.0811141
-0.16158
-0.250624
-0.590584
0.841208
-0.352505
0.681895
0.218284
-0.856401
0.166661
0.0349933
-0.0317511
-0.00324217
-2.0789
0.265632
1.81327
-0.192459
-1.88644
-0.30908
0.660102
-0.907411
-0.0165096
0.00519808
-0.270832
0.265634
1.47492
-1.59586
0.12094
-0.0468027
-0.0536188
0.574723
-0.825347
0.332155
-0.338943
0.00678806
-0.297803
-0.121824
0.419627
0.201654
-1.011
-0.0749908
-0.00212586
-0.0529948
-0.564212
0.354964
-0.249844
0.0187495
0.231094
0.0896356
-0.136438
-0.0294149
0.0294149
-0.121633
0.133539
-0.011906
-0.293894
-1.28382
0.000678033
0.0164258
-0.0171038
0.0280905
-0.100413
0.0723224
-0.225097
0.0373152
1.46075
-0.434937
-1.02581
-0.186467
0.443532
-0.257064
0.0168868
-0.0167167
-0.000170032
-0.669717
-0.267195
-0.187887
-0.00484694
0.192734
-0.169083
0.310734
-0.103092
0.101392
0.00169923
0.0774167
0.0104
-0.0878167
-0.0895565
0.0720978
0.0174587
-0.183372
0.823642
-0.640271
-0.218566
-0.0504932
0.269059
-0.689857
0.662888
0.0269693
-0.00802559
0.0383927
-0.00228182
0.00281091
-0.00052909
-0.0247626
-0.0398783
1.14502
0.677866
0.171769
-0.889586
0.717817
0.0262401
2.07019
-2.09643
0.377934
0.410517
0.925729
0.0666976
0.207139
-0.0665046
-0.072203
-0.0289556
0.233162
0.160518
-0.0745024
0.736011
-0.406811
0.0603551
0.201999
0.0527272
-0.169072
0.116345
-0.759716
-0.131502
0.891217
0.0119676
-0.0119676
-0.0127729
-0.269869
0.549149
0.01182
-0.230386
0.218411
0.00147628
0.00692029
-0.0433673
0.138346
-0.148745
-0.347265
0.322999
0.0117222
0.0816422
-0.0933644
0.384325
-0.339637
0.0636526
-0.205425
0.141772
-0.204993
0.271756
0.185663
-0.48535
-0.203878
0.599462
0.163718
-0.0334545
0.0334545
0.13333
0.169439
-0.302769
0.378458
0.0274375
-0.0237135
0.0251082
-0.0013947
-0.0884896
0.0430015
-0.0296196
-0.049823
0.188169
-0.183143
0.244888
-0.0617447
0.132553
0.0279654
-0.387884
0.138371
0.194487
-0.061934
-0.046518
-0.0565737
-0.0232052
0.0352351
-0.01203
0.146664
-0.104018
-0.0426464
-0.0228964
0.401741
-0.378845
-0.0444411
0.0255704
0.105822
-0.110192
0.00436983
0.0239958
0.0299279
0.0337247
-0.069792
0.0149428
0.0548492
-0.0716788
0.0516781
0.0200007
-0.0936677
0.0975188
-0.720315
0.622796
-0.032583
-1.41118
-0.315213
1.72639
0.572037
1.19329
-1.76532
0.0823032
0.0383011
0.256415
0.283238
0.252911
-0.536149
-0.208254
0.260982
0.13896
-0.875048
0.736088
-0.0469702
-0.0247086
-0.0184631
0.0163373
-0.986859
0.443815
0.543044
0.945844
-0.824555
-1.60127
1.46005
-1.47492
1.58253
0.0386033
-0.0882906
6.78511e-05
-0.00234967
0.0125967
0.78833
-0.649371
0.12001
-0.0709077
0.413482
0.73695
-0.0538571
-1.75485
1.78109
-0.688559
-0.564366
-0.241116
-0.39703
-0.0273273
-0.164263
0.212404
-0.573376
-0.368522
0.182055
0.76768
-0.238489
-0.84532
-0.75595
0.746492
0.0397393
-0.0867095
0.278665
0.0377606
-0.0377606
0.670584
0.148806
-0.81939
-0.225096
0.89568
0.565001
-1.10817
0.543165
0.12886
0.00370951
0.00570018
0.00777659
-0.0134768
-1.76417
-1.08638
0.503313
1.05874
0.402008
-0.0346
-0.133782
-0.245597
0.75393
-0.200513
-0.0493306
-0.00292281
-0.0769903
-0.0548798
0.107555
0.380238
-0.253586
-0.801891
-0.291041
-0.0984601
0.0393688
0.0590913
-1.2189
1.62942
-0.113155
0.0612477
0.0519074
0.0378305
-0.0129053
-0.00246639
-0.0237324
0.0261988
0.0104387
0.413725
0.0193282
0.0167914
-0.00230622
0.0053148
-0.00300859
-0.0163592
-0.171528
-0.730354
0.376727
0.353627
1.29209
-1.99316
0.701063
0.140083
-0.161522
0.0214387
0.019662
0.0670369
-0.0676636
-1.26858
-0.0299272
0.0274608
-0.0620236
0.0204146
0.145615
-0.348711
-1.76344
0.724684
1.03876
0.0369667
0.0921428
0.0545212
-0.759716
0.738324
-0.921696
0.0372464
-0.0609788
0.0443751
-0.64066
-0.049197
0.0617236
0.132763
0.153925
0.0351953
-0.458181
0.12151
0.351984
-0.295965
-0.113995
0.0201773
0.221073
0.838394
-1.05947
0.104879
-0.709988
0.605109
-0.930454
0.798952
-1.6387
0.177655
1.46104
-0.0145408
0.0147832
-0.000242396
0.173466
-0.471269
0.210938
-0.123225
-0.0877129
0.058502
-0.00682387
-0.0919448
-0.0065153
-0.0174473
0.0133011
-0.0380637
0.0202215
0.0819159
-0.102137
1.13704
0.00342354
-0.00343127
7.73616e-06
0.046969
-0.0213986
0.859997
0.0129669
-0.0665857
-0.487344
-0.599036
0.0740917
0.0547679
0.00748626
0.0846565
-1.46104
1.26858
0.0141594
-0.283885
0.269726
-0.256289
0.0840612
0.11954
-0.118857
-0.00138331
0.0896985
-0.0153968
-1.44939
-0.314057
-0.0459563
0.0661778
0.74026
-0.257065
-0.1238
0.15189
0.349889
-0.00339842
-0.0203151
-0.00780697
0.0825909
0.144138
0.215767
0.15617
-0.336375
0.180204
0.106166
0.560154
-0.0359394
-0.109768
0.90803
-0.241465
-0.666565
-1.6387
-0.19704
1.48913
1.53469
-0.232063
0.300348
-0.068285
0.371068
-0.0777294
-0.293339
-0.29011
-1.21615
-0.0749447
0.0759611
-0.00101645
-0.220774
0.0467574
0.174017
0.361718
-0.984514
0.622796
0.0396228
0.662211
-0.701834
-0.0439964
-0.108454
-0.0360404
-0.0337515
0.281926
-0.148596
-0.0122095
-0.00233126
0.198388
-0.0722549
-0.126133
0.109281
-0.0288148
0.00862587
0.0292046
-0.0479628
0.111301
0.00257682
0.00023409
0.199279
-0.429234
-0.269546
1.46283
-0.00128353
-0.010684
-0.992633
-0.0183639
-0.0108308
-0.0711643
-0.0428304
0.0951147
0.23704
0.59797
-0.665742
0.0677716
0.0879964
-0.0139047
-0.936815
-0.0124211
-0.020029
-0.648927
0.746446
-0.0174924
0.18121
-0.187594
-0.920571
0.186002
-0.438866
0.252864
0.0468138
0.170273
0.010821
-0.0113411
0.000520094
-0.0547324
-0.0348242
-0.0205101
-0.131058
0.73903
-0.634152
-0.0607491
0.0318367
-0.00387406
0.315934
-0.159763
-0.147421
1.0628
-0.120574
-0.94223
-0.122278
0.141027
-0.506573
-0.223781
-0.552407
0.599331
-0.584452
-0.0148794
-0.0666553
0.0059062
-1.75485
0.555295
-0.555295
-1.61043
1.61043
0.78833
-0.569769
0.132227
0.437542
-0.899883
-0.0927503
0.639261
-0.373311
-0.26595
0.158543
-0.237075
-0.0135421
-0.00696813
-0.906869
-0.0851456
-0.932927
0.212612
0.0558214
-0.0164526
0.696124
-0.104106
-0.592019
1.31572
0.218975
-0.00160233
0.0124234
-0.961505
0.219924
-0.425349
-0.0819726
-0.614639
0.696611
0.0255541
-0.885648
-0.710213
0.219439
-0.814146
-0.891217
1.31671
-0.425497
-0.139216
0.277659
-0.138442
-0.0309546
0.727079
-0.108368
-0.961562
0.961562
-0.866072
0.816435
0.0496371
0.000844152
0.00257939
0.00466342
-0.442614
0.843994
-0.0412438
-0.087021
-0.0348378
0.034939
0.00729696
0.00958981
2.15599
-1.97833
-0.33718
0.414596
-0.647266
1.02919
-0.381928
-0.061907
0.0319798
0.12578
-0.0565948
0.355152
0.00526157
-0.0133254
0.355779
0.0459619
0.0432514
-0.251055
0.207804
0.138585
0.0340302
0.0988317
0.183335
1.92583
0.240211
0.139125
0.129736
-0.268861
-1.15308
1.41871
0.230298
-0.15006
0.0764127
-0.766987
0.690574
-0.430645
0.123492
-0.470756
-0.0748377
0.131542
-0.0567042
0.127269
-0.202107
-0.454664
-0.109548
-0.0730923
0.0762688
-0.00317651
0.00256174
1.50772e-05
-0.0363757
-0.0153203
0.649371
-0.605109
-0.0442613
-0.28925
0.30107
0.878017
0.628241
-0.257173
0.000745098
0.0156807
-0.059631
-0.279312
0.167104
-0.573126
0.406022
-0.0105733
-0.000767878
-0.241179
0.0640122
0.177167
0.00595375
-0.0121
0.00614625
-0.0247075
0.0167551
0.00795241
-0.590406
0.0491128
-0.157808
-1.25337
-0.201753
-0.824555
1.58253
1.46005
-0.190755
-0.172148
0.121655
-0.0643627
0.0701316
-0.00576884
-0.0235393
0.514399
-0.49086
0.562008
0.0772538
0.00018232
-0.0107556
0.122827
-0.699753
0.0348378
-0.0503868
0.00443049
-0.419719
0.360088
-0.0101702
0.0170905
-0.236589
0.620914
1.09782
0.320228
-0.0607337
0.001238
0.0594957
1.76823
-0.308183
-0.060351
-0.0538379
-0.987509
0.162954
0.416953
-0.215299
-0.47957
-0.135611
0.615181
0.831327
-0.372847
-0.458479
0.146859
0.451111
-1.78109
0.0169214
0.002746
-0.0251749
0.0224289
0.141944
1.92825
-0.172581
0.178282
-0.118272
2.22687
-0.644339
-0.675527
0.0491276
0.626399
0.390233
0.0051475
-0.352689
0.522083
0.797007
0.309751
0.075788
-0.0212667
-1.48951
0.0039541
1.48556
1.20068
0.0218283
-0.0241346
-0.0520764
-0.362683
0.10993
-0.318184
0.71363
0.349173
-0.0418981
-0.0247571
0.179531
-0.411593
-0.0240167
0.0159911
0.110344
-0.147262
0.0369174
-0.295901
0.308964
-0.0130637
0.392955
-0.513529
-1.71
0.814423
0.895577
-0.0260874
-0.0932028
0.11929
0.27655
0.0393834
0.0404838
0.69784
-0.665786
0.665786
1.79821
1.31572
-0.709988
0.32006
0.476947
-0.34829
0.0455201
0.933768
-0.37176
0.00975867
-0.877287
0.867528
0.127869
0.00672199
0.0257257
0.185133
-0.144649
-0.00236276
-0.167581
-0.117731
0.285313
0.159509
-0.506841
0.33926
-1.11178
-0.290767
-0.656028
0.00909498
-0.00340895
-2.23271e-05
-0.226445
-0.0338802
0.0929715
0.0330706
-0.149188
0.116118
-0.858337
-0.00773521
-0.00568101
0.0678098
0.37413
-0.149253
-0.224876
-0.560916
0.378771
-0.124451
0.206093
0.231287
0.00191033
-0.0203734
-0.794519
0.359582
0.0349672
0.0708552
-0.080323
0.076449
0.202943
0.00799554
-0.432214
1.74561
0.472022
0.314869
0.866724
-0.790311
0.800512
-0.450623
-0.621862
0.179248
0.154726
-0.793166
0.769839
0.0233275
0.8959
-0.182269
-0.202469
-0.134711
-0.0321962
-0.02089
0.951442
-0.838493
-0.112949
-0.186876
0.112374
0.027189
0.119644
0.876451
0.042638
-0.888233
0.845595
-0.322087
-0.0464348
0.675514
-0.301384
0.191249
1.27445
1.68655
-0.370835
0.166944
0.551713
-0.718657
-0.277097
0.0507085
-0.00445753
0.00636787
-0.516792
-0.10507
0.159395
-0.069759
-0.190571
0.140748
-0.526704
0.269639
-0.992083
0.108687
-0.291064
-0.535359
1.54036
-0.0702586
-0.290863
-0.102543
-0.317176
0.245538
0.305494
0.050285
1.24056
-0.878837
-0.193828
0.131894
-0.385865
0.0581071
0.327758
-0.0033932
0.00613921
0.0495176
-0.0606884
-0.235212
-0.115686
0.698056
-0.4234
-0.274656
0.303173
0.131895
-0.0950987
-0.036796
0.243128
0.0623666
-0.107009
-1.65831
-0.0973554
0.141731
0.292454
-0.249816
-0.0266706
0.0466713
-0.0235444
0.0171281
0.00641633
-0.00380418
-0.022777
-0.246275
0.0772026
-0.0164324
-0.550825
0.411608
0.0225294
0.121352
-0.14744
-0.694689
1.41506
-1.06589
0.0156398
-0.196214
0.180574
-0.142362
-0.534559
0.676921
0.0703095
-0.71097
-0.720463
-0.989537
-0.00899642
0.00224808
0.00674834
-0.247336
-0.599331
-0.160384
-0.136086
-1.48951
-0.23476
0.168255
-0.132492
-1.16288
-0.339556
0.13286
0.206696
0.260726
0.111608
0.462849
0.213948
-0.676797
-0.022616
0.0623553
0.950667
0.087358
-1.03802
-0.218973
0.29154
1.12717
-0.245294
0.183549
-0.322876
0.614416
0.442423
-0.374986
-0.0113344
0.0239311
-0.0136382
0.724848
-0.409979
0.743916
0.087411
-1.63858
0.189189
0.244178
0.68959
0.907464
0.000566149
-0.0187538
-1.68655
-0.656028
-0.712906
0.722588
0.0410293
-0.84532
0.662211
0.596668
-0.931243
0.727561
-0.00273012
-0.790436
-0.315375
0.63866
-0.768825
0.130165
0.0796231
0.0522715
-0.271424
-0.167864
2.10711
-1.93925
-0.00171791
-0.00169103
-0.267173
0.217842
0.708969
0.219352
-0.204778
-0.179955
1.07662
-1.71347
0.385632
0.0519106
0.319804
0.123223
-0.443028
-1.74611
1.75006
0.0335873
-0.182841
0.105573
1.3177
-1.48556
0.00182596
0.217874
-0.0348624
0.0731518
-0.0839826
0.00774023
-0.0407456
0.0330054
-1.02436
-0.0351115
0.312611
-0.804917
-1.18751
1.25153
-0.0640192
0.378237
0.650958
-0.0486783
0.0520788
-0.00340055
-0.343096
1.41972
-0.719697
1.40736
-0.0847832
-1.10273
0.318627
-0.100753
-0.584682
-0.407401
-0.71797
1.03777
-0.0555081
-0.880017
-1.90328
-0.193149
1.3177
0.0505891
-0.855506
0.830508
-0.645478
-0.18503
-0.981781
0.397099
0.0159228
0.114396
0.000192108
-0.114588
-0.971658
0.564256
-0.211679
0.912918
-0.925339
0.19452
-0.210879
-0.0970203
0.242636
-0.101653
0.40504
-0.0498564
-1.33926
0.397032
1.23821
-0.928461
-0.553137
-0.518082
1.07122
0.446863
0.0180234
-0.0102468
-0.736946
0.701834
0.668485
-1.01158
-0.925729
0.795521
0.130208
1.43656
-0.185027
0.775047
-0.809168
-0.49323
-0.44987
-0.47152
-0.500138
0.803774
-0.803774
0.686357
-0.686357
-0.736946
-0.745399
0.745399
-0.795521
-0.877127
-1.11472
0.391726
-0.501018
0.501018
0.668485
-1.01158
0.775047
0.765959
-0.765959
0.809168
0.758597
-0.758597
0.50677
0.52848
0.481918
0.167467
-0.499862
-0.55013
1.07861
-0.83539
-1.56652
0.848546
0.240929
-0.207342
-0.306115
-0.0143865
0.0273534
-0.88542
0.0922456
0.793174
-0.052919
0.0255916
-0.995411
0.588601
0.904643
-0.584582
-0.124482
0.0126106
-0.00658604
-0.81202
-0.0775663
-0.543044
-0.00457458
0.0209118
0.915336
-0.0526616
-0.00831723
0.175838
-0.00185381
-0.00750477
0.00935858
-0.811335
0.0676126
0.743722
-0.185598
0.0839451
-0.529704
0.417842
0.111862
0.916051
-0.743035
-0.173015
0.0810403
0.303126
-0.0138875
-0.0592047
-0.0610633
-0.0138814
0.615849
-1.83475
-0.852418
0.0972853
-0.743856
0.795358
-0.0515021
0.121897
-0.900092
0.778196
-0.80324
0.904292
-0.101052
-0.0417448
0.0379406
0.0199609
-0.290793
0.531314
0.506461
-0.0939791
-0.791441
0.916189
-0.0914496
-0.82474
-0.0356505
-0.0262565
0.0553315
0.822072
-1.10191
0.465255
-0.388001
0.101367
-0.892807
1.30857
0.301859
-0.791224
0.000788005
1.01715
-0.895252
1.16594
0.586608
-0.735303
0.148695
-0.881707
-0.113705
-0.417375
0.0385299
-0.541682
0.609453
-0.784323
0.784323
-0.612148
-0.0850536
-0.863629
0.120593
-0.957422
0.875449
0.077095
-0.20032
-0.0571545
0.0564596
0.0116435
0.188161
0.828988
0.819238
0.772214
0.138572
-0.910787
-0.888807
0.681465
-0.783118
-0.105175
0.888293
0.167964
-0.887661
-0.675467
0.887179
-0.785813
-0.106101
0.460124
-0.0174197
-0.442705
-0.574432
1.21834
-0.643911
-0.078194
0.133718
-0.0555244
-0.889219
-0.829393
0.0855369
0.534761
0.265751
-2.08534
0.150416
-0.585108
0.585108
-0.925343
-0.413919
0.306826
-0.451475
-0.42346
1.23788
0.782004
-0.200038
0.263949
-0.214836
0.580636
-0.608279
0.027643
-0.637314
-1.35584
0.0400337
-0.302199
-0.107592
-0.814104
0.22083
0.306526
-0.225485
0.781248
-0.8823
1.17542
-0.493953
-0.147425
0.736026
0.58822
-0.58822
-0.0518392
0.0389339
0.112791
-0.0797201
0.505394
0.712949
0.156368
0.00400837
0.00839692
-0.0124053
-0.67136
0.692738
-0.0213781
-0.175909
-0.559394
0.107971
-0.893783
-1.0919
1.43126
-0.339358
0.0392716
0.87425
-1.39007
1.21416
-0.755211
0.606029
-0.655226
-0.664626
0.158053
0.021242
0.0265679
0.112183
0.332312
-0.31107
0.00311259
-0.0341453
0.0667829
0.728576
0.690727
-0.0846984
0.0729566
0.78704
0.889232
-0.330299
-0.558934
-0.488408
0.517341
0.176787
-0.93784
0.716881
0.220958
-0.685585
-0.128561
0.731652
-0.383682
0.235086
-0.036219
0.486063
0.513937
-0.770787
-0.111513
-0.657654
-0.881703
0.103739
-0.407944
0.400641
0.599359
-0.062551
0.0411524
-0.862236
-0.0621167
-0.593109
-0.157872
-0.242923
0.400795
-0.0144979
-0.000898896
0.114794
0.0733744
-0.128146
-0.11813
0.760545
-0.645312
0.718269
-0.0394929
0.371805
-0.849739
-0.00167061
0.85141
-0.746265
-0.188566
0.93483
-0.239593
0.227386
-0.0253878
-0.0734004
-0.0630379
0.00926491
0.720325
-0.135217
0.118717
0.11257
-0.735107
0.0637464
0.457242
-0.345215
0.304903
-0.163131
-0.559067
-0.284158
1.02111
-0.00418389
0.138444
-0.256716
-0.0128882
-0.00760847
-0.0308881
0.578514
-0.121272
0.745454
-0.75544
0.00998545
0.846082
-0.0338757
-0.00334512
0.0372208
0.130434
-0.0124099
0.000200375
0.217033
-0.106689
0.592452
-1.01591
0.968366
-0.222912
0.00618357
0.292503
-0.75711
-0.976333
1.27424
-0.297911
-0.778965
0.833161
-0.0541956
0.154262
0.401247
0.0411763
-0.0750569
1.08391
-0.460264
-0.0694395
0.274842
0.44933
0.186195
-0.635525
0.405614
0.0352198
0.657519
-0.572749
0.567537
0.00521229
0.913997
-0.668458
-0.00599839
0.00526304
0.000735349
0.698657
-0.00954477
-0.0824906
0.019173
1.38523
0.613704
-0.459442
0.0389903
0.0903967
-0.1836
0.162058
-0.0931878
-0.0688699
0.0238454
-0.0161052
0.451958
-0.3646
0.0703555
0.217842
-0.0256066
-0.0845706
0.228199
0.0949474
0.00255119
0.0556452
0.76544
0.230355
0.141061
-0.371416
0.443346
0.155774
-0.59912
0.644595
0.116243
-0.0158114
-0.0399112
0.0557226
-0.325575
-0.0547784
-0.553501
-0.0077556
0.754248
0.72093
0.504017
-0.0676356
-0.203789
0.812559
0.0519737
-0.199394
-0.890693
0.0749257
-0.273839
0.237267
-0.172891
0.694809
0.0706311
0.0135579
0.637724
-0.236477
0.0205319
0.16503
0.021862
-0.111037
0.422291
-0.0578081
-0.0265664
-0.0695505
0.179422
-0.0271025
0.470449
-0.150475
0.150379
-0.0403382
-0.109806
0.0138046
0.000261413
-0.014066
-1.19703
0.528567
-0.00653132
0.896025
-0.228176
-0.618322
0.645905
-0.0275822
0.491084
0.758555
0.867554
-0.0161438
0.0795383
-0.176559
0.635406
0.12315
1.08595
0.543476
-0.272115
0.73737
-0.0855753
-0.0356963
-0.596081
0.351809
0.244272
0.644642
-0.0707586
0.04137
0.0662929
-0.0479186
1.17221
0.736841
0.0757187
0.626078
0.21513
-0.873833
-0.0814537
-0.677051
0.677839
-0.0259005
-0.578974
0.421102
0.867006
0.670625
0.109027
0.105537
-0.15148
-0.319276
0.791985
0.623076
0.16576
0.00205547
-0.300883
0.265186
0.369982
1.36764
-0.079386
-0.317026
-0.737047
0.92811
-0.191063
-0.414276
-0.181805
-0.00527101
-0.138264
-0.195875
0.770077
0.00450487
0.00080993
0.626564
0.334216
-0.497347
0.608509
-0.132277
0.230463
0.764737
0.248506
-1.01324
0.277297
-0.922775
0.168423
-1.23431
-0.17308
0.763279
-0.5902
-0.671362
-0.0180783
-0.055322
-0.0554653
-1.39202
0.0165134
-0.0400578
0.837529
0.216794
-0.185351
-0.0314427
-0.0482555
-0.573376
-0.0929941
0.231438
-1.28122
-0.00514051
0.00328669
-0.293682
-0.0541862
-0.596663
0.023914
0.568361
0.298645
0.889112
0.837279
-0.238519
-0.387699
0.626219
-0.346967
-0.618744
0.618744
-0.235663
-0.938097
1.17376
0.0306186
-0.152896
0.678837
-0.110475
-0.221657
0.0835289
0.151557
0.12316
1.2873
0.00893045
0.180067
-0.103462
-0.69087
0.483253
0.084284
0.0635341
0.0098601
-1.72668
-0.562904
-0.27998
0.693177
0.306823
-0.562904
0.693177
-0.213244
0.0705323
-0.213244
-0.696375
0.696375
0.303625
-0.0141377
-0.0320089
-0.0770383
0.214978
0.0707464
-0.474584
0.63841
-0.0299009
0.652795
-0.505757
-0.147038
-0.0538485
0.0518178
0.00203066
-0.0188979
0.0229063
-0.152621
0.0186335
-0.0883121
-0.434794
-0.359043
0.132599
0.0412177
0.825215
-0.273502
-0.47542
0.158244
-0.011541
-0.176255
-0.00529837
0.68421
0.0700376
-0.313243
-0.0037845
0.000775914
-0.0099081
0.0851534
0.558129
-0.478425
-0.0797036
1.75634
0.553711
-0.55901
0.912998
0.011412
-0.0632988
0.108342
-0.256971
0.0681318
1.14214
-0.377405
0.00897313
0.000121853
0.314761
-0.321743
0.0212996
-0.0212996
0.0210276
-0.0210276
-0.00151454
0.00151454
-0.00128353
0.365704
0.461369
0.0922987
-0.711533
0.473044
0.187599
0.0294342
-0.0836237
-0.483043
0.802327
0.111784
-0.797369
-1.19365
0.273081
0.0198762
0.0200033
-0.00324823
-0.00220988
0.00220988
0.388408
-0.00445795
0.00445795
0.700427
0.0975768
-0.004714
0.000929496
0.00658976
-0.0673235
-0.0222907
0.0222907
0.00131131
-0.00131131
-0.0224692
0.0224692
-0.00501588
0.00501588
0.0717836
-0.296677
-0.0808611
0.220212
-0.00605218
0.00605218
-0.376323
0.5068
-0.130477
0.49568
-0.218021
-0.234831
-0.240589
0.558924
0.0934713
0.0800677
0.565837
0.565006
-0.00624892
0.00624892
-0.272066
0.0251256
-0.0251256
-0.00689631
0.00689631
0.764278
-1.0664
0.0345993
-0.386956
0.450968
0.00532529
-0.00532529
-0.000683984
0.000683984
0.0183998
-0.0183998
0.022957
-0.022957
-0.0236298
0.0236298
0.0352559
-0.0352559
0.489484
-0.0319577
0.0319577
-0.00552567
0.00552567
0.0241686
-0.0241686
0.00219738
-0.00219738
0.00599741
-0.00599741
-0.111266
-0.0261421
0.0261421
0.515786
0.0369594
-0.0396257
0.0396257
-0.00166829
0.00166829
0.00468478
-0.00468478
0.0336569
-0.0336569
0.0256233
-0.0256233
0.00506388
-0.00506388
0.00158891
-0.00158891
0.159505
-0.188537
0.00190238
-0.00190238
-0.00528327
0.00528327
-0.038278
0.038278
-0.0278943
0.0278943
-0.000638848
0.000638848
-0.421318
0.665496
0.264011
-0.0321332
0.0321332
-0.0126719
-4.77056e-05
4.77054e-05
-0.00500567
0.00500567
0.0371933
-0.0371933
-0.0376532
-0.161741
-0.00192028
0.00192028
-0.0225726
0.0225726
-0.48851
0.0437819
0.286662
-0.0312811
0.0312811
-0.442343
0.0332084
0.0188705
-0.481537
-1.15704
-0.0368768
0.0368768
-0.203313
0.145505
-0.0407538
-0.00483563
0.00483563
-0.00367802
0.0507075
0.265481
-0.324393
-0.273889
0.598282
0.187524
0.00214131
-0.00214131
-0.0430764
-0.104292
0.147368
0.764786
-0.387864
-0.376922
-0.467753
-0.661329
-0.196468
0.354712
-0.374622
-0.113786
-0.575051
-0.0138986
0.19166
-0.867557
0.0165971
-0.0165971
-0.00366987
0.00366987
0.0309549
-0.0309549
0.0261099
-0.0261099
-0.000226707
0.000226707
-0.002902
0.002902
-0.00723473
-0.162631
0.17045
-0.294932
-6.59893e-06
6.59894e-06
-0.0447433
0.0447433
-0.0404934
0.0404934
0.0285475
0.156488
-0.185035
0.00644117
0.309824
-0.538
0.000330583
-0.000330583
-0.0130922
0.0130922
-0.0987894
0.135554
-0.332022
-0.00342209
0.00342209
0.0586111
0.015525
0.966269
-0.485522
-0.0852394
0.570762
-0.625463
0.00132447
-0.543006
-0.0384412
0.0384412
-0.677679
0.275283
0.0497951
-0.0497951
-0.655984
0.390033
0.2606
0.117807
-0.000483745
0.000483745
-0.845632
-0.000461421
0.000461421
0.318594
0.408485
0.0390222
-0.0537998
0.0537998
-0.00344016
0.00344016
-0.0425469
0.0425469
-0.0535077
0.0535077
-0.000469156
0.000469156
-0.0591254
0.0591254
-0.000586123
0.000586123
-0.0458845
0.0458845
-0.0062925
-0.0449877
0.0449877
0.00486895
-0.00486895
0.0484262
-0.0484262
-0.00105277
0.00105277
0.0473766
-0.0473766
-0.31475
-0.00268164
0.00268164
-0.00443215
0.00443215
-0.0538767
0.0825909
-0.0105784
0.0105784
0.00459636
-0.00459636
-0.0596288
0.0596288
0.298359
-0.0185308
0.0185308
-0.0569843
0.0569843
-0.00728071
0.00728071
-0.0675046
0.0675046
-0.0132847
0.0132847
-0.0807099
0.0807099
-0.0219281
0.0219281
-0.0939017
0.0939017
-0.694364
0.0754007
-0.535158
0.507576
-0.885648
-0.0891485
-0.56002
0.387129
0.213212
0.0899611
0.00346359
-0.00346359
0.227975
-0.712257
0.0450804
-0.0352203
-1.20495
1.42393
0.602371
0.252757
-2.32889e-05
-0.020738
-0.390642
-0.584312
-0.0788493
0.393552
-1.21896
-0.0219034
0.0219034
-0.744258
0.0191588
-0.0191588
0.00126687
-0.00126687
0.316052
-0.287102
-0.0026593
0.0026593
0.0190335
0.014421
0.598494
-0.223429
-0.0222431
-0.0105836
-0.00817016
-0.10079
0.499566
-0.398776
0.050723
-0.0106894
0.00647751
0.934886
0.016713
0.0497301
-0.408173
0.446703
-0.493413
-0.97438
-0.236771
-0.0730657
0.0181859
0.0197263
0.113992
-0.00584511
-0.00530636
0.00679412
0.790967
-0.547728
-0.0403692
0.0622312
-0.0373351
0.0113992
-0.0434081
0.421234
0.241654
-0.167366
0.211895
0.0133766
-0.00297657
-0.777208
0.000549035
-0.189851
0.00450014
-0.0188901
-1.19097
-0.0714196
0.266052
-0.351505
0.397467
0.284072
-0.819431
0.0480253
0.0623367
-0.0885932
-0.350554
0.462415
-0.0563607
0.058721
-0.00236025
-0.0273451
0.0273451
0.180136
-0.437309
-0.145585
0.0451721
-0.0818811
0.0559806
-0.0631816
-0.00555833
0.0687399
-0.0431205
-0.154191
0.118944
0.0830202
-0.288746
-0.351871
0.640617
0.0156377
0.0603234
0.151331
-0.0326136
-0.160745
0.0699134
-0.159122
0.313848
0.00852124
0.0286996
-0.0235992
0.17493
0.00307598
0.262558
-0.000974401
0.000974401
-0.72885
1.09883
0.0920243
-0.173478
-0.0300065
0.0555606
1.30309
-0.0889288
0.0460006
-0.0165857
-0.533724
-0.00143379
0.0967986
0.0951982
-0.688392
0.316632
-0.0572616
0.375154
-0.663899
0.208462
0.50842
-0.0900121
0.0900121
0.000192109
-1.00089
-0.213526
1.21442
-0.214849
0.159384
-0.23935
0.0845653
-0.598095
-0.0472828
-0.00440865
0.0044765
0.92996
0.265565
-0.156539
-0.0693439
-1.0911
-0.0116292
-0.0476501
-0.268442
0.790524
0.573528
-0.263704
-0.285784
0.578287
0.0906612
0.209686
-0.268361
0.051652
-0.463093
0.332617
0.123336
-0.123336
-0.00597595
-0.0818186
0.0877945
-0.0034934
0.00936416
0.0171281
0.0117505
-0.337325
0.224703
-0.186913
-0.0377896
0.539333
-1.08762
0.294056
-0.893092
0.692196
-0.116665
-0.178268
-0.0359082
-0.079778
-0.489694
0.0548998
-0.29034
-0.000557931
-0.0188901
0.383621
-0.0051145
0.00317024
-0.0010363
0.0138505
-0.0102908
-0.00355976
-0.101997
-0.0171502
-0.168321
0.185471
-0.121563
-0.341531
0.0190335
0.346981
0.00146684
-0.378579
0.0875148
0.00265642
0.179864
-0.0875655
-0.0125502
0.0125502
-0.00127304
0.00062733
-0.00929908
-0.000844124
0.0287145
0.00066636
-0.0011606
0.0901282
0.146912
-0.00280241
0.00280241
0.0417439
0.509752
0.000591072
-0.290431
0.500378
1.15302
-0.472116
0.329921
-0.438513
-0.125045
-0.0205399
0.223958
-0.226471
0.0329084
0.0118072
-0.00254225
-0.00824932
-0.181249
-0.37872
0.851764
0.347265
-0.354499
0.0381237
-0.00159904
0.0568858
-0.0176142
0.00073169
0.00135721
0.01045
0.208577
0.00134778
-0.000384411
0.725664
-0.65575
-0.245981
0.210379
0.55139
0.00027761
-0.000331369
-0.0407538
-0.00565785
0.817561
-0.430965
0.515249
-1.16168
0.906181
-0.337412
0.574562
-0.187434
0.702592
-5.6081e-05
0.00339732
0.016606
-0.121258
0.139649
0.0475848
0.00874745
-0.000261632
0.0662434
-0.0524115
-0.0138319
-0.000221033
-0.0389749
0.0761753
-0.0372004
-0.0909629
0.00903467
-0.000637754
0.00206654
0.478964
-0.432399
0.00840741
-0.000308267
1.05356
-1.26708
0.384019
-0.0059219
0.00116576
0.14841
-0.0780549
-0.0437358
-0.109727
-0.0154871
-0.00361653
0.124737
0.0126819
-0.00214082
0.407197
-0.000322045
-0.00370667
0.00370667
0.000932185
-0.0115158
-0.000233306
-0.32377
-0.00371531
0.0729137
-0.107398
0.287775
0.182495
-0.0654197
-0.000323983
0.00175052
0.459368
-0.000257037
0.000602455
-0.00587347
-0.00205355
-0.000335555
0.0898281
0.0665397
-0.710163
0.467424
-0.846144
0.249546
-1.80722e-05
-0.390543
0.124739
0.0960915
0.583323
-0.0150665
-0.102358
-0.00400472
-0.00136891
-0.55453
-0.00333756
-0.000116964
-0.00351669
0.942973
-0.537359
-0.00254167
-0.000466645
-0.00582903
-0.00162887
0.0682322
-0.0222133
0.0222133
-0.00143735
0.00206468
-0.00268435
-0.00787583
0.0212527
-0.0180825
-0.167034
0.0962754
-0.00600394
-0.0132052
0.0406877
-0.0170852
0.06292
-0.0447341
-0.623735
0.572233
-0.00240575
-0.00113277
0.364039
-0.184616
-0.0688841
-0.675943