/*--------------------------------*- C++ -*----------------------------------*\
| =========                 |                                                 |
| \\      /  F ield         | OpenFOAM: The Open Source CFD Toolbox           |
|  \\    /   O peration     | Version:  2306                                  |
|   \\  /    A nd           | Website:  www.openfoam.com                      |
|    \\/     M anipulation  |                                                 |
\*---------------------------------------------------------------------------*/
FoamFile
{
    version     2.0;
    format      ascii;
    arch        "LSB;label=32;scalar=64";
    class       volVectorField;
    location    "30";
    object      U;
}
// * * * * * * * * * * * * * * * * * * * * * * * * * * * * * * * * * * * * * //

dimensions      [0 1 -1 0 0 0 0];

internalField   nonuniform List<vector> 
2186
(
(1.29841 -0.0636371 2.17975e-19)
(1.6255 -0.942253 -6.95905e-20)
(1.46764 -0.918639 3.26762e-21)
(0.742608 -0.582479 -1.44841e-19)
(-0.109972 0.353727 -1.63301e-19)
(1.52711 -0.107038 0)
(0.73039 -0.674619 0)
(-0.132219 -0.127144 9.64194e-20)
(1.58747 -0.132405 1.76084e-19)
(0.554475 -0.308459 -2.41155e-21)
(0.67999 0.613942 0)
(0.855277 -0.277375 -1.23765e-19)
(-0.137979 -0.0841983 -3.73586e-20)
(1.2078 0.0244916 -3.69382e-19)
(1.81433 -0.683941 -7.74924e-20)
(1.01316 -0.00203726 1.74847e-19)
(0.980238 0.0119047 0)
(-0.079786 0.675511 0)
(1.15033 0.176012 0)
(-0.102469 0.237024 -5.79222e-20)
(0.485274 0.0975815 -1.13785e-19)
(-0.18329 0.207326 7.95416e-20)
(1.19504 0.0273115 3.05098e-19)
(-0.188627 -0.0815104 6.75923e-21)
(1.0332 0.00827682 -2.40051e-19)
(0.793495 -0.557723 0)
(0.762583 -0.0273541 1.44024e-19)
(0.618314 -0.597813 -1.67098e-19)
(1.21654 0.718306 0)
(0.965523 0.0242708 -3.27642e-19)
(-0.0424775 0.092285 0)
(1.02605 -0.0104585 1.13515e-20)
(-0.169773 0.118991 0)
(1.9222 0.0112008 1.22628e-19)
(-0.148466 -0.190805 1.00706e-21)
(1.54394 0.78237 8.79221e-20)
(1.82213 0.0254262 1.01972e-19)
(0.511877 0.14564 -3.39352e-19)
(1.90524 0.25865 -2.40226e-19)
(1.5138 -0.0602292 -6.25619e-21)
(-0.163314 -0.0857405 0)
(-0.133793 0.171767 0)
(1.89819 -0.877083 8.33884e-20)
(-0.414443 0.172475 0)
(1.11413 0.284856 1.567e-19)
(0.599 -0.290657 2.79774e-19)
(0.930652 -0.792411 0)
(1.19161 -0.790332 1.07405e-19)
(2.30592 -0.0755822 0)
(-0.152043 0.526143 1.41638e-19)
(-0.0385924 0.140048 8.56008e-20)
(0.630286 0.581863 8.2188e-20)
(2.08351 -0.750543 9.52195e-20)
(0.596364 0.277903 -2.73607e-19)
(-0.308507 -0.058382 3.08574e-20)
(0.768508 -0.653744 0)
(1.68659 -0.971785 1.90729e-20)
(0.587985 -0.547763 0)
(2.28776 0.240609 7.21459e-20)
(1.13642 -0.168341 -3.52847e-19)
(2.10986 -0.0994688 1.85415e-19)
(1.35584 0.308323 -1.86569e-19)
(1.35463 0.541991 0)
(1.65843 -0.0928315 6.85497e-21)
(1.37418 0.394828 -1.1565e-19)
(1.25682 -0.734052 -1.49009e-19)
(1.17562 0.66761 5.4819e-20)
(0.680605 0.0752223 -5.52805e-19)
(0.819486 0.0601365 0)
(2.32282 -0.0833504 -5.93934e-20)
(-0.147614 -0.132394 -1.15333e-19)
(2.51674 -0.0230032 -1.89145e-19)
(0.727303 -0.0341416 -2.43313e-19)
(0.878275 -0.518341 0)
(0.827944 0.18431 -9.03554e-20)
(0.552746 -0.512526 -2.93815e-19)
(2.45729 -0.0505741 0)
(1.00696 0.00879081 3.59308e-19)
(-0.151159 -0.211271 0)
(2.02054 0.373764 0)
(0.645727 0.326468 6.8837e-20)
(1.49516 -0.0785505 -2.19862e-21)
(1.02253 0.00719826 3.9868e-20)
(1.32318 0.421215 2.89081e-20)
(0.971578 0.0237359 4.17834e-19)
(1.04033 0.0285045 -9.91704e-21)
(0.668747 0.180347 -3.30521e-19)
(1.16837 0.0266245 5.15424e-21)
(1.28875 -0.0945523 0)
(-0.0706373 -0.0704585 9.21757e-20)
(0.864834 -0.624122 -1.61065e-19)
(-0.156397 0.134996 -1.02371e-21)
(1.11661 -0.0738576 2.43387e-19)
(0.819686 -0.181582 0)
(0.97441 0.0231066 3.99473e-20)
(1.37134 0.65152 0)
(1.63317 -0.953608 0)
(1.31206 0.225551 0)
(-0.171792 0.535903 0)
(0.795368 -0.668164 2.86187e-19)
(0.511065 0.379853 -2.51946e-19)
(0.759669 0.431212 1.45142e-19)
(1.58111 0.197954 0)
(1.15045 -0.0998216 -2.22495e-19)
(1.12442 0.0236577 1.77762e-19)
(-0.1683 0.218152 1.03401e-19)
(0.640369 0.509838 0)
(2.16153 -0.132267 -1.04067e-19)
(0.969198 -0.47886 8.00357e-20)
(-1.23393 -0.0173398 1.44375e-19)
(1.74465 0.324473 1.05279e-19)
(-0.169024 0.350847 -2.26917e-19)
(0.824727 -0.749369 0)
(0.568024 0.353459 1.65769e-19)
(1.777 -0.179253 -5.19585e-19)
(-0.0528999 0.181569 -3.50852e-19)
(1.68308 0.853437 1.125e-19)
(1.96185 0.0238966 0)
(-0.0941865 -0.101108 -2.7554e-19)
(0.710771 -0.0704072 7.68983e-20)
(1.56505 0.887511 0)
(0.000565362 0.57008 -1.86886e-19)
(0.889654 0.764917 -2.76182e-19)
(-0.190907 0.664339 2.88952e-19)
(1.02954 -0.0248717 0)
(1.58995 0.731316 -1.41787e-19)
(-0.132764 0.347299 0)
(0.700304 -0.494655 -1.05241e-19)
(-0.122894 0.675977 -1.56538e-19)
(0.796775 -0.727201 0)
(0.435984 -0.27276 4.07949e-19)
(0.544481 -0.456696 2.75185e-19)
(0.418879 -0.379205 0)
(0.990579 -0.786194 -1.23372e-19)
(0.369332 0.274812 0)
(-0.103944 0.49245 -1.11045e-19)
(0.816601 -0.701666 1.36782e-19)
(2.31574 -0.16851 2.4883e-19)
(2.20103 0.196028 0)
(-0.127972 -0.140296 0)
(0.68584 0.637007 -3.45879e-19)
(1.79414 -0.618109 4.71829e-21)
(-0.107136 -0.106496 0)
(0.989989 -0.810877 -1.34101e-20)
(1.14819 -0.0954588 0)
(1.08243 -0.119928 3.85777e-19)
(2.05411 -0.125979 -1.01963e-19)
(-0.147972 0.510259 0)
(1.22692 -0.553788 -5.31368e-20)
(-0.247798 0.272953 -3.84987e-20)
(-0.107178 0.116434 0)
(1.10108 -0.817636 1.26096e-20)
(1.00683 0.00439777 -6.00211e-19)
(0.6542 -0.4801 -1.03497e-20)
(0.821354 -0.516799 0)
(1.20632 -0.732207 -9.04679e-20)
(0.658216 0.240658 2.565e-19)
(1.23425 0.119106 0)
(1.50694 0.087622 -2.73133e-19)
(1.20528 -0.859602 -1.93143e-19)
(-0.126545 -0.142929 -9.96595e-20)
(-0.456313 0.0501893 -1.58405e-19)
(1.07163 0.00738245 2.26679e-19)
(0.922575 -0.464458 -1.00648e-19)
(1.07914 0.0692181 -4.77175e-21)
(0.481743 0.369628 -6.56822e-20)
(0.760948 -0.120774 1.1053e-19)
(-0.0825426 -0.11138 -2.51457e-19)
(1.92052 -0.303043 0)
(2.47756 -0.36992 1.30169e-19)
(1.45272 0.654934 1.46568e-19)
(0.812816 -0.615994 -2.08747e-19)
(0.994934 0.00856201 1.22969e-20)
(0.724548 -0.531753 2.89331e-19)
(1.30891 0.806013 1.3227e-19)
(1.86346 0.0693499 1.18053e-20)
(-0.1527 0.579181 0)
(1.08605 0.0576613 -2.35518e-19)
(-0.682435 0.36565 -1.82319e-19)
(1.07608 0.494029 8.04446e-20)
(0.159236 -0.146927 1.51961e-19)
(1.1633 0.027972 -4.25869e-20)
(-0.202909 0.129203 -1.39856e-19)
(1.29929 0.587963 -8.05033e-20)
(1.14109 0.889986 0)
(-0.18276 0.681387 -8.64979e-20)
(0.0815304 0.203928 0)
(0.655475 0.564665 -2.75232e-19)
(2.1226 0.194486 -1.66814e-20)
(-0.132313 -0.0157486 1.20577e-19)
(-0.342858 0.572698 -4.9749e-19)
(0.725889 0.0779741 2.4288e-19)
(1.99588 0.172969 -4.17319e-20)
(0.98485 -0.346286 -2.95091e-20)
(-0.0887383 -0.0957167 0)
(-0.782645 -0.0317672 2.98054e-19)
(1.32966 0.975229 -2.62549e-20)
(0.840193 0.0770264 -1.33518e-19)
(0.555337 0.521412 1.91959e-19)
(0.426866 0.19521 0)
(-0.234547 -0.203904 -1.9254e-19)
(-0.879904 -0.287895 2.92557e-19)
(1.30714 -0.963163 3.8911e-22)
(0.990074 -0.0304401 -1.86486e-19)
(-0.157367 -0.166198 5.43614e-21)
(0.0184858 -0.0183232 1.36925e-19)
(-0.201446 -0.227292 -1.77699e-19)
(1.99014 -0.10723 0)
(1.13259 0.0470617 -3.17145e-19)
(2.51547 0.148563 2.22076e-19)
(1.28087 -0.618979 9.6048e-20)
(1.02101 -0.0226088 1.52742e-20)
(0.594496 0.332471 0)
(0.946481 0.753205 -1.63926e-20)
(0.683891 0.629489 1.84289e-19)
(0.902135 -0.565045 1.4548e-19)
(0.687623 0.5047 0)
(1.02281 0.00248134 8.00634e-21)
(0.887295 -0.66621 2.07332e-19)
(0.841225 0.426363 -4.52534e-19)
(1.20756 -0.111822 0)
(0.0190699 0.0880684 -2.4924e-19)
(-0.118942 0.134813 -8.61192e-20)
(1.59397 0.72873 0)
(1.35939 -0.942043 -3.33022e-22)
(-0.0303252 0.658167 0)
(-0.0971582 0.231982 1.02431e-19)
(0.738253 0.654786 -9.74721e-20)
(0.85238 -0.215588 0)
(-0.210358 -0.202795 0)
(1.64121 -0.455253 0)
(-0.198305 0.285595 5.44018e-19)
(1.22087 -0.887958 1.26573e-19)
(1.1829 -0.605136 5.90106e-20)
(1.05421 -0.170257 -1.59974e-19)
(0.883308 -0.696037 -1.63628e-19)
(0.190027 -0.193848 0)
(-0.50655 0.618913 0)
(1.00695 -0.511768 1.70525e-19)
(-0.129225 -0.136852 0)
(-0.113197 0.568778 0)
(-0.0840347 0.237445 3.03326e-19)
(0.794917 0.67286 8.45735e-20)
(1.01547 0.796767 0)
(0.69933 0.556707 -8.39403e-20)
(0.833176 -0.0397538 -2.19318e-19)
(0.748012 0.564805 -2.24916e-19)
(0.591267 0.550251 -1.65289e-19)
(-0.156076 -0.161062 -1.4902e-22)
(0.72611 -0.650808 0)
(0.901723 0.178478 -3.18478e-19)
(-0.176223 -0.136806 5.14145e-20)
(0.60249 0.559056 3.73929e-19)
(0.959713 0.799984 0)
(0.0556049 0.036427 3.72593e-19)
(-0.185975 -0.178901 3.11983e-19)
(-0.182156 -0.0704199 -1.66177e-19)
(0.666322 0.572689 -1.45713e-20)
(0.969051 -0.00803077 5.8179e-20)
(-0.177812 -0.0409581 0)
(2.05621 0.0576058 -2.14039e-19)
(1.94079 -0.519203 -3.9883e-19)
(0.658995 -0.609826 -7.36201e-20)
(0.141467 0.649963 9.93485e-21)
(1.19731 0.464153 1.83267e-19)
(0.888877 0.417077 0)
(1.05416 -0.170119 1.87522e-19)
(-0.149075 -0.219211 1.08402e-21)
(-0.114801 0.0981787 3.24402e-19)
(0.918877 0.0189271 -5.16383e-20)
(1.12998 0.143364 0)
(1.77907 0.0315298 -2.13285e-19)
(1.91878 0.0866468 0)
(0.546906 0.257886 -4.48804e-19)
(0.00852603 -0.0125408 0)
(-0.147753 -0.145348 2.26736e-19)
(0.691869 0.098913 0)
(0.62328 -0.514371 -1.7803e-19)
(1.14135 0.0185915 2.04945e-19)
(-0.138259 0.592065 3.52767e-20)
(2.18204 -0.0568832 7.09236e-21)
(2.13188 -0.188933 -1.2314e-19)
(1.11594 0.231946 -2.1844e-19)
(-0.184565 -0.115497 -9.60415e-20)
(1.0821 -0.855496 0)
(0.812667 0.0177742 -1.49151e-19)
(0.931263 -0.376904 -2.81819e-19)
(1.72316 -0.574947 -5.13454e-21)
(1.71167 -0.0193823 1.89025e-19)
(1.08027 -0.00602154 3.79e-19)
(-0.139148 -0.198994 -1.49935e-19)
(0.999525 -0.438663 -1.22411e-19)
(0.199635 -0.192104 2.51368e-19)
(1.00796 -0.00800369 0)
(1.00455 -0.00682354 0)
(0.950494 -0.271077 1.78062e-19)
(-0.113036 0.379978 -7.77813e-20)
(0.195081 -0.115438 -1.34802e-19)
(2.06886 -0.0188106 -4.85629e-21)
(1.16206 0.132011 0)
(1.82696 0.166566 -1.3313e-19)
(0.953129 -0.828556 -7.70223e-20)
(1.80813 -0.562442 -7.19077e-20)
(1.10749 0.839444 0)
(0.476345 -0.457421 0)
(0.607153 0.521043 -1.74039e-19)
(1.10124 0.284306 -4.03243e-19)
(2.20155 -0.196339 3.66333e-22)
(0.864471 0.162225 1.36633e-19)
(-0.214265 -0.241169 -4.20736e-19)
(1.63381 -0.185594 -2.81023e-20)
(-0.345977 -0.107591 0)
(-0.141482 -0.156095 0)
(-0.198304 0.0580123 0)
(1.34693 -0.72385 -8.10752e-20)
(-0.121676 0.123532 -1.89752e-19)
(-0.048305 0.0273866 0)
(1.29003 0.976916 -3.68461e-20)
(1.11332 0.153024 -4.19204e-19)
(2.31824 -0.0375648 -9.02095e-20)
(1.08032 0.922713 8.728e-20)
(-0.178439 0.281217 1.15103e-19)
(1.1744 -0.0527902 0)
(-0.197277 0.129223 -2.48605e-19)
(-0.154224 0.271569 2.22957e-19)
(0.778491 0.0348107 1.79564e-19)
(1.53561 0.950992 -1.26922e-20)
(1.46219 0.376647 -1.49701e-19)
(-0.167954 0.124722 -1.60027e-21)
(0.752873 -0.686485 -3.58489e-20)
(1.13132 -0.0161674 0)
(1.72939 -0.0479635 0)
(1.02065 0.0532429 0)
(-0.965069 -0.244353 -2.13781e-19)
(-0.254516 0.030672 8.82147e-20)
(1.04873 0.846107 0)
(0.998937 -0.00053449 5.00715e-19)
(0.769972 0.607343 -2.25534e-19)
(-1.16142 -0.388318 -1.23747e-19)
(0.864025 0.0205331 -4.03077e-20)
(0.720473 -0.657024 -2.12321e-19)
(1.38933 0.713565 -3.41922e-20)
(0.565142 -0.450083 -2.8599e-19)
(1.12641 0.00237895 -4.52778e-19)
(0.807601 0.0375747 4.38496e-20)
(1.51787 -0.164538 6.32575e-20)
(1.74253 -0.117615 -1.15345e-19)
(-0.0899643 -0.0968886 -4.10393e-22)
(1.08213 0.47214 -2.67541e-19)
(1.31934 0.61887 6.62119e-20)
(-0.193008 -0.121554 0)
(-0.24398 -0.155565 1.53067e-19)
(0.0459679 0.228891 1.06073e-19)
(-0.150442 -0.170198 -1.27693e-19)
(0.478627 0.321183 0)
(1.54203 -0.585278 0)
(-0.0179912 0.0197495 -1.18219e-19)
(-0.181451 -0.160807 -5.17192e-20)
(1.04704 -0.0302273 1.7944e-19)
(-0.1388 0.465987 -4.22669e-20)
(1.44288 0.0866489 -4.56091e-19)
(-0.151096 0.324718 0)
(0.839871 -0.744062 -2.9035e-19)
(1.425 -0.154979 1.78031e-19)
(-0.650887 0.328336 1.19695e-19)
(0.720041 0.164258 3.22121e-19)
(0.624795 0.141431 1.03982e-19)
(0.505936 -0.47825 1.97621e-19)
(-0.11581 -0.1119 -1.1737e-19)
(1.91825 0.359493 0)
(0.395535 0.35024 -1.89804e-19)
(1.02905 -0.0151139 -2.85362e-19)
(-0.342756 0.584256 1.96883e-19)
(1.4222 0.486639 -1.25403e-19)
(-0.134526 -0.146843 -4.71004e-20)
(0.696828 -0.635583 -4.7212e-20)
(0.817484 0.190686 -2.02921e-19)
(0.979646 0.428741 2.27672e-20)
(1.15477 -0.138099 3.36495e-20)
(0.609273 -0.227233 -2.93569e-19)
(2.0252 -0.327893 -1.4723e-19)
(1.87258 -0.038281 0)
(2.12296 -0.142377 -7.52839e-20)
(1.60784 -0.0408425 -1.04253e-21)
(0.835894 0.00861537 1.17397e-19)
(0.930382 0.363049 -1.64762e-19)
(1.71883 -0.108107 1.93226e-21)
(0.420145 0.391018 -2.46671e-19)
(0.187115 0.598652 1.58478e-19)
(2.17226 0.0322831 0)
(0.9404 0.00736583 0)
(0.880891 -0.779 5.6106e-20)
(-0.172424 -0.19074 -3.42114e-19)
(-0.0978854 0.565388 -2.02351e-19)
(-0.102328 -0.112231 -2.07891e-19)
(-0.0718586 0.657667 -1.22177e-19)
(-0.445572 0.00633251 0)
(-0.140129 -0.150688 3.82269e-20)
(-0.0991643 0.245117 -7.94056e-20)
(0.0223823 -0.0137809 -3.12052e-19)
(0.806003 -0.107695 0)
(1.6296 -0.51147 1.58238e-19)
(0.00450314 0.0882463 0)
(0.995386 0.0239749 3.61298e-19)
(-0.312361 -0.0997342 1.32123e-20)
(0.541322 -0.422086 3.83341e-19)
(-0.64367 0.376108 3.02664e-19)
(-0.881163 0.169693 0)
(-0.01797 0.288901 8.2206e-20)
(1.00362 0.0235382 -1.08695e-20)
(-0.00726015 -0.167912 0)
(1.00501 -0.00910478 -5.63345e-20)
(0.864992 -0.729774 -2.77704e-19)
(1.55294 -0.38306 0)
(0.937836 -0.269931 2.01411e-19)
(0.0659205 0.479638 1.56035e-19)
(-0.0722816 -0.0753896 0)
(-0.243826 -0.192469 -5.3642e-21)
(0.729653 -0.635912 -4.12392e-19)
(0.953366 -0.0221728 -2.59755e-19)
(-0.188765 -0.195143 4.17135e-19)
(-0.150408 -0.16133 1.43736e-19)
(-0.3764 -0.0671763 0)
(0.96154 0.478248 0)
(-0.480385 0.157817 1.58559e-19)
(1.6293 0.112792 -1.26548e-19)
(1.07632 0.898099 1.91151e-20)
(1.07414 0.215725 -1.22801e-19)
(1.12766 0.00802892 -2.15255e-19)
(1.04442 -0.0686962 -7.60535e-20)
(-0.19028 -0.191994 -3.74169e-19)
(1.95638 0.107362 4.18134e-19)
(0.689879 0.0351054 2.07893e-19)
(1.64685 0.0318018 1.02778e-19)
(1.04629 -0.147946 0)
(-0.657404 0.0470813 2.23365e-19)
(1.14424 0.0256635 -4.89592e-19)
(1.75715 0.626714 1.6877e-20)
(0.743518 -0.453834 -1.56846e-19)
(-0.0969711 -0.102331 2.05958e-19)
(0.803048 -0.703796 3.65124e-19)
(1.24451 0.19859 7.52722e-20)
(1.00684 -0.00836416 2.49532e-19)
(-0.141111 -0.216455 -1.58052e-19)
(1.02455 0.0191543 0)
(1.79656 -0.00810117 -1.89943e-19)
(-0.0923607 -0.0930871 0)
(1.01377 0.0131015 -1.46962e-19)
(-0.538183 -0.0758097 -5.95135e-19)
(1.75371 0.317885 3.99801e-20)
(-0.0124126 0.286859 1.40518e-19)
(1.62588 0.0192697 2.16506e-21)
(1.0144 -0.0180772 5.17536e-20)
(1.27833 -0.0912784 0)
(1.44917 -0.607042 -1.29038e-19)
(1.02333 0.0375152 -1.53413e-19)
(1.44531 0.794323 -6.50182e-20)
(1.28286 -0.0339608 0)
(0.772665 0.475775 3.22376e-20)
(-0.0235338 0.0233877 0)
(1.33524 0.0570826 0)
(-0.226841 -0.0339461 0)
(1.24952 0.450761 0)
(1.87216 0.285003 4.03057e-20)
(0.743679 0.618743 3.95416e-19)
(0.295901 -0.297574 -2.33934e-19)
(-0.176296 -0.168919 -3.35347e-19)
(-0.096161 -0.104031 0)
(2.48775 -0.404693 1.70521e-19)
(1.33561 0.528603 0)
(1.46806 0.297552 0)
(-0.236532 0.171011 1.08863e-19)
(0.809499 0.715338 1.28844e-19)
(1.66219 -0.00625126 0)
(-0.118733 -0.0810848 7.19558e-20)
(0.910776 0.225023 1.86891e-19)
(2.16645 -0.277213 -1.14868e-19)
(1.24439 0.930584 4.71088e-20)
(0.930676 -0.836877 -3.25901e-20)
(1.58998 -0.123549 -7.11623e-20)
(0.795354 0.718643 1.32656e-19)
(1.18069 0.928327 0)
(2.42318 -0.132235 2.09984e-19)
(0.368426 0.254544 0)
(1.44375 -0.447065 9.08102e-20)
(1.01416 0.108704 1.72938e-19)
(1.00553 -0.00543281 0)
(-0.828047 -0.132528 1.8676e-19)
(0.892054 -0.168816 4.66105e-20)
(0.631123 -0.406 0)
(0.671204 -0.379008 2.06835e-19)
(1.24425 0.561825 -3.40795e-20)
(0.475099 0.448702 2.72625e-19)
(0.0169661 0.0101603 3.73679e-20)
(0.0809868 -0.0546013 8.563e-20)
(0.752445 0.0583711 0)
(1.33136 -0.903053 -6.84028e-20)
(1.03359 -0.044473 3.98597e-19)
(1.51206 0.350294 1.30541e-19)
(-0.114336 -0.0260845 6.08255e-20)
(-0.698407 0.33692 0)
(1.23313 -0.235228 -1.08707e-19)
(-0.0744278 -0.0768669 -1.7559e-19)
(-0.454946 0.153858 -2.8115e-20)
(-0.13324 0.0506819 -7.1838e-22)
(-0.205598 0.0960015 2.68943e-19)
(0.4302 0.0237287 -2.06997e-20)
(2.23854 -0.00528262 2.86681e-19)
(1.19717 0.465705 -2.95539e-19)
(0.871593 -0.052587 0)
(1.90438 -0.107673 1.99836e-19)
(1.78909 0.056269 8.8916e-20)
(0.916245 -0.768916 1.35728e-19)
(1.16714 -0.981679 -3.48206e-20)
(0.479099 0.445177 1.83484e-19)
(1.00608 0.169525 0)
(1.76559 0.585579 2.05833e-20)
(-0.0870311 -0.095668 -3.57447e-19)
(0.886596 0.773682 0)
(1.75936 0.568636 0)
(0.296812 -0.296078 -3.89554e-21)
(0.327611 0.309469 0)
(-0.775953 0.293681 -2.82297e-19)
(-0.0474409 0.0992167 -1.0702e-19)
(1.75273 -0.42928 0)
(1.27281 0.0827456 2.01271e-19)
(0.0382298 0.601657 1.68179e-19)
(0.53866 -0.511321 -4.50958e-19)
(1.73978 0.00909023 -3.68602e-20)
(0.616822 -0.559211 0)
(1.04199 0.125604 0)
(1.36723 -0.275813 0)
(1.12208 0.230221 -2.3404e-19)
(1.36328 0.11113 3.32471e-19)
(-0.928518 0.198293 0)
(0.878378 -0.0526404 0)
(2.17123 -0.106421 -1.25749e-20)
(-0.0970159 0.0693914 9.01725e-20)
(2.44637 0.0762325 -2.89173e-19)
(1.09398 -0.515666 1.82955e-19)
(2.00259 0.0381062 -3.17285e-19)
(-0.242762 0.613118 -1.24003e-19)
(1.9815 0.0877147 -1.69757e-19)
(1.01808 -0.0205535 4.07428e-19)
(1.52376 0.608789 0)
(-0.1388 0.276592 2.90705e-20)
(1.00957 -0.832836 1.66284e-19)
(0.858464 -0.012795 4.71143e-20)
(0.635626 -0.429174 0)
(1.91589 -0.51946 5.48388e-21)
(1.20904 -0.193916 1.42313e-19)
(1.57119 -0.446996 0)
(0.613568 -0.569826 4.27592e-19)
(1.78337 0.0924045 -8.24156e-20)
(2.36502 0.0553931 4.49108e-19)
(-0.093732 0.0677208 -1.87664e-19)
(1.33855 0.624187 1.54459e-19)
(1.1539 0.411384 3.69257e-21)
(0.908723 0.378332 2.22643e-19)
(1.763 0.146949 -1.13799e-19)
(-0.184246 -0.197452 -1.68831e-21)
(0.88022 0.0192226 0)
(-0.13133 -0.108533 3.36243e-19)
(1.1034 -0.958208 0)
(1.06766 -0.652733 2.08041e-20)
(0.68079 0.12553 -3.0943e-19)
(1.37798 1.13456 -9.97982e-21)
(-0.503975 0.299212 -2.90091e-19)
(0.99246 0.489057 1.74694e-19)
(-1.12273 -0.454322 2.36051e-19)
(0.697114 -0.0413161 0)
(2.04505 -0.0250273 0)
(1.49515 -0.134271 -4.75063e-21)
(0.77895 -0.00737526 0)
(1.35117 -0.200489 -1.46439e-19)
(-0.590532 0.519209 3.88561e-19)
(1.94298 0.509582 -4.97498e-22)
(1.04617 -0.0336248 0)
(0.553066 -0.345166 1.02092e-19)
(1.00932 0.0262648 1.93866e-19)
(0.0736512 -0.206918 -1.0556e-19)
(0.0309019 0.676402 0)
(1.11064 -0.474384 4.67995e-19)
(1.9748 -0.0973744 -6.5442e-22)
(1.10285 -0.496517 -2.0377e-19)
(2.33566 0.268683 1.33791e-19)
(1.29388 0.796281 0)
(0.875387 0.0227098 0)
(-0.143489 0.0328416 -1.49355e-19)
(-0.0202265 0.0175197 1.33028e-19)
(0.954132 0.372115 -2.06479e-19)
(-0.119785 -0.260369 -1.54835e-19)
(0.650423 0.413899 2.37862e-19)
(0.864045 0.48556 0)
(0.543896 -0.505621 0)
(-0.299698 0.0552511 -5.24737e-21)
(1.23477 -0.505389 -9.42748e-20)
(0.790648 -0.0867849 1.45954e-20)
(0.733452 -0.149319 1.15647e-19)
(-0.0918605 0.0681573 -2.37632e-19)
(0.981666 0.193001 2.045e-19)
(0.661919 0.617147 0)
(1.2767 0.701185 0)
(1.63133 0.26515 0)
(-0.431557 0.00490471 -1.3258e-19)
(1.25744 0.566017 1.82112e-19)
(1.89334 0.0661036 3.59683e-20)
(0.939122 -0.0115389 0)
(2.45436 -0.378953 0)
(2.16249 -0.0578091 -3.14879e-19)
(-0.0833484 -0.268151 1.31869e-19)
(1.00521 0.00326614 -1.9408e-19)
(1.50918 0.485087 0)
(0.0383986 0.622169 0)
(1.2486 0.323421 2.91636e-19)
(1.02835 0.532655 -1.30387e-19)
(1.07167 0.0283596 0)
(1.38834 0.149688 0)
(1.99865 0.680406 -2.64863e-19)
(-0.165358 0.158609 -4.24743e-23)
(0.995397 0.013281 0)
(0.711766 0.478335 -3.28927e-20)
(0.942856 -0.8305 0)
(1.00133 0.0160041 4.503e-20)
(0.567742 -0.933182 -1.34836e-19)
(0.905818 -0.3198 2.96593e-19)
(-0.55992 -0.693519 9.99052e-20)
(2.06835 -0.0465517 2.95539e-19)
(1.87 0.0211639 1.03495e-19)
(0.785857 -0.0200901 0)
(1.01196 0.0106622 0)
(-0.689199 0.372885 0)
(0.665939 0.637549 -1.88878e-19)
(-0.0610745 0.0411257 1.604e-19)
(1.17544 0.353929 -4.66984e-19)
(-0.164302 0.684064 0)
(0.832865 0.647091 1.66768e-19)
(1.00985 -0.331667 0)
(1.00537 -0.00170682 1.13615e-19)
(-0.370986 0.118216 2.57174e-20)
(1.03932 0.40948 2.57447e-19)
(1.2844 0.249641 0)
(2.22418 0.150959 -6.77528e-20)
(0.826579 -0.107595 -3.55021e-19)
(-0.815662 0.29924 -3.78455e-19)
(0.339524 0.10995 0)
(0.882077 0.247603 1.7285e-19)
(2.0209 0.0154306 0)
(0.779539 0.526264 3.58339e-19)
(-0.789177 0.420339 1.62456e-19)
(-0.057027 0.0351841 0)
(0.591636 0.562669 -7.0089e-20)
(1.02998 -0.640829 -1.45682e-19)
(0.478822 -0.240549 -1.19666e-19)
(1.02047 -0.0131207 0)
(0.159916 0.58184 -1.46096e-19)
(0.640496 -0.569569 7.91229e-20)
(0.909629 0.294885 0)
(1.93419 -0.263307 2.18829e-19)
(0.986051 0.840112 2.4601e-20)
(0.432211 -0.449101 7.2849e-20)
(0.259285 -0.051319 -2.69585e-19)
(0.229475 -0.0257815 -5.4068e-19)
(-0.134803 -0.151924 9.00327e-21)
(0.820505 0.363602 2.43906e-19)
(-0.109243 0.14812 -4.70787e-21)
(1.4178 -0.646821 3.57865e-21)
(1.02362 0.0116688 -3.36597e-19)
(-0.519625 0.188779 0)
(1.03216 0.0370335 -4.00122e-19)
(1.85466 0.0649332 9.46226e-20)
(0.891441 0.693611 2.81262e-19)
(1.13343 -0.0660993 1.55284e-19)
(1.00542 -0.0244939 1.55761e-19)
(1.17802 1.02514 8.09432e-21)
(-0.0669131 -0.014899 2.26322e-22)
(1.74617 -0.870713 1.56373e-20)
(1.12825 -0.129921 -7.27339e-20)
(0.789431 0.0490708 8.34581e-20)
(0.910071 -0.289184 8.71699e-20)
(1.81785 0.0251649 0)
(0.965748 0.738133 0)
(0.0385186 0.23149 -3.06816e-20)
(2.01538 0.191503 -1.79426e-20)
(-0.680225 0.382391 1.38685e-19)
(1.03265 -0.538503 -4.9522e-19)
(0.618291 -0.533234 3.80065e-19)
(1.20296 0.190392 -1.01653e-19)
(-0.0236786 -0.170882 1.75268e-20)
(1.31604 -0.270917 0)
(0.754293 0.119954 -6.61251e-21)
(1.54351 -0.312767 -1.58473e-19)
(1.04356 0.765258 0)
(0.67121 -0.53395 0)
(0.791729 0.383721 0)
(-0.129463 -0.134871 -5.5736e-20)
(-0.132607 0.183867 0)
(0.831455 -0.239995 1.49824e-19)
(1.22835 0.183041 6.43008e-21)
(-0.910582 0.162942 2.19019e-19)
(1.75805 0.187311 6.97128e-20)
(1.83647 0.466171 -5.15675e-20)
(2.08979 -0.289465 -3.38298e-20)
(-0.175265 0.0174396 -1.88447e-19)
(-0.272036 -0.192505 4.00028e-21)
(1.81948 0.105482 0)
(0.678468 -0.035743 0)
(1.00057 -0.000188519 2.09598e-22)
(-0.492533 0.118628 0)
(1.38506 0.0588224 -8.34152e-20)
(0.678737 -0.0320697 0)
(1.04983 0.00685804 1.24781e-19)
(0.989347 0.0149585 -4.40785e-20)
(1.14892 0.257701 1.31526e-19)
(1.0633 -0.0168865 -9.14061e-22)
(0.949396 -0.187538 -5.26582e-20)
(1.02433 -0.0288689 3.60891e-19)
(0.673895 -0.6109 1.78585e-19)
(-0.650208 -0.00257977 -2.75834e-19)
(1.86161 0.295 5.9663e-20)
(-0.0244674 0.0235937 0)
(1.12958 0.798489 0)
(1.02827 -0.00275968 0)
(1.00596 -0.775297 -1.00713e-19)
(1.04782 -0.896807 3.74957e-20)
(1.78888 0.561539 3.31553e-21)
(-0.612659 0.295215 -4.3537e-19)
(0.136034 0.208153 2.2123e-21)
(0.586036 -0.378596 -6.17097e-19)
(2.07823 0.0121812 -1.42539e-19)
(-0.217048 0.00160652 1.14247e-19)
(2.08963 -0.270453 1.03959e-19)
(1.62798 0.0915995 -6.47256e-20)
(-0.139201 -0.104724 -1.11419e-19)
(1.11853 0.557269 1.99375e-19)
(-0.202803 -0.243944 0)
(-0.213462 -0.113851 3.38082e-19)
(-0.153942 -0.162164 4.02421e-23)
(1.02735 -0.0455099 3.26383e-19)
(1.02384 0.00370152 -8.35278e-21)
(1.10636 -0.00973292 -9.01628e-20)
(1.12155 0.868883 1.2342e-21)
(1.63988 0.323824 6.41255e-20)
(0.401279 -0.37533 -3.06476e-19)
(1.3149 0.564961 -2.20067e-20)
(1.03464 0.0049065 -2.38021e-19)
(2.1818 0.4184 -6.1465e-20)
(1.08331 0.894694 0)
(1.11482 0.595835 -3.7415e-19)
(1.00269 -0.004345 9.26898e-20)
(0.677961 0.607141 2.55558e-19)
(1.04321 -0.213216 -1.19138e-21)
(1.06785 -0.00898372 -2.98192e-20)
(1.1268 0.0169646 8.44345e-22)
(2.36562 0.128234 1.56492e-20)
(1.58808 0.22653 0)
(1.04297 -0.0408122 0)
(1.04851 -0.0349791 5.70959e-19)
(1.0025 -0.00258558 0)
(-0.119663 -0.128314 0)
(0.975714 -0.588121 0)
(1.001 -0.000594307 -5.39066e-19)
(1.16033 -0.682204 7.99263e-20)
(1.02367 -0.00238501 1.12956e-20)
(1.34741 0.96047 -2.972e-20)
(1.53107 1.00898 2.41879e-20)
(0.0426758 -0.401741 -2.33385e-21)
(1.18594 0.0645667 8.66658e-20)
(1.73264 -0.11611 0)
(-0.176609 0.235132 0)
(2.03818 0.201398 2.52803e-19)
(1.30393 -0.578327 0)
(0.999798 -0.00513957 -1.67046e-19)
(1.01075 -0.00119961 3.24562e-19)
(1.46634 0.145712 -7.05869e-20)
(0.0102013 -0.112088 2.62233e-19)
(0.978765 0.00176447 1.76832e-19)
(0.927003 0.134394 -2.32064e-20)
(0.932079 -0.0141961 -1.5325e-20)
(1.127 0.920879 1.07662e-23)
(0.929856 0.0176405 -1.77123e-19)
(1.00359 0.00392553 2.09368e-19)
(1.00036 -0.000579588 1.23729e-20)
(0.789228 -0.0134711 0)
(0.726977 -0.0271344 0)
(0.722525 -0.0276003 6.60736e-22)
(0.698815 -0.0300091 0)
(1.33084 -0.172213 0)
(1.05799 -0.0934395 0)
(0.848311 -0.0345693 7.98421e-21)
(0.901622 -0.00590804 -5.4814e-21)
(1.55305 -0.0431878 0)
(1.35532 0.678168 4.30013e-20)
(1.05686 0.807612 0)
(0.547461 0.127851 0)
(0.787002 0.177782 0)
(1.21961 0.255199 1.64709e-20)
(1.79176 0.129218 1.43827e-19)
(0.776241 0.0238193 0)
(0.786077 0.0201241 0)
(0.967796 0.0205901 -2.18403e-19)
(0.814503 0.00782073 4.08036e-19)
(1.00784 -0.0013155 0)
(1.00021 -0.000620713 3.86983e-19)
(1.00024 -0.000734391 -3.59024e-22)
(0.784909 0.0224424 3.46645e-19)
(0.997475 -0.00508721 -2.02964e-19)
(0.585641 0.081827 0)
(0.926116 -0.0445027 1.53368e-20)
(1.00064 -0.00151211 -1.95744e-19)
(0.999527 0.0010196 -3.35662e-19)
(0.654968 0.545277 0)
(0.999072 0.00150712 0)
(0.999678 0.000117311 0)
(1.62594 -0.227898 1.33457e-21)
(0.282235 0.409631 4.89374e-21)
(1.69325 0.494242 0)
(-0.100792 0.305255 1.96608e-19)
(-0.75024 -0.0448249 -1.82967e-19)
(1.01965 -0.0141445 -2.60947e-19)
(-0.230555 -0.115381 -9.42425e-20)
(1.01907 0.00477355 -2.09698e-19)
(1.16832 -0.216367 -9.63112e-20)
(0.799838 -0.4702 2.94224e-19)
(-0.100191 -0.110029 -8.51351e-20)
(1.03081 0.0133185 0)
(1.05969 -0.011509 -5.75005e-20)
(0.850907 0.0220705 0)
(-0.0856024 0.0707126 2.346e-19)
(0.933657 -0.718971 0)
(-0.312644 0.038234 -2.2837e-19)
(1.30845 0.134266 4.44744e-21)
(1.66344 0.691144 -2.53715e-20)
(-0.0613951 0.00536649 0)
(1.05224 -0.0383758 1.76588e-19)
(-0.28091 0.144953 4.95508e-22)
(0.928655 -0.0054993 2.76663e-19)
(1.0121 -0.00822448 -1.77874e-19)
(1.68106 0.868842 2.71475e-20)
(0.524003 0.492649 0)
(0.449358 0.407112 1.98569e-19)
(2.25303 -0.310327 -5.47937e-21)
(1.15358 0.128175 1.94436e-19)
(1.09013 -0.712085 0)
(1.02311 0.00469101 0)
(0.999818 -0.0181536 -4.09624e-19)
(1.01894 0.0157741 -3.9825e-19)
(-0.154046 -0.169134 0)
(1.22617 0.826218 -1.35022e-19)
(1.06913 -0.0677846 1.26839e-21)
(1.01607 0.0041707 1.53613e-19)
(1.01199 0.0137691 -1.92311e-19)
(-0.308434 0.167863 -2.24272e-20)
(-0.0805142 0.0881248 1.35387e-20)
(1.01816 -0.0138203 6.55652e-19)
(1.3447 -0.0719599 0)
(1.86629 0.65676 -3.26468e-20)
(1.01557 -0.010749 -2.04097e-19)
(1.86935 0.045501 -9.61005e-20)
(1.06224 0.0107248 -4.72631e-22)
(1.00927 -0.00998124 4.08452e-20)
(2.04117 -0.0903168 -2.50244e-19)
(1.01622 0.00699303 1.97647e-19)
(0.554524 0.565471 1.69468e-20)
(1.01856 0.00460839 0)
(0.936315 0.155283 4.89922e-20)
(-1.12492 0.214324 3.97297e-21)
(0.999925 0.0220566 1.96225e-19)
(1.0406 0.0209942 -6.22374e-22)
(0.713306 -0.191956 -1.83825e-20)
(1.26539 0.32038 4.20827e-19)
(0.996186 0.0159938 1.34847e-19)
(1.01694 -0.0131249 4.58583e-22)
(1.76012 0.256615 -2.64479e-20)
(1.77605 0.948467 -9.57562e-20)
(0.780005 -0.699625 5.61116e-20)
(0.448474 -0.31684 -2.99145e-19)
(1.00707 -0.00986968 0)
(1.0208 0.00332633 4.91043e-20)
(1.01109 -0.00823428 1.0374e-19)
(0.717696 0.646953 2.32755e-20)
(1.01466 0.00666092 -2.05795e-19)
(1.02857 -0.0209303 2.34966e-19)
(1.00785 -0.00811248 -1.9396e-19)
(1.01362 0.00576857 -4.86101e-22)
(1.01298 0.00276787 -3.31303e-22)
(1.02553 0.0144158 1.96946e-19)
(0.903422 0.0909176 5.01505e-19)
(1.39108 -0.308338 0)
(-0.0780056 0.126485 1.13827e-19)
(1.01141 -0.00260543 0)
(1.02122 -0.0157443 -5.72124e-20)
(1.54218 0.449061 -8.96361e-20)
(1.55907 0.0118994 0)
(2.32754 -0.214695 -1.78118e-19)
(0.830887 -0.224003 -3.4583e-20)
(0.765853 -0.018421 0)
(1.88224 0.0820928 0)
(-0.495941 -0.383678 -2.1653e-19)
(1.22116 0.799718 -2.67292e-20)
(1.01785 -0.00340959 -2.07538e-19)
(1.11988 -0.562819 -5.7698e-20)
(-0.0185245 0.00746682 -3.53991e-20)
(0.620468 0.423346 0)
(1.40677 -0.231104 0)
(1.94223 -0.197137 0)
(-0.143745 0.124123 7.09347e-20)
(0.783521 0.827381 -1.15584e-19)
(-1.37288 -0.545058 0)
(0.176116 0.506768 -1.86184e-19)
(1.70556 0.974117 -3.98859e-20)
(1.00808 -0.002687 -4.05386e-19)
(0.825923 0.800356 8.86034e-21)
(1.02115 0.0102904 2.68324e-19)
(0.694465 -0.0441631 0)
(-0.165995 -0.177072 -2.67456e-20)
(0.618339 0.44013 -3.35579e-19)
(1.42984 -0.157907 2.04689e-19)
(0.0261164 0.389017 0)
(0.783327 0.0742833 7.45622e-20)
(0.520937 0.498634 5.1044e-20)
(1.19103 0.889139 -3.67059e-20)
(-0.0862848 -0.0919534 1.30517e-19)
(1.02178 0.015267 0)
(0.698514 0.595043 -9.97391e-20)
(1.01191 -0.00154725 1.52284e-19)
(2.32431 0.176126 0)
(1.01219 0.00776804 2.55227e-19)
(-0.109728 -0.138733 -1.63319e-19)
(1.01881 0.0116741 -1.58083e-19)
(1.56552 0.908322 0)
(2.52605 -0.223405 7.07774e-22)
(1.00896 0.00393498 -1.06022e-19)
(0.996141 -0.0240591 2.79806e-19)
(1.09519 0.100213 -2.51949e-21)
(0.571319 0.33615 1.29764e-19)
(-0.113938 -0.135234 3.43234e-19)
(2.01658 0.262639 1.4294e-19)
(-0.065832 -0.048526 -1.43282e-19)
(0.799435 0.0146147 -3.82546e-19)
(0.81407 0.0293883 0)
(0.498022 0.289626 -3.97726e-20)
(1.02173 -0.0130276 -3.07573e-20)
(0.971562 0.0315236 0)
(1.05094 0.00351579 -1.95615e-19)
(-0.777831 -0.823465 1.10313e-19)
(-0.894912 0.272447 1.59059e-19)
(2.16211 -0.561122 0)
(-0.375254 0.243678 -6.79261e-19)
(1.51168 -0.341327 0)
(1.04021 -0.0177348 5.73025e-20)
(0.788829 0.61355 -1.58577e-21)
(1.01415 -0.000397825 1.64581e-19)
(-0.394623 0.527094 3.64795e-19)
(1.01933 0.00353002 0)
(0.994289 0.0035992 -3.96907e-19)
(1.00889 0.00792829 2.09326e-19)
(1.53791 -0.115702 0)
(0.310039 0.261369 9.89716e-21)
(0.956165 -0.00128466 -1.79022e-19)
(-0.214311 -0.164503 3.4929e-19)
(1.00401 -0.00128092 -2.04201e-19)