/*--------------------------------*- C++ -*----------------------------------*\
| =========                 |                                                 |
| \\      /  F ield         | OpenFOAM: The Open Source CFD Toolbox           |
|  \\    /   O peration     | Version:  2306                                  |
|   \\  /    A nd           | Website:  www.openfoam.com                      |
|    \\/     M anipulation  |                                                 |
\*---------------------------------------------------------------------------*/
FoamFile
{
    version     2.0;
    format      ascii;
    arch        "LSB;label=32;scalar=64";
    class       volScalarField;
    location    "1.2";
    object      p;
}
// * * * * * * * * * * * * * * * * * * * * * * * * * * * * * * * * * * * * * //

dimensions      [0 2 -2 0 0 0 0];

internalField   nonuniform List<scalar> 
2186
(
0.554041
-0.809631
-0.317983
0.945475
0.102831
0.0247248
0.520001
-0.0306327
-0.11859
1.19966
0.904597
-2.0422
0.0347371
0.99944
-0.893895
0.944344
1.0232
0.183796
-0.00934969
-2.10411
1.28321
-2.86373
1.00029
-2.8889
0.94321
0.921365
1.11792
0.768515
0.414004
0.987078
-2.59136
0.978801
-0.812574
0.10037
-1.98896
-0.200148
0.095253
1.27053
-0.0860065
0.0133589
0.0508761
-2.52372
-1.32635
-1.85629
0.767107
1.18142
0.11372
0.341103
0.102421
0.0379075
-2.47314
0.737622
-0.974738
1.2028
-1.06173
0.824558
-1.54983
0.850547
-0.0324678
0.629694
0.0833543
0.514219
0.415759
0.00717821
0.418828
0.27308
0.499733
1.17675
1.06748
-0.0785566
-0.0546024
0.0686409
1.14598
0.880024
1.06244
1.03557
0.104101
1.00891
-1.54621
-0.347954
0.0934369
0.0106216
0.986794
0.482395
0.953483
0.964016
1.17046
0.0351491
0.041521
-2.48463
0.8272
-0.352801
0.838064
1.04189
1.00913
0.197009
-0.481307
0.455355
0.0718876
0.865046
0.131315
0.129174
0.507677
0.984578
1.03439
-0.288043
1.0869
0.0060963
0.811434
0.112682
-0.528867
-0.0196248
0.363561
1.19724
-0.205987
0.188919
0.0448439
0.104173
-2.59839
1.14789
-0.394655
0.0728567
0.694975
0.182951
0.975555
0.0515264
0.0395777
1.02574
0.188463
0.497125
1.27339
1.12171
-0.0274241
0.487054
0.0974885
0.0352005
0.795117
-0.0811953
0.0124702
-0.648534
0.631734
-0.405446
-0.0858492
0.545663
0.87454
0.917732
-0.0583137
0.122917
0.483783
-1.80839
-0.103496
0.416196
1.02446
1.0655
0.920413
0.349516
1.17567
0.29713
0.205209
0.228424
-0.758271
0.129645
0.925709
0.867857
0.00434423
-0.0152511
-2.38593
-2.36296
0.0732549
0.087376
0.170099
0.873233
1.03797
0.988738
0.20665
-0.0170725
0.158246
0.930282
0.183331
0.71142
-2.0292
1.00096
-1.25533
0.37562
0.312727
0.18204
0.206331
1.00451
-0.0277216
0.106367
0.248094
1.14551
0.109284
0.854932
-0.994118
0.114039
-0.302026
1.06432
0.935475
-2.19641
0.0102601
0.118766
-0.214326
0.97789
-2.60299
-0.0153399
-2.94613
0.0946112
0.905827
0.0687066
0.367136
0.0308568
1.18575
0.664341
0.770664
0.838454
1.05894
0.939012
0.766897
0.972921
0.3147
0.185927
-0.485708
-0.180876
-0.0630078
0.165184
0.0458112
0.90174
1.02274
-1.11231
-1.63553
0.106876
0.167868
0.510285
0.592131
0.772276
1.00515
0.193353
0.753825
-0.318342
0.0786576
0.204983
0.859256
0.553398
1.02455
1.06932
0.980933
0.959085
-0.162898
0.690686
0.999954
-0.0180601
0.845019
0.606864
0.12095
-0.764208
-0.623426
1.02646
1.0159
0.0895512
0.0486805
0.0693521
0.8318
0.182907
0.589186
0.939921
0.783066
-0.291073
-1.34593
0.935813
0.531357
-0.0831999
0.0170782
1.22814
-0.037539
-0.117769
0.828958
1.06899
0.963734
0.116604
0.0853465
-0.145721
0.790441
0.0293768
0.372187
0.967109
0.901791
-0.422533
-0.0540044
0.952876
-0.184043
0.834298
1.0819
1.04529
1.02335
0.0922681
-0.0366561
-2.24347
0.100928
0.116911
0.103452
0.159397
-0.857172
0.411601
1.05639
1.0841
0.806068
-0.1433
1.03673
-0.00768328
0.053852
0.0981291
-0.928892
0.154595
0.154112
-0.141871
-0.312306
-0.172337
0.848219
0.0674097
0.133603
-0.0915066
0.0833417
0.177197
-0.0241785
1.10608
-0.40618
0.048174
-0.504205
0.649914
0.478225
0.000827937
0.49989
0.124468
0.141592
0.474327
0.95811
0.942262
0.11901
1.05125
0.761763
0.155575
1.13224
0.981001
0.87684
0.284123
0.084896
-0.553115
0.728315
-2.17999
-0.979899
0.0706746
0.196809
-2.91707
1.25
0.0767348
-1.88045
-0.0433926
0.989752
0.16017
0.117591
-0.080337
0.618639
0.0878222
0.164116
1.14047
1.1943
1.01223
-0.0628042
0.068404
1.26583
0.946612
0.23975
0.308118
-0.251903
-0.110151
1.06829
0.859437
0.796983
1.19478
-0.281314
0.0925765
0.0547655
0.0467372
0.0615692
-1.991
0.0442227
1.19124
0.146064
0.0221837
0.966127
0.41586
-0.477485
0.179977
-0.443502
0.125724
0.129343
-1.18267
-0.217539
-0.000529627
1.07275
0.101502
0.177003
1.00158
0.0888837
1.15115
0.189348
0.141528
-0.0446046
0.985094
-1.85136
1.01763
0.717084
0.107104
0.937464
0.0846346
-1.76601
0.0480364
0.89473
0.91032
-0.320689
-0.235714
0.126499
0.848672
0.139683
0.0938677
0.293232
0.869627
0.734473
0.573534
-0.23659
0.0545046
0.711203
0.0522564
0.787574
0.121992
0.996746
-0.284629
1.02008
-2.56642
0.723419
0.580173
1.02547
-0.0366614
0.941415
0.0473976
-1.90822
0.993277
0.117377
0.071394
0.218209
0.0397566
0.987722
0.12074
0.0827018
0.95973
-0.0351712
-0.0362496
-0.0159304
-2.04829
0.204468
0.107405
0.576106
-0.24656
0.940833
1.02281
-0.0976976
-1.1104
0.0845818
-2.05064
0.323864
0.195707
0.679186
0.0156124
0.058611
0.984611
0.0952861
0.115871
0.0544839
0.0817578
0.635916
0.0875499
0.0701608
0.119438
0.0887879
-1.3262
0.982811
0.131
0.999411
1.11549
1.10277
0.495034
1.0448
0.0130308
-0.723149
0.877711
-0.0252022
0.955051
-1.20158
0.0926328
0.180532
0.706305
-1.56028
0.127361
-2.50902
-2.35651
0.0516908
0.028551
0.591481
0.664204
0.0551524
-0.0105115
0.60872
-0.244113
1.01216
0.118794
-0.406628
-1.43906
0.593713
0.032372
1.06185
1.28283
0.188418
0.020652
-1.18811
0.164981
0.170439
0.923316
0.0428135
0.876569
0.666331
-1.22082
0.775036
0.736273
0.163
0.900206
0.100729
-0.517579
0.0903288
-2.01484
0.0936071
0.200508
0.0600813
0.951774
0.0211464
-0.00215895
0.425705
1.05638
1.10181
-0.583633
0.618128
0.0981482
0.639898
0.0658925
0.0963081
-0.311036
0.290826
0.67297
0.93792
0.102381
-0.132707
0.0490747
-2.5419
-0.520571
0.593535
0.108583
-0.0208203
0.192938
0.804199
0.123271
0.92829
0.0846573
0.0886792
0.908668
0.519719
0.200195
-0.247284
0.925979
1.18515
1.01482
0.10757
0.143853
0.673702
0.101941
0.652825
-0.0983942
0.243859
0.936894
0.136545
-1.65307
0.892981
-0.0278826
1.12647
0.0179823
0.749873
0.0531936
0.510394
-0.792458
1.12311
-0.888432
0.121376
0.824854
0.33227
0.368652
0.143991
-2.18064
0.0430946
0.711598
0.0919708
0.0635941
0.107079
0.981667
0.250044
0.124134
0.626156
0.756133
0.943744
0.097101
-1.76643
-0.269708
1.00152
1.05438
0.309644
1.00151
0.0758335
0.942851
0.0570828
-0.0526274
0.0829211
0.870001
0.950135
0.164764
0.701103
-0.89466
0.69392
0.17628
0.868235
0.832812
1.00459
0.0998771
0.799908
0.116864
0.0193552
1.06013
0.180676
0.119808
1.0009
0.0218279
0.980868
0.172178
-0.520241
0.915305
0.649434
1.25471
0.9581
0.157057
0.971074
0.970476
0.0852446
0.452232
0.0573227
-0.461554
1.39232
-0.488146
1.01441
-0.0679206
0.131856
0.97076
0.169904
0.950893
0.107455
0.785286
0.930583
0.960516
0.0120601
0.122681
-1.2456
0.546872
0.586261
0.960612
0.0876726
0.678333
0.100009
0.00150767
0.201642
0.711934
1.03506
-0.0284658
-0.196142
0.0711672
1.1269
0.0785157
0.573592
0.094134
0.149747
-0.145023
-2.65296
0.097303
0.737995
0.116483
0.0718084
-0.320644
-0.200399
-2.47623
0.0687133
0.046488
0.943048
1.01316
0.163697
-0.0237069
0.953796
0.916391
1.00691
0.125285
0.943556
0.957149
0.957766
0.946623
0.127036
0.0496263
-1.46647
0.441838
0.96178
0.564556
-0.13215
0.0481465
0.134353
0.0501376
1.15145
0.0552431
0.0467022
-0.274755
0.0699562
0.00253562
0.648043
-1.261
0.0584404
-1.72843
0.980521
0.981469
0.982542
-0.00385101
0.260495
1.12817
0.03523
0.949249
0.040425
0.0162209
0.607079
1.06815
0.967957
0.053356
0.931657
0.93549
0.0767172
0.0537762
0.981132
1.02952
1.05399
-1.23525
-2.19785
1.06286
0.456724
0.98228
-0.094155
-0.576159
0.0392998
0.0985552
0.0506153
-0.172457
0.0821823
0.0790305
1.04163
1.08747
0.679287
-2.14751
0.976245
0.0329143
0.0483912
-0.0163194
1.00882
1.01661
1.03062
1.08423
0.998566
0.980156
0.979151
0.0788146
0.0183224
0.0237895
0.0499628
-0.00093388
0.000590465
-0.0166898
0.0307862
0.0099629
0.0467885
0.0752495
1.00945
1.00876
1.01334
1.08103
1.07484
1.06814
1.07714
1.00557
0.994044
0.0267168
0.0651733
1.02405
1.05264
0.00465675
1.0739
1.05553
0.033175
0.0437938
0.0506537
0.1449
0.129335
0.985255
0.0515187
0.952295
0.483545
0.96719
-0.626673
0.99145
0.905416
0.934709
-1.67122
0.0789293
0.154217
0.0536989
-0.357658
-3.23988
1.00209
0.0272225
1.00984
0.989615
-0.578939
1.06241
1.21429
0.0750761
0.76135
0.521219
0.967661
1.00563
1.00454
-0.449157
0.285613
0.0277194
1.01584
1.0161
0.197903
0.0411312
0.988462
0.0379135
-0.801455
1.01639
0.0752855
0.949577
1.02735
-0.079579
0.99925
0.0436534
0.963413
0.978401
0.126661
1.00789
1.00564
0.0242501
0.587816
0.995995
0.981332
0.110507
-1.69056
0.576482
1.24661
0.993384
1.00186
0.993774
0.0365811
0.999427
0.935649
1.00206
0.987568
0.991698
0.999416
1.02221
0.0844694
0.12415
1.00228
0.978609
0.169473
0.103321
0.111151
0.0894597
0.820399
0.0708984
0.0994809
-0.00804487
0.980021
0.60047
0.0423003
0.0627277
0.0629733
0.087628
-0.0971475
0.0343289
0.0969091
0.109896
-0.892064
1.0022
0.0560387
0.99554
0.923771
-0.841396
1.13854
0.0823954
0.0424843
0.567046
1.02049
0.239081
-2.27923
0.967555
0.0509187
0.99857
0.0878507
0.998625
0.0172541
0.973006
0.0464572
0.109902
1.0208
0.975791
0.839156
0.0653837
-2.73477
-0.170978
0.0645721
0.991613
0.87328
0.0512393
0.954379
0.960994
0.954516
0.0637127
0.166082
-0.867477
0.147207
0.238724
0.98089
0.00185259
1.0167
0.164057
0.976668
1.10461
1.00411
-0.00735278
-0.00584067
1.06148
-0.0137919
1.00555
0.969019
-0.170004
-0.0219226
0.818942
1.03039
0.986225
0.966497
0.0672921
0.0851026
0.981213
0.225387
1.0182
0.719783
0.211793
-0.119107
0.795585
1.14143
0.962969
0.139509
0.101027
0.0556869
0.129153
0.0967121
0.938321
0.11106
0.934327
0.21684
-0.853904
0.0315212
0.323615
-0.0999105
0.094705
0.0878231
0.988297
-2.38393
0.788659
-0.387603
-0.590806
0.0731941
0.0330097
0.0917204
0.949973
0.0576908
-0.809813
0.0860698
0.0557429
0.976653
0.0921803
0.0196551
0.147222
0.977405
0.0846605
-0.392697
0.993699
0.943697
0.968608
0.438964
-1.08283
0.967508
0.963037
0.111821
-0.151017
0.990603
0.665323
1.148
1.00584
0.0814632
0.101211
-0.156731
0.205736
0.219435
-1.7403
0.0827254
-0.0682671
0.669826
-0.376644
0.969156
1.10896
0.97925
-2.57678
-0.0131534
0.96109
0.101371
0.0992701
0.972247
-0.0103608
0.195854
0.170311
0.0589725
0.908187
0.8808
0.0987435
0.689368
0.540837
0.11815
0.946529
0.116979
0.71805
-0.267668
0.88092
0.126865
0.271101
0.972685
0.985138
0.129552
0.190137
0.751394
1.26613
1.02042
0.905259
0.110748
1.13894
-0.474916
0.0751943
-1.53707
0.293575
0.117573
1.02372
1.05429
-0.273654
0.114399
0.952092
0.047465
0.749398
1.0586
0.884215
0.128251
0.98504
-0.00401457
1.03767
-0.000713449
0.0878806
-0.581955
0.969838
0.0388837
-1.04853
0.0917815
0.953082
0.0951774
1.08527
0.040974
1.21866
0.873302
-0.013418
0.947167
-0.417391
0.891852
0.946263
0.0640158
0.0941178
1.01735
0.955586
1.11975
0.922721
-0.0617463
0.900873
0.964585
0.784408
0.959627
-0.214461
0.143637
0.106725
0.99716
0.10561
0.0973128
-0.691516
0.104646
0.08404
0.0264971
0.748042
0.0758109
0.945254
0.959483
-0.122454
-0.0191401
0.0368933
0.0537817
-0.0451357
-0.378354
0.958019
0.118279
0.951066
1.12941
0.963359
-0.120691
1.05182
0.911416
0.0976258
0.905797
0.955739
0.223583
0.938091
0.828729
0.0854164
0.0948795
1.35906
0.114343
0.237673
0.087639
-0.00569031
0.997824
0.225673
0.0986425
-3.02829
1.03928
0.10748
0.735468
0.965628
0.929483
0.0668086
0.953041
0.117944
0.99607
1.00597
-0.266299
1.04547
0.329204
0.940124
0.592869
0.153624
0.00692066
-0.00185223
0.0713394
1.14057
0.0693912
0.957986
1.28994
0.0890191
0.0188879
1.10255
0.0148438
1.05666
0.0154999
0.0140787
1.06221
1.08979
0.23474
0.08625
0.63788
-0.765408
-0.0980112
-1.36615
0.954913
0.929146
1.32258
-2.40537
0.107408
0.607751
0.180018
0.983396
0.886969
0.920183
0.955767
0.948017
0.17783
-1.51154
0.160434
0.744212
0.873859
0.130624
-0.258804
-0.323235
1.01512
0.983332
0.0859738
0.189736
0.972001
0.108521
0.131742
0.649981
0.811593
0.0718134
0.132897
-0.0854465
0.147572
-1.02895
0.11897
0.119057
1.27136
1.26345
0.14564
0.160537
1.02371
0.957768
0.194985
-0.216437
-0.907195
0.519646
1.01113
0.0462046
0.995432
0.111108
0.104176
0.0210969
0.235846
-2.28644
0.92703
0.134059
0.0730461
1.25839
0.104234
0.984833
1.12621
-0.21972
0.938348
1.14866
0.0550009
1.14212
0.07384
0.0824754
0.925734
0.0644166
0.906239
1.02484
0.0399988
0.981728
-0.07915
0.183293
0.982583
0.925412
-1.92147
0.172448
0.881551
0.958352
-0.120612
0.145187
1.18116
0.00135828
0.836701
0.0822805
0.872492
-2.42901
0.147398
-0.353446
0.0879398
0.992038
0.970782
1.18709
1.10717
0.874316
0.997669
0.963678
-0.486176
1.03445
1.04117
-0.0561052
-0.0452973
0.22741
1.22215
0.117456
0.0525432
0.0753678
0.831697
-0.0136468
0.172286
0.91866
0.914784
-0.252988
-0.21077
0.0276217
0.0402958
0.14919
0.0221304
-0.648464
0.783359
0.780295
-0.46742
-0.619741
-1.82768
0.729779
-0.000421433
0.118299
-0.846146
0.836076
0.128504
-0.152779
1.22775
0.875614
0.315258
1.09283
0.0948639
0.874503
0.959875
1.03089
1.10673
0.0666159
0.554141
0.905124
0.0265078
-1.08323
1.32443
0.935403
0.826971
0.968637
-0.100638
0.107847
0.770786
0.712692
0.950453
0.160355
0.151813
0.964431
-0.647183
0.766166
0.0713629
1.31795
-1.32756
0.615706
0.609788
-1.02534
-1.60844
0.0817119
0.956758
-0.786708
-2.17464
0.566668
0.481994
0.227284
0.99657
0.719361
-0.601617
0.19363
0.896866
0.137851
-1.88246
-0.0370705
-3.12913
0.00850249
0.902657
0.951492
0.125848
0.472474
0.969262
1.2387
0.0884386
0.0780461
-0.0647969
0.777085
-0.912676
-1.29969
0.102601
-0.522349
-1.63186
0.925229
-0.730213
-0.0702885
-2.12111
0.401034
0.415175
-1.99095
0.498459
0.105145
0.327835
-2.28948
0.311536
-1.4217
0.200576
-2.38769
0.206103
-2.48059
0.704407
0.14692
-2.55198
-2.54398
-1.3937
1.03703
-0.209616
-2.47549
-2.35478
-0.261064
0.0577038
-0.948639
-1.0763
-2.39194
-0.506899
-2.29853
-0.506188
-2.28659
-0.844192
-2.37259
-0.79866
0.79371
0.0449671
0.165651
0.905757
0.135425
0.0597008
0.314777
0.947673
0.13729
0.140046
-2.39871
0.20618
0.748318
1.31865
0.0631429
0.078948
-0.22367
0.131998
-0.0750735
-0.637446
0.905852
0.207063
0.889348
0.0960666
1.39202
0.375241
1.32169
-0.285459
1.0881
-1.02718
0.907663
0.00624208
-2.40746
0.973071
0.963631
0.149049
-2.26515
-2.50565
0.862797
-0.0626884
0.964565
0.0651419
-0.0933798
-0.308119
1.20252
0.949757
1.00782
0.924959
1.00186
0.0809233
-0.083819
1.1061
0.118881
0.172822
1.31749
-0.215054
0.868135
0.861406
1.27054
1.32902
-0.199429
0.0898685
0.956887
0.0921299
-1.04163
-2.54357
0.0987141
0.138393
-0.18857
0.481916
0.221976
1.09972
0.100348
0.941756
1.03057
0.938432
0.09691
-1.06177
0.216366
1.01238
0.226808
1.07572
-1.0746
0.251512
1.13854
1.20443
-2.84007
-0.172025
0.950607
0.223108
0.227348
0.540211
1.1722
1.11777
0.112729
0.79873
0.734785
-2.73042
1.12927
0.098717
-0.36221
0.101541
0.0246468
0.0351552
1.01472
0.227613
0.0457927
0.0385626
0.0699707
0.209184
-1.53417
0.929225
0.149665
0.940029
-0.155055
-0.165438
0.580918
0.170229
-2.77956
-1.41373
-2.59061
0.0601223
0.0153096
0.0751016
0.827362
0.149278
0.110049
0.90752
0.181309
-0.0368557
1.02931
-0.181258
0.865861
0.0341126
-0.501908
-0.348269
0.675545
-0.607825
0.0901037
0.771987
-0.140196
1.00639
-1.36001
0.245557
0.150484
-2.60808
1.39191
0.166326
1.024
0.0387416
0.900079
1.08712
0.606991
0.937953
1.05937
-0.0564553
0.12644
0.919316
0.991083
1.26017
0.116997
0.970957
0.552528
0.0904043
0.671714
1.10636
-1.22639
1.24241
0.0430703
0.158509
0.713398
0.0571347
-2.74588
0.9546
-1.06919
0.995938
0.950566
0.875625
0.132158
0.805928
1.1611
0.18385
-0.239022
0.156573
-2.65541
0.231428
-1.96072
1.25105
0.618969
0.0723944
0.796682
0.0196091
0.236596
1.16906
1.12554
0.142637
0.200532
-2.32291
-0.224481
0.919531
0.0375083
-0.0700723
-0.431614
-0.171513
1.00523
-0.0771201
1.29083
0.98337
0.798231
0.941749
1.20116
0.245644
-0.0163749
0.91859
1.04186
0.206355
0.954061
0.165199
-0.399113
-0.158963
0.982728
1.01328
-0.290136
0.0749916
0.425693
-0.113704
0.0657288
0.915617
0.855297
0.217348
0.89747
0.941928
0.0350797
-0.0400848
0.10229
-0.552065
-0.188226
1.21064
0.0931194
0.8068
0.00721966
1.20732
0.845899
0.754997
0.843869
0.130433
0.0678892
-0.733782
0.385081
-0.179551
0.806834
0.067575
-0.194874
0.773137
0.897329
1.0556
0.9426
0.0186018
1.05188
0.0196653
0.293714
0.767172
-0.749273
-0.0786342
-2.22453
-1.23855
1.00734
0.858031
1.0203
0.103226
-1.79251
-0.956482
-2.6775
0.993607
1.18448
0.999347
-0.125112
0.240559
0.236775
-1.08389
-2.30918
-2.41323
-0.552453
0.94106
0.18233
-0.52722
0.010671
-0.377804
0.590167
0.13488
-1.20062
-0.0612391
0.838427
1.32976
0.0216426
1.03043
1.39159
0.520036
1.10893
-0.0132044
0.0600421
1.29626
-1.4439
0.192159
-0.24064
-0.170548
-2.86639
-0.890651
0.876936
0.597355
1.09188
1.05381
0.00872642
0.655071
-0.0566446
0.0552677
-1.75074
1.0403
0.59221
1.02935
1.06209
-0.00857039
-0.00438122
1.04704
0.085108
-2.80337
-0.676554
-2.57975
0.459647
-1.1614
0.947694
0.527117
-1.4544
1.12812
-0.090774
-0.863023
0.956662
0.230549
0.21197
0.105825
0.444459
-0.407321
0.041386
0.801844
1.04609
0.0587116
0.0183406
0.139377
-2.01917
0.112385
0.100018
-0.193796
0.445351
0.241476
-1.44194
1.1609
0.012526
0.147457
-1.81757
-0.129738
0.952025
0.938134
0.359143
0.36984
-2.16383
0.149872
-0.586518
0.263961
0.260998
-2.42972
0.771915
-0.151439
-2.55441
1.34768
-2.57294
0.10005
-0.209665
-2.06328
0.721374
-2.51978
0.0745076
-2.32674
-0.326441
-2.43435
-0.366661
0.163572
0.0293007
1.07439
-2.38275
-0.618087
-2.29508
-0.648866
1.23809
1.29472
1.12737
1.00603
1.1043
-1.76361
0.959451
-0.072978
0.933587
-2.38768
-0.401474
1.15906
0.012782
0.384983
0.119771
1.29841
-0.060591
1.23506
0.44203
0.724494
-0.3172
-0.180084
-2.42093
0.00583793
1.2067
1.09146
0.954038
0.554849
0.97517
0.74909
0.687902
-3.36635
-0.315361
0.214691
0.0165835
0.657889
0.971619
-0.348247
-0.257424
-2.98639
0.0631539
-2.41569
0.117323
1.24104
1.04286
1.03733
-0.0103033
-0.00637142
1.00898
0.105018
-2.09618
0.142606
0.107833
0.646317
-0.530396
-2.11478
-0.649838
0.939184
0.119956
-0.213451
0.97223
0.45639
0.590654
0.977587
-2.24061
0.742597
1.08191
0.71781
-2.3818
0.973639
0.150368
0.263847
0.251201
-0.917223
1.34531
0.173839
0.0379075
0.0607614
0.784879
0.859045
0.160974
0.1944
0.0391162
-0.118418
-2.06886
0.0903643
0.0178186
0.960313
0.138524
0.91547
1.17363
0.984466
0.905762
0.976552
1.03937
0.983562
0.215913
-1.44634
-1.06657
-2.34202
-0.269452
-2.25593
1.04568
0.938526
0.0228275
0.879188
0.214796
0.0797168
-2.68332
0.0746374
0.437644
-0.0017235
0.968206
0.7826
0.079552
-1.02183
1.23103
0.106792
0.100799
-0.0947268
0.11088
-2.06222
0.985421
0.633223
0.985622
0.19589
0.0958146
-2.19816
-0.809663
0.041199
0.0662558
0.217179
0.141546
0.787898
-0.478204
1.35386
-2.53352
-0.496066
-2.18605
-2.80639
0.815747
-2.43859
0.215589
-0.234131
-0.158183
1.08709
1.11294
0.128056
0.0937674
0.691547
-2.18493
-0.393313
1.00728
0.0729797
0.11324
0.0138301
0.614444
-0.388944
0.0590187
0.960844
0.00277385
-0.0868685
0.953823
0.233438
0.216648
0.162291
-2.26436
-0.00549826
0.0775335
1.20905
-1.24697
0.0863719
-2.37995
0.656955
-0.241916
0.24985
0.489869
0.646985
0.972652
0.931601
1.07612
-2.21446
0.75269
0.502725
0.213503
0.826643
-0.964724
-0.242417
0.124581
1.06967
1.05985
-0.162699
0.247768
0.23121
0.898074
0.229518
0.119566
0.00651645
-1.99913
1.17423
0.899373
-0.242845
0.133441
-0.197291
-0.409317
0.847036
-0.0270228
0.863078
-0.00557952
0.560132
0.702764
-3.28844
0.250529
0.820327
-2.63332
0.0108362
1.17362
-0.734213
-0.433612
0.683964
0.194724
0.106448
-0.118981
0.176361
1.24858
-0.505065
0.111418
-0.20898
1.20067
-0.122362
0.14976
0.484153
-0.0330999
-2.46613
1.2325
0.520168
0.898751
0.0902052
1.12332
0.0826423
-0.257401
0.0574263
0.0676239
-0.0958259
1.15496
0.404527
-0.19298
-0.147189
0.0893811
1.02104
0.186861
1.17598
-2.45537
0.633044
-0.674935
0.15137
0.360235
0.317965
0.218309
-0.0388566
0.173634
0.895494
0.0372193
-1.53646
-0.0816225
0.167904
1.21779
-0.173713
0.129009
-0.053544
-0.591953
0.00932959
-2.43214
-0.777771
0.723414
0.0591894
-0.31895
1.28435
0.0743267
0.20655
1.25462
-0.466297
-0.145928
0.20254
-2.54925
-1.05158
1.2583
-2.40836
1.17315
-1.18783
0.237199
1.06725
-0.0744666
0.183812
0.39129
0.161979
-0.345395
-0.284025
-0.728118
0.687413
-0.122593
-0.637471
-2.46196
-2.70843
-2.27287
0.756859
-0.611552
-0.163638
-0.279478
1.20157
-1.96779
0.117578
-1.85644
-0.459855
-2.21608
-3.13445
-0.359588
-0.013829
1.13808
-0.0650422
-2.34429
0.14969
-0.345643
-0.724625
-2.22368
1.28869
1.21872
0.208894
0.251637
-2.3283
0.0972793
-2.24611
1.29969
-0.0661178
0.964957
0.548149
1.18096
-0.228647
-2.21203
0.257098
-0.467145
0.0541421
-0.464021
-0.315144
-1.13851
1.19474
-0.0589124
-0.0481242
-0.0576931
-2.25905
0.247136
)
;

boundaryField
{
    frontback
    {
        type            empty;
    }
    Top
    {
        type            zeroGradient;
    }
    outlet
    {
        type            fixedValue;
        value           uniform 0;
    }
    bottom
    {
        type            zeroGradient;
    }
    Inlet
    {
        type            zeroGradient;
    }
    rectangle
    {
        type            zeroGradient;
    }
}


// ************************************************************************* //
