/*--------------------------------*- C++ -*----------------------------------*\
| =========                 |                                                 |
| \\      /  F ield         | OpenFOAM: The Open Source CFD Toolbox           |
|  \\    /   O peration     | Version:  2306                                  |
|   \\  /    A nd           | Website:  www.openfoam.com                      |
|    \\/     M anipulation  |                                                 |
\*---------------------------------------------------------------------------*/
FoamFile
{
    version     2.0;
    format      ascii;
    arch        "LSB;label=32;scalar=64";
    class       volScalarField;
    location    "28";
    object      p;
}
// * * * * * * * * * * * * * * * * * * * * * * * * * * * * * * * * * * * * * //

dimensions      [0 2 -2 0 0 0 0];

internalField   nonuniform List<scalar> 
2186
(
1.1115
0.018099
0.319433
1.42523
-0.790874
0.132464
1.03033
-0.532125
-0.487666
1.66994
1.33243
-0.575167
-0.526598
1.34131
-0.204096
1.34367
1.36894
-0.806148
0.109834
-0.675643
1.73138
-0.643235
1.34965
-0.649025
1.34115
1.39948
1.56475
1.25531
0.857028
1.34138
-0.654361
1.34146
-0.626481
-0.381581
-0.595218
0.349081
-0.44663
1.71525
-0.543191
0.0962081
-0.529156
-0.625199
-0.31802
-0.744523
1.19935
1.65037
0.704425
0.870032
-1.24001
-0.744672
-0.661317
1.17181
-0.312078
1.63928
-0.630847
1.30455
-0.369944
1.33232
-0.62828
1.14708
-0.865406
0.915382
0.820709
0.102106
0.846474
0.81191
0.937998
1.62443
1.52004
-0.473028
-0.532276
-0.858536
1.60133
1.35194
1.50061
1.51397
-1.02365
1.3633
-0.603349
-0.579522
-0.915457
0.106277
1.33666
0.894953
1.33058
1.33781
1.62144
0.133494
-0.0890907
-0.600864
1.3042
-0.679276
1.26362
1.51039
1.35034
0.677355
0.196625
0.866964
-0.763903
1.34577
-1.13039
-1.01831
0.928262
1.27941
1.37085
-0.675397
1.51441
-0.22153
1.2831
-1.02217
-0.541368
-0.737563
0.896726
1.62876
-0.536876
-0.593134
0.0577363
-1.39476
-0.600942
1.60627
0.204962
-0.759569
1.13075
-0.875959
1.34889
-0.0374287
-0.761453
1.5022
-0.82799
1.01142
1.74535
1.59994
0.593997
1.00316
-1.0148
-0.745155
1.27526
-0.396377
-0.446526
-0.560207
1.07132
0.147427
-0.534127
1.05447
1.25331
1.29054
-0.208033
-0.788845
0.961148
-0.714199
-0.723754
0.932476
1.36638
1.54209
1.39901
0.880411
1.61196
0.709903
0.605227
0.776381
-0.565675
-0.533382
1.31383
1.33966
0.0959536
0.131341
-0.525801
-0.6051
-0.250824
-0.342531
0.616297
1.3501
1.36964
1.46828
0.681246
-0.104084
-0.803243
1.31539
-0.637335
1.14683
-0.588318
1.35537
-0.667598
0.812654
0.788439
-0.788968
-0.68332
1.43056
-0.366015
-0.535864
-0.73458
1.59182
-1.09028
1.32627
-0.568024
-1.15113
0.315682
1.5107
1.36298
-0.650852
-0.545031
-1.26661
0.439151
1.37288
-0.584479
-0.757117
-0.614189
-1.26181
1.27795
-0.957826
0.871661
-0.0410125
1.61854
1.10215
1.20213
1.30421
1.48664
1.34451
1.25263
1.40793
0.730426
-0.607389
-0.649597
0.33777
0.545713
-0.802119
-0.767601
1.33064
1.4816
-0.69772
-0.529553
-1.47183
0.726577
1.00504
1.12215
1.25467
1.48154
-0.998292
1.23754
-0.547033
-0.757273
-0.609153
1.28948
0.99938
1.45267
1.52124
1.4112
1.38543
-0.541197
1.18234
1.43899
-0.532649
1.27467
1.04884
-1.48316
-0.585727
-0.623346
1.45285
1.36658
-0.529232
-0.30529
-0.586727
1.31375
-0.902628
1.03472
1.37624
1.20317
-0.579404
-0.664429
1.32149
0.914809
-0.147786
-0.336606
1.66643
-0.750967
-0.538187
1.18464
1.547
1.33257
-0.777476
-0.816377
-0.360892
1.22351
-0.52931
0.901709
1.31721
1.37212
0.156499
-0.0505626
1.29763
-0.590575
1.27971
1.55852
1.36246
1.35971
-0.221153
-0.726693
-0.664556
-0.911217
-1.56173
-1.11734
0.73604
-0.19789
0.872142
1.53426
1.50967
1.22331
-0.269757
1.47358
-0.565511
-0.0566068
-0.53064
-0.568636
-0.545563
0.706731
-0.717832
-0.698186
0.403228
1.24202
-0.950643
0.633271
-0.720366
-0.193311
-0.559557
-0.738061
1.55753
0.212642
-0.473557
-0.668693
1.14686
0.838813
-0.223867
0.875757
-1.11795
-0.535217
0.927586
1.36865
1.37191
-1.22583
1.49066
1.24804
0.631822
1.60987
1.33855
1.28114
0.722743
-0.577243
-0.555635
1.1633
-0.759093
-0.642324
-0.541964
-0.64099
-0.609244
1.67894
-0.872824
-0.664839
-0.536517
1.33833
-0.815418
-1.46111
-0.718711
1.11808
-0.327356
-0.552651
1.58564
1.64713
1.49023
-0.531193
-0.790989
1.69156
1.3435
-0.751685
0.714852
-0.544194
0.530065
1.50499
1.28927
1.22019
1.65944
-0.145007
-0.609971
-0.749663
-0.509896
-0.492421
-0.621978
0.0924821
1.6172
-0.830511
-0.382083
1.32886
0.94087
-0.580761
-1.0471
-0.551435
-0.776564
-0.535751
-0.57482
-0.664598
-0.75915
1.53957
-0.534223
-0.585732
1.35722
-0.540386
1.62829
-0.660064
-1.26096
-0.712237
1.34041
-0.585111
1.36508
1.20645
-1.04582
1.39164
-0.766256
-0.585408
-0.538985
1.3739
1.28526
-0.582139
-0.54651
-0.529322
1.28601
-0.545971
-0.264596
0.769826
1.26783
1.22452
1.05225
-0.569319
-0.784364
1.14554
-0.346899
1.15082
-0.604291
1.36285
0.192379
1.49199
-0.599164
1.21191
0.999265
1.37212
-0.558108
1.33443
-0.563248
-0.586164
1.34364
-1.44133
0.381665
-0.641493
0.0682729
1.34563
0.471657
0.646785
1.34235
0.488057
0.245493
0.159648
-0.664431
0.60367
-0.529846
0.990651
-0.49758
1.36942
1.4993
-0.542008
-0.571392
-0.668625
-0.642422
0.692993
-0.568651
1.11541
0.339815
-0.53043
1.42328
-0.619856
0.62531
0.655204
-0.426888
1.07588
0.595571
-0.833398
-0.654725
-0.282099
-0.55528
1.35759
-0.78896
1.45651
1.59177
1.57643
0.929539
1.46933
-0.766658
-0.573571
1.24046
0.576731
1.33008
-0.623835
-0.529962
-0.671301
1.13913
-0.577975
-0.476325
-0.670084
-0.712871
0.216682
-0.283487
1.02203
1.00454
-0.457897
-0.226025
1.10914
0.434666
1.43777
-0.436867
0.0428486
-0.576361
1.03736
-0.245755
1.53897
1.70635
-0.812192
-0.766218
-0.503011
0.550344
-1.01026
1.4019
-0.245463
1.35682
1.06315
-0.683969
1.1829
1.14464
-1.36602
1.22055
-0.874645
-0.680156
-1.04206
-0.560934
-0.827699
-0.889302
-0.586933
1.34423
0.463668
-0.746272
0.949131
1.49127
1.57879
0.00894097
1.09991
-0.221581
1.13675
-0.321446
-1.10518
-0.694613
0.763046
1.10936
1.37431
-0.279258
-0.56208
-0.503106
-0.601268
0.245988
1.08874
-0.162526
0.144356
-0.569199
1.24238
-1.09269
1.28847
-0.804181
-0.547364
1.29204
1.01208
-0.983881
0.0479325
1.3004
1.65888
1.36497
-1.13762
-0.812594
1.15411
-0.740485
1.14027
-0.397473
0.706402
1.29731
-0.540261
-0.663883
1.33216
-0.549803
1.55562
0.202271
1.23823
-0.0195896
0.978595
-0.615662
1.5863
-0.669874
-1.08682
1.25375
0.788732
0.774726
-0.530729
-0.661063
-0.289127
1.0864
-0.178812
-0.712277
-0.914075
1.35837
0.657433
-0.777311
1.04144
1.19125
1.32175
-0.325593
-0.567715
-0.688591
1.35657
1.48515
0.850782
1.35269
-0.156198
1.40885
0.0215754
-0.280441
-0.672918
1.26721
1.31169
-0.578409
1.13639
-0.674622
1.10916
-0.77972
1.29854
1.3041
1.35886
-0.565741
1.2286
-0.988547
-0.568987
1.51453
-0.85869
-0.539312
1.43988
-0.385787
1.41244
-1.07753
-0.68471
1.34284
1.13898
1.72485
1.34217
-0.894589
1.44903
1.4064
-0.748141
0.909086
-0.10244
-0.583187
1.84073
-0.554956
1.45061
-0.731123
0.660467
1.34293
-0.549554
1.32785
-0.276221
1.21826
1.29272
1.35748
0.1056
-0.546035
-0.246411
0.931177
1.01289
1.41878
-0.50601
1.11613
-0.445152
-0.188379
-0.782372
1.18976
1.51282
-0.736709
-0.598813
-0.167538
1.57274
-0.262474
1.01709
-0.0802292
-1.22139
-0.536318
-0.65834
-1.00255
1.11393
-1.18948
-0.820152
-0.0955882
-0.153835
-0.689457
-0.539766
-0.538979
1.30715
1.36165
-0.536083
0.0171834
1.32222
1.27935
1.36181
-1.19204
1.31995
1.40573
1.34011
1.42512
-1.45921
-0.160906
-0.666083
0.894216
1.34564
1.06701
0.515316
0.241772
-0.791325
0.0724274
1.62724
-0.47879
0.093651
-0.26212
-0.0314021
-0.530401
1.07987
-0.663617
-0.545223
-0.585607
1.3411
1.34443
1.35194
0.0110182
0.606378
1.60676
0.30976
1.34081
-0.0368712
0.0770859
1.05218
1.36091
1.39485
0.168437
1.31447
1.31315
-0.92014
0.143158
1.35251
1.36518
1.36242
-0.572147
-0.647091
1.36265
0.969073
1.34479
0.459555
0.102679
0.185919
-0.410698
-0.55166
-0.688256
-0.25764
-0.218231
1.36796
1.37236
1.06291
-0.611197
1.34077
0.350951
0.051693
-0.00962483
1.34283
1.36729
1.36339
1.37545
1.35213
1.34503
1.33509
-0.251133
-0.0179279
0.0840544
0.105865
0.0508989
0.0736784
-0.0200491
0.250954
0.368064
0.323845
-0.212101
1.33763
1.35701
1.35194
1.37426
1.37167
1.36344
1.3664
1.34688
1.34967
0.3026
0.062313
1.36385
1.36317
-0.0320591
1.36559
1.36367
0.117555
0.125413
0.178673
-0.821148
-0.722387
1.34598
-0.528874
1.34373
0.984479
1.43957
-0.55791
1.34382
1.27875
1.29397
-0.662661
-0.621888
-0.537238
0.251118
0.194821
-0.655813
1.35845
0.144923
1.43451
1.34914
0.0522238
1.48673
1.64059
-0.0617365
1.19718
1.02583
1.34156
1.35958
1.3533
-0.557812
0.753875
0.1211
1.3484
1.35858
-0.567618
0.243893
1.34978
0.0868715
-0.119647
1.3496
-0.351885
1.32733
1.36165
-0.323581
1.3557
-0.0610796
1.34608
1.41377
-0.943024
1.36177
1.36928
0.219635
0.990755
1.34782
1.35177
0.40795
-0.558549
1.08025
1.72093
1.35795
1.34971
1.35352
0.135898
1.34932
1.33701
1.35475
1.34922
1.35148
1.34864
1.44838
-1.25275
-0.226484
1.35094
1.34417
0.555134
-0.377833
-0.733463
-1.33824
1.20525
-0.347728
-1.50327
0.166193
1.34623
1.08676
0.274573
-0.659172
-0.00782399
-0.945782
-0.686173
-0.000268717
-1.37685
-0.804199
-0.116065
1.35424
0.270598
1.34151
1.25704
-0.57147
1.56625
-1.35004
-0.748492
1.1024
1.44566
0.726215
-0.593372
1.34374
-0.194117
1.35205
-0.758324
1.35246
-0.553619
1.34368
-0.110441
-0.763937
1.35434
1.36925
1.28117
-0.390741
-0.601756
-0.53357
-0.358186
1.3672
1.23987
-0.0955499
1.34363
1.387
1.33589
-0.207029
-1.00692
-0.302475
-1.51957
0.695184
1.34982
0.0296612
1.34826
-1.18452
1.34519
1.38389
1.3561
0.0304502
-0.00496862
1.38255
-0.536727
1.35821
1.36134
0.378174
-0.52996
1.24942
1.46728
1.34164
1.33739
-0.679323
-0.972554
1.31959
0.776956
1.35653
1.20823
-0.785389
-0.53634
1.18084
1.60298
1.34532
0.707271
-1.61919
-0.0683964
-1.56196
-1.55726
1.33322
-0.964141
1.32936
-0.83846
-0.564259
-0.772191
0.745681
-0.57094
-1.74207
-0.968187
1.34259
-0.595695
1.2203
-0.548705
0.192774
-0.658338
0.309951
-1.3139
1.31451
-0.150825
-0.591923
-0.875257
-0.770276
1.33587
-1.21153
0.325632
-1.31761
1.41328
-1.58115
-0.552819
1.41439
1.33425
1.3258
0.842169
-0.579972
1.34952
1.3742
-0.618062
-0.718604
1.34216
1.16032
1.57981
1.3627
-1.01888
-1.07652
-0.714643
-0.587397
-0.768189
-0.583166
-0.161534
-0.609512
1.1641
0.34436
1.35433
1.54724
1.34062
-0.600209
-0.549741
1.3441
-0.95202
-0.843175
1.32565
0.131868
-0.815046
-1.20902
-0.955604
1.28953
1.26063
-0.761623
1.18601
0.983221
-1.33241
1.33127
-0.558411
1.14409
-0.650258
1.33916
-1.66226
0.784851
1.34521
1.41059
-1.40407
-0.867704
1.1643
1.71738
1.36541
1.33612
-1.07761
1.61767
-0.610439
-0.979051
-0.459894
0.836
-1.50533
1.45551
1.5244
-0.543973
-0.584132
1.3409
-0.623926
1.20975
1.37479
1.30684
-1.35036
1.34543
0.0616566
1.37358
0.0294124
-1.26019
0.105619
1.34858
0.0491819
-0.250613
-1.81328
1.35196
-1.49759
1.51643
0.628234
1.64837
1.30221
-0.646295
1.32821
-0.685978
1.31497
1.31699
-0.607581
-1.7073
1.44972
1.33278
1.54673
1.29766
0.448858
1.29927
1.33536
1.19875
1.35224
-0.639852
-0.775584
-1.2983
1.45049
-0.353179
-0.494088
-0.67371
-0.456411
-1.55932
0.0868006
1.18073
-1.38401
1.30295
1.35919
-0.724267
-0.470502
-0.687116
-0.342173
-0.740227
-0.690443
1.34836
-1.55892
1.362
1.59984
1.40263
0.0563952
1.36873
1.27552
-0.253147
1.30979
1.3274
-0.766469
1.32672
1.26085
0.0859751
-0.789113
1.81491
-1.62401
-0.737687
-0.527664
0.602862
1.32474
-0.797967
-1.05841
-0.653852
1.4794
-0.762497
1.17081
1.35832
1.3321
-0.302718
1.3188
-1.51373
1.35823
1.37312
-0.19573
1.36343
0.802059
1.33785
1.07031
-1.28385
0.216546
0.0415275
0.138105
1.57383
0.274692
1.37304
1.72731
-0.719308
0.00574804
1.41204
0.0149372
1.40922
0.0419868
0.10396
1.40821
1.41297
0.791664
-0.558188
1.07797
-0.58308
-0.715851
-0.470808
1.36801
1.34597
1.79482
-0.595005
-0.767323
1.10818
-0.549663
1.41814
1.32352
1.33949
1.3365
1.3056
-0.692953
-0.58138
-0.53589
1.14356
1.26409
-1.54348
-0.703135
-0.55299
1.36186
1.38171
-0.398731
-0.974117
1.38244
-1.37077
0.514147
1.08802
1.24196
-0.729016
-0.529948
0.0314504
-0.549575
-0.589962
-0.178737
-1.49057
1.75055
1.68492
-0.841943
-0.569633
1.36183
1.33841
-0.778452
0.304391
0.00758312
0.966595
1.44135
-0.432447
1.35302
-1.11894
-0.527892
-0.698305
-0.763197
-0.752681
1.33235
-0.549324
-0.380554
1.69322
-0.537018
1.35458
1.56117
-0.705792
1.4169
1.62795
-0.785567
1.56636
-0.530697
-0.529003
1.35753
-1.01649
1.38559
1.35658
-0.528112
1.40908
0.51482
-0.706366
1.38856
1.4044
-0.538409
-0.557901
1.28906
1.34698
-0.533016
-1.4825
1.60576
-0.527931
1.25278
-0.20056
1.29313
-0.604329
-0.565615
-0.545822
-0.800995
1.41693
1.38291
1.66657
1.53075
1.30128
1.40762
1.38905
-0.551367
1.45803
1.51788
-0.746332
-0.529505
-0.759946
1.64631
-1.36991
-0.531499
0.0546653
1.26051
-0.759658
-0.869097
1.34531
1.39359
-0.54102
-0.713396
-0.53209
0.302176
-1.42723
-0.771951
-0.557021
1.21257
1.2657
-0.69026
-0.202695
-0.49786
1.16246
-0.529417
-0.820196
-0.562771
1.31751
-0.582517
-0.722968
1.70747
1.24732
0.766209
1.57092
-0.349962
1.35368
1.3587
1.47379
1.58462
-1.11801
1.00025
1.33653
0.63541
-0.568584
1.76961
1.31451
1.26607
1.41451
-0.734134
-0.434735
1.21062
1.13555
1.31415
-0.573819
-1.05561
1.33608
-0.566093
1.18154
-1.0794
1.73718
-0.574768
1.05604
1.11077
-0.673367
-0.580643
-0.847086
1.42703
-0.678446
-0.594633
1.07172
0.935371
-0.651765
1.41442
1.19858
-0.683605
-0.940019
1.29931
-0.453558
-0.586774
-0.544013
-0.653502
-0.275606
1.32394
1.36049
-0.909572
0.991492
1.35406
1.68345
0.647238
0.596267
0.319883
1.25262
-0.0791075
-0.669076
-1.27706
-0.338788
-0.666001
1.33968
-0.671122
0.481664
-0.591206
0.865231
0.941646
-0.661673
1.00745
-0.29743
0.869047
-0.658229
0.787767
-0.670361
0.764096
-0.599034
0.700782
-0.655318
1.19092
-0.581839
-0.656054
-0.663213
-0.590087
1.36359
0.46187
-0.693598
-0.607602
0.342554
0.423021
-0.667701
-0.582719
-0.739187
0.255199
-0.62131
0.17154
-0.65486
-0.0448993
-0.820786
0.0824119
1.2317
0.056419
-0.601451
1.32754
0.209338
-0.122106
0.816343
1.32055
-0.927431
-0.891815
-0.603864
-0.727829
1.24825
1.75047
-0.49762
-1.45074
0.395982
-0.548556
-0.117427
0.0101147
1.31741
-0.803194
1.30398
-0.997026
1.80888
0.822084
1.79792
-0.705018
1.56617
-0.293687
1.37799
-0.294273
-0.602067
1.45078
1.34458
-1.18782
-0.592302
-0.660184
1.31141
-0.654722
1.33286
-0.806288
-0.550428
-0.545174
1.65113
1.38105
1.48562
1.35945
1.36443
-1.42171
-0.106897
1.53123
-0.26581
-0.578003
1.74085
-0.699739
1.25681
1.31055
1.72407
1.79328
-0.696832
-0.540834
1.38585
0.596279
-0.0865666
-0.608268
-0.868963
-0.611946
-0.710465
0.91595
-0.767172
1.57745
-0.32703
1.3741
1.47267
1.37869
-0.932812
-0.597339
-0.590519
1.4384
-0.619612
1.49901
-0.486195
-0.702113
1.56448
1.68147
-0.614346
0.386782
1.29658
-0.625067
-0.770241
1.02389
1.59832
1.58321
-0.768399
1.22155
1.17172
-0.600371
1.5978
0.591227
-0.696857
-0.918426
0.150311
0.0606163
1.44772
-0.674673
0.567093
-0.0233765
-0.110799
-0.788551
-0.611196
1.33732
-1.05188
1.36439
0.189357
0.457539
1.05115
0.630658
-0.604802
-0.375734
-0.82286
-0.365671
0.0795503
-0.904432
1.26022
-0.564078
-0.204976
1.35045
-0.549875
-0.747862
1.36182
-0.632777
1.29778
0.11841
-0.566848
0.0357822
1.14941
-0.511892
-0.475464
1.24718
-0.548637
1.42429
-0.213917
-0.645181
-0.556683
-0.598524
1.85879
-1.32909
1.48615
0.0362381
1.31374
1.53173
1.08258
1.37867
1.48473
0.124658
-1.34984
1.32004
1.45871
1.72666
-0.541129
1.39366
0.991447
-0.532127
1.15339
1.58579
-0.341998
1.66574
0.442138
-0.859414
1.20159
-0.528247
-0.659403
1.29261
-0.225059
1.40803
1.42976
1.30278
-0.832676
1.24007
1.58544
-0.782086
-0.0731785
-1.48292
-1.00559
-0.616767
-0.587065
1.73057
1.11712
-0.793995
1.28149
-0.527136
-0.652621
1.64853
1.54939
-0.995074
-0.61694
-0.596451
-0.554483
1.32852
-0.778387
0.443753
-0.650099
-0.20611
1.41445
-0.52996
1.71141
1.3938
1.23511
1.36839
1.62559
-0.676035
-0.527518
1.37041
1.5096
-0.855907
1.35696
-1.21391
-0.547412
-0.536394
1.40811
1.43717
-0.542167
-0.778578
0.912457
0.29437
-0.769495
1.32884
1.28323
-0.729765
1.32414
1.36779
-0.556905
-0.752051
-0.810561
-0.553491
-0.539463
1.68551
-0.690977
1.23554
-0.767834
1.68696
1.22266
1.18546
1.28097
-0.580744
-0.446305
-0.559329
0.837147
-0.718373
1.28981
0.663458
-0.355688
1.19879
1.37614
1.38714
1.35456
0.0395902
1.38832
0.0572482
0.777177
1.13574
-0.334486
-0.739589
-0.759579
-0.470828
1.36015
1.33851
1.35972
-0.456565
-0.44552
-0.565207
-0.588668
1.35651
1.61356
1.36993
-0.728432
-0.743162
-0.692519
-0.314105
-0.593529
-0.598359
0.0479269
1.34239
-0.888204
-0.687102
0.0310126
0.273223
1.03272
-0.932393
-0.571818
-0.550097
1.2752
1.78158
0.158382
1.45306
1.82447
0.969485
1.54366
-0.754036
-0.557152
1.77437
-0.577558
0.672937
-0.709307
-0.536015
-0.654857
-0.676363
1.33343
1.10019
1.51518
1.4768
0.0545978
1.14722
0.321897
0.0235676
-0.583641
1.46121
1.03457
1.36505
1.38175
0.20181
0.0822008
1.3797
-0.325757
-0.603257
-0.681348
-0.666689
0.950417
-0.671863
1.31161
1.03658
-0.578607
1.60747
-0.731001
-0.0851361
1.33204
-0.725685
-0.596985
-0.350258
0.902592
-0.693852
-0.768325
1.23106
1.37334
-0.210747
0.412162
-0.407795
-0.589024
-0.498126
-0.820771
0.171182
0.96905
-0.647737
-0.668956
1.58787
0.544471
0.651729
-0.664108
-0.533889
1.34973
1.41664
0.828542
0.903725
-0.659876
-0.556291
-0.433397
0.747875
0.812657
-0.656708
1.18178
0.420391
-0.652885
1.76769
-0.656248
-0.406342
-0.53812
-0.599993
1.21211
-0.673208
-0.79063
-0.611126
0.374655
-0.712896
0.26727
-0.839663
0.295227
1.5081
-0.772683
0.191221
-0.638282
0.0772855
1.66326
1.76756
1.55304
1.35555
1.52917
-0.497522
1.34116
-0.739911
1.41255
-0.605132
-0.640551
1.63795
-0.339765
0.843522
-0.891067
1.76168
0.2178
1.69849
0.900749
1.10102
-0.70098
-0.716835
-0.602008
-0.744732
1.66114
1.52681
1.33819
0.986071
1.34481
1.23669
1.1227
-0.653641
-0.562378
0.53739
0.247982
1.09613
1.35754
0.336393
-0.699077
-0.650295
-0.594504
-0.602839
-1.2689
1.7193
1.37628
1.35268
0.138426
0.0641374
1.37591
-0.728937
-0.589716
-0.273061
-0.539789
1.08505
-0.685027
-0.660424
0.0535957
1.34852
-0.537648
-0.539497
1.34413
0.977089
1.06858
1.34225
-0.5944
1.18061
1.54469
1.20647
-0.597114
1.33883
0.724078
0.747292
-0.673717
-0.674405
1.78049
0.613156
-0.789564
0.397979
1.22102
1.30347
-0.566195
-0.586746
0.172463
-0.644672
-0.531159
-0.796358
0.044889
1.33703
-0.774293
1.33217
1.63724
1.46257
1.32719
1.41034
1.47336
1.34609
-0.668224
-0.299441
-0.183176
-0.682612
-0.500903
-0.658614
1.48168
1.37258
-0.529864
1.31499
-0.821893
-0.647729
-0.657169
-1.11173
0.897134
-0.565015
1.33332
1.21364
-0.807164
-0.0388818
1.68203
-0.54793
-0.491367
-0.573867
-0.800467
-0.625856
1.39026
1.07942
1.45433
-0.569812
-0.672155
-0.563397
-0.128341
-0.528968
-0.281285
-0.801664
-0.508822
1.22298
-0.424956
1.82541
-0.91309
-0.218599
-0.630339
-0.657405
1.28072
-0.637379
-0.592698
-0.632213
0.0513148
1.51144
1.58276
-0.466717
-0.6409
1.13085
-0.619652
-0.544411
1.4609
-0.86329
-1.28561
-0.741666
1.05438
-0.0737756
-0.530145
1.33731
0.286643
-0.703473
1.34803
-0.783627
-0.825787
-0.781396
-0.737869
0.289118
-0.532207
1.637
-0.573578
0.525447
-0.604252
1.09665
-0.584136
-0.68134
0.94311
1.11456
1.40292
1.30989
1.51038
-0.671871
1.19712
0.908473
-0.786
1.26556
-0.144953
-0.604004
-0.489993
1.54046
1.52427
-0.59605
-0.71621
-0.623347
1.32493
-0.779089
0.349967
-0.591468
-0.662921
1.60376
1.33222
-0.70827
-0.826247
-0.708721
-0.692561
1.24183
-0.748828
1.29565
0.505789
1.00518
1.14221
-0.638305
-0.731019
1.25547
-0.661349
0.0760348
1.62763
-0.561224
-0.688549
1.12091
-0.790793
-0.80559
0.172338
-0.567594
1.70632
-0.280669
0.506655
-0.713192
1.67968
-0.726968
-0.832603
0.938064
-0.581244
-0.604885
1.69427
0.969231
1.37721
-0.799083
1.54784
-1.00897
-0.426972
-0.784449
-0.784991
-0.7331
1.58049
0.867269
-0.541352
-0.722905
-0.534388
1.45668
-0.8675
1.65468
-0.603374
1.03663
-0.680052
0.653194
0.828643
0.792779
0.707846
0.547496
-0.844551
1.32984
-0.77725
-0.481475
-0.57266
0.634925
1.69561
0.0620112
-0.807607
-0.740962
-0.683543
0.541355
-0.905185
-0.67666
1.21166
0.548904
-0.698934
1.76105
-0.532343
-0.868384
1.71472
-0.687875
0.420883
-0.829972
-0.658079
-0.672883
1.73488
-0.648007
1.63442
-0.670232
-0.759621
1.5029
0.146401
-0.826528
0.856887
-0.558263
0.280025
-0.0577112
-0.677524
1.15951
-0.560906
-0.678302
-0.660094
-0.659201
-0.60831
1.19577
0.0977873
-0.0601957
-0.702735
1.6608
-0.501785
-0.813456
-0.631184
0.192991
-0.794929
-0.641535
-0.696475
0.268925
1.56317
-0.737619
-0.596266
-0.786984
-0.364044
0.0129866
-0.613298
1.74851
1.67525
0.69883
-0.721685
-0.60533
0.609504
-0.601886
1.755
0.482509
1.44344
0.996566
1.65842
0.357894
-0.803778
-0.69729
0.197375
-0.777939
0.197016
0.246568
-0.669918
1.65282
0.0900474
0.494881
-0.0138832
-0.581666
-0.736729
)
;

boundaryField
{
    frontback
    {
        type            empty;
    }
    Top
    {
        type            zeroGradient;
    }
    outlet
    {
        type            fixedValue;
        value           uniform 0;
    }
    bottom
    {
        type            zeroGradient;
    }
    Inlet
    {
        type            zeroGradient;
    }
    rectangle
    {
        type            zeroGradient;
    }
}


// ************************************************************************* //
