/*--------------------------------*- C++ -*----------------------------------*\
| =========                 |                                                 |
| \\      /  F ield         | OpenFOAM: The Open Source CFD Toolbox           |
|  \\    /   O peration     | Version:  2306                                  |
|   \\  /    A nd           | Website:  www.openfoam.com                      |
|    \\/     M anipulation  |                                                 |
\*---------------------------------------------------------------------------*/
FoamFile
{
    version     2.0;
    format      ascii;
    arch        "LSB;label=32;scalar=64";
    class       surfaceScalarField;
    location    "28";
    object      phi;
}
// * * * * * * * * * * * * * * * * * * * * * * * * * * * * * * * * * * * * * //

dimensions      [0 3 -1 0 0 0 0];

oriented        oriented;

internalField   nonuniform List<scalar> 
3181
(
-1.0092
0.386922
0.622278
-0.383091
0.358489
0.024602
0.510787
-0.351991
-0.158797
0.114329
-0.191253
0.0769236
-0.0404974
0.0556847
-0.0151873
0.824962
0.921918
-1.74688
0.144535
-0.138403
-0.00613209
-0.0101133
0.00304784
0.00706546
0.517474
-0.777964
0.260489
-0.0765592
0.12999
-0.0534308
-0.0105068
-0.0535685
0.0640753
0.135461
0.042208
-0.177669
-0.00997703
0.0134447
-0.00346766
-1.09928
0.154515
0.944763
-0.316751
0.685882
-0.369131
-1.12335
0.641475
0.481879
0.0844872
-0.930628
0.846141
-0.110738
0.177624
-0.0668862
-1.06292
-0.408631
0.000221596
0.0693516
-0.0695732
0.0501159
-0.0941391
0.0440232
-0.0713028
0.0653837
0.00591916
1.06441
-1.04176
-0.0226574
0.0394033
0.028285
-0.0676884
-0.958313
0.331907
0.626406
-0.106406
0.220735
0.302742
-0.255262
-0.0474799
0.0286417
0.0604676
-0.0891093
-0.424699
0.350836
0.0738635
-0.0348645
-0.0181491
0.0210562
-0.00290701
-0.0422776
-0.916035
0.0789055
-0.0632936
-0.0156119
0.34795
1.12621
-1.47416
-0.0633205
0.0547192
0.00860136
0.18445
0.285581
-0.47003
1.71642
-1.36847
0.0763261
-0.0262102
1.59841
-0.841696
-0.756717
-0.757353
1.58232
0.0082438
-0.0182208
-0.0638491
-0.00745369
-0.402796
0.086045
-0.151138
0.087289
-0.646769
0.125185
0.521584
-0.140434
0.063875
-0.164707
0.168774
-0.00406694
-0.262523
-0.0761187
0.338642
0.151936
1.37461
-1.52655
0.0650753
0.0942181
-0.159293
-0.0179275
-0.103999
0.11035
-0.00635036
0.49597
0.189913
-0.0942861
0.151148
-0.0568617
0.0817865
-0.00288101
-0.165063
0.190213
-0.0251506
0.158719
0.0579182
-0.216637
0.105239
-0.111013
0.00577375
1.28158
0.316834
-0.831525
-0.177674
0.0280421
-1.69565
1.66761
0.565249
0.240743
-0.805992
-0.45661
-0.215078
0.671688
-1.53693
0.779578
-0.282964
0.848213
-0.313008
-0.103111
0.416119
-0.212553
-0.212146
-0.1837
0.171339
0.0123613
0.151675
0.277214
-0.428889
-0.274744
0.792218
-0.0126704
0.00255711
-2.07999
2.10803
0.17367
0.129072
-0.168832
-0.110874
0.279707
-0.267438
0.366043
-0.0986047
-0.0770133
0.0855189
-0.00850555
-1.92805
-0.919917
0.0107279
0.909189
-0.0315577
-0.0317628
-1.10897
0.826836
0.282129
0.325393
-0.171829
-0.153564
-1.39084
-0.146091
1.10213
-0.947613
-0.739574
1.14674
-0.201973
1.05985
0.177924
-0.170682
-0.00724228
1.54702
-0.625104
1.40334
-1.40334
-0.00746885
-0.00267365
0.0101425
-0.202721
-0.0532553
0.255976
0.0905985
-0.0764763
-0.0141223
-0.456489
0.822921
-0.366433
-0.0322331
-0.219709
0.251942
-1.08416
0.0424027
0.3591
0.0564454
-0.415545
0.127696
-0.883601
1.12434
0.0591046
0.0624281
-0.121533
-0.0180143
-0.147048
-0.267176
-0.0212625
0.288438
-0.101092
-0.166084
0.124573
-1.00817
0.316806
-0.773295
0.925229
-0.840742
0.0179742
0.109214
-0.127188
0.0904951
0.0540678
-0.144563
-1.27733
-0.133743
1.41107
-0.23315
0.397442
-0.164292
-0.907114
0.0615071
0.845607
-0.489626
-0.619339
0.101354
-0.0362785
-0.148971
0.143464
0.00550706
-0.0790025
-0.0185635
0.0975659
-0.595772
-0.182192
0.0524927
-0.0128498
-0.0396428
-0.902102
-0.680499
1.5826
1.85016
-0.475541
-0.0219782
0.0145093
0.0234072
0.150263
-0.207499
0.391949
0.0397971
0.117836
-0.157633
0.144586
0.0708906
-0.215477
-0.0420684
0.260425
-0.218357
-0.593941
-0.529413
-1.441
0.538899
-0.0311575
0.0902622
-0.0977741
0.176044
-0.07827
-0.152807
0.0239291
0.120606
-0.0564442
0.0643809
-0.00793667
-0.090568
-0.0195418
0.11011
0.073047
-0.073047
-0.17967
0.203599
0.224301
0.134015
0.100411
0.0898018
-1.19732
0.922575
-1.60687
0.102434
1.50444
0.0143613
-0.0161621
0.00180072
-0.0276289
-0.0533702
0.0809991
0.516015
-0.0139607
-0.502054
0.00152195
-0.00230698
0.000785027
-0.193566
0.0138955
0.167783
0.655139
-0.354436
0.522218
-0.101172
-1.17615
-0.0945421
0.0540447
0.472239
-0.29208
-0.180159
0.0771253
-0.0742647
-0.00286062
0.0474651
-0.309988
0.0231597
-0.943077
0.0483648
-0.146139
-0.275238
-0.389127
0.0836378
1.4314
-0.965907
-0.465489
1.11919
0.31221
0.0658029
0.272839
0.00875629
0.00560505
0.10157
0.0442806
-0.145851
-0.247471
-0.596659
0.84413
-0.344024
0.484101
0.418407
-0.827039
0.174864
0.0317637
-0.0266804
-0.0050833
-1.85551
0.145611
1.70989
-0.095933
-1.75957
-0.313872
0.672972
-0.907469
-0.0152085
0.0059058
-0.27703
0.271124
1.5065
-1.63047
0.123964
-0.057101
-0.0374411
0.580916
-0.828386
0.302088
-0.336687
0.0345994
-0.301913
-0.126667
0.428579
0.206628
-1.0103
-0.0738608
-0.0176665
-0.0519067
-0.576422
0.361344
-0.255582
0.0190149
0.236567
0.0656889
-0.12279
-0.0426906
0.0426906
-0.125568
0.138075
-0.012507
-0.294949
-1.31192
-0.0260904
0.00286338
0.023227
0.0765241
-0.118692
0.0421676
-0.229734
0.0460332
1.54052
-0.418047
-1.12247
-0.178007
0.434035
-0.256027
0.0113317
-0.0119699
0.000638108
-0.966985
0.0598706
-0.191962
-0.00500316
0.196965
-0.163207
0.314882
-0.106346
0.104615
0.00173085
0.0780901
0.0111498
-0.0892398
-0.0377294
-0.000388838
0.0381182
0.0734381
0.859175
-0.932613
-0.214468
-0.0492939
0.263761
-0.683919
0.663257
0.0206617
-0.00968624
0.0379713
0.0120501
-0.0123543
0.000304211
-0.0274229
-0.0402655
1.01564
0.834519
0.17
-0.89529
0.725291
0.00369299
2.08822
-2.09191
0.369128
0.392314
1.01103
0.0721454
0.212336
-0.0677494
-0.0743232
-0.0296761
0.226451
0.16599
-0.0754948
0.735295
-0.403388
0.0593245
0.196651
0.0571065
-0.174858
0.117752
-0.743035
-0.127789
0.870824
0.0276693
-0.0276693
-0.0453194
-0.274474
0.560055
0.0111533
-0.225621
0.157336
0.020288
0.0270679
-0.0582255
0.14275
-0.153257
-0.347422
0.315189
0.0100911
0.0672698
-0.0773609
0.379743
-0.337535
0.0232251
0.0304964
-0.0537214
-0.200531
0.266334
0.182829
-0.474909
-0.201738
0.58866
0.159736
-0.0324136
0.0324136
0.233541
0.0439669
-0.277508
0.369051
0.0283906
-0.00921404
0.00706523
0.00214881
-0.0968652
0.0669209
-0.0144282
-0.0507333
0.193484
-0.18792
0.250744
-0.0628239
0.13783
0.0281599
-0.382632
0.12737
0.200551
-0.0627208
-0.0478473
-0.0584984
0.00330634
0.0130619
-0.0163682
0.143057
-0.101545
-0.0415121
-0.0302117
0.410281
-0.38007
-0.00419428
-0.00847614
0.109011
-0.113496
0.00448524
0.0244159
0.120318
-0.0970926
-0.0661581
0.0342377
0.0319204
-0.0547246
0.0772032
-0.0224787
-0.0974077
0.0969686
-0.720113
0.623144
-0.0178466
-1.31885
-0.351659
1.67051
0.438848
1.10479
-1.54363
0.0800885
0.0227051
0.23772
0.290755
0.255922
-0.546677
-0.21059
0.267696
0.133529
-0.862894
0.729364
-0.0798424
0.0251178
-0.031159
0.0134925
-0.98194
0.442091
0.539849
0.965907
-0.841334
-1.54937
1.41562
-1.5065
1.60894
0.0371536
-0.0940153
0.000619157
0.011431
0.00586345
0.772924
-0.639395
0.116017
-0.067652
0.411241
0.735495
-0.0674881
-1.75371
1.75741
-0.671953
-0.525366
-0.242475
-0.404294
-0.0224151
-0.160522
0.207987
-0.570699
-0.358636
0.180629
0.753456
-0.237441
-0.820653
-0.728714
0.750915
-0.0401046
-0.0397377
0.269743
0.0364281
-0.0364281
0.669788
0.149686
-0.819474
-0.226045
0.895833
0.551901
-0.896033
0.344132
0.121294
0.0127215
0.00489738
0.00883432
-0.0137317
-1.69565
-1.11723
0.641691
1.06617
0.47435
-0.0339555
-0.130752
-0.24478
0.74075
-0.205468
-0.0501135
-0.00274266
-0.0742707
-0.0574903
0.111558
0.38532
-0.260135
-0.773125
-0.29765
-0.0455467
0.0919938
-0.0464471
-1.17542
1.56774
-0.0405554
-0.0123527
0.0529081
0.0295315
-0.0207752
0.0406818
-0.0452136
0.00453178
0.0109362
0.405183
0.04224
0.0348853
0.00781633
0.0140788
-0.0218951
-0.0165785
-0.175383
-0.739981
0.383921
0.356059
1.2938
-2.22308
0.929284
0.143358
-0.165293
0.0219344
0.0244726
0.0768811
-0.138392
-1.26495
0.0137783
0.0269035
-0.0743588
0.0380804
0.148508
-0.356008
-1.86146
0.49634
1.36512
0.0452791
0.0898782
0.0531786
-0.743035
0.761538
-0.6881
-0.0112417
-0.0339719
0.0452754
-0.641532
-0.0423863
0.0630299
0.137521
-0.107809
0.0253025
-0.454191
0.118444
0.358985
-0.30254
-0.108894
0.0183261
0.219521
0.841297
-1.06082
0.106154
-0.7039
0.597747
-0.910643
0.782854
-1.4796
0.118716
1.36088
-0.00594656
0.00526067
0.000685893
0.179336
-0.481248
0.216144
-0.126128
-0.0900157
0.0595011
0.0177022
-0.110182
0.0646357
-0.0150213
0.0124566
-0.0398795
0.0197535
0.0881249
-0.107878
0.990749
0.0024426
-0.00223209
-0.000210515
0.0175876
-0.0260638
0.860996
0.0271451
-0.0645862
-0.441466
-0.675766
0.0708835
0.0504101
0.00718223
0.082696
-1.36088
1.26495
0.0476449
-0.238673
0.191028
-0.262311
0.0916292
0.120225
-0.127468
-0.0012719
0.0867908
0.0045698
-1.85815
-0.00331244
-0.0505904
0.0703439
0.741118
-0.259239
-0.0595639
0.136088
0.357816
-0.00841423
-0.000799815
-0.00768656
0.0807336
0.142178
0.223865
0.156909
-0.343673
0.186764
0.102161
0.552978
-0.0302188
-0.110215
0.883102
-0.225391
-0.657711
-1.4796
-0.329375
1.62318
1.71642
-0.212354
0.206888
0.00546556
0.375647
-0.0757424
-0.299905
-0.194567
-1.19627
-0.0787142
0.0799898
-0.00127558
-0.122377
-0.0281795
0.150557
0.344867
-0.905559
0.560692
0.0388215
0.665379
-0.7042
-0.0430769
-0.105894
-0.0575123
-0.00864582
0.233549
-8.23217e-06
-0.00261818
-0.00332839
0.122674
-0.0202888
-0.102385
0.09567
0.00590001
0.0111629
0.0183686
0.0025733
0.10664
-0.011585
-0.000769376
0.203207
-0.422916
-0.222838
1.32762
-0.0134345
-0.0142348
-0.991573
-0.0187254
-0.0659017
-0.068829
-0.040065
0.102807
0.199281
0.345756
-0.696017
0.350261
0.0937459
-0.0228624
-0.937155
-0.0104576
-0.0165893
-0.649222
0.746191
-0.0168987
0.176635
0.183823
-1.07986
0.188206
-0.430862
0.242656
-0.029238
0.147074
0.0103198
-0.0110924
0.000772606
-0.0522829
0.0145536
-0.0197292
-0.127319
0.733143
-0.626989
-0.0323945
0.00464768
0.0551146
0.322512
-0.165603
-0.0982057
0.952424
-0.197946
-0.754478
-0.12526
0.144275
-0.509537
-0.230443
-0.546087
0.585043
-0.571186
-0.0138571
-0.0575835
0.025189
-1.75371
0.565269
-0.565269
-1.61559
1.61559
0.772924
-0.149558
0.20701
-0.0574516
-0.899818
-0.0917547
0.650986
-0.380946
-0.27004
0.151761
-0.230031
-0.0142417
-0.00773649
-0.919529
-0.0886455
-0.93301
0.212897
0.0554694
0.0365243
0.696106
-0.0991672
-0.596939
1.52023
0.196194
-0.00291813
0.013238
-0.959812
0.63451
-0.604013
-0.081341
-0.625847
0.707188
0.0518996
-0.904459
-0.72601
0.221231
-0.815172
-0.870824
1.28728
-0.41646
-0.137803
0.272833
-0.13503
-0.035644
0.73175
-0.111045
-0.939815
0.939815
-0.603913
0.696169
-0.0922558
0.00138886
0.00105375
-0.0290883
-0.448819
0.864027
-0.0371907
-0.0902273
-0.0336855
0.00121937
0.00313485
0.00819689
1.98241
-1.86369
-0.344401
0.422491
-0.658855
1.04929
-0.390432
-0.0439861
0.0577644
0.129084
-0.0581933
0.347469
0.00131566
0.012129
0.358566
0.0517155
0.0440971
-0.256605
0.212508
0.13551
0.0332638
0.101455
0.187455
1.79696
0.311066
-0.282331
0.246108
0.0362229
-1.2716
1.41721
0.233754
-0.146465
0.075096
-0.766291
0.691195
-0.43189
0.114976
-0.462398
-0.0748846
0.127813
-0.0529282
0.120706
-0.19559
-0.463277
-0.113145
-0.0757019
0.0790294
-0.00332754
-0.00256054
-0.00902442
0.0073423
-0.0102233
0.639395
-0.597747
-0.0416483
-0.283775
0.294928
0.880119
0.636091
-0.260444
0.0119171
-0.00905369
-0.0519388
-0.284748
0.160403
-0.561882
0.401479
-0.0106683
-0.000424116
0.0689988
-0.292807
0.223809
0.00484111
-0.0113337
0.00649263
-0.0249384
0.0166493
0.0082891
-0.812088
0.186984
-0.113681
-1.20517
-0.207355
-0.841334
1.60894
1.41562
-0.186384
-0.168537
0.119243
-0.0665224
0.0725204
-0.00599795
-0.185812
0.4116
-0.225788
0.573019
0.0779675
-0.00203668
-0.00863165
0.125871
-0.944661
0.0336855
-0.0549158
0.00432538
-0.388056
0.336117
-0.0230833
0.0501512
-0.23946
0.619203
1.11919
0.256255
-0.0588699
0.0010706
0.0577993
1.72927
-0.313649
-0.0587347
-0.0522782
-1.00468
0.163343
0.432517
-0.225889
-0.484023
-0.141446
0.625469
0.84273
-0.380278
-0.462452
-0.0573881
0.403144
-1.75741
0.0617546
-0.00652488
-0.0418233
0.0483482
0.221924
1.8663
-0.17022
0.175118
-0.17439
2.25098
-0.642039
-0.67092
0.043506
0.627414
0.398498
0.0159034
-0.35733
0.508676
0.78268
0.0560268
0.0738512
-0.0206726
-1.55772
0.157911
1.3998
1.28809
0.0559456
-0.0481293
-0.0542016
-0.367342
0.115353
-0.325943
0.472851
0.479573
-0.0057163
-0.0518672
0.144975
-0.357328
-0.0248653
0.015179
0.108024
-0.144237
0.0362129
-0.289839
0.302003
-0.0121646
0.136247
-0.334193
-1.91218
0.628625
1.28355
-0.0552943
-0.0236673
0.0789616
0.283626
0.0388857
0.389519
0.372019
-0.671598
0.671598
1.66761
1.52023
-0.7039
0.312818
0.469863
-0.220064
-0.0574443
0.95042
-0.377401
0.0111388
-0.882687
0.871548
0.121757
0.00823271
0.0254112
0.368786
0.0207326
0.0349594
-0.166504
-0.113613
0.280116
0.18801
-0.496599
0.330095
-1.13665
-0.296634
-0.660459
0.0277588
-0.00211439
-0.0001177
-0.22832
-0.0832493
0.0368022
0.0320805
-0.154521
0.122441
-0.649289
0.0453752
-0.00551131
0.0659789
0.138308
-0.160958
0.0226502
-0.549847
0.369688
-0.149247
0.216517
0.226614
-0.00505027
-0.0261088
-0.838582
0.420536
0.0361001
0.0729107
-0.00108514
0.0561997
0.208054
0.00808967
-0.439407
1.5715
0.497266
0.614894
0.866079
-0.790983
0.815596
-0.45778
-0.633772
0.184952
0.15696
-0.795687
0.775439
0.0202481
0.761789
-0.288939
-0.20642
-0.13798
-0.0636512
-0.0128251
0.950645
-0.83864
-0.112005
-0.193221
0.117726
0.0264988
0.116965
0.876784
-0.142529
-0.214854
0.357383
-0.317056
-0.0415796
0.217656
-0.0793486
0.182224
1.22885
1.88709
-0.366865
0.164051
0.549199
-0.71325
-0.204073
0.0521563
-0.0122142
0.00716395
-0.523912
-0.109859
0.128284
-0.0625948
-0.196074
0.145341
-0.516368
0.26034
-0.992336
0.0211981
-0.294485
-0.614281
1.57327
-0.0688387
-0.295545
-0.128103
-0.259953
0.447823
0.312684
0.0458819
1.15969
-0.814828
-0.199872
0.137151
-0.27075
0.126548
0.144202
-0.016101
0.00957612
0.0510463
-0.0606462
-0.229192
-0.109875
0.698091
-0.427276
-0.270815
0.209541
0.127789
-0.0923028
-0.0354859
0.245361
0.0673228
-0.121278
-1.42236
-0.0998328
0.145108
0.0762965
-0.218825
-0.0517496
0.0292709
-0.0260251
0.0137504
0.0122747
-0.0124252
-0.00373685
-0.252029
0.0771701
-0.0361844
-0.54016
0.402358
0.0271715
0.0691754
-0.12447
-0.695826
1.39427
-0.914694
0.015569
-0.201475
0.185906
-0.145407
-0.529295
0.674702
0.0646723
-0.706205
-1.08129
-0.830885
0.0176572
0.00163827
-0.0192955
-0.244077
-0.585043
-0.157993
-0.12885
-1.55772
-0.240746
0.172996
0.0901969
-1.18796
-0.260255
0.0666509
0.193604
0.255438
0.107511
0.491711
0.221265
-0.712976
-0.0646905
0.0245859
1.05883
0.107153
-1.16598
-0.216278
0.0867291
1.33048
-0.251215
0.188391
-0.50683
0.593559
0.299292
-0.320555
0.00285305
0.0030104
-0.0103587
0.892958
-0.278063
0.756186
0.0865438
-1.72502
-0.133135
0.248062
0.702358
0.891323
-0.00822176
-0.0200973
-1.88709
-0.660459
-0.712448
0.723176
0.0680902
-0.820653
0.665379
0.587736
-0.930395
0.708974
-0.000323727
-0.795364
-0.315886
0.638945
-0.763532
0.124588
0.0773933
0.0503954
-0.711823
-0.31975
1.9975
-1.67775
6.32726e-05
-0.00217766
-0.273318
0.223204
0.703617
0.214283
-0.200387
-0.176223
0.729348
-1.40985
0.32801
-0.385462
0.357922
0.120913
-0.478835
-1.65297
1.81088
0.0567681
-0.217726
0.118198
1.08005
-1.3998
0.00359781
0.221224
-0.0178598
0.0562098
-0.122112
0.0115959
-0.0396144
0.0280186
-1.02654
-0.034278
0.308019
-0.805309
-1.07747
1.34173
-0.264262
0.38409
0.665198
-0.0468089
0.0500205
-0.00321161
-0.320726
1.05007
-0.720026
1.05284
-0.0318268
-1.04564
0.325697
-0.104473
-0.584305
-0.408031
-0.742749
1.10067
-0.052947
-0.883011
-1.94679
-0.145126
1.08005
0.0511519
-0.856461
0.830472
-0.645777
-0.184694
-0.981803
0.397498
0.0142977
0.112302
0.000603771
-0.112906
-0.971526
0.563495
-0.206298
0.913101
-0.923558
0.198794
-0.215372
-0.09922
0.247728
0.143564
0.536001
-0.0767776
-1.2257
0.471221
1.04159
-0.985567
-0.552943
-0.518254
1.0712
0.447057
0.0189473
-0.010113
-0.738478
0.7042
0.402319
-0.723044
-1.01103
0.837486
0.173541
1.35199
-0.0102588
0.772672
-0.807536
-0.493341
-0.449736
-0.471583
-0.499943
0.804017
-0.804017
0.687326
-0.687326
-0.738478
-0.691395
0.691395
-0.837486
-1.14235
-0.794317
0.0575665
-0.154198
0.154198
0.402319
-0.723044
0.772672
0.765134
-0.765134
0.807536
0.758448
-0.758448
0.506659
0.528417
0.481746
0.248121
-0.500057
-0.550264
1.07868
-0.748752
-1.61941
0.876658
0.251008
-0.19424
-0.35701
-0.0120423
0.0391874
-0.884489
0.0894165
0.795072
-0.0071044
-0.0153107
-0.994434
0.591046
0.887621
-0.574803
-0.123477
0.00706139
-0.00293441
-0.818601
-0.076689
-0.539849
-0.00895611
0.0224487
0.534763
0.0151683
-0.0491402
0.179109
0.000474256
-0.008305
0.00783075
-0.811833
0.0680039
0.743829
-0.0876391
0.231203
-0.526424
0.423723
0.102701
0.91523
-0.744458
-0.170772
0.0823534
0.309596
-0.0141504
-0.0615515
-0.0652374
-0.0134768
0.560577
-1.736
-0.864301
0.0957054
-0.74653
0.794483
-0.047953
0.120964
-0.900294
0.77933
-0.803759
0.902868
-0.0991093
-0.0236461
0.0112209
0.0200379
-0.297068
0.519785
0.580886
-0.0911354
-0.793354
0.915763
-0.090828
-0.824935
-0.0727865
0.0288003
0.163369
0.824094
-1.2271
0.474114
-0.396146
0.0987173
-0.892071
1.36847
0.247121
-0.79309
-0.00227363
1.01684
-0.895876
1.1048
0.783368
-1.01603
0.23266
-0.883726
-0.110707
-0.424975
0.044905
-0.172745
0.523006
-0.783859
0.783859
-0.62104
-0.083028
-0.863279
0.118821
-0.977408
0.896067
0.0788482
-0.204976
-0.0557069
0.0524071
0.0119738
0.18682
0.83002
0.81984
0.773249
0.13732
-0.910569
-0.98521
0.79097
-0.784318
-0.102343
0.886661
0.163814
-0.88384
-0.676459
0.886063
-0.787346
-0.103719
0.460857
-0.00970373
-0.451153
-0.661365
1.49384
-0.83248
0.0624946
0.0968523
-0.159347
-0.888037
-0.829061
0.0825307
0.545588
0.270009
-1.98497
0.231593
-0.593921
0.593921
-0.808035
-0.417663
0.486903
-0.46617
-0.592461
1.22109
0.78372
-0.194792
0.399944
-0.21296
1.03854
-0.822356
-0.216187
-0.65679
-1.56629
0.0963192
-0.201842
0.194084
-0.882184
0.121319
0.312602
-0.230248
0.78225
-0.881359
1.06915
-0.278177
-0.14386
0.734905
0.594909
-0.594909
-0.039341
0.0185659
0.11663
-0.0845499
0.884113
0.609732
0.124212
0.00378135
0.00929877
-0.0130801
-0.675285
0.692298
-0.0170134
-0.262622
-0.753406
0.105787
-0.893132
-1.12324
1.44952
-0.326285
-0.0270395
0.873137
-1.68784
1.42521
-0.755812
0.610367
-0.652753
-0.67331
0.163772
0.285138
0.0269659
0.10731
0.0885992
0.196539
0.000987392
0.0149339
0.062351
0.732132
0.68844
-0.0780734
0.0699336
0.791062
0.155584
-0.429129
0.273545
-0.398852
0.50129
0.0629295
-0.919451
0.701532
0.217919
-0.685337
-0.129835
0.664342
-0.269347
0.269339
-0.0339883
0.485953
0.514047
-0.771093
-0.110266
-0.439962
-0.886229
0.0844101
-0.277448
0.40081
0.59919
-0.0230179
-0.0030459
-0.861921
-0.0570978
-0.595656
-0.157114
-0.236935
0.39405
0.00336509
0.0012047
0.118209
0.0752745
-0.128337
-0.123692
0.76243
-0.6483
0.718233
0.444595
-0.355996
-0.600179
0.455469
0.14471
-0.745159
-0.184917
0.930076
-0.234486
0.222301
-0.0256494
-0.0645718
-0.0582181
0.000546072
0.732164
-0.138243
0.112388
0.114226
-0.734294
0.0590092
0.718495
0.211473
0.0591864
-0.112908
-0.272086
-0.280822
1.01632
-0.00202773
0.0468999
-0.22129
-0.0063648
-0.0256438
0.0157317
0.429321
0.289174
0.767105
-0.922568
0.155463
0.84496
-0.0366199
-0.000939369
0.0375593
0.133778
-0.00342174
0.000803565
0.212989
-0.104965
0.427094
-1.01956
0.844875
-0.0777696
0.00492012
0.283269
-0.467099
-1.02074
1.32127
-0.300526
-0.779028
0.829612
-0.0505845
-0.0373091
0.337729
-0.0384372
-0.0805819
1.31343
-0.465493
-0.0609308
0.271159
0.44141
0.181015
-0.622425
0.393314
0.0304386
0.661859
-0.571822
0.573529
-0.00170647
0.939107
-0.491284
-0.0265484
0.0293354
-0.00278698
0.7011
-0.00974902
-0.0823757
0.0186385
1.3267
0.722394
-0.759703
0.0667127
0.113531
-0.137198
0.137022
-0.100176
-0.0368462
0.0238569
-0.012261
0.481887
-0.374734
-0.0278883
0.212552
-0.024994
-0.078791
0.233808
0.0928184
0.00210066
0.0361355
0.763451
0.696571
-0.228812
-0.467759
-0.483738
0.378286
0.105451
0.644695
0.119163
-0.0176259
-0.0398809
0.0575067
-0.142799
0.270431
-1.09279
-0.0116758
0.762591
0.726278
0.661044
-0.225471
-0.486352
0.808509
0.0863574
-0.184563
-0.901859
0.113983
-0.273712
-0.166284
-0.171033
0.698159
0.0652925
0.014022
0.606827
-0.269098
0.0758623
0.166895
0.0156807
-0.10982
0.421975
-0.0585536
-0.210219
-0.0663507
0.164767
-0.319909
-0.163829
-0.147623
0.165361
-0.030468
-0.109325
0.00127293
0.000649683
-0.00192261
-1.16962
0.678339
-0.00216169
0.931235
-0.226856
-0.621304
0.653847
-0.0325425
0.439877
0.757168
0.439377
-0.294666
0.081225
-0.180445
0.639276
0.117892
1.02273
0.545005
-0.277588
0.751702
-0.0895213
0.378695
-0.588846
0.352152
0.236694
0.361607
-0.0707803
0.0407127
0.0695614
-0.0494207
1.21274
0.736604
0.0719051
0.63298
0.211149
-0.878091
-0.0821458
-0.680625
0.678351
-0.0279324
-0.568303
0.411189
0.861192
0.669714
0.0538568
0.0607956
-0.141002
-0.321396
0.633621
0.760646
0.53375
0.0222395
0.380231
-0.00153524
0.282428
1.30017
-0.0816986
0.0855645
-0.731587
0.924191
-0.192603
-0.414543
-0.174303
-0.029409
-0.113341
-0.192001
0.808545
0.016722
-0.00264325
0.626215
0.149521
-0.262429
0.612617
-0.131715
0.222947
0.781874
0.25021
-1.03208
0.27715
-0.922927
0.279614
-1.19431
-0.16702
0.755894
-0.588874
-0.675578
-0.00241756
-0.0621542
-0.056134
-1.42166
0.0102894
-0.0363144
0.791212
0.197143
-0.0955232
-0.10162
-0.0361927
-0.570699
-0.137579
0.184479
-1.48927
-0.00283627
0.00331053
-0.225954
-0.0548397
-0.601948
0.0301258
0.56862
0.292572
0.947421
0.723087
-0.231551
-0.389462
0.621013
-0.0970678
-0.619323
0.619323
-0.242567
-0.952567
1.19513
0.0313381
-0.156598
0.673038
-0.104419
-0.219752
0.121316
0.148023
0.426769
1.34112
0.00305219
0.186011
-0.102373
-0.401168
0.482179
0.0913495
0.0707248
0.00560125
-1.93316
-0.439433
-0.14531
0.693128
0.306872
-0.439433
0.693128
0.0675817
0.147924
0.0675817
-0.696446
0.696446
0.303554
-0.0137869
-0.0357542
-0.0782184
0.22353
0.0896027
-0.484008
0.636884
-0.0242671
0.646094
-0.506018
-0.140076
-0.0494206
0.0459284
0.00349219
-0.0199994
0.0237807
-0.454765
0.0181444
-0.0576181
-0.434679
-0.366673
0.138354
0.0376083
0.819592
-0.270394
-0.403037
0.143084
-0.0212458
-0.11857
-0.002328
0.689633
0.0729578
-0.19416
-0.0223888
0.00049369
-0.0189984
0.084254
0.552451
-0.479784
-0.0726662
1.88685
0.55881
-0.283936
0.929677
0.0117663
-0.0651365
0.111375
-0.0297967
0.00705953
1.16666
-0.384785
0.00204004
0.0257187
0.198742
-0.450221
0.0198687
-0.0198687
0.0223836
-0.0223836
-0.00279059
0.00279059
-0.0134345
0.366233
0.46409
0.0744277
-0.69846
0.461019
0.18385
0.0291383
-0.0849265
-0.481621
0.705667
0.112632
-0.797968
-1.17551
0.095654
-0.0291331
0.020491
-0.00384169
0.00784249
-0.00784249
0.288004
0.00620422
-0.00620422
0.700185
0.103636
-0.0191529
-0.00323589
0.00638419
-0.0652541
-0.0214321
0.0214321
-0.00201631
0.00201631
-0.0233494
0.0233494
0.00406153
-0.00406153
0.023775
-0.299351
-0.0784639
0.219374
0.00308263
-0.00308263
-0.378148
0.50051
-0.122362
0.485923
-0.21309
-0.336146
-0.0668909
0.557104
0.072458
0.0848667
0.56898
0.564855
0.000239005
-0.000239005
-0.232598
0.0262146
-0.0262146
0.00222873
-0.00222873
0.7745
-1.14894
0.0381299
-0.615411
0.322603
0.00124472
-0.00124472
0.00221404
-0.00221404
0.0190052
-0.0190052
0.02195
-0.02195
-0.0245092
0.0245092
0.0363837
-0.0363837
0.496173
-0.0330273
0.0330273
-0.00204829
0.00204829
0.0250032
-0.0250032
-0.00162377
0.00162377
-0.00102403
0.00102403
-0.102594
-0.0274902
0.0274902
0.340991
0.0383286
-0.0408689
0.0408689
0.00131956
-0.00131956
0.00484224
-0.00484224
0.0347581
-0.0347581
0.0248485
-0.0248485
0.000595038
-0.000595038
-0.0015243
0.0015243
0.0495914
-0.111281
-0.00208894
0.00208894
-0.00273418
0.00273418
-0.0394564
0.0394564
-0.0271226
0.0271226
0.000841554
-0.000841554
-0.429286
0.677349
0.261162
-0.033106
0.033106
0.0069629
-0.00211681
0.00211681
-0.00343077
0.00343077
0.0361434
-0.0361434
-0.0829596
-0.101603
0.00175003
-0.00175003
-0.0214106
0.0214106
-0.478041
0.0424577
0.630928
-0.0303696
0.0303696
-0.436547
0.0318129
0.0182076
-0.215798
-1.50922
-0.0379827
0.0379827
-0.209187
0.150633
-0.0397832
-0.00406887
0.00406887
-0.0110749
0.0550981
0.266577
-0.323592
-0.26507
0.588662
0.179114
-0.00176124
0.00176124
-0.0438177
-0.0435746
0.0873923
0.753798
-0.378495
-0.375304
-0.477201
-0.659682
-0.208095
0.351179
-0.18686
-0.211993
-0.575821
-0.0281202
0.191916
-1.0961
0.0180583
-0.0180583
-0.00363412
0.00363412
0.0318922
-0.0318922
0.0254056
-0.0254056
-0.000203685
0.000203684
-0.00321
0.00321
-0.0153208
-0.156508
0.163395
-0.286873
0.000415027
-0.000415027
-0.0435499
0.0435499
-0.0416839
0.0416839
-0.0311413
0.154487
-0.123345
0.0145518
0.300862
-0.527718
-0.000647175
0.000647175
-0.0123141
0.0123141
-0.104329
0.112079
-0.320174
-0.0039826
0.0039826
0.0350723
0.0136025
0.915197
-0.488011
-0.0914219
0.579433
-0.61986
0.2874
-0.460145
-0.0374178
0.0374178
-0.674446
0.270152
0.0512043
-0.0512043
-0.668507
0.398467
0.254842
0.114412
-3.90345e-05
3.90345e-05
-0.861906
7.86636e-05
-7.86637e-05
0.324088
0.407661
0.0675186
-0.0553161
0.0553161
-0.00414046
0.00414046
-0.0437856
0.0437856
-0.05213
0.05213
0.00028918
-0.00028918
-0.057637
0.057637
0.000202158
-0.000202158
-0.0472011
0.0472011
-0.00889284
-0.0438501
0.0438501
0.00570274
-0.00570274
0.0498066
-0.0498066
-0.000362774
0.000362774
0.0460781
-0.0460781
-0.287033
-0.00225359
0.00225359
-0.00429661
0.00429661
-0.0528036
0.0807336
-0.0107892
0.0107892
0.00475072
-0.00475072
-0.0613009
0.0613009
0.30383
-0.0190783
0.0190783
-0.0557395
0.0557395
-0.00730784
0.00730784
-0.0693567
0.0693567
-0.0131279
0.0131279
-0.0828765
0.0828765
-0.0225999
0.0225999
-0.0919524
0.0919524
-0.700528
0.0664305
-0.54192
0.509378
-0.904459
-0.164497
-0.549277
0.378244
0.0823612
0.127179
0.00376089
-0.00376089
0.169458
-0.702087
0.0479909
-0.0423896
-1.36167
1.55786
1.09764
0.248988
0.0196972
-0.0212979
-0.383092
-0.592341
-0.075844
0.394896
-1.2676
-0.0249832
0.0249832
-0.729628
0.0172426
-0.0172426
-0.00130106
0.00130106
0.322415
-0.289971
-0.00302909
0.00302909
0.0184643
0.0139493
0.599198
-0.172532
-0.0209388
-0.00984944
-0.0102479
-0.106218
0.508147
-0.401929
0.110296
-0.0139765
0.00277316
0.994981
0.029356
0.0438715
-0.410122
0.455027
-0.501544
-0.941448
-0.234706
-0.076224
0.0187337
-0.02975
0.126602
-0.0270846
-0.00692492
0.00306146
0.799236
-0.538782
-0.0445273
0.060208
-0.0391312
0.0116702
-0.0474244
0.416708
0.246549
-0.165946
0.208452
0.0125494
-0.00139963
-0.828226
0.0101825
-0.180653
0.0851303
-0.0182205
-1.19454
-0.0720358
0.269746
-0.353853
0.405569
0.272614
-0.886895
0.0496226
0.0827488
-0.0539484
-0.355146
0.457846
-0.0307864
0.0741226
-0.0433362
-0.0283307
0.0283307
0.184557
-0.445001
-0.125058
0.00636632
-0.0860486
0.0581162
-0.0606398
-0.00457434
0.0652141
-0.0453488
-0.157214
0.0823892
0.0992418
-0.286025
-0.343299
0.629324
0.016948
0.0630418
0.149954
-0.0375659
-0.117154
0.0739717
-0.163879
0.320839
0.00721885
0.0303405
-0.0188247
0.168778
0.00286439
0.268259
0.00111616
-0.00111616
-0.648906
0.931335
0.0964498
-0.178596
-0.0140874
0.065987
1.49047
-0.0652529
0.0513467
-0.00865614
-0.535238
-0.00668245
0.083723
0.101174
-0.702297
0.324896
-0.0570623
0.366466
-0.652491
0.201805
0.499728
-0.0923856
0.0923856
0.000603772
-1.28863
-0.0708439
1.35947
-0.220619
0.164485
-0.220602
0.0733246
-0.407518
0.0104721
-0.0242279
0.024847
0.929727
0.247972
-0.194115
-0.0699854
-0.97671
-0.068929
-0.036766
-0.269514
0.77819
0.563052
-0.26219
-0.302913
0.586182
0.0873739
0.119514
-0.267377
0.0305754
-0.458392
0.33603
0.121091
-0.121091
-0.0519624
-0.0456835
0.0976459
-0.00559201
0.00953905
0.0137504
0.0483519
-0.191151
0.218
-0.186339
-0.0316612
0.531265
-1.11079
0.238461
-0.914227
0.687468
-0.110453
-0.17642
-0.0297238
-0.0801512
-0.496731
0.0620527
-0.297073
-0.00214269
-0.0182205
0.39145
-0.00510656
0.00205165
-0.000978903
0.0133768
-0.0113886
-0.00198819
-0.0985933
-0.0174802
-0.172122
0.189602
-0.11435
-0.344042
0.0184643
0.34899
0.000673782
-0.386366
0.0918811
0.00286517
0.138456
-0.0640278
-0.0130037
0.0130037
-0.00154186
0.000197725
-0.00902075
-0.000853898
0.0600352
0.000517909
-0.00115971
0.0647398
0.134541
-0.00340028
0.00340028
0.011577
0.503271
-7.26309e-05
-0.287271
0.50566
1.17384
-0.469496
0.321285
-0.439491
-0.052867
-0.072191
0.215379
-0.219778
0.0390326
0.000130224
0.000415847
-0.00254073
-0.179588
-0.374692
0.83571
0.378877
-0.394198
-0.0111958
-0.00162554
-0.0171358
-0.00990368
-9.72236e-05
0.000418195
-0.000287971
0.00518242
0.0014125
-0.000539473
0.734964
-0.660993
-0.248012
0.255712
0.525187
-0.00069659
0.000225723
-0.0397832
-0.00552115
0.817601
-0.431105
0.522454
-1.03154
0.906062
-0.129523
0.563842
-0.185598
0.712013
-0.000137471
0.00352154
0.0169695
-0.122586
0.138745
0.0435563
0.00818507
0.00219065
0.0691006
-0.0560846
-0.013016
1.12156e-05
-0.0573308
0.0801393
-0.0228085
-0.0925584
0.0100389
-0.000740183
0.00230246
0.488705
-0.437787
0.00747187
0.00019438
1.09515
-1.16599
0.376684
-0.0060906
0.000434758
0.0728165
-0.100705
-0.0473893
-0.100517
-0.0127085
-0.00370113
0.131434
0.0259234
-0.00262613
0.397896
0.000223246
-0.000176841
0.000176841
0.00355783
-0.0134073
0.000211343
-0.323402
-0.00382158
0.0749085
-0.107571
0.221779
0.251962
-0.0653201
0.000232147
0.00204302
0.449736
0.00016465
0.00108035
-0.0304894
-0.00210175
0.000274605
0.0626377
0.061574
-0.71003
0.45358
-0.828272
0.238682
-0.000157855
0.110634
0.0263848
0.0949338
0.566196
-0.0147121
-0.117875
-0.00411181
-0.00139773
-0.556554
-0.00341551
-8.70208e-05
0.0141052
0.93121
-0.537896
-0.00260543
-0.000564933
-0.00598481
-0.00189082
0.0700737
-0.0216113
0.0216113
-0.0125174
0.0127152
-0.00255712
-0.00805574
0.0245496
-0.0224979
-0.172206
0.101426
-0.0058201
-0.0135198
0.0379917
-0.0181078
0.0653731
-0.0466394
-0.623685
0.575732
0.0112935
-0.000989828
0.376307
-0.21154
-0.0658328
-0.663639