/*--------------------------------*- C++ -*----------------------------------*\
| =========                 |                                                 |
| \\      /  F ield         | OpenFOAM: The Open Source CFD Toolbox           |
|  \\    /   O peration     | Version:  2306                                  |
|   \\  /    A nd           | Website:  www.openfoam.com                      |
|    \\/     M anipulation  |                                                 |
\*---------------------------------------------------------------------------*/
FoamFile
{
    version     2.0;
    format      ascii;
    arch        "LSB;label=32;scalar=64";
    class       volVectorField;
    location    "28";
    object      U;
}
// * * * * * * * * * * * * * * * * * * * * * * * * * * * * * * * * * * * * * //

dimensions      [0 1 -1 0 0 0 0];

internalField   nonuniform List<vector> 
2186
(
(1.28424 -0.0623826 2.65616e-19)
(1.59905 -0.921398 -7.83994e-21)
(1.4423 -0.898961 8.56558e-21)
(0.723358 -0.561482 -1.69943e-19)
(-0.245345 0.36757 -1.62013e-19)
(1.63216 -0.271627 0)
(0.712942 -0.658091 0)
(-0.0101362 0.0506833 6.42761e-20)
(1.58133 -0.0451166 1.00357e-19)
(0.538421 -0.280722 -2.26763e-21)
(0.700039 0.633482 0)
(0.875078 -0.27652 -8.49854e-20)
(0.00392036 0.0910967 -2.55872e-20)
(1.20407 0.026413 -4.26947e-19)
(1.78583 -0.667335 -1.84509e-20)
(1.01482 -3.00355e-05 2.0074e-19)
(0.980458 0.0123112 0)
(-0.0606611 0.53568 0)
(1.44967 -0.181664 0)
(-0.0825227 0.285063 -5.39519e-20)
(0.490563 0.135126 -1.25949e-19)
(-0.193456 0.205069 7.27346e-20)
(1.19263 0.0294493 3.51938e-19)
(-0.190381 -0.104261 5.97591e-21)
(1.03079 0.0124017 -2.77065e-19)
(0.77411 -0.537399 0)
(0.760597 -0.00583023 1.63447e-19)
(0.602247 -0.581718 -2.01188e-19)
(1.24164 0.737534 0)
(0.963582 0.0252168 -3.77927e-19)
(-0.0236673 0.0907868 0)
(1.02396 -0.0064366 1.31027e-20)
(-0.0813673 0.239911 0)
(2.12037 -0.129542 7.88709e-20)
(-0.195597 -0.161298 -1.01025e-21)
(1.57529 0.800389 1.1576e-19)
(1.93209 0.00914245 7.22536e-20)
(0.520121 0.18269 -3.7554e-19)
(1.95871 0.272491 -2.30108e-19)
(1.53092 -0.260479 -1.3248e-20)
(-0.0192477 0.0912838 0)
(-0.154925 0.181086 0)
(1.86906 -0.854412 5.62308e-20)
(-0.413273 0.21458 0)
(1.12948 0.296467 1.77999e-19)
(0.585102 -0.263404 3.16806e-19)
(0.910207 -0.774252 0)
(1.16754 -0.771774 1.43431e-19)
(2.39612 -0.149954 0)
(-0.233227 0.382267 1.42654e-19)
(-0.0161872 0.155397 7.97652e-20)
(0.648229 0.59872 9.28252e-20)
(2.05412 -0.723109 4.75766e-20)
(0.609589 0.308537 -3.02981e-19)
(-0.278715 0.0876954 2.80925e-20)
(0.749179 -0.635248 0)
(1.66062 -0.949017 1.85292e-20)
(0.57205 -0.532132 0)
(2.36822 0.243683 7.56186e-20)
(1.11963 -0.158525 -4.2949e-19)
(1.98974 -0.0800654 1.49681e-19)
(1.38225 0.317135 -2.16596e-19)
(1.37797 0.55567 0)
(1.53702 -0.252044 1.45127e-20)
(1.39631 0.402801 -1.36297e-19)
(1.23264 -0.715541 -2.06672e-19)
(1.20008 0.685714 6.29237e-20)
(0.683235 0.0997556 -6.18238e-19)
(0.821173 0.0795274 0)
(2.14488 -0.0679976 -3.04326e-20)
(-0.0399447 0.0421259 -7.51324e-20)
(2.46475 -0.167353 -1.38439e-19)
(0.724669 -0.00964899 -2.73174e-19)
(0.859502 -0.499042 0)
(0.83661 0.203122 -1.01362e-19)
(0.535509 -0.493979 -3.40231e-19)
(2.34683 -0.166881 0)
(1.00695 0.00979929 4.12798e-19)
(-0.201475 -0.15978 0)
(2.05881 0.402762 0)
(0.618478 0.239462 7.26298e-20)
(1.42795 -0.204376 1.47028e-20)
(1.02253 0.00882218 4.60353e-20)
(1.34826 0.435367 3.37739e-20)
(0.968708 0.0256959 4.8301e-19)
(1.03787 0.0315563 -1.14469e-20)
(0.676965 0.2076 -3.68009e-19)
(1.36695 -0.149335 3.68448e-21)
(1.35976 -0.106453 0)
(-0.0742351 -0.0782769 6.34596e-20)
(0.84508 -0.604858 -1.93468e-19)
(-0.168695 0.286685 -1.82346e-21)
(1.10431 -0.0669085 2.86596e-19)
(0.808753 -0.16103 0)
(0.973056 0.0238773 4.60359e-20)
(1.39923 0.667489 0)
(1.60399 -0.930856 0)
(1.33336 0.232031 0)
(-0.260126 0.414558 0)
(0.774952 -0.647776 3.39533e-19)
(0.165039 0.288991 -2.46217e-19)
(0.568794 0.183213 1.38014e-19)
(1.60561 0.201797 0)
(1.14041 -0.0935409 -2.61999e-19)
(1.12451 0.0239908 2.04126e-19)
(-0.119531 0.307873 1.00458e-19)
(0.662261 0.535627 0)
(2.07133 -0.122376 -4.37978e-20)
(0.950923 -0.46024 9.51362e-20)
(-1.13563 -0.505149 1.32065e-19)
(1.77872 0.336455 9.21919e-20)
(-0.24198 0.344651 -2.21001e-19)
(0.806054 -0.731871 0)
(0.587531 0.383721 1.82784e-19)
(1.72802 -0.107196 -3.07934e-19)
(0.118089 0.315353 -2.97984e-19)
(1.43792 0.922525 -1.52539e-21)
(2.03103 -0.197806 0)
(-0.0984558 -0.110297 -1.89489e-19)
(0.705921 -0.045696 8.65389e-20)
(1.5968 0.906807 0)
(-0.160561 0.385076 -1.9188e-19)
(0.912648 0.78638 -3.11111e-19)
(-0.0281554 0.575717 2.56863e-19)
(1.03091 -0.0228085 0)
(1.5846 0.946882 1.9228e-21)
(-0.253738 0.353887 0)
(0.681864 -0.47278 -1.22284e-19)
(-0.0462622 0.581098 -1.40379e-19)
(0.778265 -0.709676 0)
(0.418188 -0.238391 4.59497e-19)
(0.525159 -0.433654 3.15914e-19)
(0.409351 -0.370302 0)
(0.968877 -0.76764 -1.60776e-19)
(0.211174 0.227861 0)
(-0.195797 0.361046 -1.11817e-19)
(0.796402 -0.682171 1.64809e-19)
(2.21275 -0.125507 1.15755e-19)
(2.25262 0.186203 0)
(-0.0925525 -0.0430327 0)
(0.704383 0.65458 -3.92182e-19)
(1.7593 -0.596612 -2.25768e-20)
(0.00419086 0.0245014 0)
(0.968276 -0.791426 -1.71408e-20)
(1.13461 -0.0914122 0)
(1.07344 -0.112138 4.53152e-19)
(1.99277 -0.10837 -3.85645e-20)
(-0.255144 0.441677 0)
(1.20379 -0.538956 -6.86423e-20)
(-0.175189 0.36752 -3.50587e-20)
(-0.215864 0.262415 0)
(1.07932 -0.798582 1.21788e-20)
(1.00668 0.00472342 -6.89502e-19)
(0.635303 -0.457245 -1.19545e-20)
(0.802617 -0.496111 0)
(1.18298 -0.714298 -1.19805e-19)
(0.670962 0.267609 2.84154e-19)
(1.25971 0.119044 0)
(1.5358 0.0906107 -3.37734e-19)
(1.18241 -0.840295 -2.80759e-19)
(-0.103335 -0.0566715 -6.53265e-20)
(-0.395178 0.0841527 -8.53925e-20)
(1.07778 0.0115113 2.59788e-19)
(0.904021 -0.445361 -1.19643e-19)
(1.42195 -0.192084 -3.41105e-21)
(0.68889 0.179268 -5.85931e-20)
(0.780312 -0.137683 7.72481e-20)
(-0.0666896 -0.104312 -1.79097e-19)
(1.69032 -0.227237 0)
(2.31438 -0.281278 7.69677e-20)
(1.47942 0.670936 1.77245e-19)
(0.793262 -0.596159 -2.47636e-19)
(0.994697 0.00900464 1.41246e-20)
(0.704889 -0.510819 3.36211e-19)
(1.33634 0.825119 1.57168e-19)
(1.91148 0.0599 8.11329e-21)
(-0.234156 0.486781 0)
(1.09115 0.0630279 -2.69839e-19)
(-0.615067 0.316641 -1.24708e-19)
(1.09716 0.510117 9.09987e-20)
(0.197146 -0.158526 1.0822e-19)
(1.16228 0.0291865 -4.90307e-20)
(-0.17739 0.237309 -1.31084e-19)
(1.32526 0.604367 -9.49376e-20)
(1.16697 0.911278 0)
(-0.201679 0.577345 -8.41802e-20)
(0.161849 0.278194 0)
(0.676749 0.586099 -3.05581e-19)
(2.16312 0.206116 -1.47405e-20)
(0.0305349 0.152127 8.80423e-20)
(-0.129223 0.608146 -4.43516e-19)
(0.72905 0.102754 2.71729e-19)
(2.06344 0.10252 -4.15844e-20)
(0.96788 -0.329545 -3.47468e-20)
(-0.071288 -0.055748 0)
(-1.09466 -0.63996 2.91006e-19)
(1.35904 0.996832 -4.22557e-20)
(0.844553 0.0973341 -1.50005e-19)
(0.572716 0.538434 2.13593e-19)
(0.432365 0.19311 0)
(-0.214812 0.0299754 -1.17978e-19)
(-1.18013 -0.786396 2.48364e-19)
(1.28258 -0.943206 7.67325e-22)
(0.987177 -0.0195508 -2.14907e-19)
(-0.140086 -0.171732 4.93163e-21)
(-0.0690169 0.072437 1.33074e-19)
(-0.199667 -0.23636 -1.25587e-19)
(2.0047 -0.273311 0)
(1.14203 0.0506075 -3.63678e-19)
(2.542 0.100856 1.97169e-19)
(1.25638 -0.601988 1.32026e-19)
(1.05394 -0.0664265 3.11478e-21)
(0.611406 0.362911 0)
(0.969856 0.774092 -1.85302e-20)
(0.702765 0.64778 2.06954e-19)
(0.882691 -0.545869 1.74422e-19)
(0.709057 0.529168 0)
(1.02204 0.00585232 9.22946e-21)
(0.867063 -0.646988 2.49017e-19)
(0.859476 0.446941 -5.04771e-19)
(1.19068 -0.102706 0)
(0.10404 0.169913 -2.23045e-19)
(-0.0716471 0.277413 -8.1104e-20)
(1.62473 0.746119 0)
(1.33347 -0.921365 -6.56657e-22)
(-0.0901954 0.504575 0)
(-0.244668 0.304218 1.00253e-19)
(0.759765 0.676144 -1.0881e-19)
(0.842098 -0.196063 0)
(-0.183948 -0.124202 0)
(1.64036 -0.442105 0)
(0.00853607 0.126102 4.92137e-19)
(1.19629 -0.868167 1.83571e-19)
(1.16017 -0.587801 7.62395e-20)
(1.03738 -0.161604 -1.97191e-19)
(0.862068 -0.676765 -1.97768e-19)
(0.184036 -0.187435 0)
(-0.126615 0.589446 0)
(0.986859 -0.494511 2.08539e-19)
(-0.0549476 -0.0107884 0)
(-0.220569 0.402304 0)
(0.0886621 0.374026 2.5945e-19)
(0.816842 0.694222 9.44247e-20)
(1.03926 0.81762 0)
(0.721007 0.580554 -9.31917e-20)
(0.829881 -0.0197414 -2.47977e-19)
(0.769451 0.587671 -2.50253e-19)
(0.609689 0.568742 -1.83855e-19)
(-0.085539 0.00764934 -3.89501e-22)
(0.708594 -0.634509 0)
(0.911122 0.194728 -3.58297e-19)
(-0.0693079 0.0426287 3.32018e-20)
(0.620291 0.576219 4.17713e-19)
(0.983238 0.821178 0)
(-0.0748254 -0.16286 3.61661e-19)
(-0.257978 -0.0704424 2.07069e-19)
(-0.210278 0.0460146 -1.10852e-19)
(0.688013 0.59594 -1.61567e-20)
(0.96885 -0.0074667 6.6792e-20)
(-0.0256314 0.134047 0)
(2.00828 -0.0384977 -8.29466e-20)
(1.60026 -0.488121 -2.12696e-19)
(0.641491 -0.592689 -8.82036e-20)
(0.091506 0.525441 8.92753e-21)
(1.21835 0.478636 2.10194e-19)
(0.90656 0.436474 0)
(1.03645 -0.159607 2.23626e-19)
(-0.272866 -0.0832251 3.90676e-21)
(-0.105757 0.167543 3.04304e-19)
(0.913289 0.020656 -5.99129e-20)
(1.15168 0.149011 0)
(1.73393 0.0126825 -6.18777e-20)
(1.96862 0.0805338 0)
(0.560036 0.289868 -4.95812e-19)
(-0.0993668 0.0969013 0)
(-0.0454652 0.0221351 1.47325e-19)
(0.678517 0.0950361 0)
(0.603751 -0.491899 -2.05935e-19)
(1.13661 0.0206709 2.37429e-19)
(-0.24732 0.445131 3.44278e-20)
(2.14949 -0.0671531 3.85068e-21)
(2.0371 -0.152146 -6.49106e-20)
(1.13231 0.242535 -2.48361e-19)
(-0.0693649 0.0705978 -6.28352e-20)
(1.05964 -0.83606 0)
(0.809253 0.0169327 -1.72705e-19)
(0.914561 -0.357698 -3.2919e-19)
(1.69712 -0.558658 2.30217e-21)
(1.6481 -0.00992159 2.83884e-20)
(1.0891 -0.00313785 4.34303e-19)
(-0.211445 -0.0174912 -9.35674e-20)
(0.98146 -0.420491 -1.47054e-19)
(0.192905 -0.185351 2.89844e-19)
(1.00815 -0.00683749 0)
(1.00466 -0.00579905 0)
(0.569138 -0.371458 4.42291e-20)
(-0.190488 0.336039 -7.77765e-20)
(0.202758 -0.112533 -9.6083e-20)
(1.99504 -0.0628275 8.00677e-22)
(1.22538 -0.0310232 0)
(1.97155 0.0794054 -1.25438e-19)
(0.932654 -0.809554 -1.11434e-19)
(1.77745 -0.545039 -3.59241e-20)
(1.13246 0.860367 0)
(0.460627 -0.440485 0)
(0.628773 0.545132 -1.92449e-19)
(1.11812 0.295766 -4.57986e-19)
(2.14658 -0.178953 1.52951e-22)
(0.87278 0.178038 1.53756e-19)
(-0.285256 0.0486583 -2.40174e-19)
(1.54731 -0.134776 -3.20381e-21)
(-0.237291 0.128194 0)
(-0.138422 -0.0668767 0)
(-0.0224883 0.230175 0)
(1.3218 -0.706246 -1.28023e-19)
(-0.22282 0.275225 -1.82342e-19)
(-0.114284 0.154678 0)
(1.31813 0.99874 -4.73216e-20)
(1.12875 0.161835 -4.7777e-19)
(2.58984 0.091007 -1.18971e-19)
(1.10525 0.944541 1.05812e-19)
(-0.238579 0.333654 1.12486e-19)
(1.2218 -0.0378204 0)
(-0.00448945 0.278844 -1.95365e-19)
(-0.257799 0.332724 2.16387e-19)
(0.780628 0.0549881 2.02292e-19)
(1.56749 0.971434 -3.34338e-20)
(1.67251 0.797754 -9.08934e-20)
(-0.19036 0.277204 -2.36205e-21)
(0.734508 -0.669294 -4.44575e-20)
(1.15614 -0.0158729 0)
(1.75474 -0.0339896 0)
(0.985086 0.0472191 0)
(-0.75109 -0.400997 -2.31588e-19)
(-0.0786672 0.204402 6.20049e-20)
(1.07336 0.86741 0)
(0.996709 0.00713391 5.7646e-19)
(0.791988 0.630357 -2.50936e-19)
(-1.11279 -0.589483 -1.32976e-19)
(0.865772 0.0377177 -4.57011e-20)
(0.702799 -0.639749 -2.57022e-19)
(1.41718 0.730826 -4.23728e-20)
(0.5456 -0.424642 -3.26802e-19)
(1.12953 0.00390671 -5.19615e-19)
(0.798751 0.0407447 5.13492e-20)
(1.48521 -0.165206 9.92551e-20)
(1.59324 -0.082401 -7.89937e-20)
(-0.0447851 -0.0305143 -1.89713e-22)
(1.10129 0.489069 -3.0291e-19)
(1.3514 0.634503 5.85909e-20)
(-0.242614 0.0187498 0)
(-0.30548 0.0498122 8.81934e-20)
(0.158367 0.342426 9.60147e-20)
(-0.150564 -0.185488 -8.84172e-20)
(0.500088 0.356295 0)
(1.72162 -0.343677 0)
(-0.00846767 0.0131291 -1.10621e-19)
(-0.115915 0.0216126 -3.25884e-20)
(1.04943 -0.0284921 2.05986e-19)
(-0.218431 0.439776 -4.27833e-20)
(1.47342 0.0137149 -4.37805e-19)
(-0.16399 0.328455 0)
(0.820329 -0.72597 -3.62299e-19)
(1.36755 -0.0587761 1.11682e-19)
(-0.530419 0.13607 7.54699e-20)
(0.729047 0.187701 3.5881e-19)
(0.6323 0.172931 1.15291e-19)
(0.490102 -0.461887 2.29432e-19)
(0.00459875 0.0379811 -7.80369e-20)
(1.97093 0.768985 0)
(0.416578 0.382871 -2.08363e-19)
(1.03019 -0.0130547 -3.27626e-19)
(-0.113879 0.609331 1.76919e-19)
(1.44986 0.501162 -1.51662e-19)
(-0.057185 -0.00250058 -3.05273e-20)
(0.681406 -0.620942 -9.1815e-20)
(0.829472 0.208783 -2.27045e-19)
(0.997329 0.445577 2.56686e-20)
(1.14041 -0.128297 4.02839e-20)
(0.597718 -0.199718 -3.32524e-19)
(1.97886 -0.288178 -5.26418e-20)
(1.67251 -0.0403325 0)
(2.26127 0.0242252 -7.76722e-20)
(1.85141 -0.133367 9.05841e-21)
(0.580623 0.175948 5.44306e-20)
(0.95293 0.361918 -1.46635e-19)
(1.64673 -0.202044 -2.4806e-20)
(0.439548 0.414714 -2.71486e-19)
(-0.00646902 0.403427 1.58089e-19)
(1.92705 0.0315101 0)
(0.944308 0.00813682 0)
(0.860926 -0.760613 7.32999e-20)
(-0.248103 -0.0555409 -2.27362e-19)
(0.135863 0.568493 -1.81247e-19)
(-0.0460851 -0.0246723 -1.34854e-19)
(-0.167617 0.452749 -1.17261e-19)
(-0.341682 0.165998 0)
(-0.138317 -0.0854622 2.54253e-20)
(0.0796476 0.337482 -7.68289e-20)
(-0.0705982 0.0760109 -3.03934e-19)
(0.797039 -0.0867483 0)
(1.55921 -0.445834 8.59402e-20)
(0.117704 0.209515 0)
(0.994285 0.023957 4.15649e-19)
(-0.32876 0.073732 9.70136e-21)
(0.522106 -0.396383 4.38131e-19)
(-0.608528 0.343185 2.06936e-19)
(-1.01172 -0.473122 0)
(0.00424158 0.280181 8.61426e-20)
(1.00172 0.0254683 -1.2532e-20)
(0.00110126 -0.141421 0)
(1.00492 -0.00856608 -6.46001e-20)
(0.844642 -0.710911 -3.39875e-19)
(1.52133 -0.576297 0)
(0.924578 -0.252083 2.35563e-19)
(-0.0908142 0.322607 1.60099e-19)
(-0.075495 -0.0733857 0)
(-0.219353 0.0546078 -3.19222e-21)
(0.71046 -0.616641 -4.86235e-19)
(0.941187 -0.0202475 -3.04309e-19)
(-0.263101 -0.0486711 2.70756e-19)
(-0.0844087 -0.00863858 9.2721e-20)
(-0.275021 0.175223 0)
(0.979914 0.496208 0)
(-0.461352 0.0571542 8.84465e-20)
(1.44953 -0.121148 -5.1436e-20)
(1.10072 0.91971 2.23859e-20)
(1.08558 0.225716 -1.3987e-19)
(1.11805 0.00766034 -2.56703e-19)
(1.02505 -0.063418 -9.41126e-20)
(-0.238483 -0.0422081 -2.4038e-19)
(1.98005 0.0560939 3.72755e-19)
(0.702291 0.0404435 2.39325e-19)
(1.69673 -0.0341353 5.34271e-20)
(1.03005 -0.136902 0)
(-0.0236871 -0.256549 1.83541e-19)
(1.14388 0.0268579 -5.63141e-19)
(1.78891 0.640818 3.26659e-20)
(0.725174 -0.431932 -1.81169e-19)
(-0.102904 -0.110811 1.41699e-19)
(0.783767 -0.685645 4.44163e-19)
(1.26336 0.20543 8.71978e-20)
(1.00707 -0.00813261 2.86017e-19)
(-0.272876 0.0525243 -9.73404e-20)
(1.02911 0.0243472 0)
(1.9984 -0.00432688 -1.56221e-19)
(-0.0968833 -0.0889887 0)
(1.01401 0.0149425 -1.69365e-19)
(-0.857561 -0.640577 -5.33158e-19)
(1.77271 0.328309 5.34925e-20)
(0.138663 0.414937 1.30947e-19)
(1.65402 0.02658 1.29006e-20)
(1.0153 -0.0167283 5.93583e-20)
(1.2638 -0.0861886 0)
(1.42296 -0.592044 -1.97989e-19)
(1.02705 0.0441966 -1.75544e-19)
(1.47459 0.812884 -8.83193e-20)
(1.26981 -0.0458829 0)
(0.485689 0.465026 2.50381e-20)
(-0.0123154 0.0163672 0)
(1.28641 0.0529591 0)
(-0.0658552 0.143426 0)
(1.26914 0.463416 0)
(1.91662 0.303571 3.66076e-20)
(0.765671 0.640639 4.40111e-19)
(0.286692 -0.287965 -2.71633e-19)
(-0.117758 0.00136185 -2.15193e-19)
(-0.0844563 -0.0644369 0)
(2.41248 -0.311975 1.15976e-19)
(1.36702 0.535206 0)
(1.49503 0.304074 0)
(-0.0424578 0.329467 8.49069e-20)
(0.830567 0.734777 1.4585e-19)
(1.60842 -0.00652803 0)
(0.030051 0.0994142 4.94786e-20)
(0.92283 0.241427 2.1018e-19)
(1.96294 -0.197726 -6.66371e-20)
(1.27157 0.95187 5.64763e-20)
(0.910199 -0.817847 -5.14989e-20)
(1.48574 -0.0974908 -3.82325e-20)
(0.816235 0.738011 1.50694e-19)
(1.20679 0.949378 0)
(2.23568 -0.214807 1.53705e-19)
(0.336298 -0.407208 0)
(1.51733 -0.26338 4.62532e-20)
(1.00661 0.107844 1.4767e-19)
(1.00574 -0.00424618 0)
(-0.432304 -0.484637 1.98886e-19)
(0.881755 -0.150306 5.38355e-20)
(0.613148 -0.381645 0)
(0.654441 -0.354359 2.36414e-19)
(1.26756 0.577401 -3.92366e-20)
(0.49203 0.465842 3.01662e-19)
(-0.091124 0.110574 3.66058e-20)
(0.163331 0.0130298 7.75181e-20)
(0.740964 0.058171 0)
(1.30708 -0.883408 -1.27818e-19)
(1.03612 -0.0435369 4.5748e-19)
(1.53522 0.345918 1.16161e-19)
(0.0448112 0.139925 4.20439e-20)
(-0.735786 0.330771 0)
(1.21421 -0.225871 -1.33614e-19)
(-0.0759878 -0.0680783 -1.16859e-19)
(-0.734452 -0.566016 -1.51993e-20)
(-0.134018 0.044149 -6.50397e-22)
(-0.211455 0.094609 2.51264e-19)
(0.785233 0.0192049 -1.94805e-20)
(2.12083 -0.06877 1.1111e-19)
(1.22027 0.480159 -3.38972e-19)
(0.892536 -0.0582288 0)
(1.9178 -0.0945149 1.77998e-19)
(1.71122 0.045686 3.0231e-20)
(0.895401 -0.750171 1.69111e-19)
(1.14437 -0.960479 -7.04216e-20)
(0.495533 0.461301 2.03642e-19)
(0.603283 -0.122187 0)
(1.80076 0.597593 8.41394e-21)
(-0.0860845 -0.0755504 -2.37602e-19)
(0.908286 0.79368 0)
(1.68865 0.84722 0)
(0.286977 -0.285871 -3.74146e-21)
(0.347882 0.340642 0)
(-0.686603 0.292593 -2.2998e-19)
(-0.193584 0.220978 -1.03668e-19)
(1.73741 -0.414872 0)
(1.30569 0.0745079 2.50992e-19)
(0.0212483 0.504741 1.50526e-19)
(0.523149 -0.495758 -5.30548e-19)
(1.71063 -3.18791e-05 -1.57978e-20)
(0.600109 -0.542871 0)
(1.06105 0.133753 0)
(1.38402 -0.254209 0)
(1.13529 0.240742 -2.67638e-19)
(1.38301 0.114939 3.82261e-19)
(-0.834481 -0.177215 0)
(0.866999 -0.0496286 0)
(2.1047 -0.0943089 -6.88784e-21)
(-0.138237 0.195054 8.51661e-20)
(2.41151 -0.0439077 -2.5864e-19)
(1.08063 -0.501687 1.21562e-19)
(1.99151 -0.0132187 -2.72994e-19)
(0.0146 0.588931 -1.10688e-19)
(2.02563 0.0765233 -1.48622e-19)
(1.01574 -0.0144864 4.69745e-19)
(1.55419 0.623912 0)
(-0.252549 0.325447 2.80552e-20)
(0.987461 -0.813719 2.16208e-19)
(0.855697 0.0054436 5.34178e-20)
(0.616883 -0.405385 0)
(1.87611 -0.491415 -2.45849e-21)
(1.18906 -0.18483 1.7821e-19)
(1.56528 -0.202704 0)
(0.598003 -0.554836 5.30397e-19)
(1.74661 0.148706 -4.4937e-20)
(2.44602 -0.0186283 4.29043e-19)
(-0.163155 0.21989 -1.78556e-19)
(1.36504 0.640928 1.82177e-19)
(1.17341 0.425214 4.19957e-21)
(0.925213 0.396734 2.49369e-19)
(1.53473 -0.0427516 -4.51473e-20)
(-0.235519 -0.0214278 8.39382e-22)
(0.664677 0.0368811 0)
(-0.125097 -0.112323 2.30972e-19)
(1.08185 -0.9379 0)
(1.04546 -0.635076 2.5911e-20)
(0.431624 0.0244644 -7.44857e-20)
(1.59947 0.825659 -2.85004e-20)
(-0.264494 0.3718 -1.97487e-19)
(1.01275 0.507092 1.96456e-19)
(-0.781288 -0.688186 2.55667e-19)
(0.703446 -0.0411191 0)
(1.89491 -0.0546757 0)
(1.80984 -0.148299 -8.8995e-21)
(0.772757 -0.00867503 0)
(1.33123 -0.196494 -1.83376e-19)
(-0.184377 0.570519 3.4264e-19)
(1.97624 0.51594 -2.29674e-20)
(1.05162 -0.0322894 0)
(0.535276 -0.31777 1.17595e-19)
(1.00868 0.0263676 2.22892e-19)
(0.126928 -0.710843 -1.9265e-19)
(-0.0833161 0.494737 0)
(1.08957 -0.459206 5.7614e-19)
(1.80622 -0.0762445 -4.74163e-22)
(1.08216 -0.4793 -2.50547e-19)
(2.39298 0.254967 1.24944e-19)
(1.31977 0.81615 0)
(0.882131 0.0240492 0)
(0.0304225 0.198206 -1.09189e-19)
(-0.0106609 0.0144888 1.24471e-19)
(0.970944 0.388082 -2.32238e-19)
(-0.286616 -0.0280381 -8.88569e-20)
(0.669102 0.440144 2.62769e-19)
(0.665366 0.490678 0)
(0.529117 -0.49167 0)
(-0.222604 0.113383 1.7749e-24)
(1.2111 -0.489645 -1.20081e-19)
(0.847668 -0.0418671 1.02288e-20)
(0.727489 -0.12419 1.3098e-19)
(-0.106345 0.154483 -2.23779e-19)
(1.09284 0.128415 2.07678e-19)
(0.6811 0.635821 0)
(1.3029 0.719194 0)
(1.6597 0.26944 0)
(-0.221062 0.224727 -8.5265e-20)
(1.28963 0.582622 1.67905e-19)
(1.85068 0.0272512 1.54153e-20)
(0.955246 -0.0163941 0)
(2.28382 -0.248003 0)
(2.17032 -0.0738014 -2.83031e-19)
(0.188435 -0.554045 2.38486e-19)
(1.00506 0.00469514 -2.22979e-19)
(1.53342 0.495579 0)
(-0.13182 0.42446 0)
(1.27102 0.335482 3.3434e-19)
(1.04883 0.55062 -1.47472e-19)
(1.07575 0.0323074 0)
(1.03818 -0.105677 0)
(2.04047 0.694459 -2.3593e-19)
(-0.192338 0.306929 -1.57426e-21)
(0.994019 0.0142468 0)
(0.731865 0.503184 -3.65115e-20)
(0.921836 -0.811179 0)
(1.00189 0.0170357 5.18435e-20)
(-0.695802 -0.346032 -6.02234e-20)
(0.890575 -0.301538 3.47588e-19)
(-0.108612 -0.658481 2.09611e-20)
(1.99696 -0.0528875 1.20065e-19)
(2.05191 0.0749811 9.22248e-20)
(0.777891 -0.0191432 0)
(1.00542 0.0122107 0)
(-0.60676 0.185214 0)
(0.68434 0.65567 -2.12838e-19)
(-0.0696842 0.0979797 1.51198e-19)
(1.19245 0.366065 -5.34813e-19)
(-0.195752 0.542761 0)
(0.855148 0.669383 1.86245e-19)
(0.993198 -0.313892 0)
(1.00546 -0.000271984 1.30468e-19)
(-0.19895 -0.237765 1.81308e-20)
(1.05792 0.424831 2.91533e-19)
(1.3621 0.204813 0)
(2.27403 0.157031 -6.39111e-20)
(0.821155 -0.0875684 -4.04781e-19)
(-0.793289 0.212438 -3.11651e-19)
(0.408542 -0.198387 0)
(0.894827 0.264365 1.93591e-19)
(1.87521 -0.0484169 0)
(0.800187 0.549288 3.98623e-19)
(-0.467706 0.391437 1.42497e-19)
(-0.0907716 0.130205 0)
(0.609823 0.580831 -7.81584e-20)
(1.00901 -0.622722 -1.80838e-19)
(0.461718 -0.20688 -1.34437e-19)
(1.01974 -0.00767667 0)
(0.0127131 0.499573 -1.42179e-19)
(0.622168 -0.550567 9.22031e-20)
(0.923767 0.31147 0)
(1.74299 -0.296629 1.12859e-19)
(1.00932 0.860994 2.81262e-20)
(0.675277 -0.170631 3.23087e-20)
(0.218824 0.0673004 -1.8308e-19)
(0.214686 0.0325062 -5.997e-19)
(-0.0941903 -0.0306872 5.83944e-21)
(0.838656 0.384218 2.72068e-19)
(-0.226495 0.277472 -4.54243e-21)
(1.39071 -0.629338 3.41019e-21)
(1.02172 0.0180646 -3.88138e-19)
(-0.32914 0.282538 0)
(1.03495 0.0434076 -4.58643e-19)
(1.80054 -0.179408 3.75409e-20)
(0.914093 0.715344 3.15942e-19)
(1.12531 -0.0601075 1.81824e-19)
(1.00279 -0.0175107 1.79538e-19)
(1.63478 0.90913 2.48978e-20)
(0.0849273 0.138835 7.26664e-22)
(1.71959 -0.849002 1.52505e-20)
(1.11026 -0.123024 -9.29627e-20)
(0.762545 0.0439421 1.07369e-19)
(0.896296 -0.27128 1.00883e-19)
(1.96057 0.139842 0)
(0.989114 0.759747 0)
(0.0763856 -0.32309 -2.16225e-20)
(2.06866 0.203292 -1.23314e-20)
(-0.45643 0.400586 1.14582e-19)
(1.01294 -0.520713 -6.00804e-19)
(0.599623 -0.512697 4.39141e-19)
(1.29202 0.207709 -1.10875e-19)
(-0.206699 -0.000372239 1.07425e-20)
(1.59898 -0.244112 0)
(0.759347 0.143573 -7.40174e-21)
(1.63764 -0.17722 -9.27279e-20)
(1.06754 0.786319 0)
(0.658288 -0.216475 0)
(0.648454 0.453003 0)
(-0.0283678 0.0185602 -3.59915e-20)
(-0.14582 0.172695 0)
(0.943468 -0.529838 2.70416e-19)
(1.24554 0.189589 7.39301e-21)
(-0.76142 -0.4742 1.9391e-19)
(1.96159 0.619504 5.25277e-20)
(1.87046 0.480391 -3.15797e-20)
(2.04947 -0.267834 -1.61732e-20)
(-0.179113 0.00834596 -1.74647e-19)
(-0.258578 0.0798873 2.38092e-21)
(1.9553 0.153392 0)
(0.682883 -0.035584 0)
(1.00076 0.000921461 2.1212e-22)
(-0.2488 0.275199 0)
(1.37012 0.0343336 -4.20447e-21)
(0.681621 -0.0319764 0)
(1.04265 0.0103062 1.46289e-19)
(0.989921 0.0157757 -5.06849e-20)
(1.15329 0.193621 1.23069e-19)
(1.06922 -0.0142131 -1.04883e-21)
(0.937696 -0.172975 -6.08212e-20)
(1.02016 -0.0224149 4.17233e-19)
(0.655165 -0.591093 2.09529e-19)
(-0.936867 -0.67027 -2.51238e-19)
(1.73332 0.561497 1.40866e-20)
(-0.0148653 0.0305243 0)
(1.15458 0.819301 0)
(1.02399 0.00425632 0)
(0.984981 -0.756351 -1.28062e-19)
(1.02614 -0.877708 7.58203e-20)
(1.36715 0.585253 4.9096e-20)
(-0.841543 -0.595767 -3.59612e-19)
(0.301673 0.170073 1.6143e-20)
(0.567322 -0.351565 -7.02628e-19)
(2.07285 0.284686 -1.25134e-19)
(-0.0643737 0.0885437 4.75956e-22)
(2.02448 -0.223773 4.17047e-20)
(1.4085 0.135449 -1.98569e-20)
(0.00617259 0.0670705 -7.40203e-20)
(1.13959 0.574686 2.27381e-19)
(-0.275166 -0.165506 0)
(-0.337657 -0.0162978 1.75517e-19)
(-0.166383 -0.121507 -9.09343e-23)
(1.02857 -0.0442478 3.7455e-19)
(1.02233 0.00886651 -9.62887e-21)
(1.10863 -0.00835964 -1.03458e-19)
(1.223 0.710775 5.85713e-21)
(1.67426 0.329472 7.95486e-20)
(0.385658 -0.358974 -3.51445e-19)
(0.937981 0.556129 -9.62916e-20)
(1.03082 0.0107604 -2.75114e-19)
(1.89618 0.621288 -1.45114e-20)
(1.04211 0.748834 0)
(1.13715 0.613732 -4.27155e-19)
(1.00259 -0.00327352 1.06439e-19)
(0.699183 0.628799 2.83675e-19)
(1.03843 -0.188381 -2.73755e-21)
(1.07459 -0.00532914 -3.41996e-20)
(1.13244 0.0194067 9.68831e-22)
(2.39411 0.0418883 1.5299e-20)
(1.3349 0.280693 0)
(1.04338 -0.0401333 0)
(1.04804 -0.0345814 6.54348e-19)
(1.00258 -0.00249436 0)
(-0.114957 -0.0784789 0)
(0.96409 -0.57564 0)
(1.00075 -0.000247859 -6.19109e-19)
(1.13719 -0.664289 1.05843e-19)
(1.02265 -0.000469277 1.30232e-20)
(1.3761 0.981544 -3.89976e-20)
(1.56288 1.03102 7.51181e-20)
(0.342963 -0.124083 -2.61237e-20)
(1.04797 -0.150998 6.31426e-20)
(2.0254 -0.0323707 0)
(-0.139421 0.317017 0)
(1.85868 0.0473262 8.4615e-20)
(1.02633 -0.226458 0)
(0.999699 -0.00485298 -1.91407e-19)
(1.01083 -0.00111496 3.72079e-19)
(1.48791 0.14942 -8.17706e-20)
(0.0185211 -0.111067 1.82225e-19)
(0.981045 0.00218802 2.02895e-19)
(0.561011 0.107179 -6.01676e-20)
(0.934195 -0.0611782 9.1336e-21)
(1.18833 0.72522 5.72315e-24)
(0.92707 0.0182756 -2.04385e-19)
(1.00372 0.0041702 2.40473e-19)
(1.0003 -0.000442076 1.4208e-20)
(0.78984 -0.0133534 0)
(0.728741 -0.0268914 0)
(0.724461 -0.0272675 7.24184e-22)
(0.701217 -0.0297319 0)
(1.33337 -0.0547571 0)
(1.22571 -0.114166 0)
(0.890885 -0.0762236 -2.88589e-20)
(0.792788 -0.0797636 1.59112e-20)
(1.61766 -0.330765 0)
(1.21186 0.350396 3.42429e-20)
(1.30968 0.581259 0)
(0.247643 0.22822 0)
(0.496242 0.100343 0)
(0.916876 0.250987 8.14548e-21)
(1.72301 0.234318 6.39009e-20)
(0.774009 0.0241759 0)
(0.785904 0.0200219 0)
(0.965765 0.0211932 -2.51781e-19)
(0.814898 0.00767465 4.6859e-19)
(1.00778 -0.00124522 0)
(1.00009 -0.000491179 4.44469e-19)
(1.00028 -0.000608924 -3.23741e-22)
(0.783799 0.022652 3.99828e-19)
(0.998568 -0.00472209 -2.32843e-19)
(0.249008 0.170785 0)
(1.07491 -0.0999338 -9.14031e-21)
(1.00063 -0.00119464 -2.24604e-19)
(0.999751 0.00110088 -3.85524e-19)
(0.75566 0.426725 0)
(0.998941 0.00158161 0)
(0.999648 0.00031788 0)
(1.669 -0.280574 -1.28541e-20)
(0.183039 0.35735 4.33528e-20)
(1.36056 0.60674 0)
(-0.196893 0.323249 1.99138e-19)
(-0.249076 -0.280591 -1.96601e-19)
(1.02036 -0.011096 -2.99965e-19)
(-0.109807 0.0763124 -6.17374e-20)
(1.01853 0.00863987 -2.41492e-19)
(1.14636 -0.207241 -1.29652e-19)
(0.781913 -0.449225 3.43282e-19)
(-0.0604663 -0.0380695 -5.5441e-20)
(1.02925 0.0156696 0)
(1.06726 -0.00942385 -6.59954e-20)
(0.844519 0.0247691 0)
(-0.0700165 0.0999111 2.19098e-19)
(1.0725 -0.353904 0)
(-0.113927 0.231803 -1.6097e-19)
(0.955365 0.133801 4.71095e-20)
(1.69731 0.705966 -6.36739e-20)
(-0.0542489 -0.00992375 0)
(1.05195 -0.0377835 2.02473e-19)
(-0.060208 0.259109 3.61809e-21)
(0.929335 0.00918258 3.15429e-19)
(1.01266 -0.00590911 -2.04306e-19)
(1.71477 0.887619 1.00057e-20)
(0.542686 0.512155 0)
(0.470474 0.435588 2.18145e-19)
(2.10816 -0.24432 -2.20714e-21)
(1.1695 0.13429 2.22356e-19)
(1.06824 -0.693894 0)
(1.02399 0.00795138 0)
(0.99997 -0.0173407 -4.69866e-19)
(1.01829 0.0178323 -4.58284e-19)
(-0.123121 -0.0382127 0)
(1.25228 0.846755 -1.60429e-19)
(1.19419 -0.16043 2.91453e-21)
(1.01616 0.00710591 1.76593e-19)
(1.01186 0.0147173 -2.21085e-19)
(-0.0956051 0.347074 -1.66107e-20)
(0.241367 0.0378386 -7.7141e-20)
(1.01914 -0.0106977 7.53078e-19)
(1.45078 -0.151767 0)
(1.90166 0.674403 -1.33455e-20)
(1.01621 -0.00784925 -2.3454e-19)
(1.87985 -0.00244407 -5.06684e-20)
(1.06578 0.0140014 -5.42353e-22)
(1.00962 -0.00900544 4.6854e-20)
(1.93734 -0.0822254 -1.10259e-19)
(1.01606 0.00773727 2.27387e-19)
(0.925879 0.851477 9.31794e-21)
(1.01829 0.00799427 0)
(0.945879 0.169181 5.53607e-20)
(-0.83734 -0.273511 3.05756e-21)
(0.998413 0.0227748 2.25681e-19)
(1.03968 0.0214488 -5.90808e-22)
(0.821802 -0.147503 -1.80772e-20)
(1.28457 0.329236 4.87448e-19)
(0.9943 0.0182238 1.55445e-19)
(1.01728 -0.0113254 4.81077e-22)
(1.7994 0.259031 -3.53869e-20)
(1.81749 0.971091 -9.06471e-20)
(0.761582 -0.682496 7.02488e-20)
(0.429395 -0.285151 -3.38444e-19)
(1.00756 -0.0084957 0)
(1.02007 0.00502104 5.64681e-20)
(1.01145 -0.00706635 1.19181e-19)
(1.01568 0.782413 1.66816e-20)
(1.01447 0.00941324 -2.36815e-19)
(1.02546 -0.0163228 2.71509e-19)
(1.00815 -0.00675714 -2.22751e-19)
(1.0136 0.00849531 -5.08924e-22)
(1.01294 0.00494013 -3.4945e-22)
(1.02465 0.01685 2.26775e-19)
(0.90908 0.108066 5.67152e-19)
(1.7574 -0.147429 0)
(-0.329098 -0.119744 3.87667e-20)
(1.01092 -0.000178995 0)
(1.02253 -0.0120575 -6.57885e-20)
(1.57342 0.462478 -1.12248e-19)
(1.6605 -0.0660884 0)
(2.10286 -0.209379 -1.21144e-19)
(1.09043 -0.353137 -6.27454e-20)
(0.779199 -0.0197571 0)
(1.71236 -0.0458439 0)
(-0.162545 -0.511906 -3.76785e-19)
(1.4612 0.589887 -4.59298e-20)
(1.01785 -0.00022759 -2.38674e-19)
(1.09847 -0.546493 -7.15519e-20)
(0.357833 -0.0193457 -5.48585e-20)
(0.860767 0.780375 0)
(1.43637 -0.217807 0)
(2.1878 -0.0605025 0)
(-0.042922 0.213977 7.59471e-20)
(0.861848 0.677085 1.6307e-20)
(-1.04086 -0.816163 0)
(-0.0450852 0.35756 -1.85482e-19)
(1.73889 0.995386 -1.4699e-20)
(1.00762 -0.000770335 -4.66207e-19)
(0.789122 0.587109 4.36379e-20)
(1.02105 0.0145554 3.09007e-19)
(0.703786 -0.0450063 0)
(-0.176613 -0.0693424 -1.77054e-20)
(0.638461 0.467167 -3.71112e-19)
(1.73465 -0.00637232 3.11236e-19)
(-0.0573191 0.31595 0)
(0.762386 0.0741878 9.22566e-20)
(0.538331 0.51663 5.65649e-20)
(1.21695 0.910253 -4.40002e-20)
(-0.0935557 -0.0970242 8.86014e-20)
(1.02428 0.0202068 0)
(0.822409 0.692713 -2.42247e-20)
(1.01197 0.000952644 1.75083e-19)
(2.39679 0.124329 0)
(1.01217 0.00994936 2.93547e-19)
(-0.197756 0.0105921 -8.41135e-20)
(1.01862 0.0148519 -1.81912e-19)
(1.58629 1.1078 0)
(2.46066 -0.294492 5.1283e-22)
(1.00911 0.00546172 -1.21856e-19)
(0.99694 -0.0149988 3.21222e-19)
(1.10805 0.107709 -3.0011e-21)
(0.952706 0.781919 7.13754e-20)
(-0.110961 -0.145036 2.37152e-19)
(2.0703 0.291068 1.38526e-19)
(0.13523 0.437705 -8.245e-20)
(0.799596 0.0146358 -4.39845e-19)
(0.823429 0.0316692 0)
(0.326932 0.303647 1.29748e-20)
(1.02306 -0.00739517 -3.5352e-20)
(0.971884 0.0416645 0)
(1.05325 0.00632838 -2.24554e-19)
(-0.996693 0.0880602 5.28406e-20)
(-0.686938 0.115021 1.22796e-19)
(2.12841 -0.525662 0)
(-0.15927 -0.0520893 -6.50005e-19)
(1.48036 -0.330444 0)
(1.04147 -0.0164683 6.57821e-20)
(0.716249 0.535325 -6.93514e-22)
(1.01321 0.00347876 1.8939e-19)
(-0.0741529 0.494786 3.33141e-19)
(1.01992 0.00553873 0)
(0.994506 0.00364747 -4.54296e-19)
(1.00874 0.00917882 2.40702e-19)
(1.3223 -0.275169 0)
(0.201391 0.234951 5.22272e-21)
(0.956486 -0.00122581 -2.05464e-19)
(-0.150897 0.0238925 2.21769e-19)