/*--------------------------------*- C++ -*----------------------------------*\
| =========                 |                                                 |
| \\      /  F ield         | OpenFOAM: The Open Source CFD Toolbox           |
|  \\    /   O peration     | Version:  2306                                  |
|   \\  /    A nd           | Website:  www.openfoam.com                      |
|    \\/     M anipulation  |                                                 |
\*---------------------------------------------------------------------------*/
FoamFile
{
    version     2.0;
    format      ascii;
    arch        "LSB;label=32;scalar=64";
    class       volScalarField;
    location    "22";
    object      p;
}
// * * * * * * * * * * * * * * * * * * * * * * * * * * * * * * * * * * * * * //

dimensions      [0 2 -2 0 0 0 0];

internalField   nonuniform List<scalar> 
2186
(
1.06222
0.0377801
0.320933
1.36358
-0.838493
0.0790747
0.994164
-0.595153
-0.521677
1.58889
1.20831
-0.502951
-0.609919
1.25581
-0.173679
1.24816
1.27963
-0.928385
0.0430521
-0.881927
1.63858
-0.861843
1.2628
-0.578382
1.25417
1.33985
1.47578
1.20526
0.707182
1.25542
-0.862541
1.25456
-0.809325
-1.13967
-0.506687
0.181442
-1.02919
1.62121
-0.655353
0.0135499
-0.616311
-0.83361
-0.275737
-0.993227
1.06812
1.5704
0.687542
0.844274
-1.02852
-0.91569
-0.869797
1.0384
-0.272082
1.53924
-0.867507
1.25123
-0.321637
1.2773
-0.701418
1.0938
-0.918281
0.766482
0.668978
0.0241395
0.69485
0.788986
0.791054
1.53109
1.42532
-0.553475
-0.590696
-0.987128
1.51345
1.29558
1.3964
1.44541
-0.997447
1.27358
-0.509444
-0.73075
-0.877869
0.0335421
1.2502
0.746484
1.24629
1.25163
1.52248
0.104088
0.0349838
-0.520673
1.25158
-0.851588
1.19604
1.43421
1.26263
0.519045
0.205489
0.713881
-0.887801
1.2897
-0.782498
-0.757565
0.777987
1.21499
1.28195
-0.845026
1.40418
-0.36937
1.23144
-1.77024
-0.719789
-0.886378
0.86902
1.5274
-0.488725
-0.647811
-0.076837
-1.21093
-0.52202
1.52077
0.0330329
-0.952022
0.995026
-0.937985
1.25375
-0.0648744
-0.871682
1.43472
-0.928301
0.976641
1.65887
1.52448
0.584397
0.969084
-0.860455
-0.920332
1.22418
-0.579188
-0.520927
-0.543827
0.93274
0.163573
-0.581633
1.01751
1.19129
1.22703
-0.294526
-0.843688
0.929841
-0.946377
-0.857726
0.90294
1.2767
1.47162
1.3392
0.853715
1.51048
0.55282
0.446154
0.755297
-0.544151
-0.754786
1.20921
1.28378
0.0479313
0.0637785
-0.428875
-0.484899
-0.327881
-0.362815
0.455546
1.29405
1.28013
1.40345
0.525159
-0.24055
-0.813211
1.20904
-1.05261
1.01028
-0.48662
1.26745
-0.871244
0.66019
0.636794
-0.813555
-0.627625
1.31372
-0.465536
-0.630003
-0.808015
1.49732
-0.828201
1.26987
-0.538668
-1.77011
0.14746
1.41203
1.24098
-0.87399
-0.610038
-1.59787
0.435509
1.28893
-0.520896
-0.849376
-0.513482
-1.28497
1.16777
-0.850153
0.846075
0.128213
1.51635
0.964621
1.07061
1.25144
1.37374
1.25632
1.20347
1.28918
0.706283
-0.634306
-0.843864
0.168478
0.536313
-0.94422
-0.861119
1.20645
1.40837
-0.489502
-0.459267
-1.32874
0.707732
0.971782
1.07359
1.20536
1.4158
-1.0263
1.18952
-0.556827
-0.912965
-0.657747
1.16277
0.856649
1.33708
1.4349
1.29238
1.26544
-0.572469
1.13719
1.33111
-0.597388
1.14708
0.90858
-1.21629
-0.514586
-0.474205
1.33766
1.27347
-0.629823
-0.89407
-0.932959
1.25984
-0.937291
0.891489
1.25542
1.14523
-0.515841
-0.859171
1.2403
0.767937
-0.355577
-0.441063
1.56821
-0.853131
-0.578341
1.12563
1.47636
1.24905
-0.870686
-0.817787
-0.44986
1.09552
-0.612805
0.873498
1.23505
1.3127
0.168854
-0.19302
1.18792
-0.55062
1.22783
1.48706
1.27011
1.26746
-1.25029
-0.905385
-0.583569
-0.891002
-1.49335
-0.735714
0.7166
-0.169165
0.723773
1.46389
1.39939
1.09365
-0.31994
1.36902
-0.619749
0.0725937
-0.669897
-0.540035
-0.654621
0.689788
-0.858354
-0.859615
0.238161
1.11815
-0.566156
0.476217
-0.881243
-0.0174324
-0.660468
-0.876505
1.46533
0.0409035
-0.0670072
-0.846573
1.10429
0.687272
-0.346729
0.848598
-1.3349
-0.660207
0.781712
1.28222
1.2504
-1.70737
1.39838
1.19841
0.472572
1.53356
1.2415
1.20786
0.697882
-0.551658
-0.55104
1.02803
-0.974274
-0.487006
-0.665338
-0.636537
-0.526101
1.58261
-0.980101
-0.866798
-0.59325
1.24166
-0.793511
-1.20309
-0.896532
1.07733
-0.25402
-0.897264
1.48533
1.55039
1.42366
-0.587557
-0.214034
1.59657
1.24838
-0.836523
0.558374
-0.563612
0.523455
1.39893
1.16206
1.16138
1.57771
-0.132247
-0.664489
-0.463166
-0.955063
-0.824672
-0.850031
0.0778788
1.51643
-0.943218
-0.755032
1.23022
0.9107
-0.522664
-0.99413
-0.555371
-0.937822
-0.748459
-0.533516
-0.837837
-0.839787
1.45925
-0.737287
-0.633313
1.26891
-0.705209
1.55024
-1.0279
-1.58986
-0.886573
1.25282
-0.483454
1.27213
1.15995
-1.56847
1.32746
-0.934784
-0.530147
-0.624701
1.3156
1.21209
-0.535278
-0.563748
-0.692546
1.15822
-0.852748
-1.40286
0.617662
1.14676
1.16022
1.00877
-0.552423
-0.765308
1.0127
-0.804715
1.09833
-2.07335
1.27426
0.0152417
1.42502
-0.523056
1.16492
0.85382
1.27902
-0.611771
1.23418
-0.922164
-0.527551
1.25632
-1.44403
0.222199
-0.65343
-0.0864756
1.25123
0.438422
0.633607
1.24167
0.324542
0.199062
-0.115888
-0.867774
0.574828
-0.642142
0.846757
-0.64808
1.24781
1.43207
-0.578336
-0.53846
-0.650659
-0.864307
0.539913
-0.679739
0.979184
0.293214
-0.616815
1.31148
-0.621691
0.467338
0.641124
-0.368759
0.937585
0.437058
-1.07332
-1.97624
-0.377053
-0.849471
1.26607
-2.09361
1.38392
1.51715
1.50273
0.782039
1.35599
-0.840945
-0.780081
1.17373
0.565691
1.23163
-0.849734
-0.621911
-1.21874
1.09459
-0.530718
-2.12509
-0.892532
-0.936942
0.16426
-0.740213
0.878677
0.867022
-0.538739
-0.564477
1.06886
0.432041
1.32118
-2.06824
-0.140183
-0.532366
0.896772
-0.10423
1.46852
1.61334
-1.25749
-0.8527
-0.434509
0.396034
-0.949199
1.34132
-0.627883
1.29987
0.928816
-0.539122
1.05407
1.0159
-1.44407
1.15722
-0.876889
-0.857506
-0.919016
-0.492544
-0.833141
-0.957362
-0.631313
1.25763
0.297267
-0.871353
0.918286
1.40266
1.50539
0.0250811
1.05752
-0.583499
1.09483
-0.158437
-0.929911
-0.855002
0.608704
0.970571
1.25387
-1.60587
-0.56421
-0.794717
-0.530576
0.254049
1.05009
-1.43826
0.173853
-0.782962
1.11181
-1.48681
1.18052
-0.875397
-0.79516
1.21674
0.970108
-1.0505
-0.134109
1.19628
1.57873
1.27611
-1.56082
-0.950698
1.1121
-0.817641
1.09837
-0.536944
0.550513
1.19239
-0.640108
-0.863713
1.20865
-0.621328
1.44785
-0.185812
1.18986
0.185989
0.945838
-0.364202
1.5036
-0.861569
-0.814967
1.12507
0.635788
0.61755
-0.69995
-0.881887
-0.731505
0.954261
-0.158849
-0.71572
-1.64557
1.26721
0.498622
-0.949912
0.900692
1.05733
1.21869
-1.85028
-0.776591
-0.850373
1.2677
1.3719
0.825165
1.26451
0.0804232
1.34607
0.248952
-0.468938
-0.651757
1.19803
1.23497
-1.02106
1.00128
-0.862907
0.972563
-0.841723
1.17207
1.24781
1.26691
-2.14854
1.09785
-0.781692
-0.608942
1.43234
-1.42596
-1.98946
1.32765
-0.755245
1.2935
-1.22512
-0.861279
1.21959
1.09728
1.63942
1.254
-0.939943
1.38519
1.2898
-1.02917
0.762586
-0.159717
-0.433082
1.75027
-0.551992
1.33514
-0.858594
0.646048
1.25491
-0.772793
1.2256
-1.49143
1.08662
1.22258
1.2716
0.195398
-0.626097
-0.208771
0.898606
0.971092
1.35387
-0.276831
0.978984
-2.08003
-0.32094
-1.06491
1.14489
1.44448
-0.808447
-0.543449
-0.0956119
1.47453
-0.258541
0.874756
-0.365805
-0.831005
-0.576217
-0.877691
-1.62222
0.980204
-1.57228
-0.275301
-0.281794
-0.170257
-0.912347
-0.661126
-0.371015
1.20367
1.27142
-0.726793
-0.0887044
1.22212
1.20917
1.2728
-0.902358
1.21819
1.33757
1.25763
1.36311
-1.52397
-0.1513
-0.863223
0.746319
1.26289
1.02971
0.50867
-0.091877
-2.1717
0.10749
1.5494
-0.185605
0.391752
-0.276681
-0.0998616
-0.597982
0.939785
-0.477641
-0.723186
-0.526467
1.24465
1.25711
1.25594
0.0298282
0.452369
1.53117
-0.116111
1.25646
-0.0976338
-0.0167128
0.910223
1.26896
1.27526
0.0925891
1.20898
1.21082
-0.786251
-0.0624065
1.25707
1.27113
1.27026
-0.535254
-0.57127
1.27152
0.937391
1.25655
0.295835
-0.0723974
0.175226
-1.90887
-0.5285
-0.848879
-1.23409
-0.601489
1.2753
1.27973
0.924514
-0.537574
1.24426
-0.111047
0.169166
0.00971629
1.25657
1.27726
1.27213
1.28168
1.25728
1.2491
1.23745
-0.103348
0.179355
0.0469809
0.0883887
0.00936151
0.0470746
0.0153782
-0.115716
-0.116012
-0.0828366
-0.126765
1.25219
1.26939
1.26469
1.28536
1.28193
1.27247
1.27418
1.26017
1.25427
-0.138029
0.157551
1.27174
1.27245
-0.00823755
1.27514
1.27192
0.0805193
0.318142
-0.0882334
-0.797614
-1.80188
1.25321
-0.623954
1.25457
0.942341
1.37642
-0.549659
1.25581
1.17005
1.21559
-0.862617
-0.35752
-0.676801
-0.0732455
0.0199539
-0.868123
1.26406
0.216669
1.34281
1.25578
-0.124441
1.37484
1.54139
0.0695522
1.07136
0.990902
1.24754
1.26632
1.26384
-0.548529
0.600577
0.126089
1.25562
1.26893
-0.701271
0.268183
1.25614
0.111266
-0.302566
1.25733
-0.925062
1.22726
1.26821
-0.575259
1.2664
0.342579
1.25634
1.30561
-1.72996
1.27363
1.28052
0.165453
0.845781
1.2597
1.25896
0.253852
-0.762682
1.04143
1.636
1.26432
1.26078
1.26159
0.435655
1.25949
1.25306
1.26184
1.258
1.25898
1.25978
1.34686
-1.02114
-1.84195
1.26129
1.25117
0.395836
-0.945225
-0.911047
-1.15784
1.08556
-1.05379
-1.23001
0.161121
1.25543
1.04894
0.212384
-0.0321604
-0.0381237
-0.800919
-0.844044
0.345515
-1.08958
-0.955772
-0.300528
1.26438
0.270319
1.25122
1.14405
-0.533162
1.45957
-0.780949
-0.921133
1.05448
1.33024
0.572006
-0.524483
1.24673
0.214707
1.26143
-0.703781
1.2624
-0.674613
1.2522
0.150768
-0.892223
1.26349
1.28021
1.16109
0.104097
-0.520662
-0.683899
0.130128
1.27864
1.12388
0.229379
1.24972
1.2958
1.23828
0.277279
-1.36973
-0.262454
-1.38288
0.663896
1.25579
-0.0723891
1.25905
-1.05108
1.25177
1.29075
1.26587
-0.0306218
-0.0460859
1.29295
-0.604662
1.26803
1.27069
0.37472
-0.59834
1.12035
1.35358
1.25031
1.24043
0.0406269
-0.230108
1.23734
0.755312
1.26575
1.162
-0.797914
-0.581593
1.05796
1.52197
1.25003
0.690179
-1.19789
0.306472
-1.62872
-1.19479
1.24982
-0.9028
1.2303
-0.946829
-0.54179
-0.84673
0.592142
-0.568774
-0.8666
-0.548474
1.25045
-0.52407
1.08903
-0.558622
0.203571
-0.232744
0.204933
-0.749998
1.21314
0.150072
-0.376438
-0.383954
-0.764304
1.25218
-1.06106
0.171702
-1.05715
1.29638
-0.640487
-0.555908
1.3212
1.24974
1.24359
0.814665
-0.484812
1.25284
1.27435
-1.78579
-0.852827
1.25025
1.11685
1.4741
1.2684
-1.29617
-1.05424
-0.863494
-0.824455
-0.827334
-0.529266
0.010124
-0.579277
1.1206
0.346879
1.26672
1.44313
1.2448
-0.525449
-0.606163
1.2514
-1.54684
-0.588471
1.24378
0.0604928
-0.751944
-1.19015
-0.0843273
1.17739
1.1454
-1.59929
1.1298
0.837794
-1.5727
1.24945
-0.886385
1.01408
-0.827297
1.27873
-1.71332
0.764394
1.25327
1.29221
-0.907536
-1.17512
1.0384
1.62547
1.27275
1.21205
-1.36634
1.54087
-0.439265
-0.365049
-0.402015
0.81125
-0.909192
1.36135
1.45464
-0.56615
-1.66915
1.24556
-0.640092
1.16283
1.28181
1.19483
-1.03559
1.2521
-0.00439278
1.2839
-0.039323
-0.480215
-0.0689438
1.25611
0.136863
-0.44372
-0.839895
1.28154
-0.697446
1.40555
0.614549
1.54929
1.17639
-0.674098
1.24824
-0.855881
1.20879
1.21581
-0.336968
-0.870849
1.33351
1.23357
1.43904
1.1917
0.446995
1.18938
1.25555
1.07118
1.25818
-0.508333
-0.878705
-1.49748
1.37474
-1.55153
-0.822327
-0.85993
-1.73513
-0.492432
-0.0374331
1.04785
-0.379316
1.22733
1.28567
-0.85353
-0.678875
-0.678229
-0.89049
-0.785075
-0.856755
1.24985
-1.57272
1.26863
1.52378
1.31265
-0.117419
1.27504
1.16583
-1.27962
1.23684
1.22557
-0.78421
1.22696
1.13174
0.106011
-0.704379
1.72359
-1.69794
-0.886668
-0.641899
0.591106
1.24211
-0.898184
-1.06334
-0.864802
1.37794
-1.19445
1.03644
1.25811
1.2547
-1.02038
1.2495
-0.937103
1.26385
1.27908
-0.372071
1.2704
0.651228
1.25961
1.03157
-0.956499
0.087024
0.0768537
0.165102
1.46895
-0.148073
1.27053
1.63292
-0.79804
-0.0509455
1.32302
-0.0458758
1.32026
-0.0624948
-0.0872488
1.3149
1.31953
0.768829
-0.796998
0.938537
-0.799401
-0.881316
-0.674488
1.27276
1.2703
1.70382
-0.524913
-1.33203
1.06797
-0.700437
1.31342
1.20024
1.26691
1.23877
1.22782
-1.57963
-0.530924
-0.787709
1.00938
1.14848
-1.13918
-0.855234
-0.555722
1.2723
1.30283
-1.35548
-1.13363
1.2879
-1.48276
0.352136
0.950459
1.11254
-0.298815
-0.67823
-0.135722
-0.63963
-0.83273
-1.66011
-1.65966
1.66256
1.59092
-0.781713
-0.630654
1.27122
1.24857
-0.849802
0.3065
0.0305795
0.82162
1.34306
-0.834521
1.25897
-1.5559
-0.658647
-0.710912
-0.873444
-0.977573
1.25648
-0.629536
-0.984807
1.59705
-0.624131
1.26044
1.45445
-0.852945
1.35522
1.54997
-0.834962
1.46174
-0.61964
-0.657146
1.23748
-0.0948508
1.3269
1.26407
-0.612528
1.33194
0.506094
-1.79414
1.29158
1.34386
-0.473894
-0.86537
1.17424
1.25255
-0.584703
-1.08877
1.50453
-0.604408
1.13564
0.0435164
1.22327
-0.498619
-2.00846
-0.56259
-0.822315
1.2996
1.30651
1.58525
1.42277
1.17543
1.3113
1.26876
-0.556025
1.34386
1.44906
-0.853044
-0.596544
-0.801334
1.54841
-1.6823
-0.634497
0.211182
1.13183
-0.851614
-0.750923
1.22211
1.33381
-0.57029
-0.857263
-0.621124
0.294399
-0.993715
-0.843254
-0.549483
1.08133
1.21503
-0.860694
-0.402396
-0.446252
1.02841
-0.601968
-0.805829
-0.54418
1.26387
-0.996368
-0.856051
1.62283
1.18033
0.735745
1.49802
-0.222916
1.29682
1.26076
1.39382
1.51091
-0.385136
0.857672
1.21233
0.622932
-0.538504
1.67823
1.2477
1.21095
1.33996
-0.855373
-1.216
1.15634
0.999508
1.23572
-1.57178
-1.49115
1.25054
-0.539402
1.13175
-0.207357
1.64695
-0.534178
0.916419
1.06964
-0.863451
-0.530042
-0.868863
1.36412
-0.862655
-0.525202
1.03417
0.789884
-0.86466
1.31535
1.15161
-0.861455
-0.70573
1.18278
-1.74807
-0.527071
-0.598444
-0.867056
-0.565717
1.20927
1.28199
-1.89702
0.957649
1.2647
1.58742
0.63348
0.437764
0.149655
1.20336
-0.0534945
-0.864592
-1.46906
-0.522002
-0.865595
1.23663
-0.856475
0.319078
-0.524201
0.716689
0.911954
-0.866111
0.973873
-1.9531
0.843541
-0.866753
0.636125
-0.865754
0.742928
-0.521366
0.545754
-0.86757
1.14652
-1.09193
-0.872371
-0.884227
-0.521406
1.27128
0.459222
-0.917333
-0.529265
0.174965
0.262268
-0.857958
-0.527192
-0.962885
0.261804
-0.54444
-0.00209005
-0.575053
-0.22702
-1.0442
0.102216
1.1079
0.120017
-1.30562
1.21749
0.0553908
-0.111898
0.795753
1.24066
-0.93374
-1.7141
-0.523664
-1.01626
1.19017
1.65845
-1.08435
-0.416059
0.391341
-0.630095
-0.272126
0.0260461
1.20318
-0.758327
1.23024
-0.817218
1.72191
0.79224
1.70678
-0.858553
1.49374
-0.493743
1.31881
-0.621209
-0.520158
1.38627
1.26423
-0.878642
-0.525239
-0.88049
1.18918
-0.805088
1.23304
-0.760933
-0.577852
-0.564435
1.5567
1.26992
1.41963
1.24874
1.27506
-0.288988
-0.190432
1.42292
-1.62751
-0.635429
1.64963
-0.854564
1.13878
1.25134
1.63359
1.70302
-0.8565
-0.820707
1.30181
0.585502
-0.0592029
-0.836616
-1.32876
-2.14633
-0.854039
0.877819
-0.941396
1.50455
-1.13283
1.25237
1.36303
1.26319
-0.747369
-0.499909
-0.727914
1.35024
-0.698217
1.38778
-0.689037
-0.798221
1.45857
1.59948
-0.515874
0.22065
1.22046
-0.830517
-0.84741
0.988559
1.49566
1.50552
-0.921153
1.10086
1.03706
-0.521394
1.51996
0.432376
-0.859328
-1.24633
-0.126518
0.086717
1.33134
-0.672722
0.406875
0.125431
-0.128763
-0.659838
-0.504368
1.2306
-0.887371
1.24965
0.0180478
0.45222
1.0124
0.608119
-0.511838
-0.571611
-0.729993
-0.132237
0.212223
-0.797784
1.13101
-1.26284
-1.27092
1.23109
-0.72869
-0.852176
1.27087
-0.472616
1.17101
-0.0146364
-0.537933
0.0486373
1.10587
-0.373665
-0.984376
1.19543
-0.571443
1.34377
-0.171169
-0.751794
-0.631861
-0.522708
1.76542
-1.21839
1.41641
0.227731
1.23425
1.43163
1.0439
1.30782
1.37252
-0.0333981
-1.00476
1.2455
1.39303
1.64049
-0.626126
1.28874
0.847259
-0.622985
1.11125
1.51108
-0.535998
1.56954
0.27665
-0.766659
1.15577
-0.615804
-0.87633
1.22347
-0.411851
1.32538
1.36681
1.18508
-0.794935
1.11084
1.48261
-0.884432
-0.252079
-1.09872
-1.2327
-0.725561
-0.527163
1.64423
1.07681
-0.830536
1.22962
-0.608523
-0.695598
1.56875
1.4431
-0.914727
-0.930607
-0.521957
-0.559152
1.26119
-0.84054
0.437968
-0.817066
-0.376301
1.3288
-0.591383
1.61919
1.29143
1.18397
1.26071
1.52607
-0.80832
-0.602256
1.30307
1.44035
-0.678661
1.27616
-1.38857
-0.560329
-0.576453
1.28916
1.32152
-0.567434
-0.849392
0.884453
0.292841
-0.815993
1.22364
1.15598
-0.962242
1.19965
1.24611
-0.68988
-0.852556
-0.814848
-0.554034
-0.575191
1.60327
-0.771609
1.10562
-0.850666
1.60401
1.09765
1.05277
1.15509
-2.0681
-1.30837
-0.547885
0.686751
-0.857754
1.23752
0.647938
-0.516932
1.06701
1.3177
1.29393
1.24936
-0.0338002
1.29917
-0.066227
0.758464
1.00213
-0.531048
-0.855489
-0.97959
-0.678638
1.26922
1.2833
1.26921
-1.00841
-0.386532
-0.542128
-0.810269
1.2617
1.51109
1.27592
-0.856784
-0.701286
-0.850465
-0.508361
-0.523484
-0.522829
-0.128386
1.23715
-0.730182
-0.861276
0.132179
0.277261
0.891743
-1.9431
-0.537075
-0.566641
1.14939
1.69045
0.243864
1.37064
1.73487
0.825455
1.43751
-0.850629
-0.0313653
1.68489
-0.532169
0.660466
-0.858722
-0.578758
-0.874936
-0.863188
1.2699
1.06089
1.40546
1.36413
0.0348686
1.10418
0.154355
0.104273
-0.527929
1.3748
0.893816
1.27175
1.28808
-0.150146
-0.0263079
1.29071
-0.98265
-0.526003
-0.86222
-0.885256
0.918831
-0.864083
1.23128
1.00041
-0.532363
1.53101
-0.849835
-0.267256
1.24777
-0.670967
-0.677783
-1.34199
0.755604
-0.86059
-0.890212
1.10124
1.27989
-0.159387
0.398527
-1.56291
-0.524738
-0.663776
-0.937218
0.173263
0.937526
-0.784117
-0.865208
1.48404
0.384073
0.495082
-0.866115
-0.584794
1.25921
1.35525
0.67848
0.876184
-0.866303
-0.634498
-0.342577
0.594603
0.789227
-0.866929
1.05343
0.255583
-0.867539
1.67846
-0.87479
-1.10181
-0.573712
-0.816269
1.16467
-0.895976
-0.827633
-0.534354
0.375333
-0.937099
0.0970109
-0.77377
-0.082368
1.39663
-0.996288
0.20321
-0.560026
-0.0998644
1.56634
1.67882
1.44647
1.26349
1.4207
-0.734851
1.2458
-0.850879
1.3518
-0.525039
-0.475901
1.55929
-0.648212
0.812653
-0.934986
1.67297
0.0492416
1.61353
0.753819
0.963622
-0.859389
-0.853438
-0.520598
-0.909888
1.57073
1.41742
1.24007
0.950855
1.25515
1.18769
0.987394
-0.865843
-0.55079
0.388304
0.272622
0.959418
1.2639
0.338199
-0.854018
-0.866193
-0.774195
-0.521069
-1.12954
1.63392
1.28305
1.25864
-0.148251
-0.051843
1.28707
-1.31702
-0.526215
-2.04015
-0.625942
0.946924
-0.859887
-0.864952
0.0684376
1.24067
-1.03413
-0.571432
1.25343
0.944871
1.02363
1.24696
-0.522888
1.04651
1.46935
1.16078
-0.520446
1.25395
0.705244
0.594138
-0.746514
-0.862821
1.68972
0.592501
-0.792404
0.381997
1.08937
1.18281
-0.636565
-0.87362
-0.0899056
-0.788991
-0.46996
-0.828102
0.0218739
1.24026
-0.899849
1.22117
1.5562
1.39791
1.2096
1.2913
1.35914
1.25204
-0.917393
-0.255565
-0.370464
-0.599899
-0.438686
-0.866295
1.37103
1.25072
-0.606709
1.2509
-0.710051
-0.228363
-0.871784
-0.600654
0.866
-0.653417
1.23522
1.08252
-0.924722
-0.0102579
1.58966
-0.937356
-1.29415
-0.559743
-0.827348
-0.850981
1.30896
0.939258
1.3881
-0.757494
-1.06851
-0.507658
-0.311294
-0.611069
-1.18666
-0.899392
-1.32311
1.09142
-0.323529
1.73325
-1.13856
-0.183324
-0.560279
-0.86659
1.21929
-0.581207
-0.75629
-0.457704
0.0152431
1.40149
1.50716
-1.9559
-1.4724
0.993998
-0.543502
-0.433722
1.39174
-0.806382
-0.898301
-0.852633
0.913206
-0.0537341
-0.615441
1.24063
0.133594
-0.828669
1.24559
-0.716185
-0.976174
-0.909129
-0.963978
0.274063
-0.616772
1.537
-0.534837
0.508135
-0.526539
0.957811
-0.771567
-0.717022
0.798135
1.07182
1.31616
1.237
1.40138
-0.895472
1.14218
0.877809
-0.875149
1.14238
-0.329257
-0.79043
-1.17572
1.46803
1.45197
-0.762769
-0.718999
-0.789265
1.20066
-0.743595
0.192632
-0.670532
-0.868066
1.50041
1.20772
-0.856692
-0.79644
-0.855519
-0.859397
1.12
-0.85724
1.16875
0.343664
0.863003
1.00584
-0.85346
-0.744965
1.12593
-0.868819
0.0455075
1.53678
-0.545552
-0.858669
0.984847
-0.892602
-0.813758
0.164754
-0.654389
1.61727
-0.230297
0.483285
-0.856153
1.59718
-0.851649
-0.7861
0.79281
-0.640079
-0.524611
1.60823
0.825398
1.31835
-0.822521
1.44127
-0.410322
-0.400615
-0.833743
-0.834891
-0.851855
1.47663
0.718986
-0.569609
-0.854788
-0.622679
1.3428
-0.740748
1.57459
-0.524663
0.89413
-0.861733
0.496785
0.678795
0.641487
0.55332
0.537986
-0.759352
1.20534
-0.837686
-0.679451
-0.584379
0.620544
1.61226
0.048564
-0.81525
-0.857189
-0.861461
0.381009
-1.12514
-0.861978
1.16515
0.534702
-0.856717
1.67254
-0.618125
-1.03359
1.62672
-0.859365
0.256451
-0.73205
-0.868566
-0.863794
1.64867
-0.873554
1.5519
-0.863922
-0.755835
1.39235
0.11917
-0.772872
0.708152
-0.642778
0.110406
-0.0453038
-0.861809
1.11438
-0.577573
-0.859977
-0.868014
-0.871158
-0.533122
1.14735
-0.0781864
-0.113441
-0.856683
1.5757
-0.448263
-0.805675
-0.836754
0.20151
-1.0162
-0.858973
-0.859058
0.248462
1.45765
-0.850351
-0.523644
-0.932274
-0.330049
-0.165457
-0.538768
1.65933
1.58648
0.544002
-0.765386
-0.529703
0.451509
-0.531739
1.66462
0.320134
1.38008
0.853851
1.57835
0.191461
-1.02323
-0.766456
0.0248122
-0.836139
0.0250262
0.253388
-0.863773
1.56628
0.0495677
0.332937
-0.0845575
-0.522795
-0.794497
)
;

boundaryField
{
    frontback
    {
        type            empty;
    }
    Top
    {
        type            zeroGradient;
    }
    outlet
    {
        type            fixedValue;
        value           uniform 0;
    }
    bottom
    {
        type            zeroGradient;
    }
    Inlet
    {
        type            zeroGradient;
    }
    rectangle
    {
        type            zeroGradient;
    }
}


// ************************************************************************* //
