/*--------------------------------*- C++ -*----------------------------------*\
| =========                 |                                                 |
| \\      /  F ield         | OpenFOAM: The Open Source CFD Toolbox           |
|  \\    /   O peration     | Version:  2306                                  |
|   \\  /    A nd           | Website:  www.openfoam.com                      |
|    \\/     M anipulation  |                                                 |
\*---------------------------------------------------------------------------*/
FoamFile
{
    version     2.0;
    format      ascii;
    arch        "LSB;label=32;scalar=64";
    class       surfaceScalarField;
    location    "22";
    object      phi;
}
// * * * * * * * * * * * * * * * * * * * * * * * * * * * * * * * * * * * * * //

dimensions      [0 3 -1 0 0 0 0];

oriented        oriented;

internalField   nonuniform List<scalar> 
3181
(
-1.02695
0.397829
0.629125
-0.379319
0.357683
0.0216359
0.511119
-0.350825
-0.160294
0.116961
-0.194424
0.0774628
-0.0549497
0.0691789
-0.0142293
0.535737
1.17357
-1.70931
0.144258
-0.138115
-0.00614263
0.0426511
0.00190945
-0.0445606
0.560524
-0.712428
0.151903
-0.0756406
0.131889
-0.0562481
-0.0105285
-0.0531414
0.0636699
0.112386
0.0499733
-0.16236
-0.010629
-0.0309496
0.0415787
-1.09683
0.152338
0.944493
-0.320814
0.68064
-0.359826
-1.12333
0.640428
0.482905
0.0842145
-0.931471
0.847256
-0.141948
0.0301672
0.111781
-1.346
-0.20249
0.00430175
0.0516036
-0.0559054
0.0456666
-0.0913507
0.045684
-0.0553452
0.0513748
0.00397038
1.06305
-1.03979
-0.0232683
0.0172464
0.0336584
-0.0509047
-0.956422
0.329146
0.627276
-0.106563
0.223524
0.304114
-0.251365
-0.0527492
0.0287041
0.0601941
-0.0888982
-0.419963
0.346004
0.0739594
-0.0337774
-0.0196916
0.0205827
-0.000891141
-0.0392788
-0.917143
0.0410206
-0.043682
0.00266142
0.246142
1.5229
-1.76905
-0.047785
0.0440054
0.0037796
0.185317
0.279832
-0.465149
1.86438
-1.61824
0.074903
-0.0292364
1.56181
-0.845283
-0.716527
-0.687147
1.22288
-0.0780033
0.0673743
-0.048745
-0.00660014
-0.397704
0.0768898
-0.138287
0.089542
-0.642195
0.126293
0.515901
-0.14297
0.0673294
-0.163597
0.167644
-0.00404655
-0.264965
-0.075036
0.340001
0.336709
1.09101
-1.42772
0.0410282
0.082845
-0.123873
-0.0153898
-0.103542
0.109906
-0.00636386
0.506265
0.174375
-0.0951254
0.147767
-0.0526413
0.0866834
-0.0456628
-0.166413
0.191818
-0.0254043
0.15933
0.0539013
-0.213231
0.105345
-0.111089
0.00574429
1.20232
0.359491
-0.84502
-0.181934
-0.0542283
-1.68186
1.73609
0.5607
0.237723
-0.798423
-0.45386
-0.210391
0.664251
-1.08224
0.395095
-0.278146
0.838846
-0.316379
-0.100656
0.417034
-0.211113
-0.20885
-0.186283
0.1697
0.0165828
0.145906
0.280084
-0.42599
-0.126943
0.687467
-0.0166883
0.0593394
-2.11494
2.06071
0.178416
0.125698
-0.172432
-0.110324
0.282756
-0.268146
0.363137
-0.0949908
-0.0776288
0.0858625
-0.00823369
-1.77823
-0.919566
0.0112571
0.908309
-0.043348
-0.00443701
-1.11374
0.798921
0.314824
0.247734
-0.236409
-0.0113249
-0.856383
-0.225859
1.10212
-0.949785
-0.732006
1.1456
-0.201106
1.06284
0.174609
-0.17217
-0.00243939
1.70655
-0.532976
1.18018
-1.18018
-0.00789573
-5.33938e-05
0.00794912
-0.205935
-0.0526012
0.258536
0.0784391
-0.0587772
-0.0196618
-0.451924
0.824199
-0.372274
-0.0267992
-0.225658
0.252458
-1.0829
0.0431185
0.353198
0.0582401
-0.411438
0.1318
-0.873781
1.1115
0.0568577
0.0397886
-0.0966463
-0.0175894
-0.148824
-0.0189053
-0.155735
0.174641
-0.124294
0.105389
0.121894
-0.995675
0.323635
-0.775559
0.923546
-0.839331
-0.00285896
0.110712
-0.107853
0.0878537
0.0535896
-0.141443
-1.38096
-0.0730289
1.45399
-0.237644
0.400812
-0.163168
-1.02981
0.541832
0.487983
-0.478868
-0.634877
0.106735
-0.0657067
-0.148465
0.143056
0.00540816
-0.0787999
-0.0166982
0.0954981
-0.501256
-0.211171
-0.0526448
0.0228643
0.0297805
-1.09277
-0.31268
1.40545
1.61923
-0.528221
-0.0111175
0.00322174
0.028752
0.149664
-0.204277
0.389594
0.013576
0.0497069
-0.0632829
0.14268
0.0702817
-0.212962
0.259541
-0.253817
-0.00572348
-0.594374
-0.528959
-1.25161
0.158839
-0.0450757
0.101933
-0.100499
0.17829
-0.0777906
0.117593
0.0241515
0.120106
-0.0562945
0.0660411
-0.00974659
-0.0917497
-0.0201633
0.111913
0.0718912
-0.0718912
-0.180209
0.20436
0.12344
0.096421
0.1017
0.0901172
-1.2255
1.09856
-1.52411
0.081793
1.44232
0.019166
-0.0161486
-0.0030174
-0.027461
-0.0533028
0.0807637
0.528806
-0.0248225
-0.503983
-0.0222749
0.0229341
-0.000659239
-0.194804
0.0145957
0.163938
0.66026
-0.360629
0.524567
-0.183199
-1.19776
-0.0715945
0.0166448
0.475569
-0.297314
-0.178256
0.0975797
-0.0832281
-0.0143516
0.046817
-0.311782
0.0230996
-0.942666
0.0483305
-0.14883
-0.278995
-0.391415
0.079484
1.40761
-0.947103
-0.460503
1.09303
0.314578
0.064779
0.275222
0.0199892
-0.000823253
-0.139737
0.174958
-0.035221
-0.251178
-0.593015
0.844193
-0.347968
0.36055
1.10871
-1.3112
0.129633
0.0344251
-0.0557747
0.0213496
-1.94205
0.30406
1.63799
-0.211329
-1.73073
-0.31433
0.667528
-0.908371
-0.0161345
0.00464004
-0.273516
0.268876
1.43798
-1.57218
0.134197
-0.0754291
0.00383459
0.577904
-0.829081
-0.0879239
-0.232048
0.319972
-0.299887
-0.123679
0.423566
0.164058
-1.00832
-0.0745811
-0.0058146
-0.0500908
-0.569875
0.359484
-0.253028
0.0191264
0.233902
-0.0422438
-0.0331853
0.00391307
-0.00391307
-0.123959
0.136216
-0.0122571
-0.246658
-1.27745
0.0458186
0.020772
-0.0665906
-0.152925
0.0868199
0.0661047
-0.227334
0.0410517
1.36776
-0.333884
-1.03388
-0.183587
0.438343
-0.254756
0.00335854
-0.00305086
-0.000307678
-0.591108
-0.438706
-0.191568
-0.00463945
0.196208
-0.167713
0.313619
-0.105737
0.104009
0.00172777
0.0781867
0.0185986
-0.0967853
-0.116663
0.125958
-0.00929491
-0.756112
1.21002
-0.453906
-0.213502
-0.0497367
0.263239
-0.687043
0.661611
0.0254319
-0.00195392
0.0356123
0.028129
-0.0284302
0.000301113
-0.000211161
-0.0506936
1.08893
0.530296
0.172858
-0.892307
0.719449
0.0183866
1.90367
-1.92205
0.374914
0.549799
0.630386
0.0689668
0.209869
-0.0671895
-0.0740543
-0.0294876
0.230155
0.163137
-0.0752834
0.734517
-0.40537
0.0593003
0.199236
0.0543606
-0.171372
0.117012
-0.765463
-0.139307
0.904769
-0.0100025
0.0100025
-0.0465409
-0.276332
0.556164
0.0127325
-0.226235
-0.0509237
0.0810908
0.0300464
-0.075122
0.140706
-0.151235
-0.345939
0.31914
0.0482081
0.0368299
-0.0850379
0.371722
-0.321748
0.751476
-0.612618
-0.138858
-0.201422
0.266201
0.182182
-0.479495
-0.204897
0.602726
0.161001
-0.0320387
0.0320387
-0.422935
0.273286
0.149649
0.374046
0.0267658
-0.0192566
0.0226374
-0.00338076
-0.0840846
-0.0248699
-0.0277749
-0.0503044
0.191011
-0.185593
0.247989
-0.0623957
0.1349
0.0282375
-0.385576
0.134211
0.197366
-0.0624658
-0.0474887
-0.058248
-0.0488503
0.0495248
-0.000674556
0.143028
-0.101634
-0.0413938
-0.0258911
0.406096
-0.380205
-0.0867479
0.0700596
0.108425
-0.112908
0.00448283
0.0242761
0.388035
0.363441
-0.0806127
-0.00764082
0.0882535
-0.0801191
0.00122141
0.0788977
-0.0957212
0.0964335
-0.71973
0.623297
-0.0321847
-1.46631
-0.512887
1.9792
0.376032
1.26059
-1.63663
0.0799403
-0.266698
0.0128805
0.286239
0.255308
-0.541546
-0.20957
0.26393
0.137173
-0.876063
0.73889
0.00487785
-0.0849969
-0.0211022
0.0152876
-0.985641
0.441972
0.543669
0.947103
-0.825208
-1.68356
1.61053
-1.43798
1.51977
0.0381917
-0.090833
0.00844426
0.0196848
0.0104892
0.78448
-0.647307
0.117556
-0.0692253
0.411843
0.733757
-0.0800014
-1.67601
1.6944
-0.637598
-0.587901
-0.241595
-0.4006
-0.0193736
-0.161438
0.208255
-0.573798
-0.363891
0.180304
0.7552
-0.226394
-0.888865
-0.794697
0.750762
0.121859
-0.116981
0.275175
0.036182
-0.036182
0.669225
0.15025
-0.819475
-0.227099
0.896324
0.385319
-0.79851
0.413192
0.125033
-0.0286121
0.00730997
0.00524678
-0.0125567
-1.68186
-0.879395
0.351173
1.03063
0.337134
-0.0335631
-0.130034
-0.22911
0.735375
-0.202987
-0.050041
-0.00283298
-0.0747958
-0.0562856
0.109875
0.382483
-0.256189
-0.820797
-0.294037
-0.113589
-0.0126242
0.126213
-0.833637
1.38344
-0.150713
0.131105
0.0196079
0.0217497
-0.00176043
-0.0786031
0.0390308
0.0395722
0.00857229
0.408462
0.0690337
0.0285461
0.0115857
0.00993987
-0.0215256
-0.017357
-0.174211
-0.73444
0.379073
0.355367
0.781905
-1.92767
1.14577
0.142166
-0.164141
0.0219746
-0.0058532
0.112588
0.0899533
-1.27014
-0.0804074
0.00180434
-0.0950321
0.0293254
0.149284
-0.353561
-1.77946
0.628654
1.15081
0.0318981
0.0900135
0.0530143
-0.765463
0.0199254
-0.776037
0.09516
-0.0561292
0.0450018
-0.639619
-0.0474245
0.0625077
0.134858
0.61891
0.0314002
-0.45739
0.118821
0.35693
-0.29869
-0.111205
0.0194553
0.222212
0.840692
-1.0629
0.104703
-0.70906
0.604357
-0.928528
0.789221
-1.60501
0.123542
1.48147
-0.00582382
0.00640029
-0.000576469
0.176366
-0.476253
0.221895
-0.130384
-0.091511
0.0449866
-0.0437652
-0.0220616
-0.0915277
-0.00608939
0.0236488
-0.0238599
0.020272
0.0846711
-0.104943
0.761351
0.00463601
-0.00469247
5.64636e-05
0.0792821
-0.00922253
0.86264
0.0457236
-0.041889
-0.4104
-0.468995
0.114991
0.0100417
0.00742872
0.0825848
-1.48147
1.27014
0.223374
-0.125684
-0.0976901
-0.25968
0.08751
0.120069
-0.122509
-0.00131034
0.0871728
-0.0203655
-1.7539
-0.0255628
-0.0483332
0.0686052
0.74135
-0.258445
-0.128312
-0.0246122
0.34992
0.00629216
-0.0255488
-0.00740333
0.0792946
0.143652
0.219485
0.156712
-0.340089
0.183378
0.106131
0.55413
-0.0335593
-0.109411
0.91679
-0.259416
-0.657374
-1.60501
-0.525815
1.30772
1.86438
-0.031583
0.262906
-0.231323
0.391348
-0.0736356
-0.317712
0.108918
-0.965301
-0.0772797
0.0784069
-0.00112722
0.114561
-0.132642
0.0180803
0.506903
-0.881629
0.374726
0.0400773
0.66165
-0.701728
-0.0429218
-0.105543
-0.015
-0.0656126
-0.0137318
-0.409204
-0.00689233
0.00106851
-0.000354773
0.0403975
-0.0400427
0.0371272
-0.176864
0.00178155
0.0199681
0.0169144
0.0937971
-0.0248154
-0.00361478
0.200312
-0.42597
-0.248856
1.50945
0.0087222
0.00128026
-0.98948
-0.0188429
0.152897
-0.069693
-0.0415119
-0.230022
0.142098
0.634896
-0.819721
0.184825
0.068759
0.0462324
-0.937944
-0.0118404
-0.00756659
-0.64965
0.746083
-0.0171873
0.178188
-0.0825322
-0.715978
0.185646
-0.434239
0.248593
-0.00124665
0.0509535
0.000344887
-0.000516231
0.000171343
-0.0395775
-0.0770853
-0.0201077
-0.128716
0.738412
-0.633708
-0.099997
0.055817
-0.113586
0.318904
-0.162192
0.188153
1.18789
-0.464655
-0.723231
-0.124202
0.143329
-0.508717
-0.225723
-0.552428
0.595629
-0.579583
-0.0160468
-0.0789985
-0.0209985
-1.67601
0.553728
-0.553728
-1.92879
1.92879
0.78448
0.0636117
-0.160948
0.0973364
-0.898094
-0.0913864
0.647411
-0.373367
-0.274044
0.155713
-0.233504
-0.010012
-0.00110551
-0.909374
-0.0863016
-0.932981
0.213251
0.0431626
-0.0557867
0.697566
-0.103843
-0.593723
1.41583
0.448552
-0.00185032
0.00219521
-0.961213
0.277889
-0.890508
-0.0931391
-0.60687
0.700009
-0.0309593
-0.874735
-0.69744
0.220248
-0.814622
-0.904769
1.34639
-0.441623
-0.134567
0.272682
-0.138115
-0.0319576
0.729523
-0.108219
-1.00508
1.00508
-0.887992
0.523234
0.364759
0.00103116
0.00360485
0.0629753
-0.445767
0.867489
-0.0685683
-0.088727
-0.033349
0.0786076
0.00250778
0.000850762
1.97958
-1.85604
-0.353252
0.431438
-0.651001
1.03529
-0.384293
-0.0339923
-0.0464152
0.128145
-0.0578632
0.341314
0.00453017
-0.0354798
0.357544
0.0485523
0.0442133
-0.254474
0.210261
0.134847
0.0327968
0.100684
0.186379
1.84728
0.213428
0.0502984
0.595081
-0.64538
-1.22653
1.53059
0.27708
-0.187538
0.0743679
-0.765568
0.6912
0.11391
0.120044
-0.465983
-0.0743081
0.129374
-0.0550662
0.12449
-0.198798
-0.45914
-0.110735
-0.0751916
0.0785089
-0.00331733
-0.00109929
-0.0237161
0.00212663
-0.0477894
0.647307
-0.604357
-0.0429502
-0.283794
0.296526
0.88077
0.666406
-0.275058
-0.0137129
0.0344849
-0.402712
0.170664
0.167802
-0.569972
0.40217
-0.000711856
0.000195625
0.338623
-0.0778533
-0.26077
0.00843125
-0.0148181
0.00638682
-0.0274347
0.0196261
0.00780864
-1.42234
0.889368
-0.0909295
-1.37538
-0.203833
-0.825208
1.51977
1.61053
-0.187376
-0.16741
0.117673
-0.0662518
0.072306
-0.00605415
-0.342539
0.952401
-0.609862
0.559695
0.0877161
0.000138274
-0.000850132
0.12496
-0.622953
0.033349
-0.0528701
0.00453694
-0.338724
-0.0639878
-0.0462027
0.0762491
-0.218113
0.589834
1.09303
-0.28043
-0.058803
0.0011482
0.0576548
2.01972
-0.409187
-0.0588795
-0.0522094
-0.988848
0.163639
0.35849
-0.194432
-0.482601
-0.137478
0.620078
0.833372
-0.374051
-0.459321
0.0770879
0.557808
-1.6944
0.0125403
-0.00570525
-0.029031
0.0347363
0.137977
1.76569
-0.162659
0.169969
0.267563
2.12335
-0.603575
-0.674285
0.048868
0.625417
0.391197
0.00690121
-0.354176
0.526089
0.796927
0.282919
0.0735104
-0.0204961
-0.897615
0.23899
0.658625
1.16861
0.0486929
-0.0371072
-0.0519541
-0.36518
0.112482
-0.322052
0.61707
0.570816
-0.0826458
0.0036473
0.299391
-0.330974
-0.0204489
0.0184949
0.107278
-0.142494
0.0352159
-0.291487
0.304732
-0.0132452
0.28234
-0.746995
-1.23446
0.0277318
1.20673
0.136036
-0.19561
0.0595737
0.279529
0.0393747
-0.30487
0.324796
-0.664496
0.664496
1.73609
1.41583
-0.70906
0.324107
0.47282
-0.154812
0.304461
0.94355
-0.383855
0.00906517
-0.879519
0.870454
0.124759
0.00712956
0.025452
-0.570153
0.265283
0.0636377
-0.164899
-0.116942
0.281842
0.131078
-0.500184
0.335285
-1.09194
-0.29405
-0.655431
-0.0270183
-0.00443044
-0.000262026
-0.227607
0.0525027
0.0737108
0.0330178
-0.151818
0.1188
-0.518925
-0.369067
-0.00543213
0.0656263
-0.550571
0.349504
0.201067
-0.55289
0.374634
-0.0865106
0.12334
0.229064
-0.00189719
-0.019205
-0.754202
0.420319
0.0357774
0.0726473
-0.154935
0.0413494
0.21256
0.00933546
-0.435119
1.72795
0.447333
0.0249281
0.865637
-0.79127
0.804473
-0.454553
-0.627181
0.181414
0.15585
-0.79682
0.77274
0.02408
1.16669
-0.549624
-0.215689
-0.137562
-0.0726121
0.0138349
0.95197
-0.839702
-0.112268
-0.189861
0.114577
0.02673
0.116326
0.877388
0.207409
-0.250351
0.0429419
-0.319043
-0.0448486
-0.096475
-0.454096
0.0870202
1.36697
1.42343
-0.00760104
0.165391
0.549744
-0.715135
0.194288
0.0520425
-0.00863205
0.00673486
-0.520306
-0.106875
0.0522392
-0.094483
-0.193102
0.142797
-0.520613
0.265857
-0.992667
-0.503487
-0.292875
-0.630763
1.48098
-0.0386656
-0.291759
-0.402135
0.0634111
0.307021
0.309235
0.0483086
1.27488
-0.767975
-0.196512
0.134046
-0.0773599
-0.384129
0.461489
-0.0127713
0.00706604
0.0508676
-0.05945
-0.232037
-0.112543
0.697502
-0.424007
-0.273495
-0.119761
0.129092
-0.0931876
-0.0359048
0.244639
0.0645965
-0.12232
-1.51431
-0.0990196
0.144021
0.556061
-0.348652
0.0193583
0.0595394
-0.0246892
0.0151298
0.0095594
0.00755728
-0.0237059
-0.248732
0.0773597
-0.0539027
-0.542578
0.408011
0.0232167
0.0800564
0.0559794
-0.696858
1.72009
-1.14927
0.0156612
-0.198637
0.182975
-0.143034
-0.531149
0.674184
0.0695551
-0.709174
-1.01844
-0.216018
-0.0304064
0.000583498
0.029823
-0.238374
-0.595629
-0.169833
-0.133397
-0.897615
-0.237536
0.170346
-0.164864
-1.14325
-0.242689
0.343486
-0.100797
0.257104
0.109322
0.441208
0.28868
-0.729888
0.0654094
0.0564494
0.89769
0.360798
-1.25849
-0.218628
0.355345
1.17525
-0.24805
0.185654
-0.590698
0.946043
-0.334606
0.17887
-0.0161528
0.0266419
-0.0222609
1.25517
-1.23024
0.745734
0.0876374
-1.54381
-0.210095
0.261197
0.682353
0.888194
0.0285958
-0.0190035
-1.42343
-0.655431
-0.712368
0.723625
-0.074879
-0.888865
0.66165
0.595378
-0.931088
0.594959
-0.00342245
-0.793398
-0.314195
0.636791
-0.765919
0.129128
0.077839
0.0512534
-0.271598
-0.263675
1.35867
-1.095
-0.0015483
-0.00288214
-0.27017
0.220129
0.706346
0.216282
-0.201687
-0.174813
0.628987
-0.941667
0.0620037
0.0353327
0.284902
0.775251
-1.06015
-1.0661
1.30509
0.46773
-0.118226
0.0673972
0.39495
-0.658625
-0.00298192
0.219733
-0.0400513
0.112228
0.0406681
0.00342318
-0.0216876
0.0182644
-1.02792
-0.0349832
0.31051
-0.807673
-0.739334
1.68611
-0.946781
0.380468
0.654826
-0.0470556
0.0502571
-0.00320152
-0.134341
0.763328
-0.717051
0.735718
0.573555
-1.31289
0.321848
-0.102115
-0.584229
-0.408438
-1.14155
1.42645
-0.0563411
-0.882942
-1.77337
-0.148679
0.39495
0.0501419
-0.857815
0.831504
-0.646625
-0.184879
-0.982057
0.397828
0.00428933
0.108758
-0.000440755
-0.108317
-0.971216
0.562778
-0.209233
0.911314
-0.923154
0.196514
-0.213871
-0.0977432
0.247027
0.976318
0.556832
-0.0978109
-1.3518
0.628568
0.927484
-0.644564
-0.55292
-0.518377
1.0713
0.44708
0.0174462
-0.0121995
-0.736711
0.701728
0.0546605
-0.189002
-0.630386
0.314621
0.315765
1.02239
0.663722
0.774905
-0.808682
-0.493343
-0.449323
-0.47165
-0.499566
0.803873
-0.803873
0.686569
-0.686569
-0.736711
-0.0887617
0.0887617
-0.314621
-0.934954
-0.294292
-0.530929
0.0516525
-0.0516525
0.0546605
-0.189002
0.774905
0.765563
-0.765563
0.808682
0.758954
-0.758954
0.506657
0.52835
0.481623
0.106313
-0.500434
-0.550677
1.07903
-0.679045
-1.70876
0.56721
0.225368
0.242363
-0.205949
-0.0106028
0.0563264
-0.884565
0.0905685
0.793996
-0.0965106
0.077137
-0.993438
0.588067
0.910786
-0.586679
-0.123282
0.00338289
-0.00582959
-0.814113
-0.0781943
-0.543669
-0.00622186
0.0215095
0.336786
-0.128917
0.0727875
0.182796
-0.00182571
-0.00927439
0.0111001
-0.812856
0.0675749
0.745282
0.681143
0.295175
-0.529444
0.420377
0.109067
0.916342
-0.744352
-0.17199
0.0850658
0.304528
-0.0141539
-0.0610376
-0.063371
-0.0139087
0.81107
-1.64471
-0.856651
0.0954994
-0.743903
0.795914
-0.0520109
0.120991
-0.900149
0.779157
-0.802864
0.902337
-0.0994732
-0.0506
0.0581573
0.0205728
-0.294089
0.299283
1.12717
-0.091954
-0.792611
0.915132
-0.0906545
-0.824478
0.0772793
-0.111272
0.90651
0.824388
-1.41003
0.477745
-0.390029
0.100365
-0.892976
1.61824
0.310552
-0.794096
0.000697904
1.01732
-0.896333
1.18558
0.811147
-0.799684
-0.0114624
-0.881405
-0.112032
-0.420774
0.0405692
-0.389606
0.574431
-0.784406
0.784406
-0.61701
-0.0838242
-0.863786
0.119434
-0.969404
0.876265
0.0755195
-0.205904
-0.0555304
0.0544592
0.0115819
0.187026
0.830299
0.818513
0.773541
0.137222
-0.910763
-0.529455
0.771817
-0.78336
-0.103875
0.887235
0.167621
-0.884671
-0.676761
0.886889
-0.786524
-0.104641
0.46175
-0.0147527
-0.446997
-0.0451551
1.43504
-1.38989
0.432148
-0.479173
0.047025
-0.888001
-0.829583
0.0856799
0.532745
0.271728
-1.97836
1.21001
-0.583394
0.583394
-0.761991
-0.589808
-0.100828
0.366111
-0.945042
0.972773
0.783014
-0.197654
1.29605
-0.406681
1.01457
-1.06635
0.051789
-0.153003
-1.77467
0.0856734
0.281692
-0.376102
-0.399935
0.0168337
0.313055
-0.227989
0.781536
-0.881009
0.460363
0.311454
-0.147587
0.735654
0.586302
-0.586302
-0.0544687
0.0527083
0.114777
-0.0817589
1.27484
0.160202
0.0971859
-0.00126735
0.0030418
-0.00177446
-0.672243
0.692698
-0.0204557
0.152448
-0.952133
0.106465
-0.892989
-1.03743
1.32604
-0.288612
0.164731
0.873582
-1.36144
1.51389
-0.755767
0.607233
-0.654658
-0.667807
0.159089
0.0624333
0.0268705
0.150962
-0.201824
0.264257
0.00290737
-0.129688
0.0669293
0.728984
0.690707
-0.0834744
0.0725914
0.790048
-0.326328
-0.0380937
0.364422
-0.479495
0.517262
0.465123
-0.935933
0.720186
0.215747
-0.685272
-0.12935
1.09679
-0.11727
-0.291934
-0.0355865
0.485901
0.514099
-0.771139
-0.10987
-0.28793
-0.457595
-0.417744
-0.30925
0.401714
0.598286
-0.100261
0.0910387
-0.861793
-0.0611929
-0.593465
-0.148792
-0.242585
0.391377
-0.0184968
-0.00186863
0.116504
0.0745069
-0.128266
-0.120466
0.76155
-0.64621
0.718802
0.500883
-0.702706
-0.174555
0.310071
-0.135516
-0.744527
-0.188989
0.933515
-0.234985
0.224119
-0.0248836
-0.0453883
0.012203
0.00678136
0.718474
-0.135079
0.116268
0.112796
-0.735012
0.0627691
1.10918
0.134569
-0.733175
0.594317
-0.00999126
-0.283933
1.01769
-0.00404734
0.197712
0.0698506
-0.00387412
-0.047302
-0.0738183
-0.00651439
1.1157
0.453284
-0.607491
0.154208
0.84723
-0.022044
0.00328916
0.0187549
0.132165
-0.00640821
-0.000484122
0.210223
-0.102945
0.0151507
-0.960192
0.900958
-0.447675
0.00621942
0.271979
-0.29742
-1.00363
1.25513
-0.251501
-0.778911
0.832025
-0.0531139
0.501023
-0.0189949
-0.315611
-0.0774137
1.26833
-0.462201
-0.0672427
0.273163
0.445729
0.187575
-0.633304
0.395402
0.0340494
0.658649
-0.572597
0.568754
0.00384276
1.45363
-1.14661
-0.026672
0.0333277
-0.00665575
0.699643
-0.00918773
-0.0828508
0.0186475
1.30236
0.98997
-0.488948
0.0631805
-0.158548
-0.0370612
0.0183347
0.07954
-0.0978747
0.00785078
-0.0044276
0.958188
-0.59739
0.13912
0.214932
-0.0248209
-0.0837564
0.231162
0.0951394
0.00642167
0.070171
0.766573
0.328081
-0.391616
0.0635352
-0.196378
0.482847
-0.286469
0.643036
0.116213
-0.0487546
-0.000985126
0.0497397
-0.501399
0.0956276
-1.16198
-0.00825986
0.759022
0.722357
0.223392
0.592547
-0.864145
0.810657
0.16431
0.0238426
-0.89444
0.0959238
-0.27202
-0.140627
-0.167664
0.696791
0.0697822
0.014058
0.184994
-0.203989
-0.306677
0.164745
0.019104
-0.110455
0.421647
-0.0582437
0.536064
-0.0672189
0.142699
-0.0864352
-0.109943
-0.147373
-0.225406
-0.0370134
-0.109014
0.00978897
-0.000393459
-0.00939551
-1.58314
0.43653
-0.00602749
0.877406
-0.225009
-0.621204
0.64923
-0.0280254
0.390971
0.75956
0.212673
-0.348189
0.0817053
-0.179448
0.637496
0.122063
0.649535
0.7339
-0.27018
0.747925
0.244993
0.870706
-0.593678
0.35081
0.242868
-0.235002
-0.0710611
0.0399664
0.0679729
-0.0492376
1.16365
0.736112
0.0745446
0.629464
0.214729
-0.876722
-0.0819343
-0.678292
0.67899
-0.0266667
-0.568346
0.419555
0.86524
0.671546
0.115989
-0.0277623
-0.147256
-0.318727
1.02631
0.69378
0.637055
0.0155313
0.955268
-0.0845622
0.64467
0.760777
-0.0807966
0.607079
-0.732635
0.924096
-0.191461
-0.413374
-0.180304
-0.0410236
-0.194162
-0.160023
0.800699
0.012998
-0.00305812
0.626691
0.206078
0.388239
0.610353
-0.131469
0.228506
0.750549
0.260829
-1.01138
0.276852
-0.923477
0.293864
-1.44314
-0.171603
0.759618
-0.588015
-0.672778
-0.0806313
0.035243
-0.0558394
-1.30111
0.0134819
-0.0381711
0.557251
-0.0697372
-0.165828
0.235566
-0.0335353
-0.573798
0.19805
-0.000337285
-1.54289
-0.00609483
0.00426911
0.148107
-0.0545603
-0.597845
0.0252481
0.568796
0.296445
1.16463
0.814569
-0.237935
-0.387343
0.625278
0.162833
-0.618994
0.618994
-0.212913
-0.943182
1.15609
0.0312088
-0.155411
0.677364
-0.108568
-0.217605
-0.403718
0.111784
0.678482
0.675798
-0.101965
0.182972
-0.103488
-0.412612
0.483528
0.0852263
0.0667513
0.00815168
-1.78227
0.0608166
-0.0870782
0.6937
0.3063
0.0608166
0.6937
0.123747
-0.127604
0.123747
-0.696421
0.696421
0.303579
-0.0137078
0.204979
-0.077704
0.229291
0.083976
-0.48587
0.6392
-0.0288466
0.651309
-0.505761
-0.145548
-0.0514115
0.0487612
0.00265028
-0.00928962
0.00802227
-0.243509
0.01798
-0.0516374
-0.435527
-0.363015
0.135408
0.0405097
0.825169
-0.275425
-0.356247
0.419658
-0.00171948
-0.120885
-0.00440441
0.687984
0.0710371
0.526274
-0.0208113
-0.0007143
0.00521695
0.0838315
0.555851
-0.477662
-0.0781894
2.21668
0.555725
-0.0189969
0.913213
0.0117772
-0.06508
0.110284
0.241619
0.114137
1.14767
-0.397118
0.00875579
-0.0357741
0.714488
-0.159624
0.0200824
-0.0200824
0.0222217
-0.0222217
-0.0164257
0.0164257
0.0087222
0.366659
0.462159
-0.0761482
-0.700834
0.47444
0.182561
0.0276618
-0.0845157
-0.484011
0.674118
0.112533
-0.797805
-0.927923
0.211945
0.0806016
0.0208742
-0.00124813
-0.00702678
0.00702678
0.0843094
-0.00761028
0.00761028
0.700948
0.100121
-0.015335
-0.00547629
0.00632569
-0.0651287
-0.0212345
0.0212345
-0.010672
0.010672
-0.023531
0.023531
-0.00618725
0.00618725
0.10021
-0.298418
-0.0789872
0.219563
-0.00613153
0.00613153
-0.375547
0.503352
-0.127805
0.488731
-0.216049
-0.423414
0.0671667
0.559568
-0.218575
0.0809578
0.568272
0.565942
-0.00324897
0.00324897
0.210663
0.0263286
-0.0263286
-0.00577684
0.00577684
0.768942
-1.2026
0.0364388
-0.195713
0.11786
0.00133455
-0.00133455
0.013064
-0.013064
0.0191777
-0.0191777
0.0218274
-0.0218274
-0.0247099
0.0247099
0.0365934
-0.0365934
0.492325
-0.0332357
0.0332357
-0.000850423
0.000850423
0.0252318
-0.0252318
-0.00596271
0.00596271
0.00390821
-0.00390821
-0.00109128
-0.0274558
0.0274558
0.397627
0.0231242
-0.0410762
0.0410762
0.0056616
-0.0056616
0.0178194
-0.0178194
0.0349634
-0.0349634
0.0245037
-0.0245037
0.00172801
-0.00172801
-0.00304856
0.00304856
-0.499829
-0.193055
-0.00927638
0.00927638
-0.000273956
0.000273956
-0.0396693
0.0396693
-0.0267354
0.0267354
0.00153084
-0.00153084
-0.416687
0.677885
0.246859
-0.0333054
0.0333054
-0.0214787
-0.0142186
0.0142186
0.000217273
-0.000217273
0.0356934
-0.0356934
-0.229511
0.253354
0.003978
-0.003978
-0.0214042
0.0214042
-0.490204
0.0426876
0.407363
-0.0299491
0.0299491
-0.439015
0.0321082
0.018149
0.00378067
-1.54759
-0.0381344
0.0381344
-0.205881
0.147637
-0.0390945
0.000524949
-0.000524949
-0.00715976
0.0528438
0.264649
-0.322394
-0.271069
0.593462
0.184625
-0.00494453
0.00494453
-0.122685
0.421525
-0.29884
0.760038
-0.387842
-0.372196
-0.472055
-0.65809
0.256739
0.162919
-0.151017
-0.328478
-0.574162
0.00368862
0.190066
-1.18755
0.0176848
-0.0176848
0.000524324
-0.000524324
0.0320452
-0.0320452
0.0250396
-0.0250396
-0.00110547
0.00110547
0.000328699
-0.000328699
-0.133661
-0.102748
0.167664
-0.290945
0.00121701
-0.00121701
-0.0430197
0.0430197
-0.0418376
0.0418376
0.202463
-0.0948509
-0.107612
0.00831429
0.306558
-0.531567
-0.00134461
0.00134461
-0.0174675
0.0174675
-0.099535
0.228021
0.0287186
0.000157358
-0.000157358
0.0817438
0.0139826
0.957781
-0.487232
-0.0866297
0.573861
-0.62321
0.133709
-0.523315
-0.036877
0.036877
-0.677221
0.270347
0.0514161
-0.0514161
-0.662925
0.388881
0.256921
0.119309
-0.00115455
0.00115455
-0.84779
-0.000892525
0.000892525
0.320097
0.409427
0.0474294
-0.0555895
0.0555895
-0.000263394
0.000263394
-0.0439387
0.0439387
-0.0514406
0.0514406
-0.000948989
0.000948989
-0.0568488
0.0568488
-0.0011757
0.0011757
-0.0473619
0.0473619
-0.00777016
-0.043141
0.043141
0.00219969
-0.00219969
0.0499809
-0.0499809
-0.00185998
0.00185998
0.0455357
-0.0455357
-0.0352231
-0.00368097
0.00368097
-0.005385
0.005385
-0.0450674
0.0792946
-0.0117718
0.0117718
0.00539372
-0.00539372
-0.0616743
0.0616743
0.306343
-0.0195805
0.0195805
-0.0544737
0.0544737
-0.00761346
0.00761346
-0.0698867
0.0698867
-0.0129975
0.0129975
-0.0836994
0.0836994
-0.0227175
0.0227175
-0.0896896
0.0896896
-0.697562
0.333583
-0.537066
0.50904
-0.874735
0.0832408
-0.55084
0.383176
-0.115613
-0.00414777
0.00373964
-0.00373964
0.113465
-0.710236
0.046793
-0.0386413
-1.28043
1.72899
1.27211
0.246145
-0.0216507
0.00441447
-0.384648
-0.586767
-0.0365516
0.392946
-1.18256
-0.0237619
0.0237619
-0.740953
0.0177801
-0.0177801
-0.00235668
0.00235668
0.331238
-0.417602
-0.0021463
0.0021463
0.018178
0.0138607
0.597778
0.290654
-0.00600046
-0.0117652
-0.00723827
-0.103115
0.503229
-0.400114
0.146786
-0.0611126
0.00621164
0.96652
-0.000902038
0.0471912
-0.40962
0.450189
-0.49625
-0.995794
-0.201966
-0.0749415
0.0186559
-0.135222
-0.343951
0.0241445
-0.00607711
-0.00943165
0.793394
-0.543089
-0.0420698
0.0611738
-0.0379296
0.10576
0.0992185
0.419292
0.242319
-0.160335
0.204197
0.0254627
-0.00686406
-1.3195
0.0179928
0.107686
-0.273514
-0.018033
-1.47518
-0.0718346
0.267794
-0.352982
0.401534
0.216039
-0.846801
0.0444883
-0.0506488
-0.0606228
-0.351464
0.460532
-0.0484915
-0.0256985
0.07419
-0.0285492
0.0285492
0.169905
-0.444964
0.00731701
0.0795029
-0.0839762
0.0573095
-0.0615887
-0.00517121
0.0667599
-0.029344
-0.157048
0.0439148
-0.122487
-0.285089
-0.349537
0.634626
0.0161727
0.0622342
0.150343
-0.0340751
-0.0436872
0.0713807
-0.161098
0.316949
-0.00709476
0.0258496
-0.0218079
0.172151
0.00360937
0.265266
0.00194294
-0.00194294
-0.350716
0.995386
0.0938075
-0.175742
-0.0300508
-0.000908447
0.935078
0.578808
0.0163762
-0.0202892
-0.534825
-0.00224025
0.0102246
0.0972076
-0.695224
0.311368
-0.0542984
0.374316
-0.659404
0.219018
0.501168
-0.093769
0.093769
-0.000440756
-1.21677
0.509783
0.706986
-0.217365
0.161525
0.298359
-0.286303
-0.460692
-0.126516
-0.0308303
0.0392745
0.929438
0.194944
-0.0789552
-0.069728
-0.626319
-0.68657
-0.061924
-0.255457
0.781546
0.567142
-0.260584
-0.24669
0.51867
-0.113476
0.376382
-0.26571
0.0777055
-0.460464
0.332659
0.117351
-0.117351
0.0991403
-0.0643811
-0.0347593
0.00169542
-0.00198969
0.0151298
-0.272068
-0.229331
0.22147
-0.185743
-0.0357268
0.535435
-1.09456
0.25911
-0.728104
0.689391
-0.114324
-0.176621
-0.033009
-0.0795336
-0.491842
0.0563151
-0.293366
0.00142303
-0.018033
0.388574
-0.00523413
0.00139371
5.57177e-05
0.0165221
-0.0112152
-0.00530686
-0.101376
-0.0190386
-0.171955
0.190994
-0.119361
-0.341103
0.018178
0.348139
0.00220713
-0.382448
0.0895726
0.00279764
0.0304013
-0.10655
-0.0126518
0.0126518
-0.0013218
0.00239199
-0.00895796
0.00035469
-0.0557493
0.000592809
-0.00117889
0.255636
-0.113538
-0.000594102
0.000594102
0.0829225
0.507518
0.00139559
-0.281279
0.544115
1.16051
-0.470826
0.327752
-0.439935
-0.140715
0.148032
0.22124
-0.223338
-0.00109138
0.00862944
-0.00184808
-0.00594309
-0.176206
-0.368003
0.842443
0.297604
-0.431265
0.22115
-0.00162994
0.125563
0.0391684
0.00115462
0.000327112
0.00830233
0.116786
0.00140691
-0.000423117
0.729695
-0.658314
-0.24704
0.185026
0.93625
0.000491225
0.000929433
-0.0390945
-0.00544542
0.817678
-0.432435
0.517661
-0.544673
0.904586
-0.436853
0.565224
-0.182048
0.707716
0.00101818
0.00313701
0.0177372
-0.113726
0.138168
-0.236161
0.00903412
0.00320182
0.0678035
-0.0540643
-0.0137392
0.000966537
0.0211977
0.0170698
-0.0382675
-0.0972958
0.00271109
0.000330708
0.00160559
0.487325
-0.434675
-0.000351883
0.000186231
1.1628
-0.653015
0.377945
-0.00608924
-6.30339e-07
0.150726
-0.0116058
-0.0453308
-0.106356
-0.0142025
-0.00370316
0.127674
0.0454188
-0.00230238
0.404888
0.000691879
-0.00140089
0.00140089
0.000115142
-0.0118804
0.000111534
-0.321849
-0.00383931
0.0746745
-0.107452
0.0720949
0.149578
-0.0652543
0.000127604
0.00170403
0.45842
-4.90821e-05
-0.00333174
-0.0376918
-0.00210114
0.000412101
-0.00420092
0.101387
-0.710226
0.472521
-0.840524
-0.11593
-0.000420753
-0.169683
0.0154727
0.00136103
0.586986
-0.0145636
0.0836507
-0.00417334
-0.00143528
-0.555158
-0.00342319
-0.000226712
-0.0199552
0.897209
-0.501807
-0.00261895
-0.000684278
-0.00608486
-0.00182099
0.0749974
-0.0213033
0.0213033
-0.0309238
0.0333158
-0.00221974
-0.00821239
0.0383176
-0.0369238
-0.169443
0.0983821
-0.00538405
-0.0138127
0.0390146
-0.0176319
0.0648769
-0.046221
-0.625495
0.573484
0.020703
-0.00165408
0.290126
-0.147428
-0.0666261
-0.672251
-0.0709386
-0.113093
-0.0969118