/*--------------------------------*- C++ -*----------------------------------*\
| =========                 |                                                 |
| \\      /  F ield         | OpenFOAM: The Open Source CFD Toolbox           |
|  \\    /   O peration     | Version:  2306                                  |
|   \\  /    A nd           | Website:  www.openfoam.com                      |
|    \\/     M anipulation  |                                                 |
\*---------------------------------------------------------------------------*/
FoamFile
{
    version     2.0;
    format      ascii;
    arch        "LSB;label=32;scalar=64";
    class       volVectorField;
    location    "22";
    object      U;
}
// * * * * * * * * * * * * * * * * * * * * * * * * * * * * * * * * * * * * * //

dimensions      [0 1 -1 0 0 0 0];

internalField   nonuniform List<vector> 
2186
(
(1.31332 -0.0697034 2.53504e-19)
(1.58069 -0.930409 -2.36262e-21)
(1.43315 -0.906878 8.51715e-21)
(0.731046 -0.572082 -1.62615e-19)
(-0.310167 0.361335 -1.74688e-19)
(1.55388 -0.532007 0)
(0.709946 -0.65607 0)
(-0.187172 -0.262272 7.18332e-20)
(1.33783 -0.291309 9.8206e-20)
(0.544308 -0.29649 -2.08603e-21)
(0.693749 0.626548 0)
(0.748142 -0.26898 -7.57173e-20)
(-0.231519 -0.294422 -2.96745e-20)
(1.2021 0.0243151 -3.99793e-19)
(1.76227 -0.688711 -1.34193e-20)
(1.01462 -0.00317683 1.86506e-19)
(0.980899 0.012605 0)
(-0.504644 -0.216791 0)
(1.53813 -0.328165 0)
(-0.0866869 0.251087 -7.0782e-20)
(0.488103 0.114831 -1.19123e-19)
(-0.150455 0.18323 9.73036e-20)
(1.18979 0.0286395 3.29348e-19)
(-0.192326 0.00711306 5.10921e-21)
(1.03128 0.00846873 -2.59318e-19)
(0.78214 -0.549489 0)
(0.761328 -0.018333 1.54378e-19)
(0.60067 -0.580442 -1.93098e-19)
(1.23029 0.725349 0)
(0.962236 0.023434 -3.53657e-19)
(-0.0429171 0.0836884 0)
(1.02274 -0.0103764 1.22561e-20)
(-0.112885 0.148435 0)
(2.75299 0.0391007 2.52963e-19)
(-0.128486 -0.151099 3.01257e-21)
(1.56659 0.782405 7.05158e-20)
(2.06951 0.122613 1.49709e-19)
(0.516426 0.16244 -3.54364e-19)
(1.95008 0.174236 -2.89641e-19)
(1.19076 -0.307401 -2.54612e-21)
(-0.277786 -0.332035 0)
(-0.0879339 0.158332 0)
(1.82937 -0.876234 5.0699e-20)
(-0.406823 0.185174 0)
(1.12232 0.288423 1.58914e-19)
(0.590449 -0.279243 3.01297e-19)
(0.902905 -0.77106 0)
(1.17213 -0.782981 1.39025e-19)
(2.25365 0.0361898 0)
(-0.174966 0.312891 1.75736e-19)
(-0.0318027 0.136322 1.04609e-19)
(0.645916 0.596022 8.15294e-20)
(2.02421 -0.772636 4.12035e-20)
(0.603316 0.290048 -2.84247e-19)
(-0.280322 -0.0737848 3.78324e-20)
(0.753554 -0.641689 0)
(1.61459 -0.951225 1.69272e-20)
(0.571153 -0.531943 0)
(2.25882 0.182258 8.17554e-20)
(1.12884 -0.164009 -4.09858e-19)
(1.98937 -0.117115 1.52483e-19)
(1.37364 0.311766 -1.83282e-19)
(1.36174 0.546376 0)
(0.965022 -0.319632 2.78851e-21)
(1.37735 0.396927 -1.10662e-19)
(1.23571 -0.726126 -2.0083e-19)
(1.18789 0.673191 5.35082e-20)
(0.680334 0.0840666 -5.82558e-19)
(0.823503 0.0672115 0)
(1.93143 -0.299884 -3.67597e-20)
(-0.207427 -0.31212 -8.17881e-20)
(2.27333 0.0556304 -1.6909e-19)
(0.724477 -0.0257627 -2.58014e-19)
(0.867252 -0.510778 0)
(0.832757 0.192901 -9.45471e-20)
(0.538413 -0.498891 -3.24835e-19)
(2.4145 -0.00516413 0)
(1.00661 0.0100589 3.85669e-19)
(-0.119964 -0.210114 0)
(2.07115 0.319101 0)
(0.580888 -0.0500826 7.32808e-20)
(0.9848 -0.348992 8.53574e-21)
(1.02448 0.00658998 4.30794e-20)
(1.34141 0.423067 2.79695e-20)
(0.967469 0.0243064 4.52328e-19)
(1.03787 0.0295923 -1.07073e-20)
(0.673883 0.190348 -3.45195e-19)
(1.47213 -0.387749 2.46049e-21)
(1.23421 -0.288029 0)
(-0.0658846 -0.0344139 5.50428e-20)
(0.852502 -0.61526 -1.85779e-19)
(-0.095292 0.278071 -3.43928e-22)
(1.10634 -0.0723362 2.71699e-19)
(0.813816 -0.173425 0)
(0.972863 0.0228306 4.30558e-20)
(1.3871 0.652433 0)
(1.59528 -0.946524 0)
(1.32195 0.228449 0)
(-0.262273 0.348876 0)
(0.782186 -0.656675 3.25387e-19)
(-0.366026 0.204858 -1.7825e-19)
(0.316995 -0.0797318 1.1572e-19)
(1.58138 0.194819 0)
(1.14172 -0.100939 -2.4838e-19)
(1.1201 0.0237392 1.90923e-19)
(-0.0286979 0.292696 1.26124e-19)
(0.652042 0.521071 0)
(2.20109 -0.231254 -7.75075e-20)
(0.956497 -0.470975 9.12263e-20)
(-1.13649 0.359485 2.58145e-19)
(1.79792 0.27214 1.26918e-19)
(-0.145998 0.420919 -2.65475e-19)
(0.802084 -0.729447 0)
(0.578152 0.364595 1.71202e-19)
(1.54418 -0.286635 -2.78866e-19)
(-0.232211 -0.162885 -3.26584e-19)
(1.26748 0.40909 2.28922e-20)
(1.67643 0.0370744 0)
(-0.0867545 -0.0366421 -1.65014e-19)
(0.706131 -0.0602664 8.19795e-20)
(1.59074 0.892125 0)
(-0.109356 0.165331 -2.37781e-19)
(0.903101 0.777211 -2.75332e-19)
(-0.546478 -0.341788 2.79539e-19)
(1.03127 -0.0225721 0)
(1.60059 0.483829 -2.88488e-20)
(-0.24549 0.412202 0)
(0.690395 -0.48583 -1.16847e-19)
(-0.531938 -0.304341 -1.5576e-19)
(0.776245 -0.708284 0)
(0.425729 -0.258251 4.36751e-19)
(0.531382 -0.444744 3.01138e-19)
(0.401953 -0.363804 0)
(0.970479 -0.773261 -1.55475e-19)
(0.214231 0.00130313 0)
(-0.0718583 0.309251 -1.37717e-19)
(0.800875 -0.688369 1.58258e-19)
(2.39188 -0.319246 1.71489e-19)
(2.21631 0.13565 0)
(-0.0591417 -0.114243 0)
(0.700974 0.651702 -3.41586e-19)
(1.75078 -0.633061 -2.3703e-20)
(-0.102612 -0.13512 0)
(0.972637 -0.798053 -1.65507e-20)
(1.1405 -0.0988372 0)
(1.082 -0.120915 4.30676e-19)
(2.10421 -0.221282 -5.90928e-20)
(-0.315719 0.320565 0)
(1.21007 -0.550674 -6.63866e-20)
(-0.243591 0.265964 -4.72014e-20)
(-0.166517 0.372319 0)
(1.08165 -0.805839 1.14878e-20)
(1.00605 0.00478296 -6.44186e-19)
(0.642449 -0.469326 -1.14103e-20)
(0.809745 -0.507695 0)
(1.18707 -0.724633 -1.16029e-19)
(0.666299 0.250993 2.66468e-19)
(1.2369 0.130302 0)
(1.51111 0.0712049 -2.46099e-19)
(1.18306 -0.847398 -2.73436e-19)
(-0.0524685 -0.10226 -6.27001e-20)
(-0.111616 -0.525928 -1.15945e-19)
(1.07469 0.0100481 2.39472e-19)
(0.910931 -0.457757 -1.14724e-19)
(1.54081 -0.429209 -2.27779e-21)
(1.38293 -0.327723 -3.12049e-20)
(0.656567 -0.0935795 6.6763e-20)
(-0.203063 -0.0507661 -1.45288e-19)
(1.84716 -0.36152 0)
(2.16287 -0.413833 7.87219e-20)
(1.46936 0.660182 1.34715e-19)
(0.800895 -0.606595 -2.37328e-19)
(0.99564 0.00909575 1.31995e-20)
(0.712397 -0.522828 3.21285e-19)
(1.32484 0.81065 1.23306e-19)
(1.82423 0.0667933 1.51383e-20)
(-0.337423 0.21879 0)
(1.0871 0.0552383 -2.47508e-19)
(-0.368296 -0.611188 -1.98094e-19)
(1.08563 0.500489 8.05427e-20)
(0.0192881 -0.0903812 8.78199e-20)
(1.15869 0.028632 -4.5842e-20)
(-0.191715 0.143951 -1.70184e-19)
(1.31475 0.591398 -7.6235e-20)
(1.15635 0.900633 0)
(-0.344256 0.124811 -8.64079e-20)
(-0.0474903 0.0124141 0)
(0.668902 0.575949 -2.79991e-19)
(2.01876 0.136909 -1.94612e-20)
(-0.273502 -0.278736 1.03783e-19)
(-0.476184 -0.319648 -4.95253e-19)
(0.728532 0.0890285 2.55901e-19)
(1.94266 0.101946 -2.93351e-20)
(0.973428 -0.340898 -3.32531e-20)
(-0.00998802 -0.0207005 0)
(-0.964899 0.262616 4.25176e-19)
(1.35571 0.987438 -1.30293e-20)
(0.845777 0.0859662 -1.402e-19)
(0.57009 0.535203 1.94752e-19)
(0.504896 0.199317 0)
(-0.160152 -0.391374 -1.308e-19)
(-0.931198 0.349625 3.14273e-19)
(1.27478 -0.945475 7.5742e-22)
(0.986817 -0.0276132 -2.01307e-19)
(-0.174556 -0.125695 7.0018e-21)
(-0.137714 0.176599 1.48001e-19)
(-0.286733 -0.124969 -1.08442e-19)
(1.8577 -0.100662 0)
(1.13859 0.0443179 -3.31747e-19)
(2.19 0.123169 1.74437e-19)
(1.26147 -0.61724 1.28228e-19)
(0.728596 -0.087433 -6.18733e-21)
(0.604279 0.345131 0)
(0.958722 0.763429 -1.6264e-20)
(0.699237 0.643791 1.84334e-19)
(0.88975 -0.557084 1.67466e-19)
(0.698381 0.514579 0)
(1.02124 0.00348559 8.62714e-21)
(0.873536 -0.65652 2.3913e-19)
(0.848057 0.434385 -4.62849e-19)
(1.22471 -0.107082 0)
(-0.0559653 -0.0400568 -2.30382e-19)
(-0.0118756 0.207178 -1.0369e-19)
(1.61546 0.727167 0)
(1.32905 -0.92986 -6.48166e-22)
(-0.386742 -0.124891 0)
(-0.2827 0.427772 1.10939e-19)
(0.750494 0.666584 -9.84121e-20)
(0.847309 -0.209687 0)
(-0.187834 -0.105204 0)
(1.52435 -0.46391 0)
(-0.838665 0.293043 4.59511e-19)
(1.19547 -0.875471 1.787e-19)
(1.16531 -0.600243 7.37297e-20)
(1.05216 -0.16704 -1.88795e-19)
(0.869151 -0.686393 -1.89998e-19)
(0.181292 -0.185099 0)
(-0.761978 -0.432489 0)
(0.993807 -0.507327 2.00805e-19)
(-0.0928925 -0.158225 0)
(-0.219032 0.280647 0)
(-0.245152 -0.160394 2.80901e-19)
(0.806016 0.68371 8.53954e-20)
(1.02792 0.806968 0)
(0.709889 0.566762 -8.55745e-20)
(0.830192 -0.0329165 -2.33883e-19)
(0.758483 0.574956 -2.28975e-19)
(0.605748 0.564233 -1.67645e-19)
(-0.189682 -0.337373 1.17095e-21)
(0.708442 -0.635931 0)
(0.90637 0.184705 -3.31255e-19)
(-0.25675 -0.364255 3.69853e-20)
(0.61831 0.573577 3.76782e-19)
(0.972213 0.810959 0)
(-0.97217 0.442308 3.17735e-19)
(-0.102248 -0.334431 1.8429e-19)
(-0.0408381 -0.256861 -9.1402e-20)
(0.678264 0.583946 -1.48545e-20)
(0.968764 -0.00729227 6.21733e-20)
(-0.295939 -0.324237 0)
(2.39585 -0.176141 -2.28237e-19)
(1.86641 -0.329804 -3.14642e-19)
(0.641204 -0.593406 -8.46091e-20)
(-0.52774 -0.28655 8.80671e-21)
(1.20887 0.47067 1.80865e-19)
(0.896659 0.424363 0)
(1.04149 -0.170956 2.12335e-19)
(0.0257269 -0.362754 -6.39761e-21)
(-0.104339 0.111788 3.94248e-19)
(0.918837 0.0189163 -5.62047e-20)
(1.13416 0.150335 0)
(1.97858 -0.0931474 -1.59235e-19)
(1.86073 0.0771877 0)
(0.55286 0.272283 -4.67148e-19)
(-0.1463 0.205676 0)
(-0.185765 -0.288232 1.60003e-19)
(0.685318 0.102946 0)
(0.611493 -0.503549 -1.96625e-19)
(1.13597 0.0192782 2.22582e-19)
(-0.310798 0.258467 3.8812e-20)
(2.0457 -0.0560834 6.02692e-21)
(2.03977 -0.314283 -6.84376e-20)
(1.12464 0.236376 -2.23333e-19)
(-0.273788 -0.362763 -7.34289e-20)
(1.06157 -0.842026 0)
(0.809792 0.0164156 -1.61869e-19)
(0.921365 -0.3698 -3.14636e-19)
(1.70711 -0.58102 2.71087e-21)
(1.73917 0.02865 1.0323e-19)
(1.08865 -0.00339644 3.97997e-19)
(-0.00357501 -0.346987 -9.10267e-20)
(0.988338 -0.432189 -1.41211e-19)
(0.190811 -0.183487 2.76569e-19)
(1.00799 -0.00655222 0)
(1.0049 -0.00430489 0)
(0.58538 -0.0716497 1.5269e-19)
(-0.0173237 0.354726 -9.61438e-20)
(0.166442 -0.120011 -8.44074e-20)
(2.00106 0.05809 -3.4485e-21)
(0.993538 0.220164 0)
(1.69659 0.0969629 -1.08394e-19)
(0.925891 -0.806784 -1.08424e-19)
(1.75746 -0.568852 -3.11199e-20)
(1.12146 0.84916 0)
(0.462282 -0.443504 0)
(0.619529 0.532726 -1.78157e-19)
(1.1078 0.288146 -4.08757e-19)
(2.26155 -0.313916 1.91975e-22)
(0.867932 0.169058 1.42579e-19)
(-0.0619991 -0.380549 -2.70356e-19)
(1.33741 -0.471674 1.54354e-20)
(-0.231557 -0.423403 0)
(-0.0744522 -0.131655 0)
(-0.34331 -0.293111 0)
(1.32362 -0.720569 -1.25344e-19)
(-0.164266 0.375396 -2.18928e-19)
(-0.079948 0.143418 0)
(1.31304 0.989378 -3.06392e-20)
(1.12332 0.15374 -4.29703e-19)
(2.34638 0.579771 -6.7076e-20)
(1.09932 0.937962 7.88841e-20)
(-0.125835 0.420696 1.36331e-19)
(1.01503 -0.143578 0)
(-0.335508 -0.27354 -2.29153e-19)
(-0.19679 0.44666 2.57256e-19)
(0.77891 0.0428215 1.90531e-19)
(1.56304 0.955295 6.85936e-21)
(1.94031 0.68984 -8.20491e-21)
(-0.111476 0.263346 -6.54931e-22)
(0.732797 -0.669242 -4.28209e-20)
(1.13231 -0.0293543 0)
(1.68187 -0.0570305 0)
(1.01917 0.0503257 0)
(-1.31884 0.271163 -2.96454e-19)
(-0.352401 -0.340469 7.71805e-20)
(1.06243 0.856919 0)
(0.996328 0.00171886 5.40395e-19)
(0.781071 0.617498 -2.28841e-19)
(-1.66006 0.364426 -2.41322e-19)
(0.864605 0.0268935 -4.29334e-20)
(0.704429 -0.642102 -2.46874e-19)
(1.40586 0.714591 -3.01356e-20)
(0.552863 -0.437765 -3.11176e-19)
(1.13396 -7.70796e-05 -4.81898e-19)
(0.803807 0.0464017 4.84197e-20)
(1.52411 -0.188548 9.58768e-20)
(1.63767 -0.13182 -7.24675e-20)
(-0.0258513 -0.0403397 1.19345e-22)
(1.09285 0.480948 -2.69217e-19)
(1.38519 0.630676 8.37817e-20)
(-0.0879536 -0.300619 0)
(-0.0622851 -0.408652 1.01018e-19)
(-0.086519 -0.0568831 9.78497e-20)
(-0.192874 -0.0632351 -7.65486e-20)
(0.490898 0.336068 0)
(1.09515 -0.444124 0)
(-0.0241638 0.0273817 -1.4404e-19)
(-0.238863 -0.392725 -4.02607e-20)
(1.04994 -0.0286072 1.91018e-19)
(-0.322071 0.28651 -4.17857e-20)
(1.06533 0.457011 -3.25479e-19)
(0.00741104 0.348202 0)
(0.820923 -0.728133 -3.49135e-19)
(1.34612 -0.1437 9.22786e-20)
(-0.210976 -0.612879 1.18716e-19)
(0.726792 0.174368 3.36319e-19)
(0.628844 0.155256 1.08652e-19)
(0.491254 -0.464386 2.19166e-19)
(-0.118155 -0.171712 -8.72208e-20)
(1.53366 0.650797 0)
(0.407755 0.366357 -1.96421e-19)
(1.02878 -0.0139451 -3.04386e-19)
(-0.498344 -0.340642 1.95105e-19)
(1.44156 0.482859 -1.15266e-19)
(-0.113082 -0.204489 -3.18716e-20)
(0.669197 -0.611574 -9.09708e-20)
(0.825358 0.197181 -2.10595e-19)
(0.988454 0.436642 2.30503e-20)
(1.14142 -0.133444 3.83554e-20)
(0.601834 -0.216343 -3.16277e-19)
(1.97776 -0.387712 -5.0341e-20)
(1.90815 -0.0468198 0)
(1.79693 0.442568 -3.95351e-20)
(2.18949 0.0354872 -8.26828e-21)
(0.675105 -0.315647 7.88894e-20)
(1.06262 0.356938 -2.0007e-19)
(1.15322 -0.371024 -1.78451e-20)
(0.433587 0.404935 -2.54285e-19)
(-0.272337 -0.106051 1.84383e-19)
(1.73477 -0.29311 0)
(0.936154 0.00456139 0)
(0.858131 -0.759603 7.09123e-20)
(-0.10656 -0.376321 -2.01687e-19)
(-0.728125 -0.329657 -1.70469e-19)
(-0.0412957 -0.068857 -1.35097e-19)
(-0.248911 0.0902746 -1.40468e-19)
(-0.28034 -0.528371 0)
(-0.0585453 -0.0971181 2.34053e-20)
(0.0822549 0.309619 -9.65833e-20)
(-0.156352 0.196445 -3.37287e-19)
(0.79858 -0.101109 0)
(1.63545 -0.450883 1.31838e-19)
(-0.0931541 -0.0768086 0)
(0.993667 0.0247334 3.88617e-19)
(-0.0945285 -0.491501 1.59528e-20)
(0.528867 -0.40934 4.17177e-19)
(-0.572876 -0.680287 3.27592e-19)
(-1.19021 0.208094 0)
(0.150341 0.290067 1.0652e-19)
(1.00333 0.0246945 -1.17113e-20)
(-0.180251 -0.100974 0)
(1.00472 -0.00770752 -6.02e-20)
(0.849968 -0.717088 -3.26873e-19)
(1.20487 -0.197238 0)
(0.92846 -0.261769 2.24803e-19)
(0.0315106 0.137502 1.98255e-19)
(-0.00659357 -0.000977395 0)
(-0.18508 -0.381206 -3.78197e-21)
(0.716142 -0.623613 -4.65435e-19)
(0.948342 -0.0282432 -2.87251e-19)
(-0.117467 -0.390817 2.48604e-19)
(-0.158406 -0.289221 9.67522e-20)
(-0.256393 -0.455903 0)
(0.969191 0.485253 0)
(-0.193005 -0.634143 1.40603e-19)
(1.71731 -0.245551 -1.99608e-19)
(1.09225 0.910836 1.80938e-20)
(1.0763 0.21856 -1.27097e-19)
(1.14095 0.00817214 -2.43737e-19)
(1.0398 -0.0682367 -9.01188e-20)
(-0.113036 -0.40163 -2.32037e-19)
(1.89196 0.0936789 3.69218e-19)
(0.683004 0.0321561 2.12711e-19)
(2.14241 -0.163007 1.33133e-19)
(1.04724 -0.148667 0)
(0.0123297 0.390435 5.40036e-19)
(1.13989 0.0264083 -5.2652e-19)
(1.77599 0.618492 3.01002e-21)
(0.732812 -0.444964 -1.72946e-19)
(-0.0688008 -0.0302243 1.23408e-19)
(0.785693 -0.689324 4.26885e-19)
(1.25527 0.20226 7.51752e-20)
(1.00674 -0.00752477 2.6657e-19)
(-0.0307266 -0.380688 -1.01719e-19)
(1.02705 0.0205772 0)
(1.90399 0.15302 -2.50448e-19)
(-0.0201207 -0.00683453 0)
(1.01411 0.0144419 -1.58311e-19)
(-1.35094 0.292071 -5.40172e-19)
(1.70218 0.284779 3.20329e-20)
(-0.192616 -0.0992614 1.29758e-19)
(1.61175 0.00470424 -7.15733e-21)
(1.01392 -0.0177796 5.51313e-20)
(1.32354 -0.0826773 0)
(1.42838 -0.609885 -1.93724e-19)
(1.02501 0.0385067 -1.62173e-19)
(1.46499 0.798206 -4.9356e-20)
(1.38306 -0.0541086 0)
(0.767042 0.103643 -2.26265e-20)
(-0.0293339 0.0306571 0)
(1.33642 0.0401464 0)
(-0.337378 -0.345282 0)
(1.25462 0.456174 0)
(1.92212 0.233356 4.96716e-20)
(0.755333 0.629306 4.01077e-19)
(0.284102 -0.285368 -2.59472e-19)
(-0.216398 -0.383651 -2.31785e-19)
(-0.0128586 -0.021706 0)
(2.22089 -0.281591 1.29519e-19)
(1.42366 0.525649 0)
(1.47744 0.296883 0)
(-0.362949 -0.298293 1.00647e-19)
(0.823969 0.728102 1.27553e-19)
(1.67448 -0.0397391 0)
(-0.209532 -0.244077 5.69753e-20)
(0.918483 0.232346 1.94311e-19)
(2.12071 -0.266264 -6.6259e-20)
(1.26214 0.940559 4.32862e-20)
(0.901805 -0.812195 -5.04495e-20)
(1.71269 -0.114221 -2.46333e-20)
(0.810746 0.732685 1.30691e-19)
(1.19962 0.940178 0)
(2.44321 -0.0687387 1.87716e-19)
(0.938901 0.372907 0)
(1.53481 -0.491008 5.36825e-20)
(1.13192 0.0969306 2.1805e-19)
(1.00505 -0.00367632 0)
(0.165889 0.325417 5.16968e-19)
(0.883217 -0.161021 5.11908e-20)
(0.621222 -0.396184 0)
(0.661148 -0.368744 2.25258e-19)
(1.2569 0.568092 -3.32785e-20)
(0.489627 0.462484 2.78538e-19)
(-0.182874 0.257448 3.97074e-20)
(0.196671 -0.102391 1.05885e-19)
(0.745539 0.0688295 0)
(1.30439 -0.8911 -1.25791e-19)
(1.03293 -0.0426998 4.2363e-19)
(1.57947 0.334981 1.58397e-19)
(-0.231442 -0.252212 4.91336e-20)
(-0.60798 -0.62245 0)
(1.21942 -0.241496 -1.28444e-19)
(-0.00345434 -0.0017126 -1.07472e-19)
(0.254623 -0.361028 -6.03299e-20)
(-0.149454 0.0684497 -1.04163e-21)
(-0.219736 0.116168 3.293e-19)
(1.4523 -0.465089 -1.51395e-20)
(2.43597 -0.161147 3.05592e-19)
(1.20874 0.467446 -2.91672e-19)
(0.869455 -0.0559739 0)
(1.81256 -0.098775 1.98633e-19)
(1.88836 0.0902405 7.42114e-20)
(0.899073 -0.755291 1.62952e-19)
(1.13188 -0.956019 -6.97174e-20)
(0.493699 0.458808 1.86678e-19)
(1.36559 0.14679 0)
(1.79538 0.566135 3.54971e-20)
(-0.00839618 -0.0102308 -2.19424e-19)
(0.900615 0.786199 0)
(1.3642 0.564364 0)
(0.284629 -0.284216 -3.49766e-21)
(0.340784 0.326486 0)
(-0.574501 -0.565157 -3.24054e-19)
(-0.236155 0.378101 -1.17379e-19)
(1.68932 -0.435277 0)
(1.25359 0.105278 1.79092e-19)
(-0.585343 -0.37305 1.41814e-19)
(0.523126 -0.496012 -5.07645e-19)
(2.06319 -0.115845 -4.01752e-20)
(0.600015 -0.544137 0)
(1.04495 0.128403 0)
(1.31034 -0.244514 0)
(1.12769 0.234905 -2.38958e-19)
(1.36095 0.108953 3.39074e-19)
(-0.958489 -0.0056147 0)
(0.882064 -0.0612039 0)
(2.0259 -0.0916147 -4.76497e-21)
(-0.0923484 0.147567 1.08052e-19)
(2.36238 0.046697 -2.27243e-19)
(1.02246 -0.497186 1.07587e-19)
(1.9472 0.079377 -2.74158e-19)
(-0.692322 -0.380997 -1.16032e-19)
(1.89825 0.0690479 -1.70259e-19)
(1.01569 -0.0204351 4.39263e-19)
(1.54517 0.603166 0)
(-0.227926 0.422094 3.16711e-20)
(0.988817 -0.817852 2.09022e-19)
(0.857325 -0.00527569 5.0183e-20)
(0.624398 -0.419395 0)
(1.86586 -0.550319 -2.8952e-21)
(1.1977 -0.186992 1.71089e-19)
(1.75027 -0.425534 0)
(0.595778 -0.552908 5.10819e-19)
(0.834935 0.128511 -2.43695e-20)
(2.32532 0.0964046 3.29047e-19)
(-0.106537 0.214125 -2.20053e-19)
(1.35494 0.629217 1.46281e-19)
(1.16408 0.417098 3.69369e-21)
(0.917876 0.386691 2.28131e-19)
(1.85533 -0.189976 -2.52424e-19)
(-0.133672 -0.401286 -2.50728e-21)
(0.606397 -0.291386 0)
(-0.155054 -0.0921544 2.04655e-19)
(1.06417 -0.927473 0)
(1.05047 -0.646006 2.4978e-20)
(1.1211 -0.376767 -5.82838e-19)
(1.32409 0.0354282 -4.05885e-20)
(-0.436058 -0.508264 -2.74608e-19)
(1.00307 0.495563 1.76033e-19)
(-0.270036 0.510306 3.27733e-19)
(0.69667 -0.0386768 0)
(2.02686 0.00890672 0)
(1.85429 0.147312 2.24072e-20)
(0.778516 -0.0143407 0)
(1.35739 -0.21223 -1.76048e-19)
(-0.70924 -0.47276 3.85113e-19)
(1.95256 0.490775 2.04581e-20)
(1.04535 -0.0324341 0)
(0.541499 -0.333797 1.12153e-19)
(1.00875 0.0265183 2.08392e-19)
(0.391721 0.38846 -3.20535e-19)
(-0.246248 -0.094312 0)
(1.09989 -0.475124 5.55162e-19)
(1.87135 -0.124778 -5.395e-22)
(1.08821 -0.489825 -2.41396e-19)
(2.29498 0.208299 1.59377e-19)
(1.30823 0.803956 0)
(0.872398 0.0199576 0)
(-0.283604 -0.264258 -1.28306e-19)
(-0.0266084 0.0261798 1.62091e-19)
(0.962476 0.379544 -2.10661e-19)
(0.122117 -0.335568 -8.61669e-20)
(0.660214 0.42474 2.44974e-19)
(0.957881 0.141214 0)
(0.526349 -0.48939 0)
(0.503216 -0.161451 4.65107e-21)
(1.21631 -0.503354 -1.15901e-19)
(0.56313 0.0114767 6.72217e-21)
(0.730835 -0.139648 1.24285e-19)
(-0.0819342 0.096199 -2.87717e-19)
(1.02211 -0.0677913 1.56533e-19)
(0.677836 0.632553 0)
(1.29116 0.705867 0)
(1.63723 0.263466 0)
(-0.346377 -0.428154 -1.10197e-19)
(1.32008 0.579787 2.25829e-19)
(2.10088 0.0140903 3.91774e-20)
(0.940147 -0.0107446 0)
(2.1708 -0.49367 0)
(2.05069 -0.061337 -2.80398e-19)
(0.613676 0.503594 3.73584e-19)
(1.0048 0.0056587 -2.08045e-19)
(1.50784 0.481662 0)
(-0.221548 0.0509697 0)
(1.26329 0.326874 2.91275e-19)
(1.03803 0.539741 -1.30538e-19)
(1.07388 0.0257838 0)
(1.65627 -0.0913602 0)
(2.06349 0.664206 -3.2814e-19)
(-0.0956552 0.341249 -4.192e-22)
(0.99662 0.0140463 0)
(0.722086 0.488598 -3.36538e-20)
(0.917409 -0.809483 0)
(1.0017 0.0158127 4.84719e-20)
(0.103052 -0.315884 -1.75325e-20)
(0.89558 -0.313215 3.3241e-19)
(0.567154 -0.408267 -6.67792e-20)
(2.1845 -0.193947 2.02298e-19)
(1.57028 0.158698 1.10956e-19)
(0.788845 -0.0276258 0)
(1.01019 0.0102468 0)
(-0.401932 -0.659841 0)
(0.68227 0.653666 -1.88049e-19)
(-0.0588662 0.0668576 1.93813e-19)
(1.1811 0.358335 -4.67476e-19)
(-0.372907 0.0543958 0)
(0.843466 0.656826 1.68517e-19)
(0.997892 -0.324828 0)
(1.00574 0.000751801 1.21645e-19)
(0.485339 -0.115521 7.6487e-20)
(1.0483 0.41673 2.58964e-19)
(1.24263 0.12772 0)
(2.09999 0.103771 -6.703e-20)
(0.824448 -0.0991525 -3.82815e-19)
(-0.821898 -0.524351 -4.70497e-19)
(1.11323 0.18786 0)
(0.888735 0.254128 1.78867e-19)
(1.93206 -0.296159 0)
(0.789404 0.535592 3.64883e-19)
(-0.850425 -0.440601 1.7843e-19)
(-0.0633446 0.0967462 0)
(0.607023 0.578035 -7.08888e-20)
(1.01476 -0.633191 -1.74386e-19)
(0.467392 -0.225716 -1.27714e-19)
(1.01984 -0.0112577 0)
(-0.30478 -0.168683 -1.46008e-19)
(0.626668 -0.556944 8.81283e-20)
(0.918449 0.301826 0)
(1.65153 -0.354856 1.66004e-19)
(1.00087 0.852687 2.40322e-20)
(0.834561 -0.445284 6.22507e-21)
(0.148927 -0.201283 -1.33819e-19)
(0.220778 0.00518879 -5.69894e-19)
(-0.0844012 -0.164374 5.83923e-21)
(0.829941 0.370765 2.4979e-19)
(-0.180205 0.403846 -5.3492e-21)
(1.39373 -0.645481 3.26919e-21)
(1.02168 0.0127705 -3.62889e-19)
(-0.387629 -0.516201 0)
(1.03543 0.0371523 -4.22982e-19)
(2.25058 -0.00994244 2.09873e-19)
(0.901672 0.703386 2.81803e-19)
(1.12766 -0.0666084 1.7191e-19)
(1.00266 -0.0244405 1.67914e-19)
(1.30323 0.054921 3.68336e-20)
(-0.161794 -0.169452 3.71679e-22)
(1.6896 -0.864289 1.41842e-20)
(1.12991 -0.132915 -8.94312e-20)
(0.780182 0.0509402 1.03281e-19)
(0.903146 -0.284167 9.61736e-20)
(1.21444 0.246022 0)
(0.976829 0.747895 0)
(0.805218 0.00191073 -9.11551e-20)
(2.06854 0.166961 -2.30083e-20)
(-0.637048 -0.616683 1.4485e-19)
(1.01818 -0.530895 -5.77876e-19)
(0.605451 -0.521453 4.19168e-19)
(1.34434 0.116715 -1.12638e-19)
(0.175322 -0.341275 9.97507e-21)
(1.50212 -0.525068 0)
(0.758579 0.129737 -6.95148e-21)
(1.59948 -0.485974 -9.50825e-20)
(1.05527 0.774206 0)
(1.20147 -0.495924 0)
(-0.204477 -0.0177608 0)
(-0.134606 -0.207651 -3.84933e-20)
(-0.0607733 0.156901 0)
(1.89296 0.602954 4.53131e-19)
(1.23619 0.186874 6.53096e-21)
(-0.996832 0.135636 2.23408e-19)
(2.06659 0.734506 1.80507e-20)
(1.86881 0.435294 -7.67024e-20)
(2.12697 -0.359177 -2.06477e-20)
(-0.189844 0.0324842 -2.31898e-19)
(-0.197033 -0.428107 2.81826e-21)
(1.21925 0.14264 0)
(0.680394 -0.0335485 0)
(1.0013 0.00166988 2.05661e-22)
(-0.355984 -0.464566 0)
(1.54489 -0.00867677 -3.58364e-20)
(0.681325 -0.0306135 0)
(1.05292 0.0117941 1.37939e-19)
(0.98941 0.0164244 -4.73811e-20)
(0.951666 0.171119 8.71775e-20)
(1.06957 -0.0164451 -9.6755e-22)
(0.942797 -0.182495 -5.78332e-20)
(1.01986 -0.0281489 3.91416e-19)
(0.659848 -0.597359 2.00465e-19)
(-1.0166 0.353916 -2.90699e-19)
(1.2042 0.476029 1.78377e-20)
(-0.0310368 0.0336474 0)
(1.143 0.807465 0)
(1.02557 -0.00125641 0)
(0.990037 -0.764627 -1.23675e-19)
(1.01614 -0.873025 7.50653e-20)
(0.998392 0.291735 -1.85176e-20)
(0.135285 0.0838183 -1.06012e-18)
(1.09781 -0.407046 1.66593e-20)
(0.573302 -0.366165 -6.68907e-19)
(1.4516 0.4523 -5.04761e-20)
(0.49897 -0.189305 -1.06339e-19)
(2.02576 -0.358672 4.47558e-20)
(0.535037 0.086615 -1.8476e-20)
(-0.206296 -0.265674 -8.32398e-20)
(1.12899 0.565183 1.97223e-19)
(-0.101749 -0.280173 0)
(0.0976452 -0.455669 2.2783e-19)
(-0.0745204 -0.0883696 7.49364e-23)
(1.02719 -0.0425095 3.47509e-19)
(1.0214 0.00593247 -9.00046e-21)
(1.11329 -0.0103204 -9.61584e-20)
(1.46072 0.0585781 2.33039e-20)
(1.65016 0.321946 5.6892e-20)
(0.38733 -0.36203 -3.3503e-19)
(0.731002 0.233677 3.34092e-20)
(1.0314 0.00530369 -2.58012e-19)
(1.26748 0.362745 -1.83652e-20)
(1.478 0.167967 0)
(1.12596 0.603553 -3.69351e-19)
(1.00298 -0.0028932 9.93243e-20)
(0.691454 0.619825 2.59993e-19)
(1.38298 -0.499333 -2.0884e-21)
(1.0747 -0.00770293 -3.14313e-20)
(1.13378 0.0150268 8.93754e-22)
(2.28618 0.055839 1.27549e-20)
(0.526579 0.145315 0)
(1.04411 -0.0394977 0)
(1.04932 -0.0340867 6.09411e-19)
(1.0023 -0.00273956 0)
(-0.034575 -0.0499026 0)
(0.916918 -0.558026 0)
(1.00032 -0.000182876 -5.77652e-19)
(1.14167 -0.675045 1.02506e-19)
(1.02205 -0.00237583 1.21704e-20)
(1.36817 0.968481 -2.3922e-20)
(1.5577 1.01695 -2.47354e-20)
(1.0257 -0.329228 -2.86761e-20)
(1.5789 -0.00933612 2.66395e-19)
(1.66044 0.263211 0)
(0.0095394 0.346201 0)
(2.04682 -0.2235 4.2743e-19)
(1.03009 -0.514803 0)
(0.999923 -0.00490629 -1.78462e-19)
(1.01055 -0.000672117 3.4692e-19)
(1.46305 0.142792 -7.04962e-20)
(-0.000655463 -0.124543 1.61018e-19)
(0.97432 -0.000690169 1.8836e-19)
(0.109969 0.0368246 1.74541e-20)
(0.433911 -0.116738 2.6174e-20)
(1.59164 0.0938315 9.08793e-23)
(0.925448 0.0179484 -1.91242e-19)
(1.00355 0.00436679 2.24663e-19)
(1.00019 -0.000274294 1.32573e-20)
(0.791156 -0.012492 0)
(0.73043 -0.0260698 0)
(0.726016 -0.0263775 8.14321e-22)
(0.702624 -0.0284622 0)
(1.43182 -0.167947 0)
(0.806398 -0.173858 0)
(0.160815 -0.11936 -1.16801e-20)
(0.180435 -0.111691 1.13753e-20)
(1.2971 -0.252737 0)
(1.39464 -0.220658 1.88541e-20)
(1.55546 0.0429822 0)
(-0.00561367 0.113451 0)
(0.043357 0.00778231 0)
(0.264154 0.0709821 -3.12085e-21)
(0.880577 0.175116 4.19044e-20)
(0.780543 0.02332 0)
(0.788828 0.0207185 0)
(0.963379 0.0205701 -2.35538e-19)
(0.816998 0.00836563 4.38286e-19)
(1.00741 -0.00129072 0)
(0.999793 -0.000155186 4.14849e-19)
(1.00005 -0.000389656 -2.81192e-22)
(0.788081 0.0221 3.74087e-19)
(0.993941 -0.00717355 -2.16312e-19)
(0.00113798 0.11263 0)
(0.426726 -0.0986997 -2.61906e-20)
(1.00118 -0.000929656 -2.0944e-19)
(1.0006 0.00120546 -3.59833e-19)
(1.34319 0.0582561 0)
(0.998635 0.00216388 0)
(0.999521 0.000755625 0)
(1.68742 -0.599499 -1.27352e-20)
(0.419581 -0.0946799 3.80435e-20)
(0.898707 0.341509 0)
(-0.320389 0.316609 1.96615e-19)
(-0.506945 0.267945 -5.05737e-19)
(1.02005 -0.0133817 -2.7933e-19)
(-0.296083 -0.376542 -7.57211e-20)
(1.01648 0.00556236 -2.2534e-19)
(1.15875 -0.213314 -1.24176e-19)
(0.789464 -0.461609 3.2819e-19)
(-0.0306383 -0.0491016 -5.42082e-20)
(1.02942 0.0131851 0)
(1.05954 -0.0115555 -6.03536e-20)
(0.850127 0.0268451 0)
(-0.0827812 0.0788751 2.86086e-19)
(0.773766 -0.442053 0)
(-0.385767 -0.373813 -2.029e-19)
(0.25888 0.0795358 -1.27989e-20)
(1.68905 0.683078 1.00101e-20)
(-0.0717791 0.00194297 0)
(1.05312 -0.0368436 1.88446e-19)
(0.953442 -0.32805 4.29831e-21)
(0.928923 -0.00142168 2.94973e-19)
(1.01308 -0.00568152 -1.90069e-19)
(1.71037 0.866383 4.75173e-20)
(0.538343 0.506598 0)
(0.462434 0.421794 2.05228e-19)
(2.01344 -0.517362 -5.98427e-22)
(1.16421 0.130624 1.98524e-19)
(1.07302 -0.703249 0)
(1.0228 0.00503599 0)
(0.999468 -0.0171773 -4.37539e-19)
(1.01742 0.0172693 -4.28041e-19)
(-0.129491 -0.261821 0)
(1.24135 0.834209 -1.25867e-19)
(1.55899 -0.560673 2.22375e-21)
(1.01562 0.00741717 1.64445e-19)
(1.01104 0.0147787 -2.06521e-19)
(-0.417391 -0.36018 -2.0753e-20)
(0.986261 -0.242384 -1.17513e-19)
(1.01917 -0.0129928 7.00791e-19)
(1.38546 -0.456539 0)
(1.9032 0.63959 -5.63024e-20)
(1.01637 -0.00993303 -2.18495e-19)
(2.1337 0.0537503 -1.20415e-19)
(1.06536 0.00923779 -5.0174e-22)
(1.00976 -0.00912203 4.36395e-20)
(2.03249 -0.326745 -1.81515e-19)
(1.01523 0.00765641 2.12382e-19)
(0.913113 0.45003 1.8176e-21)
(1.01761 0.00590395 0)
(0.942316 0.159139 5.10174e-20)
(-1.01646 -0.167321 5.74381e-21)
(0.996687 0.0222708 2.11068e-19)
(1.0384 0.0211401 -5.61723e-22)
(1.33189 -0.463759 -1.36528e-20)
(1.27184 0.32436 4.15431e-19)
(0.997034 0.0175047 1.45334e-19)
(1.01747 -0.0123052 5.17667e-22)
(1.75653 0.243454 -2.11896e-20)
(1.84069 0.963647 -1.1497e-19)
(0.75991 -0.682271 6.77089e-20)
(0.436169 -0.302514 -3.21812e-19)
(1.00826 -0.00939918 0)
(1.01887 0.00414551 5.27365e-20)
(1.01179 -0.00789248 1.10972e-19)
(0.795182 0.137859 6.15953e-21)
(1.01426 0.00780502 -2.21092e-19)
(1.02419 -0.0209251 2.54285e-19)
(1.00901 -0.00629424 -2.07464e-19)
(1.01444 0.00674342 -5.24431e-22)
(1.01351 0.00515359 -3.79694e-22)
(1.02336 0.0170092 2.11834e-19)
(0.907934 0.0983966 5.2789e-19)
(1.83642 0.712774 0)
(0.683507 -0.648048 2.76771e-19)
(1.01118 -0.00241625 0)
(1.02269 -0.0169944 -6.12549e-20)
(1.56437 0.444273 -7.86745e-20)
(2.09989 -0.0880555 0)
(2.32274 -0.167939 -1.35289e-19)
(1.29438 0.471711 -7.53205e-20)
(0.763025 -0.0158585 0)
(1.80449 -0.293819 0)
(0.320396 0.40875 -3.0343e-19)
(1.21093 -0.105754 -3.44073e-20)
(1.01732 -0.00194534 -2.22556e-19)
(1.10438 -0.557543 -6.89987e-20)
(1.25959 -0.375114 -4.35095e-20)
(1.23958 0.532652 0)
(1.53067 -0.531061 0)
(2.05401 0.484396 0)
(0.031655 0.175843 9.25366e-20)
(0.862599 0.265801 1.26802e-19)
(-0.499507 0.081085 0)
(-0.033255 0.0436777 -2.15774e-19)
(1.73653 0.977436 -6.98052e-20)
(1.00756 -0.000971032 -4.35222e-19)
(0.834537 0.0428204 3.96024e-20)
(1.02083 0.0109887 2.88339e-19)
(0.690292 -0.0416905 0)
(-0.11757 -0.24538 -1.62663e-20)
(0.628147 0.450748 -3.45352e-19)
(1.81652 0.597643 1.50655e-19)
(0.116688 0.171006 0)
(0.773291 0.0789079 8.83494e-20)
(0.535612 0.513029 5.20114e-20)
(1.20654 0.898896 -3.37253e-20)
(-0.0308899 -0.0136878 7.87293e-20)
(1.02107 0.0169815 0)
(1.06656 0.387115 5.24053e-20)
(1.01169 -0.000304933 1.63267e-19)
(2.26497 0.0881832 0)
(1.01076 0.00970477 2.74013e-19)
(0.110244 -0.437116 -1.06903e-19)
(1.01909 0.014536 -1.69554e-19)
(1.34935 0.433795 0)
(2.29614 -0.142269 5.83492e-22)
(1.00877 0.00626284 -1.13752e-19)
(0.994748 -0.021992 2.99992e-19)
(1.10375 0.100148 -3.43049e-21)
(1.11525 0.596327 -2.22949e-20)
(-0.150239 -0.0596513 2.05888e-19)
(2.05907 0.209358 1.72031e-19)
(0.268312 0.217288 2.39248e-20)
(0.80247 0.0150048 -4.11354e-19)
(0.812338 0.0267881 0)
(0.175054 0.0698561 5.75451e-20)
(1.02336 -0.0135309 -3.28978e-20)
(0.973533 0.0329261 0)
(1.05343 0.00203979 -2.08237e-19)
(-0.263033 -0.0292584 1.66049e-21)
(-0.849654 -0.295167 2.22869e-19)
(2.10706 -0.602447 0)
(-0.96941 0.190533 -5.67867e-19)
(1.4949 -0.34568 0)
(1.04198 -0.0169036 6.1184e-20)
(1.1396 0.0683746 1.3278e-21)
(1.01319 0.000996646 1.76815e-19)
(-0.799159 -0.341761 3.11276e-19)
(1.01892 0.00615013 0)
(0.99366 0.00395851 -4.23697e-19)
(1.00796 0.00958836 2.24708e-19)
(0.757702 -0.102332 0)
(0.738258 -0.00507661 -9.82218e-21)
(0.957487 -0.000940147 -1.92094e-19)
(-0.24297 -0.392935 2.50772e-19)