/*--------------------------------*- C++ -*----------------------------------*\
| =========                 |                                                 |
| \\      /  F ield         | OpenFOAM: The Open Source CFD Toolbox           |
|  \\    /   O peration     | Version:  2306                                  |
|   \\  /    A nd           | Website:  www.openfoam.com                      |
|    \\/     M anipulation  |                                                 |
\*---------------------------------------------------------------------------*/
FoamFile
{
    version     2.0;
    format      ascii;
    arch        "LSB;label=32;scalar=64";
    class       volScalarField;
    location    "35";
    object      p;
}
// * * * * * * * * * * * * * * * * * * * * * * * * * * * * * * * * * * * * * //

dimensions      [0 2 -2 0 0 0 0];

internalField   nonuniform List<scalar> 
2186
(
0.928935
-0.208586
0.100644
1.21911
-0.761565
-0.146966
0.824708
-0.890421
-0.798001
1.46201
1.17308
-0.806197
-0.904636
1.15826
-0.436157
1.16012
1.1857
-0.802843
0.22449
-0.820472
1.55643
-0.815553
1.16689
-0.884466
1.1587
1.19467
1.37932
1.04888
0.693523
1.15854
-0.798089
1.15876
-0.754391
-1.11148
-0.817137
0.196326
-0.911378
1.54527
-0.531541
-0.086943
-0.903306
-0.77894
-0.550365
-0.948061
1.01968
1.44598
0.492729
0.666503
-0.524774
-0.766892
-0.803208
1.01168
-0.546382
1.47562
-0.853786
1.09855
-0.602476
1.12556
-0.542248
0.965306
-0.552513
0.740537
0.653787
-0.0911443
0.676084
0.608389
0.772107
1.44437
1.33901
-0.81662
-0.886197
-0.527761
1.41465
1.15149
1.32298
1.3034
-0.526686
1.18018
-0.82367
-0.647457
-0.609234
-0.121046
1.15392
0.725195
1.14784
1.15494
1.44856
0.0144312
-0.372894
-0.834107
1.10144
-0.785745
1.07946
1.31925
1.16734
0.513743
-0.0248429
0.689144
-0.76408
1.13973
-0.508898
-0.537611
0.74706
1.10423
1.18785
-0.776854
1.35915
-0.571328
1.08691
-2.2104
-0.653025
-0.766715
0.690058
1.47316
-0.783655
-0.938689
-0.235283
-0.472135
-0.834815
1.41753
0.0548151
-0.769455
0.969808
-0.842417
1.16507
-0.113035
-0.761936
1.29554
-0.822803
0.805476
1.53266
1.38632
0.38324
0.79759
-0.616067
-0.76261
1.06997
-0.822681
-0.362234
-0.848142
0.91094
-0.0689014
-0.88185
0.849996
1.07098
1.11175
-0.514573
-0.767999
0.763274
-0.893274
-0.774129
0.728867
1.1832
1.33362
1.19642
0.676754
1.44433
0.54465
0.451362
0.569958
-0.846976
-0.983941
1.12912
1.14142
0.0734233
0.172218
-0.734961
-0.800552
-0.751318
-0.712254
0.45284
1.1458
1.18643
1.26124
0.521301
-0.138395
-0.771151
1.12894
-1.13961
0.976199
-0.798088
1.17255
-0.811018
0.644911
0.62893
-0.780077
-0.992882
1.27384
-0.335009
-0.920483
-0.859256
1.41232
-0.558783
1.13359
-0.842969
-2.34139
0.164473
1.32943
1.20425
-0.814078
-0.874142
-1.6617
0.223417
1.18979
-0.826671
-0.769628
-0.832886
-0.401466
1.09243
-0.48338
0.672641
-0.279082
1.45912
0.940532
1.04206
1.10337
1.32907
1.16203
1.0494
1.23985
0.53329
-0.961953
-0.787518
0.183741
0.332414
-0.795463
-0.766608
1.17085
1.29163
-0.846138
-0.758253
-1.1666
0.51748
0.806714
0.941619
1.05041
1.27176
-0.980141
1.04089
-0.860001
-0.764085
-0.939604
1.12892
0.8375
1.29445
1.33564
1.25103
1.22775
-0.869762
0.977139
1.26033
-0.884424
1.11476
0.887158
-1.24342
-0.822381
-0.799757
1.29621
1.18313
-0.913655
-1.05803
-0.714949
1.10701
-0.811367
0.860288
1.20725
1.02359
-0.809798
-0.788822
1.13912
0.737745
-0.541909
-0.29344
1.50148
-0.770421
-0.87521
1.00545
1.33718
1.15044
-0.764204
-0.501486
-0.705896
1.04193
-0.89634
0.695537
1.13445
1.17839
-0.0614411
-0.387162
1.11064
-0.828842
1.08706
1.34734
1.17905
1.17619
-0.532042
-0.761863
-0.896305
-0.527823
-0.540862
-0.546608
0.524935
-0.432922
0.711311
1.32288
1.35576
1.04489
-0.57757
1.29354
-0.87973
-0.397583
-0.926616
-0.84291
-0.927882
0.50117
-0.777089
-0.783026
0.249945
1.05987
-0.338021
0.476249
-0.772542
-0.435922
-0.930847
-0.76825
1.37566
0.0622789
0.382277
-0.794117
0.941697
0.666028
-0.218094
0.685184
-1.62202
-0.924628
0.766689
1.18498
1.21185
-1.75204
1.30857
1.04219
0.470247
1.39699
1.15495
1.10024
0.523492
-0.585345
-0.854147
0.990585
-0.900724
-0.820975
-0.917481
-0.960777
-0.837014
1.52756
-0.817983
-0.797801
-0.878141
1.15448
-0.776274
-0.579697
-0.766295
0.913158
-0.557807
-1.05708
1.41025
1.47437
1.28024
-0.886846
0.336057
1.54408
1.15991
-0.854332
0.548389
-0.865173
0.317457
1.33027
1.1163
1.03756
1.45888
-0.384403
-0.560902
-0.200338
-0.829202
-1.01302
-0.801158
-0.0960288
1.46918
-0.781213
-0.965852
1.14524
0.734989
-0.827396
-0.92326
-0.857289
-0.773488
-0.979107
-0.838343
-0.810355
-0.768119
1.35017
-0.852533
-0.962301
1.17408
-0.953897
1.41481
-1.09898
-1.85912
-0.723718
1.15768
-0.789099
1.18162
1.00222
-0.507486
1.2035
-0.761966
-0.837905
-0.883195
1.16729
1.10511
-0.826176
-0.863022
-0.940167
1.11509
-1.03961
-1.45242
0.611175
1.08476
1.04251
0.873404
-0.836972
-0.510115
0.9572
-0.827525
0.97078
-2.43444
1.17996
0.0377854
1.28781
-0.83475
1.00693
0.815834
1.18863
-0.872294
1.15023
-0.723777
-0.835679
1.1609
-1.30097
0.244336
-0.945962
-0.0119257
1.16242
0.247055
0.442601
1.15778
0.330973
-0.0103954
-0.177978
-0.79837
0.393993
-0.915842
0.818488
-0.561589
1.21036
1.28868
-0.867344
-0.842429
-0.633444
-0.801243
0.530412
-0.928576
0.955312
0.093645
-0.910622
1.24606
-0.748301
0.467534
0.44333
-0.548308
0.915537
0.438916
-0.541988
-2.17388
-0.968292
-0.836099
1.17427
-2.60472
1.26938
1.38318
1.3709
0.759946
1.31504
-0.767117
-0.72154
1.06068
0.365114
1.14605
-0.822743
-0.920739
-1.27504
0.957331
-0.836015
-2.12128
-0.829549
-0.866194
-0.431391
-0.908014
0.850289
0.828774
-0.354934
-0.710554
0.904627
0.21843
1.28167
-2.15491
-0.108729
-0.837625
0.876337
0.172754
1.32734
1.56031
-1.32101
-0.765233
-0.732144
0.403773
-0.860513
1.19324
-0.756293
1.14959
0.883735
-0.872838
1.00101
0.962189
-1.5812
1.04112
-0.507789
-0.789193
-0.492545
-0.795033
-0.491018
-0.897114
-0.415244
1.16164
0.302874
-0.767057
0.743222
1.30699
1.36948
-0.217057
0.919657
-0.975683
0.931657
-0.168107
-0.506602
-0.784469
0.59871
0.934021
1.20279
-1.54028
-0.844986
-1.01066
-0.836225
0.0255769
0.886959
-1.46741
-0.270362
-0.968272
1.07326
-1.89268
1.1029
-0.546009
-0.592776
1.11018
0.826284
-1.06893
-0.102647
1.11579
1.44801
1.18178
-1.36943
-0.782986
0.959796
-0.543512
0.946788
-0.427496
0.544883
1.1127
-0.929082
-0.79256
1.1586
-0.878338
1.39563
-0.282399
1.03236
-0.461416
0.782854
-0.72466
1.39555
-0.793249
-0.455408
1.09397
0.625764
0.601101
-0.942545
-0.81241
-0.81047
0.903618
-0.589121
-0.465629
-1.54668
1.17503
0.493214
-0.773536
0.866186
1.02194
1.13621
-1.82205
-0.716433
-0.782475
1.17353
1.32522
0.642723
1.16983
-1.22324
1.21661
-0.704318
-0.6765
-0.45487
1.08812
1.13147
-1.11348
0.976565
-0.789107
0.93239
-0.777492
1.13704
1.11353
1.17536
-2.27246
1.05489
-0.522825
-0.429294
1.32837
-1.53098
-2.16478
1.26487
-0.955624
1.25037
-1.30873
-0.786678
1.18383
0.93829
1.51504
1.15966
-0.817838
1.24018
1.23114
-0.671599
0.748989
-0.944159
-0.75612
1.65156
-0.853411
1.28271
-0.770047
0.456868
1.16031
-0.975475
1.14248
-1.48269
1.05556
1.11556
1.17431
-0.501513
-0.925425
-0.476913
0.745339
0.835914
1.22919
-0.204865
0.95339
-2.10427
-0.221407
-1.08546
0.99388
1.30313
-0.675601
-0.821497
-0.766078
1.39427
-0.960566
0.85393
-1.06661
-0.569345
-0.875612
-0.828635
-1.33468
0.9302
-1.74494
0.239844
-0.242088
-0.415824
-0.846739
-0.91819
-0.259536
1.12259
1.17835
-0.953606
-0.291487
1.13832
1.10074
1.17867
-0.524215
1.13539
1.21905
1.15856
1.2168
-1.30841
0.12782
-0.789814
0.731872
1.16427
0.86417
0.301364
0.0394741
-2.55423
-0.484012
1.4161
-0.173037
-0.440278
-0.53726
0.0209278
-0.89302
0.909944
-0.832605
-0.96381
-0.832739
1.15747
1.16208
1.16809
-0.601129
0.448948
1.39238
-0.0362733
1.1586
0.165332
-0.602586
0.883416
1.17737
1.23692
-0.820219
1.1281
1.1287
-0.489478
0.0551243
1.16883
1.18165
1.17892
-0.839122
-0.877082
1.1792
0.767005
1.16201
0.304358
-0.044425
-0.56057
-1.87436
-0.425507
-0.781056
-1.27342
-1.12992
1.18462
1.18916
0.879103
-0.842092
1.15735
0.0177628
-0.0460052
-0.358589
1.15962
1.18407
1.18002
1.19212
1.16885
1.16163
1.15159
-0.484183
-0.124447
0.00660881
-0.0182325
-0.074549
0.0944421
-0.155875
-0.0692584
0.0210679
0.0754377
-0.0842448
1.15456
1.17379
1.16861
1.19093
1.18874
1.18008
1.18299
1.16377
1.16628
-0.00205392
-0.0134138
1.1804
1.17976
-0.140443
1.18212
1.1803
-0.489282
-0.440287
0.122325
-0.768482
-2.2054
1.16244
-0.897924
1.16134
0.798071
1.23722
-0.851833
1.16121
1.09383
1.11158
-0.792951
-1.16974
-0.930605
0.0660484
0.0431888
-0.804818
1.17497
-0.679234
1.2509
1.16558
-0.0950263
1.3331
1.49217
-0.43094
1.01436
0.823727
1.15824
1.1766
1.1702
-0.850635
0.593389
-0.51937
1.16468
1.17544
-0.931666
-0.727677
1.16602
-0.249835
-0.257999
1.16606
-0.914229
1.14285
1.17802
-0.794763
1.17265
-0.362814
1.16355
1.23312
-2.11143
1.1784
1.18589
-0.689257
0.812758
1.16496
1.16829
0.258747
-0.701208
0.875115
1.50656
1.17424
1.16667
1.17013
-0.580698
1.16651
1.15496
1.17118
1.16631
1.16796
1.16565
1.26643
-0.425447
-1.72801
1.16795
1.16067
0.399041
-0.913816
-0.583795
-0.723055
1.01924
-1.16056
-1.05841
-0.00948219
1.16356
0.89047
-0.509797
0.103665
-0.660965
-0.615964
-0.775681
-0.562212
-1.19401
-0.776131
-0.263429
1.17113
-0.556228
1.1587
1.07099
-0.83865
1.40916
-0.20881
-0.7673
0.922881
1.29042
0.567046
-0.834667
1.15929
-0.361799
1.16912
-0.473118
1.16949
-0.921819
1.16082
-0.293715
-0.484366
1.17126
1.18707
1.09631
0.114323
-0.833759
-0.591906
-0.344722
1.18381
1.0535
-0.526012
1.16031
1.2044
1.15161
-0.736501
-1.51435
-0.538357
-1.40965
0.487697
1.16661
-0.379663
1.16569
-1.03009
1.16175
1.20034
1.17301
-0.0424862
-0.00573496
1.19889
-0.878574
1.175
1.17866
0.162876
-0.895993
1.08894
1.29721
1.15855
1.1532
-0.157253
-0.707166
1.137
0.568125
1.1734
1.00574
-0.796701
-0.880892
0.994901
1.40995
1.16133
0.50023
-0.537694
-0.358635
-0.79308
-0.843479
1.15056
-0.484045
1.14501
-0.906092
-0.845077
-0.76776
0.581442
-0.836054
0.273573
-0.940426
1.15918
-0.831535
1.05861
-0.860231
-0.0280589
-0.630343
-0.388752
-0.806339
1.13047
-0.722332
-0.72382
-0.976383
-0.554529
1.1542
-0.777934
0.178255
-0.78031
1.24038
-0.157424
-0.85834
1.23081
1.15161
1.14315
0.649057
-0.796296
1.16507
1.19067
-1.61971
-0.775657
1.15862
0.956287
1.41787
1.179
-0.501733
-0.983537
-0.776271
-0.98459
-0.810234
-0.835478
-0.815381
-0.841924
0.961054
0.126078
1.17115
1.37358
1.15666
-0.835265
-0.866004
1.16057
-0.583044
-1.05254
1.14434
-0.149864
-0.791501
-1.22794
0.251334
1.10323
1.07328
-1.28464
1.0044
0.814888
-0.981208
1.15026
-1.06896
0.959244
-0.816556
1.15049
-0.743262
0.58524
1.16177
1.2535
-0.720423
-1.19512
0.979419
1.53687
1.18207
1.17465
-0.894814
1.40259
-0.784488
-1.27134
-0.691576
0.628205
-0.691392
1.27317
1.32149
-0.867401
-1.40222
1.15731
-0.438168
1.01822
1.19134
1.12158
-0.601321
1.16207
-0.0575584
1.19029
-0.193769
-0.392954
-0.0411054
1.16541
-0.352277
-0.393053
-0.0366993
1.16816
-0.646295
1.35511
0.416732
1.49543
1.14257
-0.488579
1.14793
-0.788097
1.13016
1.13264
-1.2421
-0.528484
1.28741
1.14799
1.39194
1.11244
0.240922
1.11406
1.15491
1.01626
1.16886
-0.816017
-0.769631
-1.01388
1.26495
-1.44449
-0.978467
-0.792664
-1.62504
0.0317017
-0.40583
1.01966
-0.0867967
1.12256
1.17587
-0.774712
-0.921984
-0.467595
-1.04737
-0.634076
-0.783983
1.1639
-0.632816
1.17878
1.39661
1.22012
-0.0730413
1.18534
1.09007
-1.31472
1.12749
1.14182
-0.806935
1.14234
1.09804
-0.311116
-0.448559
1.61953
-0.564204
-0.931063
-0.910153
0.390579
1.14217
-0.868025
-0.424171
-0.802305
1.29761
-0.858725
1.00745
1.17488
1.15181
-1.1345
1.13885
-0.720907
1.17486
1.18971
-0.311889
1.17981
0.643133
1.15653
0.876559
-0.859043
-0.229142
-0.337143
-0.658137
1.40652
-0.203268
1.18954
1.56458
-0.735635
-0.104877
1.22915
-0.0926042
1.22594
0.013181
0.061952
1.22493
1.22955
0.581973
-1.01907
0.914242
-0.728558
-0.772704
-0.621466
1.1847
1.16426
1.57886
-0.834347
-0.775704
0.903103
-0.935779
1.23618
1.148
1.15791
1.15205
1.12488
-1.64364
-0.834659
-0.993503
0.964789
1.07784
-1.01884
-0.781631
-0.856375
1.17867
1.19985
-1.2189
-1.15852
1.19894
-0.478885
0.365391
0.92787
1.082
-0.126844
-0.929626
-0.0828943
-0.933792
-0.824689
-1.65502
-0.445755
1.52843
1.54256
-0.773961
-0.953997
1.17837
1.15555
-0.789097
0.0914409
-0.21717
0.802867
1.25897
-1.04576
1.16986
-0.43405
-0.919821
-0.510565
-0.883557
-0.903794
1.15087
-0.942572
-1.14983
1.53441
-0.928648
1.17077
1.3962
-0.778989
1.20788
1.41111
-0.766182
1.41801
-0.919721
-0.915626
1.18078
-0.116067
1.17852
1.17293
-0.910453
1.22581
0.305055
-1.96331
1.20505
1.196
-0.771963
-1.02667
1.10444
1.16317
-0.882823
-0.927257
1.45948
-0.901456
1.06744
-0.000232313
1.11045
-0.812288
-2.24909
-0.862875
-0.766461
1.26156
1.19995
1.4477
1.37989
1.14205
1.22436
1.2308
-0.857071
1.30378
1.30677
-0.770988
-0.893221
-0.81631
1.50166
-0.420971
-0.897156
-0.933358
1.10037
-0.768693
-0.787206
1.18656
1.18528
-0.869692
-0.778353
-0.889708
-0.306919
-0.855419
-0.76736
-0.851543
1.05235
1.05913
-0.784033
-0.359361
-0.738051
1.00231
-0.899666
-0.768359
-0.846827
1.11142
-1.12788
-0.775898
1.4868
1.06737
0.564268
1.35903
-1.05716
1.14604
1.17517
1.28879
1.37165
0.361257
0.83943
1.17356
0.423651
-0.842455
1.59408
1.1348
1.08144
1.23025
-0.773449
-1.28032
1.02738
0.958516
1.13257
-1.55173
-1.72221
1.15393
-0.843612
0.998677
0.327217
1.5947
-0.839469
0.89523
0.904162
-0.788009
-0.837086
-0.66973
1.22735
-0.786876
-0.831768
0.867348
0.775122
-0.97017
1.23157
1.00931
-0.785414
-0.8175
1.11452
-1.62984
-0.835662
-0.870521
-0.804168
-0.748244
1.14065
1.17836
-2.18949
0.784723
1.17094
1.51355
0.441585
0.440513
0.162089
1.05285
-0.307295
-0.790331
-0.485815
-0.453695
-0.792789
1.15496
-0.797314
0.327605
-0.834312
0.705599
0.73574
-0.797311
0.805264
-1.90154
0.662119
-0.801094
0.629028
-0.792783
0.553493
-0.834396
0.543149
-0.805143
0.987681
-1.17274
-0.811543
-0.823535
-0.831655
1.18021
0.247549
-0.852161
-0.839746
0.190423
0.282742
-0.804212
-0.833521
-0.892876
0.0334718
-0.852747
0.0218603
-0.884942
-0.192856
-0.970067
-0.139321
1.04572
-0.130644
-1.37057
1.14232
0.103107
-0.572346
0.620453
1.13909
-0.711165
-1.96133
-0.836238
-1.05932
1.06433
1.59269
-0.866158
0.221282
0.180405
-0.931214
-0.197327
-0.216334
1.13292
-0.796423
1.12455
-0.516154
1.66209
0.627197
1.5765
-0.780588
1.35391
-0.443315
1.18062
-0.805569
-0.834602
1.24025
1.16342
-0.703686
-0.833355
-0.813043
1.13239
-0.694293
1.1479
-0.502125
-0.857384
-0.865028
1.47436
1.20061
1.27718
1.17835
1.18117
0.0639653
-0.403436
1.37884
-1.54958
-0.953227
1.59358
-0.781112
1.06904
1.12457
1.53818
1.5883
-0.774944
-1.03395
1.20383
0.391863
-0.315135
-0.782462
-0.785057
-2.33259
-0.778457
0.727311
-0.968096
1.3649
-1.1544
1.21052
1.29931
1.19952
-0.537974
-0.813973
-0.929702
1.25454
-0.915848
1.34569
-0.643999
-0.885763
1.41205
1.46558
-0.829505
0.232488
1.11611
-0.968509
-0.828122
0.835131
1.4489
1.38989
-0.767397
1.03661
1.00434
-0.829529
1.40099
0.433692
-0.782456
-0.592038
-0.384583
-0.501027
1.28304
-0.910583
0.409805
-0.538567
-0.988257
-0.915608
-0.824122
1.15211
-0.723459
1.18416
0.0391612
0.242908
0.864662
0.424933
-0.823881
-0.522473
-1.04938
-0.0174695
-0.744826
-0.50865
1.09624
-1.27845
-1.32651
1.17198
-0.947025
-0.769429
1.17829
-0.781115
1.13366
-0.669753
-0.838633
-0.189615
0.961835
-0.698722
-1.13476
1.05857
-0.859981
1.24117
-0.438845
-0.908531
-0.950372
-0.833809
1.64362
-1.33219
1.29211
-0.708704
1.13051
1.35245
0.892972
1.19425
1.33022
0.0172304
-0.54103
1.14062
1.26016
1.52151
-0.935427
1.21112
0.826022
-0.925808
0.955636
1.37055
-0.488588
1.52214
0.282713
-0.778237
1.00048
-0.914941
-0.814676
1.1157
-0.369907
1.22575
1.21926
1.12015
-0.769491
1.06429
1.43838
-0.788271
-0.202011
-1.11897
-1.1562
-0.916562
-0.834284
1.50914
0.914751
-0.765779
1.07489
-0.9059
-0.9031
1.43043
1.39979
-0.686013
-1.03293
-0.834422
-0.851976
1.14593
-0.766525
0.234716
-0.75504
-0.306316
1.2319
-0.887985
1.56903
1.21047
1.04999
1.18652
1.48047
-0.911986
-0.898663
1.18499
1.30988
-0.878993
1.17523
-1.66
-0.86017
-0.876437
1.2508
1.28249
-0.866665
-0.767261
0.71785
0.0782136
-0.632518
1.14417
1.12353
-1.02104
1.16519
1.20941
-0.928155
-0.769828
-0.766685
-0.854562
-0.874963
1.47194
-1.0235
1.07551
-0.767726
1.46716
1.03417
1.02538
1.10467
-2.13675
-1.11179
-0.849157
0.674891
-0.777143
1.08334
0.450328
-0.433655
1.02126
1.16809
1.20386
1.17087
-0.111967
1.20502
-0.00407197
0.582022
0.95394
-0.476822
-0.772212
-0.90444
-0.62964
1.17661
1.13172
1.17641
-1.15791
-0.672344
-0.844545
-0.757784
1.17298
1.46032
1.18663
-0.774678
-0.866867
-0.932624
-0.463233
-0.83363
-0.835236
-0.0975272
1.15741
-0.79642
-0.784457
-0.786065
0.0533716
0.871848
-2.43651
-0.841523
-0.818994
1.09747
1.59492
-0.670759
1.26915
1.6561
0.808935
1.37348
-0.770405
0.0916924
1.55234
-0.838403
0.47491
-0.779531
-0.876853
-0.811219
-0.78675
1.14872
0.895064
1.36299
1.32321
0.0129362
0.94219
0.168939
-0.682738
-0.836057
1.27714
0.873697
1.18186
1.19831
0.0569624
-0.0625987
1.19647
-1.02441
-0.835734
-0.785324
-0.822396
0.758977
-0.788186
1.12923
0.831207
-0.83831
1.39132
-0.772988
-0.231029
1.14912
-0.895733
-0.92755
-1.37073
0.74257
-0.783132
-0.744316
1.07122
1.19
-0.807772
0.195292
-1.48574
-0.834572
-1.12912
-0.753946
-0.0517855
0.762754
-0.921464
-0.790975
1.43643
0.389459
0.495007
-0.794951
-0.881962
1.16652
1.20757
0.66933
0.697208
-0.798896
-0.9434
-0.647895
0.589573
0.603752
-0.802989
0.994212
0.267208
-0.806939
1.62166
-0.815132
-1.22267
-0.872399
-0.751276
1.0054
-0.833734
-0.766949
-0.843266
0.157266
-0.869393
0.116254
-0.781727
-0.18318
1.34391
-0.924234
-0.0303141
-0.868584
-0.0712537
1.51664
1.55262
1.40155
1.17204
1.3772
-0.684959
1.15719
-0.772427
1.20545
-0.837175
-0.811113
1.42184
-0.856434
0.646184
-0.715884
1.5601
0.0778549
1.49773
0.740739
0.920661
-0.781558
-0.777247
-0.8353
-0.752338
1.47536
1.36096
1.15424
0.799366
1.16173
1.03009
0.963469
-0.801379
-0.845024
0.382454
-1.00555
0.937224
1.17443
0.118376
-0.781325
-0.804189
-0.990782
-0.834976
-0.531701
1.50006
1.19301
1.1689
0.0180764
-0.16946
1.19282
-0.97741
-0.83484
-1.91747
-0.925647
0.924775
-0.785999
-0.796896
-0.172396
1.16539
-1.15888
-0.871471
1.16103
0.771095
0.888227
1.15821
-0.834525
1.01601
1.35191
1.00182
-0.83336
1.15731
0.512642
0.588855
-0.889212
-0.789545
1.61531
0.409037
-0.60646
0.179202
1.0547
1.12381
-0.943793
-1.01243
-0.492922
-0.711569
-0.769021
-0.766053
-0.521908
1.1529
-0.770895
1.14766
1.43934
1.25303
1.14616
1.24388
1.30763
1.16253
-1.005
-0.53041
-0.32969
-0.909984
-0.740102
-0.80002
1.31001
1.20689
-0.903901
1.13192
-0.837375
-1.14422
-0.809575
-0.305246
0.704241
-0.906678
1.14946
1.05305
-0.757771
-0.262614
1.50145
-1.10921
-0.809487
-0.830598
-0.768254
-0.784673
1.20862
0.912177
1.25926
-0.950026
-0.887438
-0.803837
-0.270295
-0.9086
-1.24549
-0.84723
-1.31812
1.05804
-0.631397
1.60824
-1.06165
-0.45114
-0.865156
-0.801395
1.09819
-0.885818
-0.9388
-0.779558
-0.207815
1.35871
1.38292
-1.78108
-1.20783
0.964413
-0.851953
-0.754923
1.26973
-0.601225
-0.594317
-0.731135
0.888257
-0.302445
-0.91351
1.1534
0.16023
-0.716677
1.16383
-0.843183
-0.965663
-0.78207
-0.888258
0.0623675
-0.911933
1.48603
-0.840315
0.315016
-0.837457
0.93149
-0.746108
-0.885965
0.782737
0.930718
1.22091
1.12937
1.3403
-0.824886
1.01457
0.717348
-0.82526
1.08466
-0.29128
-0.784203
-1.25507
1.34247
1.32916
-0.681919
-0.863249
-0.94248
1.16591
-0.818419
0.22792
-0.924215
-0.803269
1.44843
1.16548
-0.779713
-0.771263
-0.779415
-0.783788
1.05298
-0.76786
1.12978
0.34936
0.844402
0.976763
-0.795534
-0.846461
1.08849
-0.802772
-0.760408
1.44343
-0.848694
-0.785976
0.960991
-0.80211
-0.768333
-0.0589652
-0.93494
1.51672
-0.509542
0.291521
-0.778648
1.46097
-0.774732
-0.775973
0.777722
-0.909147
-0.837135
1.49764
0.808712
1.16904
-0.766985
1.39737
0.277953
-0.683806
-0.7671
-0.766001
-0.773449
1.43137
0.707688
-0.870623
-0.776135
-0.922338
1.28456
-0.797129
1.43796
-0.836781
0.855166
-0.787065
0.49633
0.669435
0.633841
0.550017
0.337618
-0.788587
1.16085
-0.767002
-0.623971
-0.865027
0.434514
1.47781
-0.182029
-0.77158
-0.771164
-0.786563
0.386249
-1.0509
-0.787621
1.00659
0.342097
-0.782028
1.54161
-0.917091
-1.02359
1.52084
-0.78485
0.268075
-0.817908
-0.804319
-0.790063
1.51708
-0.807996
1.43939
-0.790366
-0.822314
1.33429
-0.0972649
-0.786769
0.697338
-0.93686
0.128719
-0.290686
-0.789244
0.975124
-0.849278
-0.78795
-0.802651
-0.807397
-0.841421
1.01229
-0.0510062
-0.337153
-0.780992
1.46682
-0.741189
-0.769562
-0.777138
-0.0281925
-0.939659
-0.799866
-0.78305
0.0389289
1.41284
-0.770503
-0.830703
-0.782086
-0.610289
-0.134784
-0.846456
1.55232
1.48667
0.541007
-0.851359
-0.839003
0.453111
-0.836772
1.5652
0.328428
1.2339
0.835704
1.44325
0.206448
-0.949762
-0.877031
0.0468904
-0.765745
0.0479442
0.0293072
-0.792601
1.46252
-0.167365
0.340178
-0.298467
-0.822473
-0.841327
)
;

boundaryField
{
    frontback
    {
        type            empty;
    }
    Top
    {
        type            zeroGradient;
    }
    outlet
    {
        type            fixedValue;
        value           uniform 0;
    }
    bottom
    {
        type            zeroGradient;
    }
    Inlet
    {
        type            zeroGradient;
    }
    rectangle
    {
        type            zeroGradient;
    }
}


// ************************************************************************* //
