/*--------------------------------*- C++ -*----------------------------------*\
| =========                 |                                                 |
| \\      /  F ield         | OpenFOAM: The Open Source CFD Toolbox           |
|  \\    /   O peration     | Version:  2306                                  |
|   \\  /    A nd           | Website:  www.openfoam.com                      |
|    \\/     M anipulation  |                                                 |
\*---------------------------------------------------------------------------*/
FoamFile
{
    version     2.0;
    format      ascii;
    arch        "LSB;label=32;scalar=64";
    class       surfaceScalarField;
    location    "35";
    object      phi;
}
// * * * * * * * * * * * * * * * * * * * * * * * * * * * * * * * * * * * * * //

dimensions      [0 3 -1 0 0 0 0];

oriented        oriented;

internalField   nonuniform List<scalar> 
3181
(
-1.05586
0.413122
0.642736
-0.395366
0.372361
0.0230049
0.531805
-0.365129
-0.166676
0.125037
-0.206052
0.0810148
-0.00839288
0.000582249
0.00781063
0.665644
1.411
-2.07664
0.151366
-0.144924
-0.00644217
0.0320919
0.00253061
-0.0346225
0.582991
-0.771289
0.188298
-0.0746306
0.140316
-0.0656853
-0.0104057
-0.0503245
0.0607302
0.122228
0.0512567
-0.173485
-0.00569849
-0.0269999
0.0326984
-1.10274
0.149494
0.953243
-0.334042
0.71044
-0.376398
-1.12152
0.635995
0.485528
0.0848199
-0.930505
0.845685
-0.114814
0.0400566
0.0747572
-1.23988
-0.0540967
0.0196496
0.0219213
-0.0415709
0.0319768
-0.0829799
0.0510031
-0.0386879
0.043156
-0.00446817
1.06968
-1.04288
-0.026792
0.0270819
0.0358389
-0.0629208
-0.957344
0.324626
0.632718
-0.109689
0.234726
0.309599
-0.241156
-0.0684423
0.0302297
0.0634551
-0.0936848
-0.40582
0.333072
0.0727476
-0.0330623
-0.0307037
0.0286385
0.00206522
-0.034644
-0.9227
0.00232418
-0.0436011
0.0412769
0.159708
1.48792
-1.64763
-0.0527182
0.0515979
0.00112028
0.180509
0.269294
-0.449803
1.6503
-1.49059
0.0701251
-0.0381483
1.49417
-0.823039
-0.671134
-0.913886
1.57953
-0.0730641
0.0673656
-0.0278449
-0.0108429
-0.415986
0.0819442
-0.108732
0.0808868
-0.62822
0.130389
0.497831
-0.15229
0.0776589
-0.17162
0.175956
-0.00433599
-0.276023
-0.0778642
0.353887
0.369749
0.899226
-1.26897
0.0286977
0.0123973
-0.041095
-0.0110541
-0.0989419
0.104962
-0.00601984
0.525419
0.185021
-0.0965389
0.136968
-0.0404288
0.0868104
-0.0844862
-0.174678
0.20156
-0.026882
0.166748
0.0568721
-0.22362
0.111094
-0.117122
0.00602772
1.12477
0.369404
-0.864524
-0.191335
-0.143657
-1.57903
1.72269
0.546467
0.225761
-0.772228
-0.44258
-0.200176
0.642756
-1.58
0.666109
-0.264618
0.811085
-0.329535
-0.103753
0.433288
-0.205713
-0.200106
-0.193614
0.165073
0.0285413
0.126994
0.287491
-0.414485
-0.190621
0.773612
-0.01533
0.0474219
-2.03342
1.88977
0.193033
0.116566
-0.183297
-0.112081
0.295378
-0.27051
0.352379
-0.0818696
-0.0829657
0.0910796
-0.00811391
-1.66367
-0.919868
0.0097571
0.910111
-0.0440722
-0.008646
-1.0811
0.762296
0.318802
0.104569
-0.154556
0.0499875
-1.24927
-0.33072
1.10144
-0.951946
-0.707198
1.15394
-0.200702
1.0668
0.163728
-0.175919
0.0121919
1.60244
-0.191448
1.96069
-1.96069
-0.00748627
-0.00141126
0.00889753
-0.217212
-0.0533135
0.270526
0.0248928
-0.0302027
0.00530991
-0.45196
0.83957
-0.38761
-0.0131794
-0.243213
0.256392
-1.08688
0.0439993
0.339388
0.0579806
-0.397369
0.136438
-0.849704
1.07547
0.0174774
-0.00811374
-0.00936362
-0.0175135
-0.157164
0.0437324
-0.161075
0.117343
-0.0530201
0.0967524
0.113996
-0.963701
0.334119
-0.786078
0.925446
-0.840626
0.0450769
0.0317406
-0.0768175
0.0803935
0.0513532
-0.131747
-1.39997
-0.105977
1.50595
-0.251181
0.416509
-0.165328
-0.66126
0.489966
0.171294
-0.458072
-0.623026
0.0334576
-0.00475993
-0.155652
0.149944
0.0057081
-0.0772394
-0.0116722
0.0889116
-0.554584
-0.216704
-0.0781326
0.0221516
0.055981
-1.40148
0.326879
1.0746
1.32462
-0.425395
-0.0171387
0.0096524
0.0436264
0.149407
-0.19708
0.377589
0.049919
0.00406549
-0.0539845
0.136236
0.0675911
-0.203827
0.191994
-0.193687
0.0016927
-0.595925
-0.525598
-0.75414
-0.647339
0.00398095
0.0134964
-0.109155
0.187642
-0.0784868
0.0771803
0.0252967
0.12607
-0.0573419
0.0728493
-0.0155074
-0.0977959
-0.0225404
0.120336
0.0759276
-0.0759276
-0.188255
0.213552
0.0515485
0.0623163
0.107098
0.0944619
-1.27794
1.08732
-1.44514
0.0612315
1.38391
0.0250895
-0.0236409
-0.00144861
-0.0264003
-0.0509161
0.0773165
0.546958
-0.023183
-0.523775
-0.0171998
0.0173241
-0.000124248
-0.203758
0.0155028
0.159819
0.679751
-0.371286
0.531104
-0.158028
-1.24194
0.00949125
-0.0178841
0.493482
-0.310099
-0.183383
0.00866074
-0.00821929
-0.000441448
0.0487357
-0.324758
0.023565
-0.943433
0.049789
-0.158944
-0.292985
-0.407399
0.0671887
1.34866
-0.908478
-0.440186
1.04112
0.307546
0.0675594
0.286327
0.0222874
0.00280216
-0.127327
0.145335
-0.0180077
-0.257345
-0.582137
0.839481
-0.363262
0.362566
0.110365
-0.164462
0.14931
0.0382195
-0.0469753
0.00875582
-2.09418
0.0438035
2.05038
-0.00831939
-2.08586
-0.306483
0.645871
-0.90694
-0.0184096
0.00326787
-0.263689
0.260421
1.37148
-1.5029
0.131418
-0.0126028
0.022094
0.566124
-0.823469
-0.13142
-0.115693
0.247113
-0.293121
-0.115042
0.408163
0.187529
-1.01048
-0.0764036
0.0161337
-0.0577046
-0.549352
0.349176
-0.244057
0.018839
0.225218
-0.0464327
0.0338299
0.0302645
-0.0302645
-0.117497
0.128722
-0.0112242
-0.225638
-1.2195
0.0565411
0.0135753
-0.0701164
-0.108827
0.0810378
0.0277894
-0.219049
0.0254349
1.3104
-0.318917
-0.991479
-0.19755
0.455531
-0.257981
0.01071
-0.0107454
3.5423e-05
-0.178922
-0.482338
-0.185452
-0.00430058
0.189752
-0.178504
0.305498
-0.100367
0.0986788
0.00168801
0.0756551
0.0197893
-0.0954444
-0.109615
0.124244
-0.0146297
-1.13938
0.856323
0.283059
-0.22278
-0.051814
0.274594
-0.698781
0.66184
0.0369412
-0.00617282
0.0420117
-0.00276374
0.00282733
-6.35847e-05
-0.0154337
-0.0474871
1.03059
0.294029
0.176086
-0.882145
0.706058
0.0273371
1.78938
-1.81672
0.389729
0.692286
1.2684
0.0597283
0.201595
-0.0653584
-0.0705875
-0.0283544
0.242064
0.154218
-0.0738246
0.736664
-0.412038
0.0615141
0.209012
0.0464145
-0.161573
0.115159
-0.79177
-0.140322
0.932092
-0.0185089
0.0185089
0.00147582
-0.269305
0.538599
0.0129737
-0.235754
-0.0242668
0.0643234
0.00194951
0.00203144
0.133462
-0.143867
-0.346079
0.3329
0.0310111
0.0583373
-0.0893483
0.391122
-0.339865
0.997345
-0.661918
-0.335427
-0.210081
0.27764
0.188577
-0.498677
-0.208474
0.621596
0.168612
-0.0339535
0.0339535
-0.454333
0.221517
0.232816
0.390733
0.0257764
-0.0214003
0.0225981
-0.00119776
-0.0492087
-0.0715244
-0.00660818
-0.0489373
0.182399
-0.177899
0.238746
-0.0608468
0.126218
0.0280006
-0.394668
0.153511
0.187565
-0.0613472
-0.0453237
-0.0550431
-0.0357817
0.0423669
-0.00658512
0.150085
-0.106517
-0.0435685
-0.0113162
0.39028
-0.378964
-0.076307
0.060977
0.103181
-0.10749
0.00430955
0.0236958
0.59119
0.406156
-0.0719072
0.00918365
0.0627235
-0.0580418
0.0352708
0.022771
-0.0894969
0.0979191
-0.720477
0.622558
-0.016523
-1.52196
-0.467761
1.98973
-0.205668
1.53564
-1.32997
0.0842121
-0.230113
0.0364263
0.271898
0.251072
-0.52297
-0.206207
0.252622
0.145495
-0.897144
0.751649
-0.0134024
-0.0446394
-0.00717289
0.0233066
-0.99438
0.445286
0.549093
0.908478
-0.794481
-1.70436
1.59838
-1.37148
1.43271
0.040917
-0.0813458
-0.000518571
-0.00224517
0.0116402
0.811661
-0.666166
0.12494
-0.0751514
0.417182
0.736763
-0.0272477
-1.52183
1.54917
-0.682547
-0.595393
-0.240241
-0.387979
-0.00894145
-0.168618
0.217354
-0.577197
-0.381161
0.183611
0.784241
-0.237282
-0.897212
-0.80715
0.742211
0.0891189
-0.102521
0.290203
0.038593
-0.038593
0.670902
0.148544
-0.819446
-0.225138
0.89604
0.813038
-0.530437
-0.282601
0.0471172
0.0151991
0.00758766
0.00508842
-0.0126761
-1.57903
-0.669916
0.244521
0.923229
0.387167
-0.0351884
-0.136432
-0.242442
0.767861
-0.195067
-0.0489894
-0.00314516
-0.0798206
-0.0518935
0.103247
0.373897
-0.243508
-0.840576
-0.281826
-0.108862
-0.0197528
0.128614
-1.22925
1.92153
-0.132229
0.133912
-0.00168273
0.0345002
-0.0122128
-0.0987543
0.0702241
0.0285302
0.00910695
0.424181
0.00599745
0.00266329
-0.00146204
-0.000927996
0.00239004
-0.0172573
-0.168195
-0.719077
0.366872
0.352205
0.741873
-1.68052
0.938644
0.136958
-0.158215
0.0212567
0.00948665
0.023971
-0.144582
-1.81611
-0.0763254
-0.022429
-0.0107661
0.00600616
0.145248
-0.342328
-0.856069
0.923272
-0.0672032
0.0263686
0.0943738
0.0557113
-0.79177
-0.922059
-0.217322
0.0974587
-0.0272346
0.0436784
-0.638192
-0.0605898
0.0604694
0.127095
0.677401
0.0489055
-0.463391
0.124692
0.346127
-0.288147
-0.120538
0.022742
0.224379
0.835204
-1.05958
0.103432
-0.720085
0.616653
-0.960296
0.819974
-1.75299
-0.0714346
1.82442
-0.00931135
0.00937588
-6.45263e-05
0.165275
-0.458396
0.215595
-0.127279
-0.0883156
0.0525656
-0.0172948
0.00141418
-0.110276
0.0117556
0.018024
-0.0334577
0.0212494
0.0742466
-0.095496
0.60737
0.00673517
-0.00737877
0.0006436
0.0667969
-0.00581994
0.860374
0.000979004
0.021115
-0.229752
-0.440164
-0.00767554
0.0547927
0.00782864
0.0865452
-1.82442
1.81611
0.159164
-0.077658
-0.0815056
-0.249063
0.0731437
0.119494
-0.107302
-0.00149436
0.092574
-0.0146692
-0.664623
-0.191446
-0.0402566
0.061506
0.739851
-0.254323
-0.0741912
-0.034636
0.336273
-0.000931064
-0.0204693
-0.00786175
0.0837893
0.148039
0.20434
0.155985
-0.326981
0.170995
0.112874
0.566877
-0.0435364
-0.108753
0.943282
-0.26012
-0.683162
-1.75299
-0.412803
1.15468
1.6503
-0.0723599
0.252664
-0.180304
0.385417
-0.0752716
-0.310145
0.0832371
-1.33251
-0.0709043
0.0715502
-0.000645965
0.0935757
-0.144044
0.0504684
0.481018
-0.954065
0.473047
0.0414059
0.656832
-0.698238
-0.0449341
-0.110718
-0.0294968
-0.0424104
-0.0934006
-0.360932
-0.00775651
-0.00155484
-0.0153243
0.0438262
-0.0285018
0.0150049
-0.142332
0.0072203
0.0272799
-0.0689885
0.100729
0.0023762
0.000451129
0.193465
-0.436678
0.12178
1.41386
0.00838885
0.0101201
-0.99265
-0.0178292
0.146749
-0.0740105
-0.0465274
-0.203287
0.0718674
0.485959
-0.648232
0.162273
0.0264442
-0.0341197
-0.935992
-0.0159542
-0.0159642
-0.648843
0.746762
-0.0181749
0.186787
-0.35031
-0.180127
0.182642
-0.448686
0.266045
-0.0723153
0.0763808
0.00626294
-0.0067061
0.000443168
-0.0236362
-0.0859785
-0.0214935
-0.135671
0.750405
-0.646973
-0.0741362
0.0414358
-0.117224
0.307943
-0.151957
0.141156
1.19091
-0.354026
-0.836886
-0.119428
0.138268
-0.505361
-0.213716
-0.563025
0.622223
-0.603187
-0.0190358
-0.0694657
-0.00467053
-1.52183
0.53596
-0.53596
-1.83399
1.83399
0.811661
0.448008
-0.28286
-0.165148
-0.899487
-0.0931626
0.62793
-0.36012
-0.26781
0.167469
-0.245956
-0.0124858
-0.00465288
-0.88438
-0.0793206
-0.933195
0.212718
0.0400152
-0.059768
0.697971
-0.112893
-0.585078
1.14641
0.503887
-0.00210677
0.00836971
-0.962784
0.158266
-0.820184
-0.0983711
-0.588172
0.686543
-0.0597688
-0.833887
-0.669011
0.217085
-0.81301
-0.932092
1.38051
-0.448422
-0.139792
0.282987
-0.143195
-0.0224642
0.720436
-0.103676
-1.02026
1.02026
-1.94594
1.18426
0.761678
-0.00104289
0.00777806
0.0809357
-0.4353
0.840943
-0.0786463
-0.0833979
-0.0354478
0.0602118
0.00483266
0.00587732
1.96408
-2.03552
-0.343844
0.419499
-0.635279
1.0032
-0.367924
0.0017324
-0.0780578
0.122833
-0.0552414
0.360251
0.00298283
-0.0299828
0.353474
0.0368056
0.0430448
-0.245885
0.20284
0.141354
0.0346027
0.0964322
0.180003
1.85579
0.0339795
0.223199
0.745541
-0.968739
-1.59281
1.63661
0.280681
-0.199794
0.0767504
-0.766919
0.690169
0.671207
0.135096
-0.481175
-0.0743864
0.136202
-0.061816
0.13585
-0.210237
-0.444933
-0.104419
-0.0708429
0.0738982
-0.0030553
-0.000188557
0.00256476
-0.0318084
-0.0526779
0.666166
-0.616653
-0.0495135
-0.295434
0.308408
0.87661
0.657866
-0.272449
-0.0146873
0.0282626
-0.384443
0.26875
0.176492
-0.58733
0.410838
-0.00650857
-0.000197535
0.483646
-0.0903883
-0.393258
0.010644
-0.0162864
0.0056424
-0.0266711
0.0193948
0.00727627
-1.43887
1.24742
-0.139184
-1.38278
-0.193861
-0.794481
1.43271
1.59838
-0.195929
-0.175379
0.123565
-0.062674
0.0683462
-0.00567221
-0.399218
1.13843
-0.739212
0.54018
0.0877503
-0.000225802
-0.00628277
0.120128
0.169132
0.0354478
-0.0450448
0.00478829
-0.170304
-0.214139
0.0035332
-0.00158368
-0.232616
0.623738
1.04112
-0.323514
-0.062284
0.00141389
0.0608701
1.97317
-0.374791
-0.0619743
-0.0551476
-0.956439
0.161958
0.397685
-0.210156
-0.475955
-0.126631
0.602586
0.81179
-0.359546
-0.452244
0.0289549
0.457004
-1.54917
-0.0298647
0.00435801
-0.0090407
0.00468268
0.0958441
1.69354
-0.172142
0.179729
0.223209
1.97368
-0.540972
-0.681509
0.0578745
0.623635
0.376566
0.00273032
-0.345762
0.541799
0.819228
-0.17895
0.0773676
-0.0216563
-0.665481
-0.0299549
0.695436
1.01907
0.00373079
-0.00519284
-0.0481932
-0.357695
0.101988
-0.308195
0.712335
0.478577
-0.0674955
-0.00197018
0.269747
-0.342107
-0.0236596
0.0174868
0.112404
-0.149675
0.0372715
-0.303348
0.31784
-0.0144917
0.333273
-0.687298
-0.185453
-0.0893702
0.274824
0.111992
-0.13878
0.0267876
0.267482
0.0404612
-0.73319
-0.188869
-0.654831
0.654831
1.72269
1.14641
-0.720085
0.332963
0.486265
-0.0271852
0.260001
0.915371
-0.375191
0.00663871
-0.869623
0.862984
0.135826
0.00448952
0.0259583
-1.03488
0.301694
0.0693089
-0.168311
-0.123541
0.291852
-0.0302999
-0.51922
0.350908
-1.04868
-0.284879
-0.648193
-0.0415862
-0.00756225
0.000183481
-0.224993
0.0588483
0.0697661
0.0348382
-0.143046
0.108208
-1.28371
-0.662225
-0.00574688
0.069202
-0.425625
0.478825
-0.0531999
-0.573668
0.390285
-0.106294
0.164631
0.237091
0.00745064
-0.0146235
-0.679277
0.36036
0.0338863
0.0692942
-0.133252
0.0160277
0.205713
0.00988181
-0.42048
1.90579
0.451851
-0.289343
0.867039
-0.790289
0.779434
-0.443161
-0.605513
0.170213
0.15244
-0.792532
0.762944
0.0295883
1.19156
-0.479229
-0.211852
-0.131992
-0.0130574
-0.0171453
0.95229
-0.838052
-0.114238
-0.179514
0.105689
0.0279159
0.122028
0.875887
0.354196
-0.542091
0.187895
-0.328369
-0.0527919
0.393347
-0.818971
0.129215
1.37673
1.07828
0.0681277
0.170991
0.553974
-0.724966
0.169455
0.0497203
0.000965974
0.00648467
-0.508449
-0.0970636
-0.00795214
-0.0384805
-0.184309
0.135371
-0.539175
0.281195
-0.992057
-0.682078
-0.2874
-0.627728
1.40015
-0.0162483
-0.283167
-0.432486
0.262182
0.16969
0.29582
0.0576541
1.31671
-0.835696
-0.186774
0.125427
0.150239
-0.507023
0.356784
0.00205907
0.00229894
0.0483543
-0.0603676
-0.242981
-0.123027
0.697427
-0.41715
-0.280276
-0.107618
0.13671
-0.0984169
-0.0382929
0.241439
0.0543811
0.210029
-1.54
-0.0950196
0.138698
0.664032
-0.309836
-0.00752516
0.0302962
-0.0203136
0.0209892
-0.000675611
-0.0025977
-0.0210432
-0.239423
0.0778496
-0.00221314
-0.5633
0.423508
0.0159176
0.0526776
0.0593146
-0.69503
1.74413
-1.26555
0.0158967
-0.190317
0.17442
-0.137866
-0.541091
0.678958
0.0797971
-0.717989
-0.0685546
-0.116899
-0.0274891
-3.73546e-05
0.0275264
-0.249238
-0.622223
-0.169547
-0.145727
-0.665481
-0.228123
0.162764
-0.198432
-1.08808
-0.11546
0.249706
-0.134246
0.267192
0.116826
0.394858
0.313206
-0.708064
0.0300024
0.0591166
1.16475
0.210596
-1.37534
-0.223628
0.125719
1.5109
-0.238783
0.177936
-0.874429
1.00015
-0.372797
0.211722
-0.0113541
0.0229943
-0.0321156
1.19908
-1.48843
0.722422
0.0893677
-0.970314
0.305692
0.257535
0.657835
0.928003
0.0152792
-0.0160271
-1.07828
-0.648193
-0.712781
0.722539
-0.0805744
-0.897212
0.656832
0.612539
-0.931215
0.477703
-0.00773496
-0.784797
-0.31359
0.636533
-0.775255
0.138723
0.0820539
0.0546559
-0.142783
0.178126
1.32411
-1.50223
-0.00561222
-0.00195003
-0.260598
0.211609
0.71633
0.22574
-0.210237
-0.183241
1.61263
-1.28575
-0.184241
0.0190927
0.346807
0.399162
-0.745969
-1.2265
1.19654
-0.117523
0.596348
0.0874275
0.873562
-0.695436
-0.00192408
0.214302
-0.0367827
0.0875931
0.0591558
0.00683496
-0.0365176
0.0296827
-1.02303
-0.0365538
0.319514
-0.805943
-0.790795
1.17431
-0.383517
0.371327
0.631877
-0.0504902
0.0540098
-0.00351959
0.0696727
1.54295
-0.717381
1.49324
0.487871
-1.27867
0.310132
-0.09583
-0.584781
-0.407276
-1.2434
1.59021
-0.0605253
-0.877358
-1.70831
-0.108405
0.873562
0.0494946
-0.855438
0.830966
-0.645623
-0.185343
-0.981886
0.397104
0.012053
0.11527
-0.000612598
-0.114657
-0.971475
0.564199
-0.218821
0.911019
-0.926973
0.18972
-0.206978
-0.0941325
0.239381
0.345962
0.452353
-0.0220248
-1.41695
0.580061
0.946585
-1.12554
-0.552953
-0.518232
1.07118
0.447047
0.016156
-0.0110675
-0.734792
0.698238
1.15073
-1.08106
-1.2684
0.902965
0.365436
1.0602
0.114114
0.777899
-0.810961
-0.493602
-0.449831
-0.471593
-0.499882
0.803631
-0.803631
0.685297
-0.685297
-0.734792
-0.572245
0.572245
-0.902965
-1.07646
-0.359907
0.249563
-1.27244
1.27244
1.15073
-1.08106
0.777899
0.766962
-0.766962
0.810961
0.758833
-0.758833
0.506398
0.528407
0.481768
-0.121708
-0.500118
-0.550169
1.07858
-1.35604
-1.97685
0.733447
-0.296048
0.178525
0.207494
0.00858537
-0.00760637
-0.886508
0.0962326
0.790275
-0.0929683
0.0840268
-0.996323
0.584285
0.935524
-0.602561
-0.125516
0.00792727
-0.0116814
-0.802459
-0.0796855
-0.549093
0.000918167
0.0223885
0.0721554
-0.119189
0.0919545
0.178479
-0.00871164
-0.00625329
0.0149649
-0.811198
0.0670096
0.744189
0.191799
0.154162
-0.534264
0.410131
0.124133
0.917343
-0.741632
-0.175711
0.0837283
0.293861
-0.0137497
-0.0570932
-0.0561992
-0.014705
0.812102
-2.04135
-0.835501
0.0990186
-0.739766
0.796571
-0.056805
0.12258
-0.899874
0.777294
-0.802664
0.905223
-0.10256
-0.0474675
0.0448698
0.0206672
-0.284356
0.305498
1.28471
-0.0962229
-0.790285
0.916902
-0.0923204
-0.824581
0.0990054
-0.097273
-0.104249
0.82112
-1.77114
0.464168
-0.376418
0.103603
-0.893888
1.49059
0.3434
-0.790615
0.00581845
1.01789
-0.895306
1.21653
-0.0891674
0.704624
-0.615457
-0.877923
-0.1184
-0.407531
0.0285676
-0.105216
0.267489
-0.784791
0.784791
-0.602015
-0.0868971
-0.864265
0.122633
-0.939422
0.841051
0.071797
-0.199076
-0.0583791
0.0618137
0.0110356
0.18938
0.828506
0.818326
0.771254
0.14007
-0.911324
0.633079
-0.454554
-0.781426
-0.108178
0.889604
0.175208
-0.892589
-0.674885
0.888002
-0.784399
-0.108647
0.46033
-0.0283301
-0.432
0.159138
1.09803
-1.25717
0.344388
-0.428665
0.0842773
-0.890073
-0.831024
0.0912576
0.51409
0.265344
-1.82549
1.35822
-0.56907
0.56907
-0.848953
-0.567994
-0.770583
1.07228
-0.349199
0.259828
0.779824
-0.206825
0.909594
0.33783
-0.213514
-0.300944
0.514458
-0.0320754
-1.64844
-0.0425444
0.543912
-1.05682
0.839495
-0.0218469
0.304152
-0.220424
0.78012
-0.882679
-0.629514
0.17496
-0.153619
0.737904
0.575146
-0.575146
-0.0563391
0.0441263
0.108535
-0.0736969
1.08934
0.00868853
0.0422611
0.00168269
0.00638801
-0.0080707
-0.665805
0.695133
-0.0293281
0.778943
-0.0743184
0.109953
-0.894352
-0.999363
1.25646
-0.2571
0.146441
0.876056
0.200085
0.578858
-0.754283
0.600042
-0.660631
-0.653454
0.148093
-0.287833
0.0276764
0.169809
0.126041
-0.413874
0.00607593
-0.0191087
0.0726411
0.72393
0.695633
-0.0955916
0.0776496
0.782724
0.205626
0.0396362
-0.245262
-0.282247
0.535245
0.620144
-0.963441
0.739248
0.224193
-0.685813
-0.127197
1.67213
0.058079
-0.419011
-0.0407488
0.486148
0.513852
-0.769923
-0.112756
-0.50307
-0.853195
-0.316095
-1.14541
0.400542
0.599458
-0.0923153
0.0864953
-0.862243
-0.0721409
-0.588491
-0.156543
-0.25114
0.407683
-0.0135708
-0.00109845
0.110939
0.0714602
-0.128818
-0.110605
0.757656
-0.641094
0.718744
0.116421
0.00962044
-0.322047
0.399371
-0.0773247
-0.746685
-0.195186
0.941872
-0.245269
0.233871
-0.0248599
0.00217216
0.0316577
0.00596998
0.698675
-0.129606
0.127094
0.109997
-0.736644
0.0708394
0.587637
-0.432983
-0.626595
0.291167
0.0154601
-0.289602
1.02636
-0.00789114
0.142829
0.08038
-0.00794324
0.00334464
-0.0625062
-0.119399
0.707037
-0.726362
-0.149255
0.875617
0.848914
-0.030803
-0.000839699
0.0316427
0.126835
-0.00789646
0.000139952
0.220322
-0.107918
-0.745132
0.395933
0.311181
-1.03754
0.00863936
0.291391
0.250116
-0.968341
1.17338
-0.205037
-0.777194
0.836837
-0.0596426
1.15068
0.0297696
-0.402567
-0.0667565
0.969944
-0.453685
-0.080579
0.27968
0.45992
0.194319
-0.654239
0.413582
0.044327
0.650806
-0.574157
0.558701
0.0154564
1.49964
-1.32995
0.00186644
-0.00208084
0.000214394
0.695295
-0.00914264
-0.0833179
0.019768
1.06457
0.627331
0.523345
0.0154841
-0.129657
-0.00912279
-0.0208865
0.0736865
-0.0528
0.0186621
-0.0118272
0.900908
-0.690312
0.0997684
0.224729
-0.0261107
-0.0943541
0.221183
0.098757
0.00401681
0.0644763
0.767936
-0.136103
-0.321009
0.457112
0.277186
-0.498383
0.221197
0.64165
0.123052
-0.00835494
0.0224706
-0.0141157
-0.448944
0.194716
-0.495659
-0.000642779
0.742853
0.712134
0.0112137
0.631504
-0.774287
0.816858
0.114009
0.0271467
-0.872723
0.0689208
-0.273131
0.00490922
-0.173571
0.690033
0.077903
0.0133032
0.204574
-0.174805
-0.329599
0.162716
0.0300242
-0.113004
0.422342
-0.0572132
0.910389
-0.0730306
0.157106
0.469936
-0.19275
-0.154844
-0.0251782
-0.0532596
-0.110105
0.00909423
0.00012724
-0.00922147
-1.6104
0.280448
-0.0127137
0.859183
-0.229017
-0.616796
0.635892
-0.019096
0.302898
0.760873
0.310599
-0.387923
0.0793097
-0.173442
0.629476
0.131396
0.967075
0.954457
-0.260019
0.724187
0.711484
-0.00444724
-0.606136
0.349736
0.256401
-0.726944
-0.0713057
0.0418869
0.0625744
-0.0467599
1.10852
0.735052
0.0818064
0.617439
0.222043
-0.868719
-0.081085
-0.672837
0.678656
-0.0232115
-0.59066
0.434117
0.873775
0.673803
0.0894127
-0.0351999
-0.165766
-0.31541
1.15805
0.586085
0.377234
-0.00994085
0.183587
-0.188034
1.08675
-0.012153
-0.0769921
-0.204336
-0.742804
0.930679
-0.187875
-0.412401
-0.193736
0.00142499
-0.180453
-0.14018
0.764261
-0.00163127
0.000703277
0.628341
0.0052963
0.285871
0.601662
-0.132578
0.241948
0.72246
0.260237
-0.982697
0.277317
-0.92294
0.212791
-1.47834
-0.181548
0.771363
-0.589815
-0.665442
-0.0422333
0.0444055
-0.0549453
-1.6879
0.0245276
-0.0448412
0.249818
-0.0690118
-0.0960932
0.165105
-0.0120325
-0.577197
0.143203
-0.000373616
-1.28925
-0.0128431
0.0041315
0.900579
-0.0537026
-0.588468
0.0143108
0.566427
0.307348
1.09144
0.898284
-0.249604
-0.383753
0.633357
0.260693
-0.618288
0.618288
-0.195601
-0.918072
1.11367
0.0301101
-0.149539
0.685886
-0.119459
-0.22276
-0.529801
0.110789
-0.100079
0.524386
0.15494
0.172916
-0.105727
-1.40542
0.484657
0.0740432
0.0545791
0.0155461
-1.58031
-0.255362
-0.129798
0.693289
0.306711
-0.255362
0.693289
-0.751751
-0.136952
-0.751751
-0.696332
0.696332
0.303668
-0.0144043
0.173165
-0.0760188
0.228003
0.0391701
-0.471871
0.641536
-0.0398736
0.662005
-0.504338
-0.157666
-0.0594759
0.0593828
9.30774e-05
-0.0157157
0.0173983
0.579569
0.0189885
-0.0201837
-0.435861
-0.349042
0.12405
0.0459066
0.834848
-0.280874
-0.0383544
0.300536
-0.00923776
-0.0830173
-0.0106179
0.678734
0.0641192
0.666848
0.0026162
-0.000226161
-0.0060317
0.0855302
0.56693
-0.476145
-0.0907848
2.07401
0.545944
0.106802
0.885417
0.0112208
-0.0621369
0.105346
-0.0718219
0.107982
1.10173
-0.379272
0.00424296
-0.0458291
0.677661
0.111711
0.0225418
-0.0225418
0.0198284
-0.0198284
0.0048933
-0.0048933
0.00838885
0.365794
0.457628
-0.059367
-0.727355
0.490073
0.191071
0.0292513
-0.0826618
-0.485259
0.742794
0.111249
-0.797062
-0.655559
0.475431
0.0959496
0.019567
-0.000172181
-0.00513733
0.00513733
0.1748
-0.00509998
0.00509998
0.701309
0.0895981
0.00218368
0.000432525
0.00672363
-0.0690076
-0.0227384
0.0227384
0.00135463
-0.00135463
-0.0220612
0.0220612
-0.00391353
0.00391353
0.0942669
-0.294661
-0.0834678
0.221155
-0.00383981
0.00383981
-0.373194
0.515637
-0.142442
0.507252
-0.224265
-0.347927
0.309572
0.561401
-0.164523
0.0720336
0.563858
0.566796
-0.00248421
0.00248421
0.264281
0.0244892
-0.0244892
-0.00370691
0.00370691
0.750768
-0.447255
0.0356337
0.0990697
-0.189458
0.00188498
-0.00188498
-0.0020075
0.0020075
0.0181978
-0.0181978
0.0235718
-0.0235718
-0.0232509
0.0232509
0.0347835
-0.0347835
0.480822
-0.031501
0.031501
-0.00202493
0.00202493
0.02387
-0.02387
0.000653732
-0.000653732
0.00260846
-0.00260846
0.0314532
-0.0251351
0.0251351
0.361529
0.00828844
-0.039093
0.039093
-0.000590149
0.000590149
-0.00825029
0.00825029
0.033189
-0.033189
0.0259505
-0.0259505
0.00175774
-0.00175774
0.000676177
-0.000676177
-0.233581
-0.265519
0.00104128
-0.00104128
-0.0019604
0.0019604
-0.0377997
0.0377997
-0.0282282
0.0282282
-0.000527589
0.000527589
-0.400812
0.658347
0.261674
-0.0317799
0.0317799
-0.0154949
0.00290594
-0.00290594
-0.00194443
0.00194443
0.0377008
-0.0377008
-0.153673
0.180819
-0.000667319
0.000667319
-0.0234021
0.0234021
-0.503522
0.0451849
-0.0573668
-0.0316731
0.0316731
-0.448932
0.0346356
0.0193741
-0.0948038
-0.875511
-0.0364206
0.0364206
-0.19656
0.139346
-0.0413249
-0.00197986
0.00197986
0.00578865
0.0452145
0.262071
-0.324607
-0.285649
0.610255
0.200227
0.000653712
-0.000653712
-0.132852
0.352531
-0.219679
0.778105
-0.402563
-0.375542
-0.454759
-0.660998
0.332912
-0.0323755
0.0804384
-0.362685
-0.573075
-0.0114693
0.190774
-0.687105
0.0150401
-0.0150401
-0.00157441
0.00157441
0.030584
-0.030584
0.0264585
-0.0264585
-0.000697308
0.000697308
-0.00137687
0.00137687
-0.151583
-0.00297326
0.179652
-0.305168
0.000164796
-0.000164796
-0.045447
0.045447
-0.0400043
0.0400043
0.14164
-0.0869579
-0.0546823
-0.00443763
0.320987
-0.550003
0.000288397
-0.000288397
0.014334
-0.014334
-0.0895951
0.144045
0.188866
-0.00182004
0.00182004
0.0718656
0.0177955
1.00194
-0.484196
-0.0755149
0.559711
-0.633812
0.0851709
-0.190387
-0.0390048
0.0390048
-0.682845
0.280986
0.0493033
-0.0493033
-0.64191
0.3741
0.267841
0.123123
-0.00159835
0.00159835
-0.818628
-0.00178183
0.00178183
0.310094
0.410342
0.0164278
-0.0533359
0.0533359
-0.00211904
0.00211904
-0.0420431
0.0420431
-0.054357
0.054357
-0.00242543
0.00242543
-0.0600651
0.0600651
-0.00291326
0.00291326
-0.045358
0.045358
-0.00469405
-0.0456609
0.0456609
0.00385417
-0.00385417
0.0478943
-0.0478943
-0.00338942
0.00338942
0.0481148
-0.0481148
0.0157829
-0.00450568
0.00450568
-0.00544025
0.00544025
-0.05331
0.0837893
-0.0110826
0.0110826
0.0047742
-0.0047742
-0.0592148
0.0592148
0.297245
-0.0183589
0.0183589
-0.0576787
0.0576787
-0.00728142
0.00728142
-0.067196
0.067196
-0.0132887
0.0132887
-0.0806112
0.0806112
-0.0215752
0.0215752
-0.0949502
0.0949502
-0.687408
0.236374
-0.525287
0.506191
-0.833887
-0.135555
-0.571778
0.398207
-0.09575
-0.0118678
0.0035138
-0.0035138
0.0464184
-0.727169
0.0418441
-0.026298
-1.07551
1.5794
0.87514
0.256112
-0.0232461
0.01365
-0.399581
-0.573791
0.0233028
0.389588
-1.09988
-0.0182409
0.0182409
-0.765977
0.0210823
-0.0210823
0.000690303
-0.000690303
0.323376
-0.380838
-0.00244291
0.00244291
0.0192269
0.0147266
0.596871
0.322511
-0.0165554
-0.0128572
-0.00316993
-0.0919725
0.487721
-0.395749
0.0349267
-0.077471
0.0132137
0.916278
0.00437011
0.0577707
-0.406789
0.435357
-0.482304
-1.01896
-0.222986
-0.0696578
0.0177644
-0.156501
-0.272164
0.0322717
-0.00320077
0.00242671
0.776253
-0.558779
-0.0348938
0.064918
-0.0349483
0.0616867
0.111478
0.427751
0.234089
-0.167152
0.214076
0.0308118
-0.0110226
-1.27803
0.00010284
0.110042
-0.206135
-0.0192189
-1.43484
-0.0711329
0.261994
-0.349828
0.386634
0.183607
-0.811335
0.0454287
-0.0744258
-0.0228472
-0.344025
0.468158
-0.0149422
-0.0697238
0.0846659
-0.0269253
0.0269253
0.160281
-0.43273
0.0328945
0.0481433
-0.0769893
0.0537778
-0.0663032
-0.0069181
0.0732213
-0.0387313
-0.152608
0.0119832
-0.087436
-0.29107
-0.362964
0.654034
0.0139052
0.057645
0.152751
-0.0256564
-0.00538252
0.0633597
-0.153359
0.305798
0.00309751
0.0285452
-0.0299837
0.182734
0.0041376
0.256284
-0.000670531
0.000670531
-0.137532
1.22428
0.0863275
-0.167412
-0.00246659
-0.0573022
-0.291842
0.870699
-0.0392307
0.00896614
-0.532137
0.00684975
-0.0010024
0.0855286
-0.671345
0.296154
-0.0567209
0.387251
-0.678321
0.220538
0.51871
-0.090544
0.090544
-0.000612598
-0.25207
0.358475
-0.106405
-0.208297
0.153351
0.252157
-0.19603
-0.491269
-0.100758
0.00119535
-0.00171392
0.929993
0.20667
-0.117257
-0.0689502
-0.562059
-0.716606
-0.0538797
-0.268493
0.810292
0.585724
-0.264738
-0.275486
0.566877
-0.0638052
0.316469
-0.268809
0.0645819
-0.468979
0.326536
0.124201
-0.124201
0.089368
-0.026207
-0.063161
0.00325152
0.00491255
0.0209892
-0.354625
-0.0943193
0.233141
-0.187173
-0.0459685
0.549962
-1.04828
0.249901
-0.690065
0.696936
-0.124818
-0.180349
-0.0439118
-0.0791155
-0.48022
0.0443587
-0.282768
0.00118645
-0.0192189
0.375949
-0.00530676
-0.00335699
7.37225e-05
0.0172209
-0.00787813
-0.00934282
-0.107121
-0.0189568
-0.166172
0.185128
-0.132012
-0.336967
0.0192269
0.345994
-0.00198735
-0.368263
0.0808622
0.00242795
0.00476084
-0.0641279
-0.0117197
0.0117197
-0.000860277
-0.000652874
-0.00947263
0.000132901
-0.0721904
0.000833331
-0.00118965
0.173646
-0.101778
-0.00193267
0.00193267
0.0585502
0.518472
-0.000313353
-0.293239
0.546805
1.12732
-0.476037
0.341446
-0.437945
-0.078147
0.111041
0.236372
-0.234924
-0.0248967
0.0072404
-0.00127043
0.00261369
-0.181493
-0.383789
0.873863
0.252111
-0.403694
0.156461
-0.00159445
0.118617
0.027824
-0.000898439
0.000543957
0.00669645
-0.518165
0.00129328
-0.000169659
0.710008
-0.646648
-0.244213
0.120114
0.998501
1.59697e-05
8.85938e-06
-0.0413249
-0.00572255
0.81752
-0.431502
0.505545
-0.982993
0.90617
-1.28236
0.586504
-0.188297
0.691954
-1.84139e-08
0.00321628
0.0163507
-0.109354
0.139705
-0.196657
0.0095445
-0.0013037
0.0630841
-0.0478693
-0.0152147
1.36058e-05
0.0483361
-0.0463157
-0.00202045
-0.0959217
0.00657438
-0.000186365
0.0019215
0.47234
-0.424652
-0.00608372
-0.000239189
0.500416
-0.14194
0.392551
-0.00583653
0.000405451
0.129809
-0.0300404
-0.0390526
-0.122396
-0.0189165
-0.00358368
0.115456
-0.000388338
-0.00145957
0.419352
1.4123e-05
-0.00121378
0.00121378
-0.0070868
-0.00577037
-0.000532511
-0.322407
-0.00367445
0.0714799
-0.107299
0.520686
0.316883
-0.0655442
-0.000453195
0.000934569
0.472541
-0.000901043
-0.000160079
0.00158507
-0.00203882
-0.000142946
0.0555607
-0.0132996
-0.710222
0.485227
-0.869017
-0.128118
-0.000299005
-0.296969
-0.0381198
0.0162729
0.605369
-0.0153523
0.0848345
-0.00403257
-0.00140898
-0.551448
-0.00331497
-0.000487831
-0.0199946
0.948013
-0.534431
-0.00253627
-0.000476166
-0.00587897
-0.00111626
0.073721
-0.0224813
0.0224813
0.00333664
-0.00398951
-0.00250722
-0.00798119
-0.0134607
0.0101037
-0.160869
0.0895629
-0.00600726
-0.0134152
0.0438754
-0.01588
0.0607676