/*--------------------------------*- C++ -*----------------------------------*\
| =========                 |                                                 |
| \\      /  F ield         | OpenFOAM: The Open Source CFD Toolbox           |
|  \\    /   O peration     | Version:  2306                                  |
|   \\  /    A nd           | Website:  www.openfoam.com                      |
|    \\/     M anipulation  |                                                 |
\*---------------------------------------------------------------------------*/
FoamFile
{
    version     2.0;
    format      ascii;
    arch        "LSB;label=32;scalar=64";
    class       volVectorField;
    location    "35";
    object      U;
}
// * * * * * * * * * * * * * * * * * * * * * * * * * * * * * * * * * * * * * //

dimensions      [0 1 -1 0 0 0 0];

internalField   nonuniform List<vector> 
2186
(
(1.33738 -0.0747481 2.22907e-19)
(1.64773 -0.967692 -6.25655e-20)
(1.49165 -0.942596 3.86363e-21)
(0.76678 -0.609717 -1.45136e-19)
(-0.0296437 -0.0454146 -1.57665e-19)
(1.77207 -0.579925 0)
(0.745419 -0.688802 0)
(-0.151128 -0.197312 1.07475e-19)
(1.45409 -0.238778 1.54047e-19)
(0.573999 -0.345978 -2.3042e-21)
(0.660833 0.593973 0)
(0.807371 -0.28658 -1.19831e-19)
(-0.185662 -0.252786 -4.38638e-20)
(1.21299 0.0209737 -3.68493e-19)
(1.83565 -0.712906 -7.05353e-20)
(1.01318 -0.00646697 1.73313e-19)
(0.977707 0.012535 0)
(-0.360682 -0.0937922 0)
(1.25217 -0.369731 0)
(-0.147955 0.181513 -6.56279e-20)
(0.482195 0.049444 -1.13357e-19)
(-0.0894332 0.196195 9.11593e-20)
(1.1981 0.0248437 3.04119e-19)
(-0.212648 -0.0447754 6.37032e-21)
(1.03445 0.00290892 -2.39444e-19)
(0.818403 -0.585427 0)
(0.76542 -0.0561499 1.4342e-19)
(0.632127 -0.611255 -1.68476e-19)
(1.19071 0.693813 0)
(0.964597 0.0225773 -3.2658e-19)
(-0.0900342 0.0985356 0)
(1.02712 -0.0151901 1.13151e-20)
(-0.225739 0.0372336 0)
(2.54087 0.0821941 2.35848e-19)
(-0.136589 -0.182661 2.22291e-21)
(1.51876 0.751804 7.33655e-20)
(1.96034 0.171011 1.31326e-19)
(0.504787 0.0985528 -3.38033e-19)
(1.86832 0.121624 -2.39212e-19)
(1.48838 -0.325076 1.18927e-20)
(-0.232035 -0.32985 0)
(-0.0212237 0.151591 0)
(1.91936 -0.911963 8.01571e-20)
(-0.332769 0.103304 0)
(1.09657 0.267269 1.51795e-19)
(0.615819 -0.326654 2.78011e-19)
(0.948149 -0.808844 0)
(1.22103 -0.814893 1.11084e-19)
(1.95022 0.142356 0)
(-0.133841 0.0882229 1.46578e-19)
(-0.0874078 0.118441 9.69486e-20)
(0.617096 0.568544 7.95621e-20)
(2.12148 -0.795011 8.99619e-20)
(0.582481 0.238082 -2.72227e-19)
(-0.275262 -0.21197 3.63772e-20)
(0.790429 -0.675862 0)
(1.69756 -0.997352 1.87081e-20)
(0.601625 -0.561377 0)
(2.15511 0.142851 6.49544e-20)
(1.16092 -0.177497 -3.60673e-19)
(2.01459 -0.00515912 9.10553e-20)
(1.32464 0.292243 -1.76562e-19)
(1.32312 0.522173 0)
(1.58846 -0.449367 -1.30267e-20)
(1.34311 0.380362 -1.08028e-19)
(1.28355 -0.757957 -1.55778e-19)
(1.14937 0.643629 5.21967e-20)
(0.676478 0.0414624 -5.49619e-19)
(0.818909 0.0322575 0)
(2.18116 -0.231896 -5.58988e-20)
(-0.177794 -0.239528 -1.23327e-19)
(2.48429 0.114483 -8.76544e-20)
(0.729336 -0.069039 -2.41936e-19)
(0.902396 -0.543862 0)
(0.818378 0.155739 -8.94384e-20)
(0.570648 -0.532946 -2.92961e-19)
(1.94255 0.0806282 0)
(1.00738 0.00862668 3.57404e-19)
(-0.138785 -0.216902 0)
(2.0119 0.258974 0)
(0.280131 -0.15367 5.38951e-20)
(1.28318 -0.486372 -1.60019e-20)
(1.02369 0.00337659 3.97471e-20)
(1.29633 0.394493 2.71909e-20)
(0.972824 0.0214536 4.16862e-19)
(1.04224 0.0244301 -9.88524e-21)
(0.660904 0.144127 -3.28141e-19)
(1.39576 -0.814418 1.36563e-21)
(1.76719 -0.195928 0)
(-0.0686929 -0.0571701 8.8116e-20)
(0.890079 -0.649567 -1.62672e-19)
(-0.102292 0.0600808 1.06418e-21)
(1.12656 -0.0847292 2.46042e-19)
(0.832597 -0.208327 0)
(0.972925 0.0225308 3.97952e-20)
(1.34242 0.625714 0)
(1.66466 -0.98254 0)
(1.28193 0.216555 0)
(-0.0893445 0.0270809 0)
(0.820891 -0.693959 2.87727e-19)
(-0.21266 0.113024 -1.09684e-19)
(0.0263389 -0.0801371 8.4855e-20)
(1.53361 0.181328 0)
(1.16085 -0.110219 -2.24921e-19)
(1.12437 0.022789 1.76928e-19)
(-0.181345 0.188457 1.1887e-19)
(0.616325 0.478187 0)
(2.25859 -0.168067 -1.07081e-19)
(0.990824 -0.502537 8.08556e-20)
(-0.704768 0.686346 3.22867e-19)
(1.7409 0.247595 1.21374e-19)
(-0.0927536 0.0931206 -2.31628e-19)
(0.841167 -0.764868 0)
(0.546823 0.313601 1.65188e-19)
(1.71196 -0.242634 -4.50475e-19)
(-0.224816 -0.408988 -4.70516e-19)
(1.15173 -0.583723 5.45163e-20)
(1.47745 0.0794265 0)
(-0.0921189 -0.077623 -2.6361e-19)
(0.715427 -0.102886 7.64996e-20)
(1.54218 0.860518 0)
(-0.179799 0.0717172 -1.92986e-19)
(0.866313 0.742234 -2.68125e-19)
(-0.451038 -0.215822 2.54281e-19)
(1.02818 -0.026175 0)
(1.10231 -0.602567 -6.86631e-20)
(-0.0604762 0.023446 0)
(0.724313 -0.524565 -1.05193e-19)
(-0.401948 -0.155627 -1.3854e-19)
(0.814103 -0.742832 0)
(0.458551 -0.32017 4.03698e-19)
(0.56719 -0.486673 2.73457e-19)
(0.424401 -0.384273 0)
(1.01438 -0.808402 -1.26599e-19)
(0.13276 -0.0660051 0)
(-0.131102 0.105718 -1.14828e-19)
(0.839645 -0.724529 1.38077e-19)
(2.45474 -0.26507 2.43079e-19)
(2.00809 0.120718 0)
(-0.109199 -0.123106 0)
(0.671293 0.623262 -3.3358e-19)
(1.82748 -0.649672 9.76392e-22)
(-0.0801854 -0.0957331 0)
(1.01592 -0.834358 -1.37102e-20)
(1.16471 -0.106112 0)
(1.09646 -0.134564 3.90346e-19)
(2.14569 -0.201562 -9.7232e-20)
(-0.047107 -0.0515774 0)
(1.25549 -0.575043 -5.4828e-20)
(-0.30189 0.142504 -4.53893e-20)
(-0.0203892 0.0288079 0)
(1.12543 -0.841277 1.23038e-20)
(1.00714 0.00480076 -5.97017e-19)
(0.677239 -0.510381 -1.03208e-20)
(0.844188 -0.543717 0)
(1.23418 -0.755931 -9.34311e-20)
(0.644505 0.205602 2.55103e-19)
(1.17661 0.125303 0)
(1.45882 0.0601708 -2.4819e-19)
(1.23027 -0.883608 -2.02608e-19)
(-0.107446 -0.120883 -9.77055e-20)
(-0.0609014 -0.444883 -1.53889e-19)
(1.06403 0.00178651 2.23405e-19)
(0.945684 -0.489651 -1.01674e-19)
(1.31772 -0.524316 -1.2641e-21)
(0.357373 -0.0885845 -5.74499e-20)
(0.726277 -0.117488 1.06324e-19)
(-0.151153 -0.0880171 -2.39195e-19)
(2.00197 -0.1689 0)
(2.74792 -0.107735 1.16538e-19)
(1.42293 0.630122 1.33108e-19)
(0.837643 -0.642257 -2.09893e-19)
(0.995964 0.00807008 1.22331e-20)
(0.748711 -0.560347 2.89172e-19)
(1.28253 0.779397 1.22075e-19)
(1.72413 0.0304412 9.87174e-21)
(-0.05409 -0.121107 0)
(1.07927 0.0459262 -2.31262e-19)
(-0.161553 -0.590842 -2.12678e-19)
(1.05011 0.471114 7.78355e-20)
(0.0676133 -0.130754 1.44565e-19)
(1.16477 0.0259623 -4.24096e-20)
(-0.240309 0.0110839 -1.57204e-19)
(1.27352 0.563383 -7.48004e-20)
(1.11619 0.86657 0)
(-0.103147 -0.16102 -8.52902e-20)
(-0.0785041 -0.243581 0)
(0.634068 0.540225 -2.71526e-19)
(2.0004 0.0941795 -1.49352e-20)
(-0.23479 -0.334915 1.50977e-19)
(-0.284329 -0.315641 -5.2091e-19)
(0.723471 0.0439035 2.41417e-19)
(1.79333 0.100778 -2.07945e-20)
(1.0059 -0.368422 -2.97799e-20)
(-0.0548614 -0.0577587 0)
(-0.547109 0.522246 4.98717e-19)
(1.31142 0.952947 -1.65213e-20)
(0.837131 0.049637 -1.32258e-19)
(0.54161 0.506992 1.88867e-19)
(0.512741 0.197719 0)
(-0.114715 -0.394358 -1.88418e-19)
(-0.454051 1.16911 2.67146e-19)
(1.331 -0.984853 4.29858e-22)
(0.992522 -0.0472812 -1.8582e-19)
(-0.18428 -0.160974 6.85816e-21)
(0.0151003 -0.0177543 1.35089e-19)
(-0.254632 -0.19456 -1.70756e-19)
(1.45081 0.140674 0)
(1.12162 0.0384617 -3.10497e-19)
(2.30389 0.0873081 9.61884e-20)
(1.30846 -0.642836 1.00279e-19)
(1.60944 -0.144057 2.16218e-20)
(0.576974 0.294034 0)
(0.921777 0.729483 -1.58538e-20)
(0.668656 0.613668 1.79468e-19)
(0.926283 -0.590515 1.47103e-19)
(0.66375 0.473917 0)
(1.02352 -0.00311417 7.97728e-21)
(0.912144 -0.691224 2.09429e-19)
(0.819701 0.398726 -4.45293e-19)
(1.24212 -0.107821 0)
(-0.0635503 -0.11199 -3.49064e-19)
(-0.110577 0.0456846 -9.72109e-20)
(1.56578 0.697462 0)
(1.38729 -0.966997 -3.6793e-22)
(-0.311951 -0.0586988 0)
(-0.0255453 -0.00906513 9.99951e-20)
(0.715388 0.631268 -9.55328e-20)
(0.866351 -0.24337 0)
(-0.208737 -0.139203 0)
(1.62898 -0.48247 0)
(-1.05615 0.0956846 4.14416e-19)
(1.24823 -0.911451 1.32536e-19)
(1.20901 -0.628175 6.0879e-20)
(1.08266 -0.179837 -1.64655e-19)
(0.910047 -0.721616 -1.6536e-19)
(0.192282 -0.196848 0)
(-0.665165 -0.549599 0)
(1.03199 -0.536077 1.74078e-19)
(-0.111401 -0.131559 0)
(-0.140931 0.0488633 0)
(-0.208483 -0.423691 4.04365e-19)
(0.770721 0.648627 8.28767e-20)
(0.990642 0.77332 0)
(0.674708 0.527326 -8.28427e-20)
(0.835185 -0.0686418 -2.18205e-19)
(0.724189 0.537356 -2.21451e-19)
(0.575388 0.533399 -1.62672e-19)
(-0.179515 -0.244578 3.912e-22)
(0.743015 -0.667173 0)
(0.891415 0.152796 -3.13906e-19)
(-0.218419 -0.319514 5.47488e-20)
(0.589401 0.545349 3.66158e-19)
(0.934923 0.776579 0)
(-1.37389 0.316596 3.31295e-19)
(-0.157892 -0.218867 2.93008e-19)
(-0.102312 -0.0875321 -1.48491e-19)
(0.642653 0.545165 -1.44004e-20)
(0.969624 -0.0086184 5.7755e-20)
(-0.245812 -0.372018 0)
(2.39357 -0.0739664 -2.75301e-19)
(1.67788 0.112452 -2.56074e-19)
(0.674962 -0.625689 -7.41287e-20)
(-0.459227 -0.216853 7.80735e-21)
(1.17221 0.441536 1.74845e-19)
(0.867569 0.389298 0)
(1.07431 -0.184376 1.90327e-19)
(-0.0481562 -0.241392 -2.97961e-21)
(-0.144015 0.0192729 3.63852e-19)
(0.927235 0.0164484 -5.16233e-20)
(1.08648 0.14203 0)
(1.94517 -0.0714482 -2.39425e-19)
(1.74265 0.0329078 0)
(0.533228 0.21782 -4.47415e-19)
(0.0154939 -0.0196161 0)
(-0.163838 -0.213436 2.41679e-19)
(0.724371 0.108166 0)
(0.647846 -0.544475 -1.77548e-19)
(1.14746 0.0152695 2.04736e-19)
(-0.101106 -0.0327313 3.4077e-20)
(1.93195 -0.00445191 -1.69824e-21)
(2.13627 -0.259562 -1.1257e-19)
(1.09768 0.215522 -2.12234e-19)
(-0.227454 -0.351284 -1.06531e-19)
(1.10786 -0.878565 0)
(0.817739 0.0176419 -1.48963e-19)
(0.952294 -0.401072 -2.83736e-19)
(1.76384 -0.598893 -4.04781e-21)
(1.79877 0.0235738 2.01183e-19)
(1.071 -0.00960121 3.7198e-19)
(-0.0356229 -0.274353 -1.34883e-19)
(1.02233 -0.46162 -1.24392e-19)
(0.202956 -0.1955 2.50249e-19)
(1.00798 -0.00840943 0)
(1.00483 -0.00676154 0)
(0.642416 0.389453 8.1894e-20)
(-0.131533 0.140042 -8.29147e-20)
(0.170522 -0.120838 -1.28747e-19)
(1.77838 0.0730981 -3.72226e-21)
(0.689659 0.0817535 0)
(1.6388 0.0744515 -5.85185e-20)
(0.970847 -0.845852 -8.03068e-20)
(1.82817 -0.588316 -6.79515e-20)
(1.0827 0.815542 0)
(0.491478 -0.474552 0)
(0.583935 0.492368 -1.72667e-19)
(1.07861 0.263529 -3.90593e-19)
(2.32174 -0.26555 3.42777e-22)
(0.854295 0.137638 1.34845e-19)
(-0.0201417 -0.388584 -3.81278e-19)
(1.75173 -0.443292 -5.27651e-20)
(-0.151227 -0.453438 0)
(-0.1344 -0.148372 0)
(-0.274545 -0.447389 0)
(1.37567 -0.749034 -8.70523e-20)
(-0.0264315 0.0338497 -1.97644e-19)
(0.00457068 -0.0130638 0)
(1.27036 0.954619 -3.15466e-20)
(1.09959 0.136448 -4.0719e-19)
(1.96949 0.255781 -3.6749e-20)
(1.06066 0.903468 7.90921e-20)
(-0.0930886 0.104982 1.18747e-19)
(1.82165 -0.126745 0)
(-0.262956 -0.453003 -3.21456e-19)
(-0.0567431 0.0570278 2.25196e-19)
(0.775099 0.0059725 1.78507e-19)
(1.51538 0.921482 9.52425e-22)
(0.693588 -0.298096 3.82152e-20)
(-0.115639 0.0478394 2.79371e-22)
(0.769173 -0.702378 -3.64273e-20)
(1.09271 -0.0349341 0)
(1.62777 -0.0233437 0)
(1.08821 0.0441193 0)
(-0.199218 1.18845 -3.69597e-19)
(-0.267896 -0.457047 1.07079e-19)
(1.02384 0.82262 0)
(1.0026 -0.0130629 4.9923e-19)
(0.745709 0.579712 -2.21905e-19)
(-1.13613 0.762931 -3.31186e-19)
(0.860028 -0.00359246 -4.0084e-20)
(0.738768 -0.674711 -2.14473e-19)
(1.36265 0.685529 -3.02995e-20)
(0.589091 -0.483942 -2.83695e-19)
(1.12573 -0.00245514 -4.48269e-19)
(0.823364 0.0421638 4.41278e-20)
(1.57286 -0.189175 6.89519e-20)
(2.06646 -0.0711755 -8.89974e-20)
(-0.0541313 -0.0571455 2.5767e-22)
(1.05907 0.449105 -2.59028e-19)
(1.34481 0.603867 7.60842e-20)
(-0.164029 -0.163741 0)
(0.00036706 -0.435713 1.4167e-19)
(-0.105177 -0.205924 1.47857e-19)
(-0.173105 -0.135413 -1.22142e-19)
(0.456075 0.276144 0)
(1.12444 0.325978 0)
(-0.0489347 0.0405435 -1.32345e-19)
(-0.2061 -0.334286 -5.6284e-20)
(1.04413 -0.0316566 1.77628e-19)
(-0.0086951 -0.135994 -4.06175e-20)
(0.926899 0.0758181 -1.81756e-19)
(-0.209458 0.0978618 0)
(0.859975 -0.762866 -2.95396e-19)
(2.00297 -0.0974807 1.63477e-19)
(-0.150978 -0.440107 1.38344e-19)
(0.711976 0.130708 3.19681e-19)
(0.616725 0.101479 1.03518e-19)
(0.520826 -0.494596 1.97218e-19)
(-0.0938379 -0.122334 -1.31081e-19)
(0.920284 -0.228368 0)
(0.372622 0.309679 -1.90122e-19)
(1.02696 -0.0176071 -2.82852e-19)
(-0.290716 -0.302568 2.05773e-19)
(1.39496 0.454928 -1.13875e-19)
(-0.127401 -0.158293 -4.88266e-20)
(0.706938 -0.645618 -5.21662e-20)
(0.805183 0.161466 -2.00501e-19)
(0.957583 0.40464 2.21468e-20)
(1.16722 -0.149135 3.4203e-20)
(0.622571 -0.264364 -2.91749e-19)
(2.05955 -0.374681 -1.32585e-19)
(1.95739 0.112226 0)
(1.63986 0.446124 -1.69627e-20)
(1.84938 0.143261 -1.46266e-20)
(0.679983 -0.190102 9.91161e-20)
(1.03831 0.351214 -1.90864e-19)
(1.75244 -0.52887 3.59936e-20)
(0.400955 0.364382 -2.46263e-19)
(-0.268123 -0.0261445 1.51079e-19)
(1.98363 -0.212915 0)
(0.932223 0.003789 0)
(0.899677 -0.796156 5.75863e-20)
(-0.158533 -0.237798 -3.21063e-19)
(-0.628656 -0.541268 -1.5765e-19)
(-0.0689688 -0.0763157 -2.08845e-19)
(-0.222692 0.0114198 -1.17044e-19)
(-0.184548 -0.461554 0)
(-0.123088 -0.13536 3.68061e-20)
(-0.212488 0.141196 -9.09352e-20)
(0.0151452 -0.0196083 -3.06896e-19)
(0.813136 -0.137839 0)
(1.89358 0.0431219 1.20352e-19)
(-0.0862533 -0.128878 0)
(0.994021 0.0238566 3.59715e-19)
(-0.0282378 -0.443613 1.99464e-20)
(0.564332 -0.45571 3.80246e-19)
(-0.334882 -0.595515 3.51621e-19)
(-1.02429 0.202601 0)
(-0.105598 0.134673 9.26474e-20)
(1.00503 0.0204205 -1.08262e-20)
(-0.0967905 -0.141793 0)
(1.00506 -0.0092069 -5.59232e-20)
(0.889487 -0.752218 -2.81343e-19)
(0.558769 0.354994 0)
(0.95321 -0.292382 2.03079e-19)
(-0.169126 0.132894 1.60859e-19)
(-0.0453782 -0.0425727 0)
(-0.116943 -0.42311 -5.30424e-21)
(0.75242 -0.65895 -4.13433e-19)
(0.973022 -0.0317917 -2.61699e-19)
(-0.150057 -0.248049 3.84469e-19)
(-0.163238 -0.211562 1.4761e-19)
(-0.172768 -0.464118 0)
(0.938452 0.453221 0)
(-0.118221 -0.463729 1.68705e-19)
(1.74632 -0.149987 -2.07924e-19)
(1.05401 0.876131 1.78803e-20)
(1.05846 0.199723 -1.19875e-19)
(1.15608 0.00606891 -2.18468e-19)
(1.06615 -0.0751056 -7.84471e-20)
(-0.141435 -0.285982 -3.52176e-19)
(1.64422 0.0508661 2.40223e-19)
(0.655593 0.0338928 2.00798e-19)
(1.95204 -0.108066 1.33774e-19)
(1.06312 -0.160929 0)
(0.406442 0.226018 6.33061e-19)
(1.14467 0.0246209 -4.87421e-19)
(1.72315 0.592249 6.87668e-21)
(0.765734 -0.48302 -1.56733e-19)
(-0.0879726 -0.074863 1.97074e-19)
(0.82345 -0.723631 3.69307e-19)
(1.21851 0.191253 7.16581e-20)
(1.00672 -0.00795159 2.47698e-19)
(-0.0164035 -0.36919 -1.47521e-19)
(1.01937 0.0107528 0)
(1.70501 0.175114 -1.99867e-19)
(-0.065671 -0.0569821 0)
(1.01336 0.0114878 -1.46357e-19)
(-1.27082 0.462986 -5.07071e-19)
(1.70093 0.273662 3.41182e-20)
(-0.183591 -0.420785 1.79274e-19)
(1.55104 0.0242053 6.23873e-22)
(1.0136 -0.0201718 5.12721e-20)
(1.33648 -0.0851654 0)
(1.48139 -0.629914 -1.38482e-19)
(1.01787 0.0251789 -1.51363e-19)
(1.41938 0.767809 -5.24341e-20)
(1.36627 -0.0504396 0)
(2.08334 0.233066 -1.18567e-20)
(-0.0617488 0.0468851 0)
(1.40807 0.0394437 0)
(-0.26826 -0.433665 0)
(1.22087 0.433407 0)
(1.85614 0.19719 4.25123e-20)
(0.719647 0.593097 3.88912e-19)
(0.301093 -0.302929 -2.33422e-19)
(-0.197384 -0.299769 -3.47024e-19)
(-0.0636056 -0.0639977 0)
(2.66062 0.0143398 1.0049e-19)
(1.38599 0.508725 0)
(1.43772 0.279132 0)
(-0.261392 -0.477846 1.39571e-19)
(0.79018 0.696258 1.24477e-19)
(1.73896 -0.0325677 0)
(-0.161556 -0.206334 8.43087e-20)
(0.897394 0.199191 1.8423e-19)
(2.03075 -0.0199621 -1.02281e-19)
(1.22041 0.906529 4.30981e-20)
(0.947535 -0.852901 -3.45307e-20)
(1.96374 0.0409984 -8.16921e-20)
(0.777289 0.701161 1.27696e-19)
(1.15936 0.906539 0)
(1.98792 0.114022 9.72913e-20)
(1.17421 0.714756 0)
(1.91186 -0.159541 1.64019e-19)
(1.17675 0.0814557 2.1521e-19)
(1.00504 -0.00618354 0)
(0.70044 0.833222 6.37362e-19)
(0.902106 -0.19402 4.67997e-20)
(0.654043 -0.439374 0)
(0.691001 -0.411608 2.05984e-19)
(1.21782 0.539914 -3.23644e-20)
(0.461567 0.433755 2.7018e-19)
(0.0170202 -0.0248259 3.6352e-20)
(0.159479 -0.16745 9.72073e-20)
(0.774799 0.0673004 0)
(1.35702 -0.927242 -7.50807e-20)
(1.02957 -0.0446157 3.94227e-19)
(1.5583 0.327369 1.51131e-19)
(-0.189263 -0.25729 7.25759e-20)
(-0.32392 -0.746437 0)
(1.25019 -0.251311 -1.11866e-19)
(-0.0446738 -0.0429899 -1.69346e-19)
(0.595975 -0.353115 -6.36607e-20)
(-0.145545 0.0809942 -1.11034e-21)
(-0.20661 0.117133 3.04717e-19)
(1.40606 -0.677636 2.63964e-20)
(2.45427 -0.0690828 3.68618e-19)
(1.17048 0.440519 -2.8195e-19)
(0.839312 -0.0593562 0)
(1.7362 -0.0616882 1.30744e-19)
(1.9256 0.103199 1.02427e-19)
(0.940203 -0.790672 1.38044e-19)
(1.18616 -1.00118 -3.86329e-20)
(0.46656 0.431869 1.81046e-19)
(1.44084 0.184924 0)
(1.73662 0.543069 2.96571e-20)
(-0.0558088 -0.0582873 -3.45226e-19)
(0.865978 0.753592 0)
(1.11764 -0.40792 0)
(0.302609 -0.302709 -3.73423e-21)
(0.306435 0.272057 0)
(-0.263288 -0.748022 -3.32628e-19)
(-1.43464e-06 -0.0162065 -1.055e-19)
(1.76749 -0.449811 0)
(1.18442 0.0911556 1.8379e-19)
(-0.527988 -0.456291 1.3036e-19)
(0.552619 -0.525066 -4.51719e-19)
(1.98556 -0.102342 -4.63271e-20)
(0.63193 -0.574796 0)
(1.00468 0.122883 0)
(1.37984 -0.268354 0)
(1.10716 0.216003 -2.26622e-19)
(1.32446 0.0975598 3.20936e-19)
(-0.735145 -0.0974371 0)
(0.893557 -0.0690977 0)
(1.97334 -0.00719683 -3.0377e-21)
(-0.042331 -0.00100633 9.95479e-20)
(1.97906 0.068576 -1.24817e-19)
(1.08314 -0.529156 1.74904e-19)
(1.68745 0.0663236 -1.62584e-19)
(-0.552447 -0.386619 -1.03385e-19)
(1.75063 0.022531 -1.11016e-19)
(1.01927 -0.0300798 4.05953e-19)
(1.49627 0.577127 0)
(-0.0492347 0.0391523 2.85078e-20)
(1.03374 -0.854448 1.70489e-19)
(0.861428 -0.0375924 4.68536e-20)
(0.658774 -0.46194 0)
(1.95029 -0.55668 4.32392e-21)
(1.23457 -0.201392 1.473e-19)
(1.82204 -0.058401 0)
(0.626872 -0.582307 4.34471e-19)
(0.940602 0.000590323 -2.1653e-20)
(2.05816 0.0975611 2.02638e-19)
(-0.0208438 0.00422622 -2.02243e-19)
(1.31068 0.599695 1.43498e-19)
(1.13044 0.391179 3.55714e-21)
(0.890045 0.352039 2.18549e-19)
(1.99616 -0.0164829 -2.4598e-19)
(-0.138651 -0.314245 -1.22716e-21)
(0.597126 -0.234634 0)
(-0.146071 -0.111037 3.23351e-19)
(1.11891 -0.974561 0)
(1.09397 -0.676929 2.12162e-20)
(1.115 -0.129209 -5.92693e-19)
(0.139407 -0.0580519 7.96312e-20)
(-0.285996 -0.425118 -3.34134e-19)
(0.969706 0.4639 1.70069e-19)
(0.223954 1.28806 4.08435e-19)
(0.685607 -0.0390669 0)
(1.90049 0.0773448 0)
(1.40291 0.158509 2.22972e-20)
(0.787496 -0.014996 0)
(1.38696 -0.215836 -1.51571e-19)
(-0.545723 -0.632531 3.90428e-19)
(1.89581 0.474147 1.36575e-20)
(1.03608 -0.0350046 0)
(0.574198 -0.38291 1.01703e-19)
(1.00856 0.0267234 1.92978e-19)
(0.668298 1.00358 -2.93266e-19)
(-0.284371 -0.00226127 0)
(1.13925 -0.4982 4.78455e-19)
(2.03673 -0.0353546 -3.23015e-22)
(1.12663 -0.517805 -2.08264e-19)
(2.2071 0.195066 1.27195e-19)
(1.26748 0.771796 0)
(0.862326 0.0177642 0)
(-0.243204 -0.366526 -1.86505e-19)
(-0.049925 0.0299985 1.48951e-19)
(0.933544 0.348232 -2.01737e-19)
(0.115326 -0.326968 -1.2483e-19)
(0.629952 0.380614 2.36462e-19)
(1.70117 0.18414 0)
(0.555348 -0.516357 0)
(0.296549 -0.506108 -1.24302e-20)
(1.25978 -0.527376 -9.71975e-20)
(0.707759 -0.0445295 1.2606e-20)
(0.741443 -0.183045 1.15206e-19)
(-0.078477 -0.00342719 -2.64271e-19)
(0.884201 -0.0282216 8.93233e-20)
(0.646536 0.601804 0)
(1.25001 0.676395 0)
(1.5841 0.248326 0)
(-0.246904 -0.449533 -1.49831e-19)
(1.28054 0.551619 2.08008e-19)
(2.08327 0.0650509 4.51854e-20)
(0.913856 -0.0127184 0)
(2.77161 -0.302186 0)
(1.91761 -0.0370064 -1.84581e-19)
(0.80311 0.994508 3.39948e-19)
(1.00528 0.00351954 -1.92887e-19)
(1.47223 0.467681 0)
(-0.224924 0.0362643 0)
(1.22289 0.302482 2.79663e-19)
(1.00403 0.508609 -1.26182e-19)
(1.06759 0.0189273 0)
(1.63026 -0.0613546 0)
(2.00352 0.634546 -3.02691e-19)
(-0.104079 0.0725979 9.56591e-22)
(0.997203 0.0118517 0)
(0.689717 0.447228 -3.24977e-20)
(0.962066 -0.848297 0)
(1.00018 0.0150683 4.48426e-20)
(0.719038 -0.313999 -3.87222e-19)
(0.923623 -0.343738 2.98961e-19)
(0.560139 -0.626275 2.36135e-19)
(2.21235 -0.160183 2.96457e-19)
(1.34397 0.181666 8.05359e-20)
(0.795877 -0.0326804 0)
(1.02138 0.00700304 0)
(-0.202585 -0.540027 0)
(0.652597 0.62419 -1.83283e-19)
(-0.0535094 -0.0043095 1.77924e-19)
(1.15178 0.336282 -4.48385e-19)
(-0.155782 -0.131871 0)
(0.808121 0.620511 1.63393e-19)
(1.02883 -0.353518 0)
(1.00567 -0.00173816 1.12859e-19)
(0.911992 -0.0298627 7.89945e-20)
(1.01659 0.387355 2.49207e-19)
(1.20494 -0.0319125 0)
(2.06407 0.0696648 -4.66823e-20)
(0.833538 -0.134077 -3.54516e-19)
(-0.516528 -0.770532 -5.11069e-19)
(1.50187 0.477306 0)
(0.867231 0.220039 1.70452e-19)
(2.01571 -0.183836 0)
(0.756637 0.497714 3.52903e-19)
(-0.674768 -0.751719 1.9424e-19)
(-0.0169339 -0.0127102 0)
(0.577136 0.548017 -6.87816e-20)
(1.05586 -0.665022 -1.48856e-19)
(0.498439 -0.285852 -1.18202e-19)
(1.02165 -0.0209912 0)
(-0.356937 -0.145259 -1.18732e-19)
(0.661095 -0.591859 7.9086e-20)
(0.893608 0.268185 0)
(1.74062 0.139045 1.17405e-19)
(0.964086 0.818925 2.35259e-20)
(0.695049 -0.472554 3.51587e-19)
(0.134245 -0.0561377 -2.36282e-19)
(0.243116 -0.098136 -5.35823e-19)
(-0.129033 -0.148668 9.0271e-21)
(0.801208 0.33387 2.40079e-19)
(-0.0279459 0.029763 -4.77442e-21)
(1.4461 -0.670275 3.40724e-21)
(1.02446 0.0025465 -3.35375e-19)
(-0.257763 -0.455124 0)
(1.03012 0.0260423 -3.94466e-19)
(2.3382 0.19484 2.04502e-19)
(0.866017 0.668259 2.73724e-19)
(1.14418 -0.0775282 1.56698e-19)
(1.00737 -0.0381954 1.55188e-19)
(0.21403 0.119602 -7.71198e-20)
(-0.13819 -0.167536 -4.58106e-22)
(1.765 -0.898619 1.54984e-20)
(1.15155 -0.128324 -7.59843e-20)
(0.839117 0.0505451 8.72417e-20)
(0.928712 -0.313997 8.75518e-20)
(0.640782 -0.00892115 0)
(0.94042 0.713164 0)
(0.887292 -0.139814 -9.41173e-20)
(1.8934 0.159773 -1.50037e-20)
(-0.354146 -0.629285 1.45206e-19)
(1.05539 -0.5611 -5.03646e-19)
(0.64023 -0.558968 3.78788e-19)
(1.31389 0.0464662 -8.87076e-20)
(0.0768612 -0.284693 1.47833e-20)
(1.65743 -0.499273 0)
(0.749428 0.0883083 -6.56448e-21)
(1.81776 -0.293663 -3.37569e-19)
(1.01816 0.740509 0)
(1.19912 -0.230774 0)
(-0.328755 0.108899 0)
(-0.125246 -0.153085 -5.84128e-20)
(0.00296667 0.169538 0)
(1.71566 0.983548 3.62675e-19)
(1.20419 0.175911 6.19236e-21)
(-0.670631 0.123313 2.26348e-19)
(1.22566 -0.0142473 -9.91649e-21)
(1.80507 0.41055 -6.7207e-20)
(2.18605 -0.331262 -3.2026e-20)
(-0.181115 0.0506944 -2.14685e-19)
(-0.122229 -0.457965 3.95139e-21)
(0.984429 -0.012793 0)
(0.671377 -0.0341987 0)
(1.00053 6.19692e-05 1.98542e-22)
(-0.240152 -0.457622 0)
(1.50576 0.00498787 -8.64433e-20)
(0.674931 -0.0309492 0)
(1.06657 0.00596794 1.25584e-19)
(0.987468 0.0150086 -4.38758e-20)
(0.757999 0.0831762 5.77379e-20)
(1.05846 -0.0208338 -9.01853e-22)
(0.964111 -0.207893 -5.28712e-20)
(1.0289 -0.0381452 3.60658e-19)
(0.69518 -0.633779 1.78873e-19)
(-0.956095 0.374747 -2.70333e-19)
(1.57398 -0.256718 -2.11062e-20)
(-0.0543173 0.0216311 0)
(1.10453 0.774229 0)
(1.03185 -0.0132327 0)
(1.03159 -0.799381 -1.03092e-19)
(1.06623 -0.913847 4.16077e-20)
(1.50077 -0.187819 4.51582e-22)
(0.409349 -0.117034 -1.24417e-18)
(0.444816 -0.243784 -5.83643e-20)
(0.607453 -0.414664 -6.12416e-19)
(1.67782 -0.00694218 -3.09113e-20)
(-0.0404581 -0.449898 1.65684e-19)
(2.11326 -0.331239 9.49883e-20)
(0.988511 -0.0650364 -5.16665e-21)
(-0.160216 -0.207392 -1.24384e-19)
(1.09315 0.534501 1.9119e-19)
(-0.162633 -0.260019 0)
(0.148662 -0.42004 3.06041e-19)
(-0.13528 -0.147608 -1.10024e-22)
(1.0256 -0.045215 3.23225e-19)
(1.02519 -0.0038468 -8.3224e-21)
(1.10686 -0.0125193 -8.93796e-20)
(1.07496 0.411758 -2.05057e-19)
(1.59409 0.305329 5.77043e-20)
(0.416 -0.39168 -3.04516e-19)
(1.96478 -0.211929 2.04451e-20)
(1.0374 -0.00402148 -2.37791e-19)
(1.32784 -0.145838 2.17267e-20)
(1.36038 0.234671 0)
(1.0895 0.572981 -3.5835e-19)
(1.00242 -0.00465408 9.21192e-20)
(0.656568 0.58383 2.52183e-19)
(1.66328 -0.371606 1.26424e-20)
(1.06181 -0.0135047 -2.93346e-20)
(1.12264 0.0100153 8.33068e-22)
(2.0113 0.0459331 8.01062e-21)
(0.909725 -0.15261 0)
(1.04302 -0.0406584 0)
(1.04917 -0.034901 5.66555e-19)
(1.00266 -0.00281457 0)
(-0.0957763 -0.0984285 0)
(0.968337 -0.595829 0)
(1.00111 -0.000660586 -5.35706e-19)
(1.18726 -0.705769 8.25456e-20)
(1.02421 -0.00620524 1.12506e-20)
(1.32447 0.934378 -2.48438e-20)
(1.51021 0.981701 -9.66065e-21)
(0.493815 -0.162416 1.02937e-19)
(1.73715 0.214101 2.56075e-19)
(1.17788 0.312751 0)
(-0.181661 0.115849 0)
(2.18892 -0.13301 4.41804e-19)
(1.10915 0.134566 0)
(0.999933 -0.00486131 -1.65876e-19)
(1.01056 -0.000866318 3.2231e-19)
(1.42199 0.131441 -6.71971e-20)
(-0.00723142 -0.117864 2.50658e-19)
(0.972527 -0.00116423 1.75186e-19)
(1.37669 0.0157885 -7.81259e-21)
(1.21998 -0.174454 -4.75951e-21)
(1.0056 0.448622 -2.17452e-21)
(0.932625 0.017197 -1.76549e-19)
(1.00403 0.00386574 2.08242e-19)
(1.00006 -0.000283732 1.22962e-20)
(0.789486 -0.0130078 0)
(0.727218 -0.0267349 0)
(0.72248 -0.0271164 7.266e-22)
(0.697526 -0.0290289 0)
(1.87096 -0.0853957 0)
(1.39222 -0.21566 0)
(0.688927 -0.107514 6.46263e-21)
(0.821298 -0.179307 -1.0053e-21)
(1.46468 -0.171165 0)
(0.448175 0.395991 4.46848e-20)
(0.801566 0.717139 0)
(1.39371 0.256987 0)
(1.32825 0.00670907 0)
(1.19193 -0.168099 -4.03134e-21)
(0.69109 -0.00587066 2.61556e-20)
(0.779846 0.0221315 0)
(0.786402 0.0198444 0)
(0.969889 0.0197443 -2.17606e-19)
(0.813855 0.00830313 4.06097e-19)
(1.00859 -0.00131419 0)
(1.0003 -0.000523779 3.84682e-19)
(1.00018 -0.000699037 -3.31893e-22)
(0.786285 0.0215002 3.45458e-19)
(0.993518 -0.00716706 -2.01151e-19)
(1.34911 0.0996311 0)
(1.06214 -0.190186 4.76221e-21)
(1.00065 -0.00120156 -1.94424e-19)
(0.99956 0.0011026 -3.33666e-19)
(1.47066 0.709556 0)
(0.998854 0.00180332 0)
(0.999785 0.000269214 0)
(1.95632 -0.642519 7.51299e-20)
(-0.207745 -0.169815 -1.19249e-19)
(1.7634 -0.354598 0)
(0.0105852 -0.110943 1.87763e-19)
(0.222332 0.674397 -6.24278e-19)
(1.01936 -0.0190767 -2.59083e-19)
(-0.237862 -0.41345 -1.06539e-19)
(1.0187 -0.00153106 -2.08641e-19)
(1.19478 -0.222347 -1.01051e-19)
(0.822321 -0.497589 2.95141e-19)
(-0.0686895 -0.0702886 -8.42028e-20)
(1.03165 0.00931838 0)
(1.04617 -0.014783 -5.64271e-20)
(0.862174 0.0217244 0)
(-0.127916 0.0383169 2.64006e-19)
(1.24949 -0.121255 0)
(-0.271971 -0.467823 -2.77105e-19)
(1.20695 -0.0460056 1.16009e-20)
(1.63599 0.656415 -5.86614e-22)
(-0.0904546 0.0491117 0)
(1.05258 -0.0382211 1.75161e-19)
(0.214438 -0.069915 -1.35957e-20)
(0.926777 -0.0252296 2.74793e-19)
(1.01181 -0.00957499 -1.76454e-19)
(1.65999 0.833721 4.04912e-20)
(0.507212 0.473734 0)
(0.427091 0.372815 1.98701e-19)
(2.53955 -0.434761 -1.19424e-20)
(1.13688 0.119412 1.88265e-19)
(1.11652 -0.735975 0)
(1.02114 0.000575583 0)
(0.999743 -0.0188402 -4.06545e-19)
(1.01921 0.0142276 -3.96276e-19)
(-0.162952 -0.200383 0)
(1.20119 0.801193 -1.24622e-19)
(1.71255 -0.532542 -1.34619e-20)
(1.01604 0.00323834 1.52516e-19)
(1.01232 0.0125691 -1.91314e-19)
(-0.271851 -0.466491 -2.7621e-20)
(-0.189911 -0.375862 2.48694e-19)
(1.01778 -0.0175876 6.50525e-19)
(1.72724 -0.774606 0)
(1.84579 0.607202 -4.70379e-20)
(1.01549 -0.0139303 -2.02667e-19)
(2.07079 0.12485 -1.20177e-19)
(1.05976 0.00361695 -4.67072e-22)
(1.00936 -0.0103744 4.0542e-20)
(2.09972 -0.242993 -2.54555e-19)
(1.0164 0.00593801 1.96654e-19)
(-0.033016 -0.788827 -1.46488e-20)
(1.01888 -0.000473597 0)
(0.925646 0.132944 4.82079e-20)
(-0.519459 -0.250908 6.77973e-21)
(1.00142 0.0211382 1.9535e-19)
(1.04197 0.0200985 -5.95181e-22)
(1.41714 -0.648395 4.7314e-20)
(1.24089 0.307613 3.99219e-19)
(0.997866 0.0142411 1.3432e-19)
(1.01676 -0.0159477 4.79225e-22)
(1.70184 0.225307 -2.25684e-20)
(1.78442 0.925932 -1.0641e-19)
(0.797062 -0.71569 5.70995e-20)
(0.471419 -0.35974 -2.95997e-19)
(1.00763 -0.0117409 0)
(1.021 0.00147273 4.88527e-20)
(1.01082 -0.0103134 1.02978e-19)
(-0.391258 -0.568362 -2.27297e-21)
(1.01458 0.00353567 -2.04737e-19)
(1.032 -0.0289521 2.34516e-19)
(1.00814 -0.0085396 -1.9254e-19)
(1.01386 0.00379028 -4.86044e-22)
(1.01312 0.00148618 -3.62397e-22)
(1.02595 0.0122744 1.96014e-19)
(0.897819 0.068395 4.96035e-19)
(1.66831 0.623761 0)
(0.619211 -0.405471 2.54402e-19)
(1.01156 -0.00566155 0)
(1.02094 -0.0229422 -5.68043e-20)
(1.50789 0.417175 -8.02905e-20)
(1.85787 -0.00208364 0)
(2.00014 0.0817906 -1.04973e-19)
(1.42864 1.05781 -5.60041e-20)
(0.742224 -0.0182814 0)
(1.88623 -0.178567 0)
(0.152303 1.57474 -2.08742e-19)
(0.20972 -0.16551 3.68311e-20)
(1.01726 -0.00665908 -2.06302e-19)
(1.14558 -0.584997 -5.90314e-20)
(1.11822 -0.79956 8.34495e-20)
(0.263141 -0.278237 0)
(1.85479 -0.362287 0)
(1.88393 0.52487 0)
(-0.178997 -0.123761 8.46097e-20)
(-0.30131 -0.713272 -2.26541e-19)
(-0.0975288 1.73271 0)
(-0.194715 0.0530585 -1.7681e-19)
(1.68703 0.942789 -5.94937e-20)
(1.00798 -0.00429476 -4.03185e-19)
(-0.65107 -0.485585 -5.85345e-20)
(1.02213 0.00300001 2.66971e-19)
(0.676453 -0.0416233 0)
(-0.168642 -0.201721 -2.56541e-20)
(0.595556 0.405525 -3.33228e-19)
(1.19279 0.623207 3.87999e-20)
(-0.0441909 0.118466 0)
(0.817968 0.0715387 7.69228e-20)
(0.506721 0.482816 5.04633e-20)
(1.16654 0.865108 -3.35843e-20)
(-0.065956 -0.0598876 1.25071e-19)
(1.01831 0.00716884 0)
(-0.052668 -0.915999 -6.83318e-20)
(1.01163 -0.00421594 1.51362e-19)
(2.08733 0.0670316 0)
(1.01187 0.00633179 2.53842e-19)
(0.156071 -0.370041 -1.44233e-19)
(1.01891 0.00793436 -1.57118e-19)
(0.395263 -0.840687 0)
(2.57387 0.0940712 3.49357e-22)
(1.00893 0.002633 -1.05425e-19)
(0.994555 -0.0393388 2.78287e-19)
(1.08381 0.0868534 -2.83188e-21)
(0.0761781 -0.462032 2.15995e-20)
(-0.13305 -0.110276 3.28479e-19)
(1.99241 0.15139 1.42934e-19)
(-0.246151 -0.372454 -2.71093e-20)
(0.799026 0.0149206 -3.80812e-19)
(0.796208 0.0248253 0)
(-0.164116 -0.824309 -9.07981e-20)
(1.0209 -0.020588 -3.05267e-20)
(0.974342 0.0144014 0)
(1.05001 -0.00265689 -1.9364e-19)
(0.162677 -0.0619858 1.68202e-19)
(-0.417439 -0.643358 2.42838e-19)
(2.20919 -0.608635 0)
(-1.22982 0.128736 -5.79958e-19)
(1.54967 -0.357462 0)
(1.03915 -0.0189633 5.68402e-20)
(1.67613 0.488902 6.8245e-21)
(1.01392 -0.0052095 1.63736e-19)
(-0.776938 -0.6257 3.11802e-19)
(1.01837 0.000920385 0)
(0.993733 0.00377495 -3.94018e-19)
(1.00834 0.00700942 2.08181e-19)
(1.35069 -0.135444 0)