/*--------------------------------*- C++ -*----------------------------------*\
| =========                 |                                                 |
| \\      /  F ield         | OpenFOAM: The Open Source CFD Toolbox           |
|  \\    /   O peration     | Version:  2306                                  |
|   \\  /    A nd           | Website:  www.openfoam.com                      |
|    \\/     M anipulation  |                                                 |
\*---------------------------------------------------------------------------*/
FoamFile
{
    version     2.0;
    format      ascii;
    arch        "LSB;label=32;scalar=64";
    class       volScalarField;
    location    "42.5";
    object      p;
}
// * * * * * * * * * * * * * * * * * * * * * * * * * * * * * * * * * * * * * //

dimensions      [0 2 -2 0 0 0 0];

internalField   nonuniform List<scalar> 
2186
(
0.774843
-0.564024
-0.202911
1.08999
-0.858305
0.237142
0.623271
-1.19525
-1.12612
1.3897
1.23449
-1.30044
-1.14985
1.10491
-0.806901
1.13557
1.14352
-0.948832
0.0187708
-0.547029
1.52669
-0.533161
1.1176
-1.41582
1.10952
1.06008
1.33598
0.88636
0.826821
1.10692
-0.529446
1.1099
-0.482936
0.100401
-1.33242
0.378852
0.11163
1.52072
-0.333265
0.425057
-1.15312
-0.501528
-0.969177
-0.656743
1.09865
1.37107
0.237556
0.436451
-0.923125
-0.755687
-0.533934
1.09841
-0.929551
1.46864
-0.530398
0.945382
-1.04047
0.977196
-0.406196
0.821517
-0.117635
0.872499
0.79454
0.466351
0.816336
0.373219
0.896577
1.41423
1.31234
-1.04548
-1.20762
-0.323737
1.3677
1.00866
1.32435
1.19319
-0.572311
1.1397
-1.35404
-0.42114
-0.869346
0.510487
1.10322
0.857616
1.09081
1.10343
1.43636
0.0446342
0.401657
-1.35155
0.94715
-0.616855
0.974438
1.23707
1.11965
0.670678
-0.347733
0.834265
-0.839094
0.994368
-1.38157
-1.22573
0.882624
0.992663
1.14486
-0.525748
1.38263
-0.581638
0.932179
-1.4409
-0.416661
-0.780962
0.46478
1.47206
-1.2115
-0.995856
-0.407983
-1.10074
-1.35137
1.363
0.246906
-0.716831
1.06288
-1.11667
1.13928
-0.455793
-0.832731
1.18334
-1.00879
0.6001
1.47484
1.29586
0.106818
0.590439
-1.00993
-0.696675
0.910545
-0.837633
-0.202616
-1.29927
1.01187
-0.395167
-1.20424
0.651068
0.951961
0.994813
-0.641966
-0.869569
0.552527
-0.586144
-0.75711
0.509148
1.14256
1.22981
1.06298
0.451087
1.43976
0.708293
0.625855
0.326459
-1.309
-1.29204
1.13075
0.998133
0.0801341
-0.056227
-1.2908
-1.32881
0.233418
-0.138067
0.618424
1.00096
1.14482
1.14117
0.672167
0.0377452
-0.889483
1.13469
-1.19039
1.0709
-1.29189
1.12611
-0.556339
0.786078
0.765922
-0.90144
-0.943363
1.31549
-0.167483
-1.09419
-0.977322
1.38611
-1.1064
0.994082
-1.31274
-1.4817
0.343832
1.31389
1.25981
-0.527531
-1.29832
-1.16736
-0.0686693
1.1323
-1.32045
-0.802852
-1.37568
-0.933201
1.10951
-0.549591
0.445788
0.305168
1.45915
1.03856
1.12374
0.95021
1.35939
1.11518
0.88515
1.28422
0.315307
-0.965265
-0.541544
0.371968
0.0567327
-0.901862
-0.846741
1.23233
1.20105
-1.44245
-1.22559
-2.10627
0.267886
0.601086
0.786228
0.886204
1.15337
-1.39675
0.875489
-1.2676
-0.806295
-0.980121
1.1972
0.950003
1.33227
1.28435
1.29732
1.27799
-1.25041
0.800845
1.2723
-1.20776
1.18543
0.992771
-2.06402
-1.35196
-1.41453
1.33337
1.15205
-1.12002
-0.421237
-0.208349
0.955353
-1.12365
0.973349
1.25742
0.895121
-1.3629
-0.55074
1.07308
0.866653
-0.427338
-0.146979
1.48934
-0.797589
-1.23107
0.875676
1.23341
1.09117
-0.865513
-0.392603
-0.851553
1.11194
-1.18123
0.471966
1.0719
1.04671
-0.376006
-0.391713
1.12605
-1.40332
0.933827
1.24523
1.146
1.14267
-0.481399
-0.650521
-1.43322
-0.219973
-1.49726
-1.15594
0.276838
-0.786955
0.839438
1.21777
1.3798
1.11938
-0.755526
1.2961
-1.38809
0.426767
-1.25278
-1.31592
-1.06188
0.248975
-0.753387
-0.669978
0.421922
1.11724
0.260464
0.627843
-0.73091
0.070722
-1.03275
-0.794402
1.34235
0.252384
-0.942445
-0.603409
0.758173
0.808936
-0.0648336
0.480267
-0.822046
-1.09013
0.88782
1.13434
1.26563
-1.51443
1.27458
0.87854
0.630347
1.30921
1.13455
1.01172
0.305184
-0.246238
-1.28918
1.08127
-0.626593
-1.41448
-1.33882
-0.945861
-1.36197
1.51364
-0.305906
-0.54563
-1.23473
1.13317
-0.895312
-1.64298
-0.582161
0.724467
-0.23045
-1.23559
1.40147
1.45535
1.16441
-1.19518
-0.915081
1.52726
1.13409
-0.986457
0.70493
-1.26074
0.0326114
1.33732
1.18403
0.909948
1.39015
-0.666271
-0.114635
0.205126
0.215623
-1.27112
-0.512331
0.456969
1.46814
-0.883756
-0.85874
1.12957
0.516599
-1.34657
-1.46813
-1.28051
-0.83635
-1.25076
-1.32303
-0.474994
-0.81487
1.28046
0.0123422
-0.97869
1.12892
-1.36568
1.33206
-1.17044
-1.79512
-0.511684
1.10962
-1.28611
1.15
0.82996
-0.767762
1.08753
-0.659247
-1.33512
-1.28437
1.02822
1.01664
-1.35722
-1.26565
-1.23172
1.18455
-1.30391
-0.288345
0.749493
1.13389
0.929007
0.701529
-1.33261
-0.375386
1.03191
-0.268997
0.827064
-0.36664
1.13562
0.247717
1.17476
-1.3492
0.835858
0.935886
1.15769
-1.36189
1.13931
0.356149
-1.33663
1.11308
-1.97861
0.427012
-0.961016
0.184914
1.13585
0.0390389
0.17967
1.14779
0.502217
-0.181318
-0.204027
-0.542146
0.17813
-1.12567
0.937052
-0.310077
1.26465
1.17444
-1.25493
-1.3179
-0.448072
-0.518764
0.687665
-1.01983
1.04983
-0.0917401
-1.13296
1.26919
-0.149898
0.621506
0.180027
-0.292403
1.0157
0.594442
-0.375663
0.052238
0.228749
-0.435756
1.1386
-0.447534
1.17745
1.29156
1.27738
0.887332
1.34753
-0.826049
-0.438154
0.954396
0.0938194
1.12999
-0.526443
-1.0917
-1.20799
0.790971
-1.32733
-0.626202
-0.540764
-0.578365
-0.0932252
-0.426979
0.965754
0.933951
-0.23172
-0.384151
0.714904
-0.0773138
1.3228
0.151743
0.115454
-1.3256
0.982776
-0.562698
1.22222
1.53837
-1.27427
-0.824336
-1.14536
0.58045
-1.34651
1.06031
-0.339005
1.00664
0.976109
-1.37785
1.07339
1.03522
-1.84768
0.92323
-0.343975
-0.613877
-0.660184
-1.29259
-0.374496
-1.21274
-0.334525
1.11094
0.485238
-0.800343
0.526991
1.26206
1.27414
-0.54399
0.747632
0.134123
0.746256
0.107272
-0.931444
-0.671092
0.744741
1.03411
1.25161
-0.152937
-1.3241
-1.24397
-1.3521
-0.300291
0.694037
-0.201479
-0.0531889
-1.12032
1.15095
-0.701224
1.11283
-0.0226509
0.433646
1.02924
0.643836
-1.38022
0.130347
1.11602
1.37231
1.13824
-0.136098
-0.886989
0.778735
0.0151122
0.766218
-0.20544
0.695369
1.11471
-1.06443
-0.547422
1.21567
-1.41734
1.41087
-0.172693
0.86518
-0.733649
0.577726
-1.38441
1.3324
-0.574674
-1.15216
1.16775
0.767696
0.761857
-1.17109
-0.52692
-0.296166
0.98675
0.294703
-0.387861
0.0999698
1.13825
0.657397
-0.794253
0.975803
1.10922
1.13219
-0.157702
-0.45392
-0.654462
1.12984
1.35583
0.411546
1.12462
-0.281615
1.09504
-0.725972
-0.624036
0.394984
0.988431
1.05564
-1.22919
1.06804
-0.575737
1.02881
-0.892885
1.20448
0.975402
1.14048
-0.222155
1.13264
-0.976028
-0.346175
1.26424
-1.33386
0.486695
1.28946
-0.743014
1.29649
-1.55529
-0.614936
1.24285
0.754274
1.45494
1.11358
-0.986538
1.11668
1.26851
-0.320423
0.87169
-0.23175
-1.37762
1.61465
-1.29096
1.31789
-0.775877
0.199799
1.11369
-1.15675
1.13652
0.12193
1.13717
1.01972
1.12169
-0.135736
-1.05921
-0.884356
0.549141
0.653282
1.11465
0.253095
1.05029
-0.352435
-0.00843424
-1.22118
0.820031
1.19255
-0.475973
-1.39324
0.247504
1.37888
0.294893
0.965316
0.128979
-1.60099
-1.23213
-0.551185
0.599916
1.01766
-1.94625
-0.653392
0.00593773
-0.649569
-0.55812
-1.29103
0.372993
1.12002
1.13901
-1.15002
-0.358482
1.12644
1.00438
1.13536
-1.33726
1.12773
1.11517
1.09646
1.08813
-1.90568
-0.0372975
-0.548768
0.858959
1.1028
0.666405
0.016927
-0.264641
-0.791204
-0.209385
1.33344
-0.03633
-0.918249
-0.777449
0.0401312
-1.17069
1.01556
-1.42453
-1.39575
-1.33422
1.13564
1.1137
1.14401
0.081752
0.615497
1.30205
-0.183311
1.10266
-0.199057
-0.0420192
0.993074
1.14225
1.28593
-0.00462862
1.13088
1.12313
-0.65315
0.145095
1.14366
1.15257
1.14462
-1.3215
-1.39564
1.14282
0.555419
1.11648
0.473554
0.152673
-0.439795
0.408573
0.516626
-0.581806
-0.255459
0.0729301
1.15188
1.15689
0.980948
-1.36719
1.13606
0.339819
0.491698
0.102233
1.10783
1.14387
1.14363
1.16248
1.14252
1.13852
1.1331
0.0592861
0.490619
0.578328
0.559326
0.0514763
-0.00682687
-0.00385771
-0.247246
0.0122347
0.392511
0.0224906
1.10006
1.12702
1.1206
1.1477
1.14765
1.14264
1.14947
1.11362
1.1414
-0.244411
0.578168
1.146
1.14142
-0.0163438
1.14305
1.14488
0.210882
-0.741851
-0.152387
-0.885552
-0.41215
1.12968
-1.18824
1.11824
0.616566
1.11359
-1.29549
1.11572
1.10622
1.03674
-0.544532
0.0120884
-1.10266
0.213335
0.24467
-0.529874
1.14732
-0.438027
1.2145
1.13555
0.108764
1.36176
1.48685
0.439102
1.07985
0.620418
1.12944
1.14632
1.12819
-1.29579
0.735979
-0.0226604
1.13258
1.13428
-1.04004
-0.543162
1.13603
0.222739
-0.037674
1.13213
-0.116744
1.13039
1.14742
-0.680447
1.13034
-1.12817
1.12238
1.24532
-1.4823
1.133
1.14213
-0.13812
0.932271
1.11934
1.13647
0.455855
-0.447406
0.681117
1.44409
1.1437
1.12313
1.13514
-0.758238
1.12605
1.09783
1.13939
1.12947
1.1345
1.12235
1.25911
0.358796
-0.460475
1.12682
1.12934
0.569849
-0.00543
-0.412777
0.221998
1.06337
-0.495191
-0.157075
-0.0263862
1.12557
0.697315
-0.318578
-1.18639
0.224706
0.458332
-0.411852
-0.865387
-0.778113
-0.741323
-0.0454735
1.13082
-0.495616
1.11857
1.09536
-1.32033
1.42218
0.0915833
-0.561194
0.764502
1.32852
0.711186
-1.3435
1.13833
-1.16942
1.13106
-0.587091
1.12965
-1.48527
1.1247
-0.969283
-0.338886
1.13413
1.14396
1.141
-1.26246
-1.35193
-0.316117
-1.23975
1.13923
1.08511
-1.13416
1.13081
1.16733
1.13254
-0.902587
-1.50343
-0.904694
-2.03839
0.263181
1.1384
-0.0476109
1.12329
-1.67813
1.13097
1.16955
1.13365
0.0956808
-0.142821
1.15732
-1.24341
1.13517
1.13987
-0.126941
-1.17685
1.16371
1.32711
1.12171
1.13254
-1.11489
-0.857807
1.07284
0.326232
1.1356
0.833381
-0.918061
-1.21991
1.04618
1.34102
1.1355
0.245939
-0.0177238
-1.19514
-2.03877
-0.387666
1.09114
-0.538733
1.13027
-1.14138
-1.30779
-0.834073
0.731735
-1.36684
-0.292519
-0.63448
1.12466
-1.34382
1.13939
-1.27347
-0.361469
-0.903051
-0.139963
-0.707468
1.12229
-0.988578
-1.28907
-0.655574
-0.543783
1.09691
-0.81275
-0.118176
-1.74285
1.27902
-0.239176
-1.28097
1.19841
1.09582
1.07976
0.434409
-1.22675
1.14305
1.17798
0.629678
-0.742328
1.12295
0.775628
1.42681
1.15077
-0.64488
-0.948224
-0.734489
-1.11206
-0.934166
-1.33309
0.0619914
-1.47051
0.780747
-0.184095
1.12327
1.37498
1.13294
-1.34819
-1.32072
1.1275
-1.15441
-0.326451
1.08212
-0.272036
-0.924383
-1.71279
-1.17427
1.12481
1.10303
0.772632
0.871751
0.934704
-1.72184
1.08718
-1.33971
1.03184
-0.439018
1.02464
-1.86404
0.345697
1.12694
1.29944
-1.69313
-1.29362
1.04068
1.50302
1.14946
1.23533
-1.19041
1.31569
-1.38677
-0.269333
-1.14121
0.394944
-1.76815
1.24406
1.21698
-1.2568
0.601476
1.132
-0.424062
0.851965
1.16009
1.14255
-1.48276
1.13035
0.0902171
1.1488
0.0540429
-0.782193
0.154434
1.13152
0.434684
-0.157717
-0.54261
1.07192
-0.652533
1.37871
0.152697
1.48879
1.20852
-0.450887
1.07863
-0.645684
1.13673
1.12372
-0.242902
-0.560142
1.32578
1.13316
1.40839
1.1171
-0.0427428
1.1305
1.0853
1.08366
1.13969
-1.40311
-0.866939
-1.3996
1.18255
0.317467
-0.548924
-0.592351
0.433415
-0.754226
-0.350372
1.10493
-0.90198
1.04258
1.08827
-0.76042
-1.03449
-0.509939
-0.539986
-0.494854
-0.651784
1.14713
-1.9329
1.14757
1.31066
1.17928
0.168293
1.15554
1.10518
0.0315673
1.03925
1.13423
-0.923896
1.1294
1.17258
0.307909
-0.585407
1.58134
-1.56957
-1.07647
-1.1615
0.120538
1.08162
-1.05588
0.557381
-0.530304
1.29039
-0.725691
1.09658
1.16272
1.07572
-0.274041
1.03953
-1.99543
1.14747
1.16066
-0.0488384
1.14813
0.777663
1.08256
0.688078
-1.78675
-0.00835535
-0.121579
-0.198683
1.41073
-0.434215
1.18435
1.54223
0.591289
0.18743
1.1863
0.341115
1.18325
-0.112477
-0.158535
1.19472
1.19924
0.343071
-1.42232
1.01754
-0.386801
-0.698898
-0.367692
1.15872
1.08299
1.53486
-1.34509
-0.745252
0.712902
-1.07841
1.23819
1.20411
1.06815
1.13288
1.0488
-1.18231
-1.33143
-1.19692
1.05389
1.10864
-1.98626
-0.692881
-1.28385
1.13734
1.12789
0.390471
-1.41363
1.17103
-1.18606
0.537028
1.02602
1.15777
-0.0160297
-1.14835
0.159688
-1.04631
-0.490493
-0.335271
-1.50031
1.47371
1.52405
-0.904541
-0.99933
1.14005
1.11393
-0.911823
-0.199931
-0.585162
0.921708
1.24169
-1.04483
1.14168
-0.768228
-1.17381
-0.48584
-1.04002
-0.614542
1.06983
-1.03165
-0.799613
1.51809
-1.06717
1.14193
1.40694
-0.709423
1.0781
1.32729
-0.845227
1.42761
-1.1002
-1.21829
1.2276
-1.05715
1.04052
1.13987
-1.13094
1.14882
0.0263367
-1.21581
1.18374
1.06308
-1.2544
-1.19188
1.13443
1.13529
-1.20937
-1.88236
1.46011
-1.15932
1.10381
-0.9335
1.01285
-1.3399
-0.896341
-1.26784
-0.861065
1.30481
1.12094
1.37337
1.39834
1.2082
1.20103
1.28184
-1.28274
1.33863
1.19704
-0.787858
-1.185
-0.935153
1.49335
-1.35142
-1.23758
-0.434655
1.17413
-0.810723
-0.937503
1.24544
1.05014
-1.25097
-0.710569
-1.22441
-0.343958
-1.95939
-0.827521
-1.29558
1.13325
0.898276
-0.627392
-0.106064
-1.20193
1.09084
-1.16413
-0.881365
-1.30658
0.958954
-1.32533
-0.738002
1.4221
0.962249
0.344456
1.26135
-0.619194
1.00255
1.15658
1.21863
1.27593
-0.487888
0.951189
1.23423
0.155666
-1.31587
1.5598
1.02726
0.943582
1.14487
-0.764576
-1.05675
0.885516
1.05156
1.06012
-1.08414
-1.58365
1.101
-1.31261
0.843846
-1.00311
1.56662
-1.32405
0.998952
0.71652
-0.567108
-1.33112
-0.619104
1.10404
-0.583919
-1.34417
0.669612
0.894898
-1.08039
1.21639
0.845672
-0.603716
-0.996858
1.14871
-0.957609
-1.33734
-1.27462
-0.528963
-0.528215
1.17053
1.10542
-1.49329
0.576671
1.12847
1.49428
0.180472
0.595448
0.364247
0.890181
-0.678058
-0.555065
-0.983441
-0.229921
-0.544791
1.15127
-0.581214
0.493048
-1.34189
0.833695
0.515797
-0.538469
0.597263
-0.224806
0.430448
-0.533332
0.765608
-0.555723
0.309748
-1.34956
0.688784
-0.529736
0.808918
-1.25559
-0.528688
-0.534072
-1.34085
1.1469
-0.0484703
-0.561214
-1.35956
0.368167
0.458922
-0.561598
-1.33592
-0.60307
-0.288043
-1.377
0.213887
-1.41812
0.017813
-0.679189
-0.498818
1.10202
0.497174
-1.14615
1.1578
0.297675
0.327978
0.386335
1.07038
-1.00995
-1.39572
-1.35451
-1.18241
0.931503
1.56527
0.494995
-0.650881
-0.110918
-1.0457
0.0377366
-0.554809
1.16034
-0.927359
1.03966
-0.898287
1.62629
0.419645
1.53213
-0.682014
1.25465
-0.196145
1.04725
-0.538725
-1.35286
1.11828
1.09596
-1.62026
-1.34125
-0.532362
1.18503
-0.358582
1.13453
-0.619318
-1.28995
-1.26358
1.44794
1.22121
1.16002
1.19733
1.13896
-0.807607
-0.537426
1.39782
-0.613535
-0.988188
1.56624
-0.688346
1.10615
0.997582
1.49873
1.54466
-0.641651
-1.39581
1.14641
0.13018
-0.694837
-0.485744
0.668137
-0.912245
-0.724358
0.534436
-1.12922
1.26687
-0.0240156
1.2641
1.3169
1.23297
-0.875775
-1.36468
-1.02703
1.20818
-0.981866
1.37266
-0.389365
-0.980079
1.42421
1.39403
-1.36454
0.40876
1.03484
-1.08059
-0.96089
0.639214
1.45285
1.31099
-0.827016
1.08433
1.09393
-1.34623
1.32169
0.591929
-0.653744
-0.558542
-0.116947
0.33662
1.32137
-0.957176
0.570099
-0.694065
0.0146499
-0.969424
-1.36793
1.15904
-1.41406
1.21511
0.258234
-0.0433893
0.678537
0.188687
-1.34899
-0.28353
-1.61478
-0.116526
-0.390972
-0.777388
1.17089
-1.16188
-0.586035
1.21647
-1.10049
-0.799336
1.14111
-1.43128
1.20137
-0.191495
-1.31978
-0.498282
0.789102
-1.17018
-1.10138
0.908808
-1.27855
1.17323
-0.864132
-0.989324
-1.01287
-1.34815
1.60883
-1.83458
1.18993
-0.677296
1.0608
1.34159
0.706538
1.09866
1.35956
0.229277
-1.44069
1.05766
1.1451
1.46476
-1.04973
1.21325
0.942737
-1.08364
0.773559
1.27749
-0.252193
1.50938
0.46993
-0.926627
0.827714
-1.11565
-0.532481
1.01683
-0.149014
1.16431
1.09301
1.1594
-0.895722
1.13753
1.4433
-0.918698
0.0484566
-1.93838
-0.85646
-0.99731
-1.33657
1.44944
0.725638
-0.854257
0.917523
-1.14585
-0.961165
1.35159
1.41381
-1.21087
-1.14758
-1.34718
-1.2916
1.04082
-0.837931
-0.04069
-0.459611
-0.0297002
1.17887
-1.19845
1.54587
1.20471
0.90111
1.1966
1.47657
-1.01055
-1.17231
1.07984
1.20479
-0.975343
1.10908
-1.77376
-1.27426
-1.2267
1.29826
1.32129
-1.25822
-0.841225
0.501714
-0.19959
-0.590924
1.14739
1.19343
-1.1469
1.22762
1.26421
-1.4394
-0.800536
-0.872182
-1.28897
-1.2384
1.40162
-0.0918085
1.15276
-0.818427
1.39752
1.08793
1.11023
1.16822
-1.0103
0.609635
-1.30134
0.809363
-0.724235
0.927013
0.191066
-0.164197
1.10186
1.02911
1.17323
1.17311
0.243658
1.16261
-0.0235479
0.344173
1.0408
-0.233945
-0.777021
-0.622095
-0.370141
1.13924
0.983655
1.13747
-1.19626
-1.14396
-1.3113
-0.46732
1.1462
1.46286
1.15819
-0.751699
-0.946725
-1.0525
-0.225741
-1.34381
-1.34866
0.108685
1.15928
-0.962247
-0.614243
-0.209096
-0.257124
0.97925
-1.23056
-1.32067
-1.45751
1.16059
1.55812
-0.349186
1.20647
1.62263
0.924694
1.38089
-0.81647
-1.05451
1.50232
-1.32772
0.222121
-0.695985
-1.23142
-0.529331
-0.574451
1.03321
0.702344
1.38601
1.35409
-0.0228979
0.759612
0.371429
-0.0407135
-1.33425
1.22564
0.980513
1.15137
1.16845
-0.316542
0.502945
1.15342
-0.148736
-1.3535
-0.592309
-0.538113
0.551413
-0.559196
1.0599
0.629575
-1.32792
1.30313
-0.774985
-0.0188966
1.09243
-0.955574
-0.99112
-0.813586
0.866435
-0.639325
-0.539739
1.14825
1.15964
0.351123
-0.0573434
-0.922759
-1.33984
-0.259537
-0.722911
-0.332924
0.548105
-1.01597
-0.548968
1.44311
0.549355
0.645033
-0.540922
-1.22209
1.12727
1.07698
0.801608
0.471269
-0.535253
-1.02308
-1.05638
0.730538
0.366291
-0.530692
1.05836
0.438285
-0.525999
1.59052
-0.528236
-0.816619
-1.24015
-0.475624
0.835536
-0.542942
-0.848415
-1.36421
-0.147981
-0.578608
0.300495
-0.901193
-0.330729
1.36847
-0.634131
-0.367268
-1.3986
0.128714
1.50527
1.50152
1.4158
1.13748
1.39673
-0.377715
1.13168
-0.779224
1.07349
-1.35604
-1.34029
1.34035
-0.688706
0.430667
-0.839837
1.51183
0.293794
1.43847
0.864458
1.01837
-0.666943
-0.727032
-1.35284
-0.463372
1.43562
1.37923
1.13692
0.603723
1.12015
0.864525
1.05557
-0.528573
-1.31119
0.558763
-0.44477
1.03316
1.14544
-0.1883
-0.693429
-0.524478
-1.43391
-1.3536
-1.05886
1.438
1.16259
1.14011
-0.28254
0.413296
1.1499
0.709484
-1.33988
-0.401825
-1.07785
1.02446
-0.618342
-0.538136
-0.511851
1.17552
-1.30517
-1.24536
1.12257
0.558408
0.718065
1.13268
-1.34518
1.10434
1.26638
0.826883
-1.34766
1.10326
0.262412
0.729536
-0.969512
-0.577047
1.58269
0.175469
-0.55448
-0.063347
1.13593
1.17234
-1.01478
-1.14964
-0.195113
-0.334788
-1.26934
-0.856169
-0.528045
1.13119
-0.860301
1.16607
1.36911
1.13176
1.18531
1.28942
1.33957
1.1337
-1.12365
-0.956404
-0.108133
-1.45246
-1.14192
-0.53698
1.33059
1.26048
-1.14848
1.01758
-0.950857
-0.550346
-0.531248
0.0909074
0.492304
-1.41551
1.13205
1.13355
-0.603334
-0.647343
1.46858
-1.424
-0.533175
-1.41298
-0.869469
-0.497026
1.14329
1.01683
1.14675
-1.08711
0.574302
-1.30815
-0.0514483
-1.1339
-0.233099
-1.00901
-1.05806
1.1392
-1.05171
1.56777
-0.766289
-0.791495
-1.38314
-0.532767
0.974888
-1.38601
-1.04771
-1.34646
-0.410384
1.3822
1.2964
-0.890025
0.581217
1.06026
-1.37506
-1.20056
1.16684
-0.692767
-1.40185
-0.437993
0.996315
-0.616323
-1.1178
1.13167
0.359627
-0.442195
1.15786
-0.945473
-1.16238
-0.896278
-0.599842
-0.178877
-1.11139
1.48234
-1.32167
0.0673249
-1.35447
1.03308
-0.31067
-0.957459
0.901167
0.755952
1.17114
1.04141
1.35638
-0.539995
0.876092
0.510417
-0.972062
1.14069
-0.075693
-0.306757
-1.16361
1.24707
1.23413
-0.327687
-0.946844
-1.03986
1.22781
-0.932655
0.409967
-1.32134
-0.549799
1.45289
1.22645
-0.69752
-0.884208
-0.718981
-0.64122
1.09942
-0.812062
1.19763
0.516457
0.955156
1.07142
-0.514901
-0.940755
1.16357
-0.536784
-0.316891
1.40549
-1.30205
-0.636446
1.05503
-0.946919
-0.862442
-0.312119
-1.01417
1.47211
-0.860894
0.0613388
-0.712539
1.39032
-0.754568
-0.898936
0.896865
-1.25131
-1.35581
1.44248
0.923984
1.03121
-0.858569
1.41199
-0.0967601
-1.01937
-0.841558
-0.846813
-0.768334
1.43865
0.835166
-1.24481
-0.742499
-1.08945
1.31459
-0.941359
1.36062
-1.35374
0.967437
-0.594386
0.645821
0.80119
0.769517
0.694503
0.0633056
-0.917437
1.2214
-0.83434
-0.381756
-1.28632
0.182983
1.40991
-0.420623
-0.867958
-0.797309
-0.606195
0.545994
-0.766087
-0.58434
0.83397
0.0861449
-0.670307
1.48905
-1.10509
-1.23816
1.47204
-0.628194
0.438429
-0.938273
-0.533055
-0.568979
1.4579
-0.519734
1.37436
-0.560956
-0.932295
1.3554
-0.310323
-0.91156
0.826047
-1.02534
0.31161
-0.576684
-0.589762
0.807189
-1.33675
-0.601366
-0.536048
-0.533353
-1.36054
0.854774
0.146578
-0.517691
-0.683065
1.40962
-1.21904
-0.871597
-0.519061
-0.349396
-0.654754
-0.518102
-0.655348
-0.190481
1.42454
-0.787418
-1.34443
-0.891671
-0.941484
0.0685503
-1.36771
1.50667
1.44158
0.686425
-0.949263
-1.3556
0.606781
-1.35354
1.52463
0.493466
1.10894
0.947859
1.3661
0.381956
-0.663825
-0.966323
0.236599
-0.836511
0.236606
-0.281622
-0.567407
1.4105
-0.344142
0.504263
-0.432676
-1.32377
-0.951564
)
;

boundaryField
{
    frontback
    {
        type            empty;
    }
    Top
    {
        type            zeroGradient;
    }
    outlet
    {
        type            fixedValue;
        value           uniform 0;
    }
    bottom
    {
        type            zeroGradient;
    }
    Inlet
    {
        type            zeroGradient;
    }
    rectangle
    {
        type            zeroGradient;
    }
}


// ************************************************************************* //
