/*--------------------------------*- C++ -*----------------------------------*\
| =========                 |                                                 |
| \\      /  F ield         | OpenFOAM: The Open Source CFD Toolbox           |
|  \\    /   O peration     | Version:  2306                                  |
|   \\  /    A nd           | Website:  www.openfoam.com                      |
|    \\/     M anipulation  |                                                 |
\*---------------------------------------------------------------------------*/
FoamFile
{
    version     2.0;
    format      ascii;
    arch        "LSB;label=32;scalar=64";
    class       volScalarField;
    location    "37.6";
    object      p;
}
// * * * * * * * * * * * * * * * * * * * * * * * * * * * * * * * * * * * * * //

dimensions      [0 2 -2 0 0 0 0];

internalField   nonuniform List<scalar> 
2186
(
1.16945
0.204434
0.477892
1.46685
-0.869928
-0.151832
1.12088
-0.403747
-0.227397
1.6714
1.21216
-0.323885
-0.418213
1.31889
0.00102944
1.30007
1.33872
-0.980863
-0.0720764
-1.04494
1.68734
-1.00522
1.32444
-0.388663
1.31597
1.44458
1.53568
1.3201
0.680836
1.31793
-1.01134
1.31613
-0.99243
-0.616564
-0.332657
0.122044
-0.617567
1.66533
-0.826627
-0.0428473
-0.418103
-0.968596
-0.098355
-1.14977
1.07532
1.65233
0.829832
0.979602
-0.0414821
-1.00492
-1.02421
1.03146
-0.0956221
1.57308
-1.0574
1.36285
-0.144753
1.38747
-0.886669
1.19595
-0.026078
0.749079
0.640595
0.0237764
0.67314
0.926436
0.770136
1.58284
1.47654
-0.22068
-0.395275
0.0460443
1.57531
1.40147
1.43415
1.5437
-0.140276
1.33173
-0.336708
-0.876441
-1.23043
-0.0197779
1.3125
0.727492
1.31092
1.31439
1.56303
-0.129715
-0.126469
-0.342393
1.36232
-1.01175
1.28156
1.51258
1.32415
0.481426
0.366822
0.694875
-0.937651
1.39866
-1.32661
-1.25486
0.764643
1.29876
1.34118
-1.02519
1.42145
-0.0637221
1.33978
-1.5242
-0.854858
-0.98853
1.00273
1.55465
-0.235315
-0.493342
0.377388
0.105057
-0.343159
1.58666
-0.035626
-1.08915
0.985743
-1.02041
1.30638
0.365016
-0.935923
1.53198
-0.975769
1.10464
1.73808
1.61681
0.730978
1.09744
-1.20685
-1.03853
1.33769
-0.232015
-0.493423
-0.354026
0.919492
0.329777
-0.395268
1.14316
1.28133
1.3152
-0.0246218
-0.867024
1.05905
-1.11676
-0.976932
1.03516
1.33501
1.56656
1.44258
0.987954
1.54546
0.528238
0.413833
0.894961
-0.352129
-0.37683
1.25096
1.38877
-0.101873
0.109236
-0.256444
-0.337443
0.0317494
0.213421
0.413462
1.40216
1.33897
1.50379
0.487223
-0.271089
-0.813304
1.25006
-0.600636
1.00639
-0.337737
1.3281
-1.03432
0.629844
0.605036
-0.798022
-0.536265
1.32435
-0.483295
-0.442246
-0.680634
1.54717
-0.805187
1.3713
-0.348036
-1.7899
0.0843925
1.45841
1.24688
-1.01676
-0.34926
-1.56347
0.587516
1.35393
-0.334584
-0.935782
-0.344066
0.235972
1.20343
-0.475361
0.980892
-0.199143
1.54516
0.953492
1.06596
1.36118
1.38945
1.31713
1.31778
1.30454
0.85461
-0.508632
-1.02042
0.108119
0.684812
-1.01994
-0.919553
1.21045
1.4896
-0.378404
-0.282412
-0.879481
0.849074
1.09865
1.17999
1.32008
1.51671
-1.01073
1.30204
-0.367112
-0.979544
-0.507814
1.16425
0.838831
1.35007
1.49824
1.30289
1.27302
-0.377809
1.25605
1.36513
-0.394971
1.14714
0.893942
-0.856984
-0.327173
-0.301593
1.35008
1.32812
-0.430369
-0.364596
0.674854
1.37118
-1.08834
0.879516
1.26883
1.23894
-0.301594
-1.01743
1.30921
0.757373
-0.0460974
-0.44615
1.60492
-0.943493
-0.385038
1.22088
1.57193
1.31454
-0.898678
-0.445495
-0.166824
1.10725
-0.40707
1.00698
1.30203
1.41165
0.339318
0.0786601
1.22545
-0.304112
1.33447
1.58262
1.3254
1.32301
0.52306
-1.0451
-0.398942
-0.14638
0.00958668
-0.684326
0.857131
0.0092469
0.697538
1.56067
1.41571
1.10233
-0.0705682
1.40754
-0.31694
-0.409604
-0.378559
-0.347691
-0.458298
0.832522
-0.985145
-0.998253
0.181699
1.13491
-0.449947
0.434788
-1.00515
-0.173984
-0.471444
-0.973474
1.51941
-0.0278114
0.306624
-1.01484
1.22538
0.671133
-0.371449
0.981515
-1.75582
-0.445306
0.759039
1.3449
1.25773
-1.55627
1.45313
1.31345
0.431352
1.62452
1.29201
1.28595
0.843681
0.256891
-0.358892
1.02589
-1.11982
-0.332924
-0.343795
-0.527691
-0.347848
1.61273
0.546064
-1.02097
-0.384656
1.29248
-0.792273
-0.475936
-1.06301
1.20004
0.0907701
-0.460494
1.52588
1.59424
1.52372
-0.398646
0.0863499
1.62582
1.30092
-0.721538
0.522052
-0.371549
0.672431
1.43284
1.17026
1.2555
1.65531
0.0667618
0.263601
-0.196141
-0.534069
-0.29225
-0.987681
-0.162679
1.53975
-1.13626
-0.299249
1.27891
1.0423
-0.331467
-1.10073
-0.361395
-1.01689
-0.39665
-0.344458
-1.03952
-0.919826
1.53186
0.33
-0.500344
1.32923
-0.341524
1.63956
-0.628459
-1.19472
-1.07479
1.31417
-0.327369
1.32701
1.27726
0.465413
1.41764
-1.1352
-0.342491
-0.359471
1.42256
1.2893
-0.324495
-0.370633
-0.393397
1.16468
-0.408458
-0.642672
0.584565
1.16778
1.25014
1.12393
-0.335117
-0.493069
1.02572
-0.384385
1.20088
-1.69528
1.33419
-0.055605
1.52151
-0.342523
1.28204
0.847164
1.33351
-0.323792
1.28086
-0.565916
-0.339959
1.31706
-1.28757
0.173688
-0.524198
-0.122086
1.30378
0.615735
0.781265
1.28822
0.273752
0.409535
0.136689
-1.0212
0.739686
-0.429784
0.83501
-0.802582
1.25444
1.53186
-0.37459
-0.34693
0.354154
-1.00377
0.49949
-0.48442
0.968724
0.487416
-0.428862
1.3402
0.308061
0.425073
0.7854
0.203913
0.924619
0.393193
0.246903
-1.769
-0.238466
-1.0322
1.32245
-1.94501
1.46437
1.60756
1.59242
0.761165
1.36908
-0.912141
-0.943162
1.25845
0.713718
1.28054
-0.995962
-0.439575
-0.686689
1.2037
-0.340687
-1.18509
-1.04275
-1.08621
-0.487282
-0.272547
0.865866
0.865984
-0.492545
-0.196364
1.1917
0.584167
1.33168
-1.45512
-0.219142
-0.341362
0.881264
0.230207
1.56542
1.64377
-0.786621
-0.923963
-0.264787
0.343797
-1.24119
1.44696
-0.241503
1.40839
0.932537
-0.397332
1.06498
1.02678
-1.1563
1.24768
-0.275143
-1.01116
-0.418083
-0.310132
-0.377059
-0.95811
-0.531782
1.31973
0.244019
-0.954898
1.04939
1.4629
1.59752
0.203063
1.16919
0.179355
1.21649
-0.107469
-0.529505
-0.999923
0.576276
0.965613
1.26915
-0.793687
-0.340064
-0.284352
-0.345014
0.412356
1.17336
-0.619383
-0.240374
-0.479105
1.11404
-1.94214
1.22002
0.108356
-0.480391
1.29165
1.0927
-0.947028
-0.212945
1.23833
1.66402
1.33579
-1.78248
-1.07335
1.22951
0.182341
1.21516
-0.641383
0.514175
1.23416
-0.453518
-1.01798
1.22148
-0.292097
1.47096
0.224835
1.30599
-0.389405
1.07294
-0.258452
1.57408
-1.01776
-1.09137
1.12375
0.605145
0.58919
-0.416703
-1.0276
-0.319802
0.964418
-0.15561
-0.521824
-1.73626
1.32416
0.461737
-1.06162
0.894645
1.05594
1.2632
-0.981274
-0.902853
-1.01118
1.32727
1.3887
0.960946
1.32452
-0.520368
1.44038
-0.396075
-0.127715
-0.300671
1.27933
1.30637
-0.520581
0.992002
-1.01722
0.971986
-0.834813
1.17443
1.34771
1.32313
-1.41179
1.10164
-1.24673
-0.621756
1.50121
-0.873807
-1.5875
1.35474
-0.287973
1.30507
-1.02298
-1.00974
1.2242
1.21735
1.71811
1.31418
-1.18418
1.48757
1.31169
0.725627
0.738538
-0.534585
-0.261069
1.80807
-0.357765
1.35414
-0.969716
0.792517
1.3153
-0.452235
1.27068
-0.845468
1.08352
1.30148
1.33504
-0.261736
-0.45427
-0.0342102
1.02724
1.09253
1.4442
-0.0148517
0.969032
-1.23312
-0.352449
-0.740592
1.26032
1.54255
-1.09365
-0.277148
-0.686637
1.51939
-0.392628
0.858294
-0.566172
-1.34053
-0.382642
-1.01826
-1.64602
0.986991
-1.48611
0.0176712
-0.36904
0.0494875
-1.06239
-0.360127
-0.089098
1.24757
1.32923
-0.436052
0.168036
1.26944
1.2889
1.33232
-1.18533
1.26375
1.42231
1.32402
1.46712
-1.10615
-0.210978
-1.01809
0.721748
1.32888
1.15488
0.657899
0.340853
-1.74602
-0.7081
1.63758
-0.318708
-0.122434
-0.0486987
-0.166702
-0.407545
0.930692
-0.345185
-0.324061
-0.340753
1.29569
1.31828
1.30807
-0.0598492
0.400369
1.6238
0.295661
1.32051
0.0605473
0.0973757
0.897805
1.32535
1.28351
-0.729308
1.25118
1.25556
-0.58684
-0.128545
1.30946
1.3251
1.32626
-0.342475
-0.389158
1.32804
1.06697
1.31688
0.243027
-0.149027
-0.439746
-1.17634
-0.343454
-1.02768
-0.572961
0.00474983
1.33061
1.3346
0.925507
-0.35235
1.29496
0.200223
-0.0863099
-0.132092
1.31966
1.33555
1.32878
1.33574
1.30993
1.30055
1.28712
-0.00725198
-0.143049
0.0843178
0.0396919
-0.118305
-0.027048
-0.152959
0.290562
0.322168
0.221215
-0.115785
1.31632
1.33034
1.32607
1.34482
1.3406
1.32961
1.3297
1.32252
1.30647
0.269368
-0.0623414
1.32776
1.32993
-0.0788749
1.33291
1.32832
-0.643117
-0.2585
0.113554
-0.804208
-1.99424
1.30863
-0.402583
1.3134
1.06662
1.47607
-0.355638
1.31581
1.20714
1.28745
-1.02062
-0.276817
-0.443107
0.00322526
-0.0497978
-1.01558
1.31731
-0.334707
1.39936
1.30997
-0.202624
1.38914
1.56663
-0.514704
1.08734
1.11772
1.30117
1.3204
1.32277
-0.356681
0.567018
-0.569946
1.31064
1.32747
-0.480375
-0.487315
1.31045
-0.505884
-0.392353
1.31314
-0.48542
1.27465
1.32276
-0.198864
1.3254
0.293425
1.31449
1.34065
-1.3496
1.33401
1.34021
-0.667804
0.834851
1.31983
1.31377
0.174283
-0.889069
1.16575
1.71786
1.31895
1.32033
1.31786
-0.122011
1.31762
1.31748
1.3166
1.31477
1.31467
1.31911
1.39048
-1.11147
-0.796892
1.31984
1.30583
0.354847
-0.513967
0.441628
-1.41908
1.11033
-0.444594
-1.83604
-0.111336
1.3125
1.17091
-0.429153
0.206912
-0.674461
-0.646347
-1.08991
0.176684
-1.77288
-1.213
-0.39151
1.32256
-0.266002
1.30925
1.17752
-0.345638
1.48205
-0.759192
-1.14779
1.16302
1.34154
0.536248
-0.340796
1.29765
0.519467
1.3186
-0.717714
1.32042
-0.297296
1.30857
0.443959
0.312707
1.3203
1.33897
1.18561
0.230994
-0.342808
-0.883047
0.152679
1.33877
1.15447
0.0376383
1.3036
1.35203
1.28856
-0.314351
-0.939689
-0.0836631
-1.15944
0.817726
1.3092
0.0378888
1.31794
-1.16661
1.30639
1.34519
1.32368
0.0108482
0.00947704
1.35196
-0.37788
1.32615
1.32803
0.535336
-0.407368
1.11895
1.37583
1.30707
1.29115
-0.0274037
-0.440081
1.30538
0.894348
1.32303
1.27884
-0.762585
-0.390759
1.07975
1.59592
1.30268
0.83313
-1.60937
0.0642329
-0.592405
-1.67408
1.3159
-0.282349
1.27859
-0.856512
-0.349033
-0.913121
0.563022
-0.31118
-1.14219
-0.595903
1.30643
-0.341058
1.08572
-0.364802
0.363428
-0.437804
-0.369773
-1.15604
1.25894
-0.218004
-0.267557
-0.471738
-0.984477
1.31646
-1.26546
-0.25595
-1.32478
1.31656
-0.754197
-0.364855
1.37605
1.31407
1.31166
0.95114
-0.325808
1.30412
1.32123
-1.41211
-0.975098
1.30697
1.23681
1.50075
1.32205
0.356595
-1.10278
-0.99613
-0.511705
-0.774447
-0.340653
-0.761679
-0.274705
1.24024
0.50196
1.32813
1.47883
1.29668
-0.343842
-0.337347
1.30681
-0.14433
-0.297446
1.30995
0.290193
-0.72174
-1.11923
0.0829592
1.21186
1.17725
-1.41126
1.22658
0.820236
-0.553556
1.31603
-0.3976
1.02665
-1.02475
1.37315
-0.439894
0.903915
1.30918
1.30126
-1.0432
-0.796829
1.0554
1.67893
1.32801
1.21724
-0.99176
1.63253
-0.276029
-0.295439
-0.221633
0.947623
-0.706893
1.41426
1.54728
-0.372977
-1.18574
1.29788
-0.623606
1.27375
1.33639
1.22921
-0.941557
1.307
-0.0735798
1.34284
-0.0641976
-0.565992
-0.145304
1.31169
-0.429184
-0.545664
-1.06438
1.36243
-1.04732
1.42594
0.75972
1.57739
1.17838
-0.833446
1.31733
-1.00695
1.24857
1.26209
-0.262177
-1.23747
1.3484
1.28225
1.45891
1.23229
0.603048
1.22538
1.32477
1.0828
1.31178
-0.291949
-0.897456
-0.591473
1.45067
-0.984308
-0.688685
-1.01687
-1.1268
-0.602888
0.420359
1.04217
-0.488219
1.30098
1.36295
-0.970779
-0.275508
-0.721628
-0.354443
-1.03401
-0.999805
1.29893
-0.638326
1.32316
1.60942
1.37027
-0.197062
1.32928
1.20263
-0.693132
1.31435
1.27164
-0.724515
1.27474
1.13176
-0.489686
-0.621742
1.78598
-0.107512
-0.681996
-0.415376
0.737183
1.30847
-0.817217
-0.999744
-1.01433
1.42141
-0.59822
1.03035
1.30471
1.3264
-0.469381
1.33059
-0.844172
1.31681
1.33295
-0.446862
1.32533
0.620214
1.33074
1.15229
-1.2594
0.144444
-0.0435257
-0.740701
1.50036
0.305283
1.31439
1.67247
-0.677064
0.0687658
1.38231
0.107697
1.37946
0.064653
0.163353
1.36898
1.37382
0.906884
-0.338551
0.926206
-0.98434
-1.01982
-0.792012
1.32514
1.34417
1.77881
-0.341232
-0.23709
1.19111
-0.461312
1.35329
1.21413
1.34432
1.28906
1.29928
-0.878339
-0.341945
-0.43552
1.01255
1.17911
-0.994774
-0.990723
-0.362744
1.33084
1.37312
-0.919531
-0.933441
1.341
-0.0010513
0.31862
0.938313
1.11044
-0.258615
-0.426529
-0.211097
-0.466264
-0.996687
-0.770983
-0.145315
1.74506
1.61818
-0.78278
-0.484746
1.32863
1.30726
-0.829569
0.475928
0.195981
0.801952
1.39121
-0.323789
1.3123
0.671685
-0.412128
-0.897025
-0.738382
-1.12831
1.33057
-0.468292
-0.385676
1.63201
-0.451422
1.31439
1.48191
-0.98465
1.45988
1.6413
-0.884738
1.48099
-0.438396
-0.396219
1.25602
-0.0594079
1.43367
1.31946
-0.425776
1.40476
0.659826
-1.1021
1.34205
1.4494
-0.293272
-0.480598
1.20482
1.30608
-0.392434
-1.05441
1.52631
-0.414301
1.1633
0.575654
1.30491
-0.33398
-1.39079
-0.366608
-0.855763
1.30885
1.38006
1.67392
1.43977
1.17717
1.36235
1.27637
-0.360199
1.35599
1.54742
-0.9466
-0.40354
-0.734028
1.57289
0.343356
-0.381433
-0.687967
1.13078
-0.930143
-0.736613
1.22668
1.44008
-0.374309
-0.982802
-0.387529
-0.594349
-1.21391
-0.908255
-0.35425
1.07719
1.32941
-1.00537
-0.506303
-0.261726
1.02077
-0.41245
-0.822748
-0.349346
1.3752
-0.439927
-0.972723
1.70862
1.26441
0.882132
1.59226
-0.604696
1.40573
1.31018
1.46456
1.6049
-0.250621
0.839526
1.21831
0.768149
-0.344931
1.72881
1.3322
1.30837
1.41657
-0.961069
-0.478003
1.25689
0.999315
1.30645
-0.800025
-1.1099
1.31341
-0.350371
1.23736
-0.0211433
1.67775
-0.342187
0.902116
1.19261
-1.01725
-0.340141
-1.27565
1.46242
-1.0145
-0.33981
1.15928
0.767416
-0.576219
1.36289
1.26063
-1.01027
-0.682058
1.21165
-0.78807
-0.340113
-0.364243
-1.01381
-0.18755
1.23864
1.35258
-1.48208
1.08665
1.32382
1.62957
0.779682
0.393209
0.083431
1.31605
0.116841
-1.01906
0.182447
-0.638658
-1.02006
1.28075
-1.02215
0.26702
-0.339709
0.689544
1.04389
-1.01977
1.10205
-0.961722
0.978887
-1.01957
0.603933
-1.02071
0.882538
-0.341915
0.507822
-1.02013
1.26536
-0.530869
-1.02442
-1.03608
-0.341743
1.3267
0.610712
-1.06818
-0.348513
0.113658
0.22253
-1.03073
-0.34193
-1.11312
0.419683
-0.361243
-0.0748798
-0.391341
-0.314787
-1.19676
0.265303
1.12893
-0.260289
-0.717047
1.25406
0.000855642
-0.406141
0.93235
1.3104
-1.19218
-1.20362
-0.344838
-0.654812
1.2877
1.69713
-0.781411
-0.337341
0.550708
-0.459737
-0.335103
0.197854
1.23417
-0.719528
1.30543
-0.75522
1.75703
0.929662
1.78459
-0.991641
1.58874
-0.602952
1.41981
-0.212542
-0.342826
1.48884
1.33235
-1.30554
-0.340286
-1.02536
1.20714
-1.06466
1.2813
-0.88131
-0.356036
-0.369721
1.60539
1.30142
1.51957
1.28146
1.33415
-0.322691
0.0604766
1.4405
-0.694426
-0.487811
1.68278
-1.00215
1.16823
1.34483
1.69192
1.77242
-1.01726
-0.330703
1.36621
0.735038
0.10944
-0.983929
-1.22941
-1.38056
-0.982978
1.0095
-0.71004
1.59922
-0.595062
1.26164
1.39206
1.28877
-1.16224
-0.320268
-0.50428
1.41098
-0.525348
1.40264
-0.817108
-0.638476
1.47892
1.68566
-0.347461
0.163573
1.29454
-0.540591
-0.782301
1.11159
1.51771
1.58356
-0.980127
1.12389
1.03299
-0.342459
1.59989
0.388657
-0.998823
0.613681
0.30102
-0.542647
1.34746
-0.550067
0.360897
0.474768
-0.673871
-0.587258
-0.334063
1.27069
-1.23353
1.27677
-0.0603751
0.605147
1.13317
0.764603
-0.341191
-0.682688
-0.543895
-0.240136
0.229252
-0.93064
1.13159
-0.603016
-0.49071
1.25186
-0.46075
-0.944301
1.32791
-0.216846
1.17461
0.219754
-0.343704
0.230672
1.21842
-0.219859
-0.361417
1.29901
-0.364098
1.41293
0.000354833
-0.558023
-0.478514
-0.342128
1.83591
-1.15265
1.50406
0.268289
1.30389
1.47523
1.16239
1.3885
1.387
-0.0955414
-0.511044
1.31961
1.48772
1.71552
-0.459757
1.32907
0.829652
-0.445498
1.2298
1.60514
-0.642847
1.59521
0.220542
-0.760538
1.2723
-0.432042
-1.02693
1.30321
-0.509232
1.39155
1.4709
1.21006
-0.804032
1.11759
1.50308
-0.89166
-0.326348
-1.09679
-1.39139
-0.52764
-0.340523
1.72841
1.19915
-0.871697
1.34281
-0.419716
-0.549634
1.6588
1.46123
-1.28555
-0.54811
-0.340876
-0.357041
1.3454
-0.897939
0.600084
-0.973873
-0.447403
1.3917
-0.397359
1.64825
1.33539
1.28565
1.29744
1.54905
-0.60571
-0.409219
1.38779
1.53175
-0.634149
1.34394
-1.14093
-0.363468
-0.385236
1.29773
1.33227
-0.370607
-0.892918
1.0154
0.467826
-1.21332
1.26474
1.15635
-0.649326
1.20282
1.25222
-0.280365
-0.938521
-0.84013
-0.35708
-0.381195
1.68786
0.0710662
1.103
-0.92086
1.69133
1.12152
1.0468
1.16629
-1.21503
-0.975407
-0.35107
0.658596
-0.978572
1.35034
0.79188
-0.631069
1.07257
1.42523
1.3482
1.29018
0.0319192
1.35826
0.0532612
0.898503
1.00766
-0.645733
-0.954964
-1.12866
-0.807181
1.32637
1.39342
1.32703
-0.386633
-0.209771
-0.3463
-0.952558
1.31465
1.53571
1.32934
-0.967639
-0.610862
-0.624146
-0.612766
-0.340082
-0.342434
-0.206194
1.27884
-0.710365
-1.00819
0.288311
0.43829
0.87576
-1.72602
-0.343265
-0.224389
1.16243
1.74803
-0.179217
1.43779
1.7804
0.805191
1.4691
-0.935673
0.469078
1.76545
-0.340782
0.806682
-0.988001
-0.383041
-1.02078
-1.01634
1.35854
1.18479
1.42132
1.37755
-0.0220707
1.22499
0.0891242
0.142163
-0.339539
1.43763
0.878085
1.32609
1.34225
0.220888
0.0789274
1.35009
-0.480444
-0.345109
-1.01285
-1.03546
1.04802
-1.01857
1.30104
1.1271
-0.342457
1.62367
-0.960462
-0.35605
1.31259
-0.577378
-0.504053
-0.526781
0.730925
-1.00281
-1.17304
1.09854
1.33424
-0.575467
0.5714
-0.694609
-0.33925
-0.0168241
-1.26793
0.356011
1.06818
-0.565437
-1.02007
1.50608
0.336111
0.454073
-1.0201
-0.387354
1.31705
1.46024
0.648904
1.00994
-1.01944
-0.471225
-0.175233
0.55976
0.926735
-1.0197
1.07174
0.199448
-1.02038
1.71199
-1.02717
-0.427932
-0.378731
-0.952796
1.28205
-1.04724
-0.872311
-0.352073
0.529463
-1.08742
0.0306504
-0.766355
0.337759
1.41813
-1.1471
0.363248
-0.376156
-0.179172
1.59304
1.75626
1.46549
1.31957
1.43784
-0.874347
1.29844
-0.952475
1.45644
-0.345889
-0.306689
1.64935
-0.228174
0.95231
-1.31456
1.74279
-0.02102
1.68737
0.729153
0.963712
-0.995722
-0.976486
-0.343184
-1.16113
1.62927
1.44227
1.28928
1.07676
1.31378
1.30365
0.97755
-1.01002
-0.349272
0.315996
-0.437235
0.94753
1.31741
0.493843
-0.995762
-1.01434
-0.298532
-0.343427
-0.336342
1.71795
1.33719
1.31261
0.204168
-0.028697
1.34615
-1.11636
-0.34065
-0.986904
-0.451203
0.934176
-1.00672
-1.01905
0.23723
1.27801
-0.430922
-0.377385
1.3108
1.0749
1.13802
1.29953
-0.340342
1.04146
1.5498
1.27895
-0.34051
1.31706
0.846744
0.559523
-0.585185
-1.01556
1.73425
0.749166
-1.03072
0.560271
1.08835
1.20249
-0.477783
-0.506361
0.339589
-1.08417
-0.28159
-0.864917
0.450186
1.29144
-0.931873
1.25591
1.63307
1.49976
1.23374
1.30535
1.37844
1.30587
-0.591232
-0.0813813
-0.467729
-0.41606
-0.218492
-1.01874
1.39802
1.26106
-0.418934
1.33897
-0.658756
-0.376187
-1.02309
-0.651881
1.00067
-0.274707
1.28444
1.07873
-1.27967
0.156548
1.64289
-0.373016
0.187512
-0.242063
-0.85419
-0.994002
1.37653
0.928188
1.48023
-0.4873
-0.849781
-0.316304
-0.40162
-0.424672
-0.593547
-0.86061
-0.593716
1.08969
-0.153721
1.80725
-1.29614
-0.000821251
-0.371227
-1.01757
1.31172
-0.386448
-0.508732
-0.238757
0.231519
1.41741
1.5914
-0.890353
-1.11952
0.986405
-0.35979
-0.256563
1.47835
-1.14394
-0.728965
-1.21261
0.900001
0.131651
-0.431159
1.29167
0.0592354
-1.07651
1.2902
-0.648705
-0.799258
-0.940199
-1.1153
0.465361
-0.431256
1.56293
-0.344055
0.671881
-0.34614
0.947074
-0.992601
-0.578539
0.776334
1.18591
1.37737
1.3137
1.42942
-1.04052
1.24135
1.00999
-0.831122
1.16027
-0.421714
-1.0788
-0.488719
1.55487
1.53728
-0.983183
-0.607931
-0.53823
1.20409
-0.682891
0.145409
-0.24331
-1.02351
1.52536
1.21549
-0.986839
-0.806658
-0.988724
-1.00192
1.14665
-0.948323
1.17321
0.294318
0.845328
0.99838
-0.99811
-0.643074
1.12795
-1.02094
0.317856
1.59371
-0.352496
-1.00431
0.974442
-0.891557
-0.841211
0.355366
-0.483173
1.67967
-0.0492542
0.652208
-0.982532
1.68435
-0.965437
-0.788805
0.770666
-0.254529
-0.3457
1.67829
0.805337
1.42552
-0.859642
1.45961
-0.398947
-0.170127
-0.886472
-0.882847
-0.959379
1.4972
0.692139
-0.379036
-0.972249
-0.442503
1.3661
-0.718822
1.66338
-0.345139
0.887348
-1.01211
0.456225
0.649482
0.609907
0.51626
0.688465
-0.745598
1.21442
-0.897561
-0.796671
-0.25987
0.772221
1.6979
0.249097
-0.831231
-0.957521
-1.01012
0.33318
-1.27607
-1.01374
1.28275
0.693715
-0.994085
1.75286
-0.436118
-0.832075
1.69302
-1.00433
0.200579
-0.695757
-1.02043
-1.01763
1.73087
-1.01885
1.62518
-1.01825
-0.68367
1.41746
0.336161
-0.754619
0.680582
-0.473611
0.0452943
0.147187
-1.01398
1.22472
-0.332083
-1.01061
-1.01996
-1.02209
-0.350197
1.25267
-0.155384
0.117721
-0.990772
1.64534
-0.258661
-0.825986
-0.964235
0.365828
-1.16701
-1.00408
-0.998908
0.451539
1.47708
-0.954034
-0.339959
-0.989499
-0.117499
-0.247337
-0.35476
1.72539
1.64868
0.506449
-0.647456
-0.347656
0.408232
-0.345576
1.72541
0.268434
1.48324
0.835429
1.66635
0.131432
-1.17258
-0.615531
-0.0455784
-0.892253
-0.0455784
0.41663
-1.01849
1.63206
0.278779
0.282362
0.159813
-0.331188
-0.687743
)
;

boundaryField
{
    frontback
    {
        type            empty;
    }
    Top
    {
        type            zeroGradient;
    }
    outlet
    {
        type            fixedValue;
        value           uniform 0;
    }
    bottom
    {
        type            zeroGradient;
    }
    Inlet
    {
        type            zeroGradient;
    }
    rectangle
    {
        type            zeroGradient;
    }
}


// ************************************************************************* //
