/*--------------------------------*- C++ -*----------------------------------*\
| =========                 |                                                 |
| \\      /  F ield         | OpenFOAM: The Open Source CFD Toolbox           |
|  \\    /   O peration     | Version:  2306                                  |
|   \\  /    A nd           | Website:  www.openfoam.com                      |
|    \\/     M anipulation  |                                                 |
\*---------------------------------------------------------------------------*/
FoamFile
{
    version     2.0;
    format      ascii;
    arch        "LSB;label=32;scalar=64";
    class       volScalarField;
    location    "29.3";
    object      p;
}
// * * * * * * * * * * * * * * * * * * * * * * * * * * * * * * * * * * * * * //

dimensions      [0 2 -2 0 0 0 0];

internalField   nonuniform List<scalar> 
2186
(
0.98732
-0.137342
0.169438
1.29903
-0.797076
0.115632
0.895319
-0.687417
-0.768672
1.55145
1.25214
-0.728045
-0.661787
1.23309
-0.363706
1.24014
1.26249
-0.841256
0.152322
-0.699632
1.6305
-0.680066
1.24231
-0.806822
1.23384
1.27289
1.45815
1.12476
0.787495
1.23358
-0.68109
1.23399
-0.643041
-0.509401
-0.763362
0.292771
-0.561415
1.6169
-0.532055
0.0684904
-0.667419
-0.655997
-0.47895
-0.791581
1.11385
1.53256
0.562119
0.731754
-1.32283
-0.725528
-0.686451
1.09572
-0.472886
1.54583
-0.672108
1.17527
-0.531437
1.20347
-0.599064
1.02519
-1.01486
0.83984
0.750712
0.0616456
0.774084
0.672298
0.866017
1.5216
1.41749
-0.776439
-0.693192
-1.02657
1.49376
1.22539
1.40358
1.38906
-1.17806
1.25723
-0.775541
-0.596249
-0.853293
0.0298911
1.22929
0.821692
1.222
1.23013
1.52415
0.144232
-0.211366
-0.767118
1.17561
-0.688469
1.14638
1.39572
1.24299
0.611615
0.0441274
0.791345
-0.765036
1.21746
-1.17213
-1.04146
0.849888
1.16487
1.26432
-0.670214
1.42899
-0.449413
1.15597
-1.1051
-0.573543
-0.735955
0.758789
1.53914
-0.789927
-0.634208
-0.126996
-1.52734
-0.767025
1.49678
0.15203
-0.731036
1.05544
-0.948778
1.24507
-0.274665
-0.767857
1.37817
-0.884643
0.875855
1.62742
1.47687
0.450134
0.867471
-0.967891
-0.718927
1.14538
-0.684289
-0.475053
-0.743882
0.997669
-0.00837596
-0.690836
0.919978
1.13441
1.17371
-0.428983
-0.795935
0.825228
-0.74547
-0.72848
0.79551
1.26031
1.41872
1.27318
0.742316
1.51748
0.640146
0.54066
0.635893
-0.749765
-0.816858
1.21412
1.21363
0.146922
0.212905
-0.672404
-0.753032
-0.489455
-0.567887
0.551749
1.22232
1.26331
1.34306
0.616464
-0.139171
-0.808695
1.2157
-0.831696
1.0675
-0.737948
1.24833
-0.690042
0.742724
0.721619
-0.802738
-0.68541
1.34776
-0.392097
-0.641392
-0.777431
1.48996
-1.06954
1.20214
-0.750452
-1.06162
0.260686
1.40996
1.28188
-0.684204
-0.761812
-1.31146
0.292082
1.26416
-0.748725
-0.764652
-0.77152
-1.51449
1.1806
-1.03231
0.733345
-0.169254
1.52772
1.02745
1.12516
1.17618
1.40154
1.23756
1.12266
1.32135
0.583998
-0.630629
-0.665325
0.281512
0.400489
-0.820647
-0.777365
1.25019
1.366
-0.849366
-0.685027
-1.59977
0.585046
0.870302
0.998276
1.12446
1.35577
-1.11236
1.10887
-0.726202
-0.745841
-0.641459
1.20993
0.927167
1.36865
1.41334
1.32792
1.30379
-0.718442
1.05046
1.34341
-0.695564
1.1958
0.9755
-1.57178
-0.771178
-0.812531
1.3693
1.26187
-0.651242
-0.586785
-0.968752
1.18448
-0.960501
0.957276
1.29026
1.08346
-0.790574
-0.683553
1.21162
0.836987
-0.357611
-0.362067
1.57166
-0.758999
-0.7069
1.06475
1.42322
1.22379
-0.783137
-0.895726
-0.608625
1.13593
-0.681111
0.763883
1.20786
1.24899
-0.00210786
-0.245137
1.19929
-0.817483
1.15365
1.43458
1.25741
1.25458
-0.940424
-0.695296
-0.829985
-1.04204
-1.63442
-1.11517
0.594565
-0.360988
0.803137
1.40981
1.42484
1.13761
-0.491789
1.37597
-0.830602
-0.175706
-0.746126
-0.753534
-0.636074
0.564636
-0.724193
-0.709788
0.345776
1.15249
-0.844072
0.570232
-0.712822
-0.324595
-0.629979
-0.740527
1.45375
0.159638
-0.746413
-0.682113
1.01411
0.76474
-0.25103
0.737065
-1.01169
-0.645245
0.857319
1.26082
1.28997
-1.23745
1.38651
1.1175
0.567752
1.48741
1.23566
1.16787
0.577245
-0.722614
-0.738227
1.08263
-0.786755
-0.814185
-0.809592
-0.649707
-0.771887
1.58878
-1.27962
-0.687838
-0.712429
1.23511
-0.81738
-1.50267
-0.681279
0.984756
-0.469664
-0.811609
1.48793
1.54833
1.36474
-0.685758
-1.0083
1.60229
1.23964
-0.796219
0.647595
-0.722821
0.384909
1.40988
1.20474
1.09991
1.54385
-0.32586
-0.772171
-0.742413
-0.593351
-0.946378
-0.662537
0.0209232
1.53026
-0.824393
-0.753627
1.22666
0.80391
-0.770867
-1.14939
-0.733302
-0.76321
-0.785192
-0.75659
-0.663233
-0.767771
1.42749
-0.606035
-0.619211
1.25031
-0.846123
1.50637
-0.826663
-1.38364
-0.670001
1.23332
-0.736719
1.26031
1.07526
-1.56158
1.27263
-0.72284
-0.762303
-0.757003
1.24628
1.17227
-0.784485
-0.726559
-0.744314
1.20256
-0.842692
-0.518259
0.703634
1.17669
1.10626
0.924886
-0.771463
-0.836368
1.05631
-0.537868
1.02814
-0.652067
1.25622
0.139039
1.36857
-0.766647
1.08071
0.918137
1.26742
-0.802869
1.23295
-0.604104
-0.761999
1.23651
-1.53524
0.325963
-0.658631
0.024949
1.24169
0.312556
0.50267
1.24087
0.42806
0.0656265
0.208729
-0.687857
0.451645
-0.657657
0.914295
-0.505322
1.28796
1.37383
-0.722861
-0.75343
-0.854632
-0.676088
0.627403
-0.635866
1.0407
0.17248
-0.656368
1.32994
-0.830309
0.562394
0.51207
-0.54639
1.0021
0.533418
-1.05672
-0.45566
-0.509242
-0.616568
1.25221
-0.678334
1.34165
1.4701
1.45545
0.856297
1.38583
-0.775961
-0.605946
1.12464
0.431922
1.22769
-0.67256
-0.634793
-0.856912
1.01191
-0.756709
-0.743468
-0.700003
-0.741376
0.268171
-0.551109
0.945739
0.923728
-0.489082
-0.447329
0.975764
0.28753
1.35511
-0.512356
-0.00717596
-0.756472
0.964449
-0.488713
1.41446
1.61682
-0.939729
-0.774664
-0.661301
0.49103
-1.09233
1.2745
-0.461252
1.22853
0.979341
-0.835975
1.09574
1.05744
-1.4376
1.10282
-0.974741
-0.695027
-1.14121
-0.725944
-0.904853
-0.970414
-0.61794
1.23669
0.403075
-0.74788
0.812311
1.38467
1.45638
-0.153071
0.972055
-0.400608
1.00381
-0.463686
-1.14111
-0.705219
0.695204
1.02925
1.28715
-0.531187
-0.768498
-0.955878
-0.764903
0.0955305
0.955378
-0.428946
0.0983077
-0.719041
1.16097
-0.93555
1.18966
-0.976563
-0.589797
1.17957
0.880147
-1.08835
-0.00252657
1.20044
1.53889
1.25833
-0.694484
-0.822652
1.02359
-0.915959
1.00983
-0.41291
0.640706
1.19768
-0.629674
-0.685758
1.24565
-0.867554
1.46707
0.246432
1.10728
-0.204251
0.843318
-0.772322
1.47483
-0.688776
-1.06758
1.17549
0.720793
0.703072
-0.706362
-0.689877
-0.498257
1.00015
-0.261789
-0.755037
-0.581655
1.25274
0.591695
-0.750917
0.962235
1.11132
1.22084
-0.564087
-0.602785
-0.69485
1.24998
1.39922
0.711781
1.246
-0.257203
1.28776
-0.11312
-0.526458
-0.703874
1.15292
1.20037
-0.82947
1.06125
-0.691417
1.02744
-0.793977
1.21847
1.18061
1.25359
-0.664882
1.14549
-0.924989
-0.582036
1.40439
-0.972181
-0.447509
1.3475
-0.709076
1.3284
-1.18693
-0.698627
1.26225
1.00692
1.60752
1.23536
-0.904642
1.32282
1.31604
-1.16839
0.839455
0.0132509
-0.77125
1.73466
-0.739575
1.36255
-0.736022
0.516508
1.23604
-0.723772
1.22661
-0.456901
1.14023
1.17949
1.24952
0.0630013
-0.628057
-0.406003
0.795596
0.883884
1.29956
-0.577025
1.04076
-0.608637
-0.222604
-0.91065
1.06002
1.38812
-0.681882
-0.845596
-0.151813
1.47297
-0.374972
0.944117
-0.23892
-1.27674
-0.706129
-0.695518
-0.622287
1.02818
-1.26211
-0.995593
-0.143175
-0.347617
-0.718791
-0.775034
-0.563476
1.20669
1.25562
-0.701991
-0.173437
1.22051
1.16575
1.25522
-1.19338
1.21876
1.28909
1.23102
1.29836
-1.56692
-0.375681
-0.686538
0.824324
1.23681
0.932953
0.369789
0.0748075
-0.895231
0.0305811
1.50609
-0.62198
-0.0891837
-0.47008
-0.243359
-0.673551
1.00266
-0.829275
-0.87387
-0.762496
1.23789
1.23739
1.24843
0.0211878
0.544943
1.48348
0.201659
1.23246
-0.272528
0.0863447
0.976406
1.25553
1.3129
0.110978
1.21433
1.2123
-0.947789
-0.0763969
1.24881
1.26079
1.25719
-0.755005
-0.810135
1.25697
0.83306
1.23793
0.400614
0.0528092
0.131364
-0.510886
-0.527582
-0.680855
-0.520555
-0.490554
1.26301
1.26751
0.979254
-0.775666
1.23766
0.252333
-0.0473695
0.00716223
1.23486
1.26125
1.25781
1.27105
1.24835
1.24169
1.23249
-0.432263
-0.120748
0.0108333
0.0131161
0.0569225
0.0304964
-0.0175928
0.221624
0.290906
0.186698
-0.405164
1.22928
1.24987
1.24453
1.26764
1.26549
1.25777
1.2613
1.23919
1.24608
0.255652
-0.0309227
1.25861
1.25728
0.00512463
1.25959
1.25831
0.0421231
-0.0149967
-0.0188926
-0.819616
-0.602382
1.24093
-0.688599
1.23758
0.853249
1.31517
-0.741657
1.237
1.18082
1.18269
-0.683992
-0.704421
-0.65755
0.0772474
0.142118
-0.68413
1.25433
0.0682282
1.32924
1.24447
0.00288267
1.40281
1.55282
-0.125942
1.10819
0.891038
1.23728
1.25514
1.24697
-0.74322
0.687486
0.104964
1.24351
1.25235
-0.649221
0.12529
1.24512
0.0926127
-0.163133
1.24449
-0.530543
1.22536
1.25695
-0.593715
1.24938
-0.288629
1.2402
1.31753
-1.11596
1.25474
1.26253
0.21842
0.91227
1.24103
1.24692
0.354104
-0.592408
0.946262
1.60179
1.25328
1.24314
1.24828
-0.0315292
1.24338
1.22841
1.24992
1.24381
1.24642
1.2421
1.34859
-0.923847
-0.545248
1.24474
1.23947
0.492811
-0.540736
-0.971294
-0.905814
1.11231
-0.656201
-1.09174
0.121961
1.24078
0.954308
0.253987
-0.884016
-0.07496
-0.78989
-0.648644
-0.246448
-1.27815
-0.764527
-0.16154
1.24815
0.0794461
1.23561
1.16063
-0.756735
1.47839
-1.06569
-0.69582
0.977743
1.36279
0.660823
-0.764805
1.24044
-0.47444
1.24637
-0.737483
1.2465
-0.906185
1.23847
-0.330336
-0.957702
1.2488
1.26334
1.1883
-0.634319
-0.766522
-0.528851
-0.580878
1.26029
1.14459
-0.340362
1.23926
1.28203
1.23291
-0.345569
-1.10195
-0.467744
-1.5529
0.54813
1.24569
0.0616994
1.24219
-1.27921
1.24048
1.27916
1.25018
0.0229611
0.0208901
1.27604
-0.721483
1.25218
1.25583
0.227474
-0.676445
1.17105
1.37755
1.23623
1.23414
-0.770249
-0.974023
1.20987
0.636438
1.2509
1.07739
-0.798711
-0.699882
1.08909
1.48988
1.24141
0.565187
-1.12167
-0.272519
-1.69381
-1.16708
1.22407
-1.07534
1.22706
-0.918252
-0.747932
-0.78152
0.677273
-0.800176
-1.37527
-1.09792
1.23735
-0.765698
1.14254
-0.729302
0.0416074
-0.738965
0.236801
-1.23497
1.21336
-0.284573
-0.746061
-0.989356
-0.733617
1.22741
-1.16028
0.279531
-1.36338
1.32394
-1.34443
-0.734494
1.30973
1.22578
1.21595
0.701133
-0.736035
1.24606
1.27271
-0.480119
-0.728539
1.23673
1.02812
1.48951
1.25839
-1.32583
-1.19832
-0.718244
-0.733986
-0.795659
-0.760884
-0.170704
-0.893862
1.03214
0.195623
1.24707
1.45155
1.23703
-0.764981
-0.780683
1.23911
-1.49581
-1.16436
1.21649
-0.0502551
-0.814642
-1.28025
-1.1602
1.1925
1.16466
-0.467571
1.06536
0.909407
-1.60663
1.22211
-0.881587
1.05556
-0.661107
1.21818
-1.83451
0.644193
1.23993
1.32842
-1.3747
-0.979211
1.07446
1.61389
1.26051
1.25486
-1.24212
1.49465
-0.813991
-1.26428
-0.618123
0.696746
-1.51859
1.35198
1.40263
-0.720285
-0.521636
1.23718
-0.634509
1.08198
1.27003
1.21025
-1.3472
1.24077
0.0552538
1.26723
0.0580298
-1.1644
0.0557194
1.2436
-0.0164167
-0.291776
-1.47489
1.23701
-1.27619
1.4288
0.484745
1.55882
1.22261
-0.622878
1.21835
-0.698615
1.21602
1.21566
-0.991523
-1.38391
1.36425
1.23035
1.46028
1.19827
0.299172
1.20199
1.22547
1.11095
1.24799
-0.868612
-0.781773
-1.56642
1.33755
-0.44476
-0.900517
-0.690596
-0.473852
-1.45189
-0.0412139
1.104
-1.29854
1.1912
1.2457
-0.734403
-0.827622
-0.674363
-0.647975
-0.686379
-0.70355
1.24577
-1.63588
1.25758
1.48075
1.29704
0.0117697
1.26428
1.17774
-0.460205
1.19621
1.22573
-0.781257
1.22465
1.18152
0.0584392
-0.786228
1.70597
-1.66718
-0.820769
-0.676686
0.458944
1.21557
-0.865402
-0.795162
-0.681879
1.37971
-1.05864
1.09382
1.25697
1.22123
-0.552338
1.20433
-1.59584
1.25419
1.26883
-0.237156
1.25853
0.735076
1.22713
0.937993
-1.38258
0.0826398
-0.000962199
0.0879868
1.48073
0.253806
1.2728
1.63173
-0.614611
-0.0034724
1.30564
-0.00429239
1.30269
0.0192404
0.0905273
1.30368
1.30841
0.651467
-0.922519
1.00333
-0.613243
-0.707638
-0.509754
1.26442
1.23381
1.67811
-0.7654
-1.23712
0.974675
-0.657388
1.31979
1.23618
1.22609
1.23343
1.19462
-0.860756
-0.761396
-0.760326
1.05986
1.16871
-1.59261
-0.715207
-0.737369
1.25553
1.27117
-0.465566
-1.04222
1.27848
-1.73211
0.453405
1.01396
1.16397
-0.786527
-0.681463
-0.0104947
-0.625425
-0.643756
-0.440558
-1.74234
1.6301
1.59717
-0.835965
-0.615243
1.25585
1.23222
-0.801108
0.148115
-0.146664
0.89467
1.33979
-0.873298
1.2489
-1.59913
-0.688231
-0.671557
-0.827673
-0.780015
1.22036
-0.616869
-0.78911
1.60003
-0.62716
1.25017
1.47006
-0.716618
1.28981
1.50482
-0.791515
1.48108
-0.638418
-0.718944
1.26821
-1.11077
1.25799
1.2515
-0.652254
1.29754
0.367846
-0.903642
1.28566
1.27707
-0.702419
-0.776073
1.19405
1.2427
-0.69267
-1.50096
1.51971
-0.66615
1.15867
-0.435986
1.1778
-0.765981
-0.812696
-0.725869
-0.803997
1.33491
1.27094
1.54419
1.44608
1.22187
1.30459
1.30734
-0.734254
1.37496
1.39289
-0.753594
-0.679484
-0.783551
1.55935
-1.57873
-0.725294
-0.00860896
1.18212
-0.76675
-0.862293
1.26479
1.26601
-0.716491
-0.722757
-0.712141
0.187395
-1.4957
-0.779324
-0.741297
1.13541
1.13532
-0.702793
-0.248961
-0.663302
1.08668
-0.6697
-0.81956
-0.747161
1.18836
-0.874999
-0.731638
1.58595
1.13149
0.622016
1.44737
-0.535908
1.22522
1.25626
1.36294
1.46102
-1.16003
0.928386
1.25467
0.491936
-0.751883
1.66792
1.19894
1.14404
1.30149
-0.742134
-0.783505
1.08786
1.05345
1.20328
-0.79443
-1.0927
1.2282
-0.753029
1.05659
-1.20305
1.6481
-0.755991
0.982733
0.977099
-0.691094
-0.759372
-0.748472
1.30344
-0.694226
-0.767667
0.937568
0.865178
-0.766426
1.31299
1.07142
-0.6978
-0.92959
1.20486
-0.695525
-0.762323
-0.742077
-0.681911
-0.515773
1.22956
1.24953
-1.03856
0.855422
1.24767
1.58584
0.50357
0.534462
0.263132
1.12354
-0.236364
-0.689113
-1.59881
-0.375285
-0.687617
1.23906
-0.686535
0.422637
-0.763869
0.796807
0.804575
-0.685765
0.872261
-0.54684
0.730434
-0.684355
0.721268
-0.690244
0.623149
-0.766919
0.636437
-0.682998
1.05939
-0.838326
-0.685018
-0.693025
-0.769417
1.25856
0.315349
-0.722931
-0.772339
0.286875
0.365406
-0.685149
-0.766418
-0.767374
0.104673
-0.785609
0.119967
-0.819271
-0.0914142
-0.847128
-0.0704008
1.14022
-0.0186091
-0.799752
1.23006
0.16305
-0.171871
0.676393
1.21024
-0.92124
-0.991567
-0.769178
-0.842336
1.12729
1.65598
-0.507525
-1.41241
0.245899
-0.623481
-0.153538
-0.147766
1.22216
-0.806804
1.1917
-0.989243
1.71773
0.681558
1.67943
-0.715261
1.44228
-0.33535
1.25362
-0.554077
-0.768395
1.32428
1.23499
-1.22531
-0.764226
-0.690069
1.22205
-0.60639
1.2306
-0.77976
-0.746997
-0.723914
1.54991
1.28614
1.36038
1.26404
1.25801
-1.47729
-0.310436
1.4461
-0.550023
-0.619017
1.65004
-0.704943
1.16173
1.18992
1.61794
1.6803
-0.691384
-0.939847
1.27763
0.449991
-0.242972
-0.642573
-0.646172
-0.847342
-0.721742
0.780822
-0.869671
1.45365
-0.498709
1.29077
1.37975
1.28628
-0.860047
-0.776959
-0.66143
1.33148
-0.65761
1.41491
-0.527841
-0.746814
1.47816
1.56045
-0.771766
0.329389
1.18474
-0.734258
-0.809061
0.891112
1.51172
1.46845
-0.75801
1.12944
1.0931
-0.765751
1.48183
0.528855
-0.708311
-1.27853
0.102486
0.0207292
1.36135
-0.68722
0.505506
-0.200176
-0.122723
-0.78464
-0.785116
1.23839
-1.12807
1.27117
0.137387
0.310094
0.920013
0.480137
-0.766749
-0.414699
-0.988181
-0.567435
-0.0479552
-0.872028
1.18043
-0.798009
-0.59451
1.26005
-0.678844
-0.756972
1.25601
-0.903908
1.2167
0.0967032
-0.757759
-0.128079
1.02102
-0.692703
-0.885896
1.12232
-0.737634
1.31427
-0.371043
-0.688814
-0.613229
-0.766267
1.74408
-1.41834
1.36748
-0.184105
1.20301
1.43237
0.951474
1.26386
1.4006
0.0798163
-1.3966
1.20828
1.33669
1.6114
-0.619194
1.29506
0.918382
-0.630517
1.02219
1.46184
-0.382753
1.57844
0.382248
-0.856971
1.07091
-0.644499
-0.688623
1.17929
-0.26814
1.29917
1.30268
1.21021
-0.832681
1.15543
1.49983
-0.808307
-0.118555
-1.56077
-1.03012
-0.666825
-0.7621
1.60957
0.984203
-0.799176
1.15154
-0.658971
-0.675869
1.52571
1.46442
-1.01207
-0.800712
-0.76654
-0.743579
1.21252
-0.785792
0.29166
-0.672474
-0.243033
1.30678
-0.686466
1.62296
1.29356
1.11122
1.27131
1.53919
-0.738677
-0.672308
1.25372
1.38872
-0.851159
1.24734
-1.26443
-0.729299
-0.702919
1.32612
1.35463
-0.720256
-0.783154
0.775306
0.135365
-0.691963
1.22937
1.20431
-0.847742
1.24418
1.28669
-0.915345
-0.759456
-0.813173
-0.737645
-0.709948
1.56542
-1.03197
1.1578
-0.773833
1.56498
1.12954
1.10905
1.19454
-0.797134
-0.453364
-0.744364
0.768527
-0.726884
1.16004
0.520287
-0.378441
1.11447
1.24813
1.28255
1.25548
0.0246906
1.28179
0.0694357
0.635587
1.05062
-0.376297
-0.747093
-0.78643
-0.510851
1.25431
1.20971
1.25381
-0.871372
-0.605282
-0.749517
-0.622405
1.25255
1.52535
1.26571
-0.736543
-0.748888
-0.772723
-0.356548
-0.763925
-0.767135
-0.000840113
1.2427
-0.881489
-0.700025
-0.0446189
0.12094
0.960048
-0.962345
-0.754587
-0.883589
1.18796
1.6757
0.037005
1.34373
1.72618
0.898444
1.4501
-0.763955
-0.799261
1.6547
-0.757789
0.528337
-0.718741
-0.705221
-0.685377
-0.692575
1.21508
0.966383
1.43081
1.39328
0.0217655
1.01465
0.266069
0.0317231
-0.760821
1.35358
0.96179
1.26053
1.27728
0.200709
0.0259662
1.27314
-0.523531
-0.768874
-0.695739
-0.695912
0.814979
-0.689994
1.20122
0.90166
-0.758593
1.48393
-0.741235
-0.130989
1.2234
-0.730521
-0.642633
-0.664442
0.833235
-0.705316
-0.708799
1.15336
1.2688
-0.222195
0.25302
-0.661148
-0.763122
-0.77874
-0.771576
0.00729023
0.832415
-0.711818
-0.688784
1.50099
0.483935
0.588579
-0.686934
-0.700132
1.24384
1.28943
0.761052
0.765825
-0.684958
-0.618339
-0.611101
0.682372
0.672846
-0.683659
1.09066
0.36286
-0.68156
1.67706
-0.6858
-0.808348
-0.710039
-0.631838
1.08056
-0.703053
-0.794656
-0.775559
0.226497
-0.741738
0.213421
-0.830331
0.202205
1.41959
-0.8001
0.0397841
-0.802491
0.0279772
1.57514
1.64998
1.46742
1.2503
1.44428
-0.538026
1.23726
-0.748412
1.28571
-0.77011
-0.844866
1.51541
-0.631809
0.703369
-0.842866
1.64895
0.166682
1.58431
0.83137
1.01811
-0.711428
-0.727009
-0.769096
-0.68861
1.55497
1.43665
1.23571
0.852304
1.23859
1.10571
1.0479
-0.682403
-0.755033
0.479927
0.245043
1.02213
1.25329
0.187334
-0.708597
-0.679706
-0.994687
-0.768567
-1.31183
1.59866
1.27173
1.24828
0.173638
0.0254096
1.26938
-0.584302
-0.763047
-0.560182
-0.633843
1.01122
-0.69995
-0.684393
-0.102904
1.25099
-0.870772
-0.713516
1.23841
0.840737
0.941447
1.23829
-0.765757
1.10297
1.42907
1.07496
-0.765834
1.23113
0.582222
0.68168
-0.704337
-0.692251
1.68272
0.462591
-0.732469
0.234046
1.14138
1.21327
-0.621856
-0.767461
0.157157
-0.607647
-0.696261
-0.801357
-0.11188
1.23368
-0.776243
1.23543
1.5223
1.33647
1.23504
1.32454
1.38552
1.24174
-0.801453
-0.459061
-0.226475
-0.846763
-0.733255
-0.684492
1.3898
1.28844
-0.662519
1.19741
-0.817709
-1.08402
-0.685685
-0.958802
0.759593
-0.926983
1.23079
1.13626
-0.741681
-0.193677
1.57858
-0.950987
-1.207
-0.912285
-0.805979
-0.657315
1.28088
1.0035
1.33375
-0.689106
-0.587171
-0.728685
-0.172731
-0.655122
-0.53895
-0.859264
-0.745171
1.14393
-0.611255
1.70893
-0.937814
-0.389013
-0.794835
-0.683944
1.16188
-0.801831
-0.678859
-0.867627
-0.131374
1.42696
1.46467
-0.698238
-0.560245
1.05374
-0.784499
-0.746828
1.34298
-0.787139
-1.31281
-0.670801
0.979541
-0.241435
-0.647309
1.23396
0.237876
-0.671501
1.24733
-0.786159
-0.919287
-0.799075
-0.76557
0.115663
-0.646112
1.54859
-0.755143
0.372009
-0.769306
1.0211
-0.59642
-0.701257
0.872613
0.98636
1.29592
1.19713
1.41831
-0.701459
1.07509
0.770347
-0.830355
1.176
-0.189773
-0.600087
-0.781889
1.42161
1.40639
-0.585201
-0.730219
-0.704736
1.24485
-0.785014
0.297829
-0.966608
-0.687519
1.51513
1.24893
-0.718886
-0.822076
-0.717699
-0.705289
1.14758
-0.758005
1.21388
0.445485
0.933146
1.06532
-0.669589
-0.746835
1.17449
-0.687005
0.0147477
1.52229
-0.745118
-0.703098
1.0462
-0.827241
-0.80566
0.00152737
-0.625688
1.59814
-0.457272
0.349486
-0.724157
1.5579
-0.736869
-0.828767
0.867721
-0.933705
-0.770102
1.5821
0.898114
1.24932
-0.803752
1.46266
-0.988812
-0.655267
-0.79144
-0.792258
-0.742726
1.49454
0.798741
-0.713712
-0.733091
-0.635681
1.3662
-0.857526
1.53255
-0.769038
0.95567
-0.695688
0.589875
0.761055
0.726029
0.643181
0.401644
-0.836866
1.24562
-0.784496
-0.51805
-0.9014
0.488299
1.57454
-0.114934
-0.806208
-0.74924
-0.698332
0.480754
-0.931648
-0.693354
1.08029
0.398997
-0.711313
1.64181
-0.642413
-0.964952
1.60444
-0.701847
0.363313
-0.826191
-0.685141
-0.691113
1.61516
-0.679056
1.52127
-0.689586
-0.772732
1.41223
-0.0399666
-0.823517
0.788592
-0.622181
0.225744
-0.231964
-0.694425
1.03275
-0.779863
-0.694082
-0.686046
-0.686808
-0.772966
1.07095
0.0477808
-0.253126
-0.714328
1.54919
-0.66435
-0.81258
-0.664879
0.0388824
-0.821132
-0.673396
-0.708743
0.0896707
1.47755
-0.747084
-0.760867
-0.800287
-0.5734
-0.0353479
-0.77805
1.63797
1.5673
0.634324
-0.743961
-0.77008
0.547185
-0.766468
1.64739
0.42336
1.31684
0.924753
1.53681
0.301904
-0.830249
-0.726811
0.144938
-0.784953
0.14483
0.0933419
-0.689325
1.54324
-0.100694
0.435261
-0.209391
-0.742308
-0.765205
)
;

boundaryField
{
    frontback
    {
        type            empty;
    }
    Top
    {
        type            zeroGradient;
    }
    outlet
    {
        type            fixedValue;
        value           uniform 0;
    }
    bottom
    {
        type            zeroGradient;
    }
    Inlet
    {
        type            zeroGradient;
    }
    rectangle
    {
        type            zeroGradient;
    }
}


// ************************************************************************* //
