/*--------------------------------*- C++ -*----------------------------------*\
| =========                 |                                                 |
| \\      /  F ield         | OpenFOAM: The Open Source CFD Toolbox           |
|  \\    /   O peration     | Version:  2306                                  |
|   \\  /    A nd           | Website:  www.openfoam.com                      |
|    \\/     M anipulation  |                                                 |
\*---------------------------------------------------------------------------*/
FoamFile
{
    version     2.0;
    format      ascii;
    arch        "LSB;label=32;scalar=64";
    class       volScalarField;
    location    "15";
    object      p;
}
// * * * * * * * * * * * * * * * * * * * * * * * * * * * * * * * * * * * * * //

dimensions      [0 2 -2 0 0 0 0];

internalField   nonuniform List<scalar> 
2186
(
0.734932
-0.394505
-0.0874602
1.0397
-0.978522
-0.0496573
0.640801
-1.06013
-1.12471
1.28813
1.02866
-0.990488
-1.05904
0.990628
-0.62551
0.996309
1.0192
-1.47796
-0.00418895
-0.854683
1.38929
-0.827262
0.997882
-1.07436
0.989612
1.0147
1.21272
0.867498
0.566598
0.990339
-0.844756
0.989796
-0.786161
-1.13026
-1.00016
0.0836887
-1.02926
1.37906
-0.85679
-0.0714769
-1.07654
-0.825677
-0.735457
-0.900404
0.874332
1.2717
0.307495
0.479226
-1.61888
-1.06839
-0.848944
0.874506
-0.735304
1.31352
-0.773605
0.917583
-0.784259
0.94501
-0.984453
0.774429
-0.910542
0.600663
0.523889
-0.0797876
0.535696
0.419852
0.643042
1.27924
1.17538
-1.1559
-1.06817
-0.974622
1.24678
0.970221
1.1637
1.12572
-1.26262
1.01248
-1.0068
-0.762403
-1.86035
-0.115023
0.984587
0.587468
0.9771
0.984907
1.28639
-0.0352579
-0.22134
-1.01019
0.919794
-0.861844
0.902329
1.14533
0.999138
0.391263
-0.213162
0.552369
-1.04854
0.959229
-2.24636
-2.1611
0.611325
0.920167
1.02096
-0.850891
1.20421
-0.859605
0.903736
-1.63417
-0.720314
-0.992869
0.504927
1.31197
-1.07192
-0.946687
-0.217894
-1.63911
-1.01216
1.24785
-0.0487403
-1.29294
0.834166
-1.75182
1.00067
-0.205804
-0.991892
1.11737
-1.53816
0.621411
1.36075
1.21067
0.19669
0.613248
-1.94563
-1.09461
0.888517
-1.1328
-0.765809
-1.02425
0.777947
-0.263763
-1.03738
0.665835
0.891275
0.931053
-0.785208
-1.00132
0.573794
-0.874442
-0.922144
0.542592
1.01609
1.15633
1.01625
0.48979
1.2832
0.395204
0.295079
0.382353
-1.02735
-1.37203
0.970792
0.959824
-0.0169482
-0.0124158
-0.917674
-0.965134
-0.267946
-0.272475
0.331239
0.965034
1.01956
1.08248
0.400928
-0.42191
-0.992861
0.971244
-1.63652
0.836679
-0.958168
1.00393
-0.846878
0.519623
0.50665
-1.03269
-0.82063
1.12395
-0.674491
-1.04121
-1.1329
1.24836
-1.8603
0.951014
-1.02348
-1.52294
0.0607314
1.16797
1.05821
-0.838018
-1.20924
-0.999214
0.0369122
1.01921
-1.00549
-0.942291
-1.00818
-1.35475
0.937556
-1.35008
0.482026
-0.276008
1.29839
0.806126
0.903432
0.921405
1.17578
0.99429
0.8672
1.08896
0.328001
-0.88101
-0.816227
0.0702099
0.145482
-1.49621
-0.982938
1.02631
1.11687
-0.981115
-0.939703
-2.00669
0.330868
0.619262
0.749349
0.868427
1.09335
-1.89979
0.856953
-1.0304
-1.09042
-0.936984
0.986138
0.707274
1.14325
1.16795
1.1019
1.08027
-1.06086
0.794663
1.10328
-1.09024
0.972943
0.755115
-2.14619
-1.02079
-0.989052
1.145
1.01795
-1.07076
-1.29539
-0.531335
0.926293
-1.87673
0.725996
1.05737
0.837802
-1.07437
-0.850857
0.964808
0.59551
-0.780343
-0.681483
1.33818
-0.941584
-1.05698
0.822028
1.1599
0.978775
-1.04235
-1.15556
-0.978805
0.895168
-1.09944
0.510101
0.962422
0.997251
-0.259732
-0.627984
0.954689
-1.14867
0.90311
1.17018
1.01326
1.00998
-0.677504
-1.03103
-1.07471
-1.04997
-1.87882
-1.87227
0.339889
-0.626413
0.58579
1.14568
1.20106
0.899126
-0.825314
1.13422
-1.26703
-0.302727
-1.25107
-1.02869
-1.04954
0.311508
-0.918886
-0.889356
0.142118
0.911236
-0.360564
0.359553
-0.972137
-0.223459
-1.0235
-0.971841
1.21073
-0.0392773
-0.142446
-0.843512
0.758787
0.520222
-0.548939
0.481912
-0.832102
-1.08802
0.639271
1.01606
1.06487
-1.35363
1.14343
0.860598
0.350628
1.22165
0.991373
0.921798
0.322306
-0.330573
-1.02945
0.850596
-0.938418
-0.994807
-1.28837
-0.849878
-1.01507
1.36295
-0.550997
-0.849388
-1.10556
0.991003
-0.972119
-2.08293
-1.01155
0.729884
-0.203756
-1.48102
1.24908
1.31046
1.1021
-1.04315
-0.156357
1.37845
0.995596
-1.19289
0.423062
-1.03769
0.131025
1.17179
0.971159
0.855285
1.28553
-0.599327
-0.415594
-0.33358
-0.880865
-1.57509
-0.818542
-0.156622
1.3078
-1.60597
-1.37781
0.982338
0.55007
-1.02772
-1.99122
-1.03278
-1.32522
-1.33326
-1.0207
-0.830667
-0.939125
1.17888
-0.399934
-0.901345
1.00664
-1.36239
1.24003
-1.55818
-1.96659
-1.03192
0.989041
-0.96642
1.01608
0.8197
-0.905024
1.02451
-1.35209
-1.02037
-1.21782
0.987215
0.925724
-1.08611
-1.04761
-1.26805
0.970651
-1.49063
-1.76315
0.489728
0.93434
0.861955
0.675082
-1.10311
-1.13833
0.808403
-1.0412
0.780113
-1.69098
1.01184
-0.0667078
1.10944
-1.0136
0.824687
0.676738
1.02339
-1.24413
0.988199
-0.765875
-1.01907
0.991938
-1.69902
0.0850154
-0.894926
-0.239951
0.998157
0.0317093
0.249538
0.996775
0.216051
-0.225249
-0.0977656
-0.84928
0.178523
-1.0977
0.678819
-0.72641
1.06375
1.11068
-1.08777
-1.02499
-0.41598
-0.830153
0.391063
-1.03384
0.820307
-0.120774
-1.05037
1.09095
-0.351965
0.351344
0.257632
-0.226425
0.782258
0.323586
-0.876492
-1.54065
-0.201866
-0.710149
1.00737
-1.70138
1.09433
1.20712
1.1945
0.629693
1.16273
-0.948299
-0.720181
0.879395
0.17686
0.983411
-0.799534
-1.029
-1.78547
0.768428
-1.02056
-1.93957
-0.851294
-0.892748
-0.00375685
-1.15929
0.715382
0.682624
-0.826691
-0.951479
0.72111
0.0325696
1.1317
-1.6991
-0.206324
-1.02199
0.744844
-0.215365
1.15007
1.39329
-1.83534
-0.961695
-0.913009
0.244058
-2.04535
1.01388
-0.989699
0.969413
0.736251
-1.02758
0.854135
0.814969
-1.98186
0.859157
-1.12729
-0.862554
-1.44661
-0.974094
-1.14128
-1.74955
-0.979544
0.992742
0.187884
-0.968901
0.558342
1.14021
1.19304
-0.415694
0.728862
-0.266316
0.748633
-0.223705
-1.67932
-0.880237
0.473696
0.795704
1.05259
-1.68628
-1.12149
-1.51358
-1.01736
-0.15972
0.702226
-1.89093
-0.000747705
-1.25898
0.930756
-1.0947
0.94529
-0.725651
-0.647793
0.935442
0.630197
-1.81376
-0.19906
0.956552
1.27387
1.01383
-0.973464
-1.56576
0.773354
-0.597902
0.759842
-0.689075
0.423051
0.953291
-1.02895
-0.8507
1.01092
-1.29663
1.2385
-0.154359
0.850579
0.145184
0.592563
-0.848453
1.2245
-0.855122
-1.96251
0.953059
0.500298
0.467688
-1.22946
-0.845799
-1.03396
0.756897
-0.270558
-1.0966
-1.14761
1.00821
0.361495
-1.36655
0.722858
0.881366
0.976394
-1.79689
-0.767992
-0.864641
1.00494
1.17183
0.457582
1.00083
0.112359
1.03674
0.167157
-0.963752
-0.489333
0.90746
0.955445
-1.61468
0.840748
-0.862522
0.788436
-1.06856
0.993756
0.931104
1.00898
-1.71922
0.912089
-1.86108
-0.93639
1.15822
-1.95794
-1.57213
1.10967
-1.33956
1.10088
-1.91798
-0.874305
1.03874
0.75386
1.34291
0.991873
-1.85173
1.06141
1.07893
-0.722883
0.622452
0.0870571
-0.952255
1.48165
-1.03447
1.12998
-0.933526
0.263273
0.992617
-1.29782
0.98221
-1.51567
0.9162
0.936587
1.00537
-0.00623694
-0.998167
-0.661579
0.543181
0.636598
1.05005
-0.236502
0.818295
-1.86885
-0.486098
-1.64262
0.808827
1.12534
-1.07665
-1.16005
-0.117988
1.23223
-0.116713
0.722833
-0.0600287
-2.30434
-1.04776
-0.849219
-0.979144
0.784915
-1.78229
-0.219718
-0.331248
-0.646
-0.869809
-1.27283
-0.296267
0.962139
1.01131
-1.24152
-0.532607
0.975457
0.920457
1.01087
-2.13687
0.974879
1.0422
0.98739
1.03767
-1.38209
-0.306641
-0.852953
0.605083
0.993197
0.679553
0.115342
-0.253115
-1.77524
0.0344804
1.24128
-0.25843
0.190561
-0.7724
-0.262473
-1.05269
0.773076
-0.98683
-1.41493
-1.0171
0.992987
0.993755
1.00386
-0.0405594
0.311739
1.2168
-0.244072
0.987405
-0.267569
-0.0726132
0.749671
1.01137
1.08901
-0.0369046
0.969838
0.968346
-1.41944
-0.281809
1.00416
1.01641
1.01258
-1.02516
-1.05569
1.01322
0.58082
0.993501
0.194085
-0.141039
0.0753211
-1.63926
-0.431219
-0.881821
-1.60137
-0.228573
1.01906
1.02348
0.736384
-1.02253
0.993599
-0.26373
-0.251161
-0.0180908
0.991128
1.01711
1.0136
1.02694
1.00401
0.997505
0.988177
-0.199215
-0.29162
-0.0752329
-0.149693
-0.01859
0.00491261
-0.0111152
-0.104922
-0.20033
-0.273806
-0.227705
0.986115
1.00552
1.00016
1.02377
1.02131
1.01303
1.01737
0.995459
1.00159
-0.170267
-0.190291
1.01436
1.01303
-0.028326
1.0155
1.01422
-0.102072
0.0836833
-0.290664
-0.957968
-1.4521
0.997009
-1.13265
0.994269
0.602081
1.05788
-1.03114
0.992525
0.938679
0.937411
-0.846681
-0.0837608
-1.12841
-0.303896
-0.0638521
-0.840353
1.00962
0.0415849
1.08489
1.001
-0.192421
1.17974
1.32961
-0.242878
0.864808
0.638263
0.99328
1.01125
1.00261
-1.03345
0.471162
-0.031138
0.999276
1.00803
-1.08512
0.0498972
1.00053
-0.0667466
-0.360963
1.00037
-1.10024
0.980523
1.01263
-1.09083
1.00455
0.0951249
0.99657
1.07653
-2.05366
1.01031
1.01836
-0.000849767
0.672965
0.996486
1.00275
0.132625
-0.755765
0.691558
1.33422
1.00826
0.998557
1.0043
0.105241
0.99969
0.98432
1.00477
1.00017
1.00187
0.997183
1.10558
-0.6369
-2.08337
1.00046
0.995386
0.262595
-1.06771
-0.611587
-0.703666
0.867048
-1.55223
-0.628656
-0.0104638
0.996702
0.703762
0.00918978
0.0187701
-0.139689
-0.526739
-0.922534
0.0657067
-0.533488
-1.61353
-0.348183
1.00403
0.0404974
0.99168
0.916213
-1.02153
1.2515
-0.458877
-1.21384
0.728967
1.13963
0.4469
-1.01569
0.9959
0.0540928
1.00249
-1.26298
1.00231
-1.37259
0.994304
-0.0164572
-0.695368
1.00449
1.01946
0.943893
0.0989694
-1.00923
-0.781245
0.212349
1.01549
0.900191
0.13393
0.99492
1.03747
0.989172
0.364548
-1.98261
-0.730362
-2.02309
0.284576
1.00161
-0.0820954
0.998439
-2.08692
0.996903
1.03536
1.00609
-0.020845
-0.0244539
1.03098
-1.14623
1.00768
1.012
-0.0323975
-1.04982
0.948059
1.14329
0.992249
0.990286
0.242699
0.293963
0.96385
0.382185
1.00649
0.822863
-1.00653
-1.04331
0.843375
1.23754
0.996622
0.311368
-0.542679
0.312009
-1.97473
-0.382881
0.979215
-1.27271
0.982401
-1.55875
-1.02633
-0.959397
0.438564
-1.17614
-0.351565
0.00658696
0.993928
-1.01638
0.919274
-1.03458
-0.213571
0.194402
-0.000748998
-0.168011
0.968478
0.184747
-0.863908
0.0333582
-1.22444
0.982205
-0.254399
0.00152297
-2.27952
1.08784
-0.338538
-1.03181
1.06524
0.980268
0.969915
0.446368
-0.97267
1.00148
1.02921
-1.28625
-0.907583
0.993016
0.773212
1.25931
1.01375
-1.05857
-0.52903
-0.925322
-1.29988
-1.11818
-1.02092
-0.0125408
-1.23117
0.777755
-0.0594462
1.00268
1.21408
0.992367
-1.01305
-1.22071
0.994519
-0.967575
-0.157751
0.972357
-0.37553
-0.927179
-2.0314
0.0119704
0.947698
0.920807
-1.05828
0.817382
0.684088
-1.45876
0.97869
-1.5543
0.810452
-0.766015
0.970072
-1.55392
0.392584
0.99574
1.10485
-2.28525
-1.74858
0.829772
1.36952
1.01623
1.02934
-0.826237
1.22746
-0.956223
-0.00162256
-0.876673
0.442664
-2.24735
1.10891
1.14382
-1.0376
-1.27324
0.992557
-1.02795
0.832163
1.0266
0.965745
-2.17645
0.996758
-0.0204153
1.02276
-0.0346397
-0.0199098
-0.137688
0.999506
-0.238146
-0.485128
-0.194288
0.992504
0.0515363
1.19989
0.230188
1.33271
0.999441
-1.05278
0.974589
-0.872029
0.973025
0.970043
0.0195235
-0.213784
1.13581
0.985284
1.23521
0.95431
0.045089
0.957911
0.98174
0.869711
1.00428
-1.0955
-1.08853
-1.0885
1.0918
-1.40179
-0.219582
-0.859545
-1.46185
-0.0911619
-0.158717
0.881797
0.0711801
0.947156
1.00145
-0.916187
-1.31589
-1.13936
-1.4108
-1.13879
-0.877306
1.00145
-2.04448
1.01354
1.22104
1.05264
-0.214274
1.02033
0.933999
-1.4083
0.951834
0.981807
-1.0106
0.980013
0.956501
-0.128554
-1.28951
1.44994
-1.86107
-1.3309
-1.13544
0.204551
0.970379
-1.41726
-0.651662
-0.839958
1.13673
-0.371991
0.86996
1.01335
0.977306
-1.32014
0.961259
-2.29661
1.00968
1.02475
-0.433144
1.01477
0.520564
0.982731
0.687493
-2.23399
-0.00642841
-0.0085356
0.0521097
1.24717
-0.192902
1.02931
1.39823
-0.606228
-0.0212762
1.06119
-0.0330984
1.05801
-0.0228357
-0.0400159
1.0599
1.06416
0.39696
-1.5085
0.780664
-0.712784
-0.980763
-0.67863
1.02059
0.990229
1.40924
-1.01662
-0.583395
0.719782
-1.13119
1.07799
1.0005
0.982335
0.988991
0.949817
-2.04241
-1.02306
-1.33829
0.819652
0.923418
-2.22671
-0.890067
-1.04574
1.0112
1.02765
-1.19645
-1.82769
1.03439
-1.08557
0.210932
0.794071
0.941578
-0.268474
-1.17795
-0.243755
-1.00148
-0.746108
-1.96657
-1.53573
1.35761
1.37639
-0.938353
-0.928562
1.01176
0.98771
-1.12678
-0.110231
-0.401276
0.673464
1.09622
-1.51552
1.00484
-1.06284
-1.17082
-1.12832
-1.31656
-0.931313
0.976316
-0.973076
-1.60658
1.36956
-1.00239
1.00567
1.23816
-0.89361
1.02879
1.23647
-0.959828
1.25956
-1.02691
-1.20226
1.03124
0.09749
0.998554
1.00655
-1.04008
1.0529
0.111679
-1.98127
1.04182
1.01662
-0.951422
-1.42198
0.949848
0.998736
-1.0467
-2.24228
1.29857
-1.04685
0.913929
-0.0828234
0.934292
-0.990696
-1.94046
-1.03905
-0.960153
1.11229
1.02643
1.27426
1.22383
0.999077
1.06093
1.08357
-1.03573
1.1522
1.12914
-0.937514
-1.05244
-1.06378
1.33827
-1.61409
-1.1905
0.117871
0.959533
-0.950232
-0.910143
1.04154
1.00573
-1.04263
-0.904207
-1.15935
0.0287788
-2.2126
-0.954645
-1.03204
0.913571
0.877885
-0.878623
-0.438987
-0.91895
0.86573
-1.04799
-0.955788
-1.02943
0.930437
-1.72592
-0.914605
1.31462
0.88593
0.362731
1.18254
0.252833
0.965922
1.01211
1.11772
1.19536
-0.250137
0.709696
1.02784
0.237752
-1.026
1.42528
0.956464
0.898038
1.05705
-0.926833
-1.99874
0.842203
0.816459
0.958771
-2.08322
-2.00496
0.984043
-1.02719
0.810938
-0.0732076
1.42589
-1.02335
0.763073
0.721447
-0.859652
-1.02087
-1.59323
1.04788
-0.865244
-1.01999
0.68337
0.647888
-1.30175
1.06921
0.822627
-0.871073
-0.846063
0.960339
-2.14608
-1.0182
-1.15923
-0.842681
-1.02354
0.987628
1.00549
-1.93467
0.600782
1.0037
1.349
0.250093
0.325765
0.0546465
0.869915
-0.494196
-0.855186
-1.40228
-0.564495
-0.850879
0.994553
-0.853215
0.217327
-1.0156
0.581054
0.550816
-0.845774
0.619542
-1.91147
0.47676
-0.84116
0.507358
-0.857206
0.368448
-1.01158
0.424748
-0.836372
0.804497
-1.74939
-0.836733
-0.842761
-1.01402
1.01412
0.0612628
-0.873235
-1.01667
0.0860359
0.122184
-0.844256
-1.02327
-0.918202
-0.151151
-1.03161
-0.0748781
-1.06387
-0.278164
-0.997203
-0.324018
0.895559
-0.253209
-1.9681
0.985391
-0.0897938
-0.239748
0.426735
0.964164
-1.96327
-1.97524
-1.01204
-1.54451
0.880528
1.42462
-0.868038
-0.19388
-0.0132903
-0.99008
-0.400951
-0.409504
0.978947
-0.945668
0.949429
-1.69229
1.49097
0.425283
1.40705
-0.894801
1.17724
-0.525329
0.999806
-1.08427
-1.00963
1.0619
0.990612
-2.26526
-1.01709
-0.844022
0.983095
-0.937279
0.986364
-1.34847
-1.12622
-1.03915
1.30947
1.0453
1.09878
1.02278
1.01366
-0.117981
-0.655665
1.22282
-2.12985
-0.925287
1.42505
-0.887923
0.916453
0.943497
1.36967
1.41834
-0.896685
-1.56549
1.03384
0.196428
-0.498625
-0.794377
-0.864127
-1.97422
-0.899591
0.527104
-1.43579
1.18834
-1.25186
1.06271
1.14241
1.04676
-1.70098
-1.00224
-1.09327
1.08695
-0.991551
1.19192
-0.688718
-1.12684
1.25419
1.2922
-1.00746
0.124067
0.938359
-1.26842
-1.19921
0.641375
1.28884
1.21555
-1.17687
0.885293
0.865425
-1.01229
1.22652
0.316568
-0.885744
-0.887869
-0.215008
-0.176104
1.13116
-0.903619
0.295424
-0.0473342
0.0192423
-0.834593
-1.01171
0.994352
-2.14402
1.03068
-0.0685496
0.0538509
0.669877
0.22006
-1.00255
-0.588204
-1.22821
-0.279413
-0.016281
-1.55552
0.954354
-1.97511
-1.86452
1.02153
-1.18315
-0.94077
1.01182
-1.09463
0.989564
-0.100383
-1.04146
-0.391523
0.772749
-0.881258
-1.73861
0.873954
-1.09419
1.07002
-0.621646
-1.06412
-0.953572
-1.0131
1.47501
-2.06582
1.11492
0.00221075
0.956055
1.19138
0.702131
1.01922
1.17698
-0.165024
-2.04001
0.964879
1.08149
1.34986
-0.987738
1.05263
0.695336
-1.01703
0.770565
1.19493
-0.558567
1.35753
0.165541
-0.926275
0.817111
-1.03399
-0.840537
0.935702
-0.448875
1.05494
1.04073
0.969027
-0.94986
0.920007
1.27865
-1.22955
-0.320403
-2.11739
-1.17673
-1.04476
-1.01836
1.33759
0.730658
-0.96279
0.893823
-1.04469
-0.954134
1.25639
1.24253
-2.1278
-1.44866
-1.01307
-1.07351
0.96842
-0.958601
0.0341118
-0.78725
-0.462188
1.06247
-1.0521
1.40155
1.05028
0.864288
1.02924
1.3183
-1.16037
-1.05303
1.00833
1.13208
-0.83799
1.00314
-2.01145
-1.03887
-1.04009
1.1026
1.13202
-1.04272
-0.975388
0.525114
-0.126538
-1.4345
0.985571
0.981611
-1.45943
1.02117
1.06326
-1.40493
-0.943977
-0.959256
-1.03553
-1.04279
1.29859
-0.320723
0.935685
-0.95751
1.29432
0.881903
0.887745
0.958492
-2.02846
-1.03714
-1.03218
0.549637
-0.911451
0.902282
0.265187
-0.617546
0.876829
0.988293
1.03887
1.01161
-0.0271719
1.03724
-0.0415815
0.385278
0.809651
-0.559014
-0.933559
-0.93753
-0.67439
1.01009
0.951148
1.00919
-1.80699
-0.853316
-1.029
-0.778497
1.00788
1.29992
1.0215
-0.922329
-0.905297
-1.25219
-0.534564
-1.01468
-1.01352
-0.199468
0.998419
-0.886756
-0.875214
-0.0385168
-0.136894
0.740783
-1.49717
-1.02612
-1.23035
0.950017
1.42582
0.00454305
1.09934
1.48633
0.680429
1.2149
-0.948242
-0.0842737
1.3821
-1.02275
0.277054
-0.901404
-1.04813
-0.838784
-0.862453
0.969696
0.711616
1.20815
1.17053
0.00146448
0.759315
0.0514002
-0.0303526
-1.01925
1.10914
0.742437
1.01664
1.03337
-0.0841139
-0.0723978
1.02889
-1.18456
-1.01727
-0.868626
-0.848001
0.563049
-0.857492
0.956342
0.647272
-1.02222
1.21621
-0.919662
-0.317754
0.978892
-0.873019
-0.984969
-2.03469
0.616629
-0.883344
-1.27778
0.931291
1.02475
-0.142962
-0.0108122
-2.18953
-1.01646
-0.345082
-1.69691
-0.257894
0.578275
-1.14498
-0.85293
1.27711
0.276704
0.37826
-0.848625
-1.05302
0.99974
1.02844
0.546166
0.512087
-0.843414
-0.96928
-0.833729
0.46943
0.418597
-0.838367
0.842981
0.159426
-0.832863
1.45195
-0.835576
-1.78063
-1.04356
-0.794376
0.823737
-0.853017
-0.956893
-1.02143
-0.0284578
-0.892353
0.0151257
-0.93394
-0.223913
1.18877
-0.951009
-0.215107
-1.04791
-0.163361
1.35246
1.38187
1.24427
1.00644
1.22136
-0.692263
0.993243
-0.928255
1.02587
-1.01296
-1.03332
1.24744
-1.18776
0.44688
-1.88038
1.38959
-0.0618985
1.32586
0.61473
0.778244
-0.891654
-0.904654
-1.01057
-1.12651
1.30807
1.20444
0.990905
0.6011
0.994507
0.84862
0.827939
-0.841048
-1.07123
0.25641
0.0270393
0.802798
1.0095
-0.0682993
-0.886544
-0.835699
-1.51253
-1.01002
-1.79456
1.32811
1.02761
1.00363
-0.0688392
-0.0476533
1.02546
-0.907076
-1.01737
-2.10703
-1.01364
0.791422
-0.871419
-0.846114
-0.362898
1.00802
-1.82785
-1.04231
0.99435
0.586604
0.692984
0.99424
-1.01429
0.87792
1.177
0.819272
-1.01099
0.985344
0.327433
0.468567
-1.03125
-0.860889
1.44611
0.202692
-1.2769
-0.0312776
0.913827
0.973579
-0.956397
-1.3889
-0.155002
-0.847539
-0.950205
-0.965506
-0.107451
0.989232
-1.16818
0.99156
1.26607
1.0745
0.994566
1.09354
1.1541
0.998207
-1.39608
-0.712012
-0.407676
-1.08936
-0.991454
-0.844628
1.15385
1.0587
-1.04329
0.952998
-0.884134
0.155723
-0.839095
-0.424884
0.504895
-1.3581
0.986637
0.913984
-1.51745
-0.446546
1.33491
-1.70196
-0.586029
-1.20443
-0.972348
-0.813485
1.03751
0.777859
1.0807
-1.19404
-0.803866
-0.987682
-0.364968
-1.04042
-1.44246
-1.42008
-2.0895
0.917723
-0.825946
1.4389
-1.08461
-0.647414
-1.0465
-0.843587
0.916671
-1.06916
-1.14801
-1.04974
-0.432511
1.20395
1.20735
-2.17671
-1.08943
0.827728
-1.0307
-0.96751
1.09271
-1.47424
-2.1047
-1.16008
0.755161
-0.504526
-1.03428
0.989725
-0.00218455
-0.947575
1.00338
-0.906786
-1.53971
-1.24994
-0.914373
-0.152895
-1.03581
1.32397
-1.02312
0.110415
-1.01405
0.796969
-0.678251
-0.971797
0.654957
0.73862
1.05203
0.951483
1.18341
-0.855507
0.828808
0.517568
-1.29839
0.935092
-0.373482
-0.723308
-1.99808
1.16579
1.15259
-0.795662
-0.948647
-1.18511
1.0217
-0.947074
0.0412571
-1.37996
-0.851524
1.2886
1.01891
-0.897432
-0.951312
-0.899616
-0.880228
0.900688
-0.95116
0.985292
0.235023
0.714311
0.84015
-0.82146
-0.985593
0.945779
-0.846419
-0.0781864
1.27681
-1.02831
-0.875657
0.825978
-1.32103
-0.955574
-0.269967
-0.982518
1.34769
-0.704472
0.0799763
-0.903147
1.28796
-0.914912
-0.947403
0.650256
-1.31746
-1.01287
1.32662
0.680043
0.989332
-0.958581
1.24024
-0.309424
-0.936737
-0.956803
-0.963757
-0.92259
1.27224
0.582876
-1.03975
-0.913489
-1.01974
1.13034
-0.903245
1.26406
-1.01354
0.71595
-0.867252
0.379322
0.546073
0.511802
0.431045
0.146517
-0.923011
1.01404
-0.954384
-0.686521
-1.23879
0.233292
1.30501
-0.397476
-0.962984
-0.942021
-0.871721
0.273433
-1.08106
-0.863975
0.824287
0.140016
-0.886011
1.37089
-1.02728
-1.65678
1.3508
-0.875927
0.159788
-0.905437
-0.841019
-0.859318
1.34536
-0.834435
1.26726
-0.856759
-0.981561
1.17844
-0.325684
-0.943172
0.572883
-0.983177
0.0266955
-0.500712
-0.864274
0.785219
-1.16239
-0.863398
-0.843433
-0.841572
-1.01982
0.824245
-0.144809
-0.57329
-0.891446
1.29591
-0.925687
-0.953608
-0.828475
-0.219514
-0.971473
-0.824211
-0.885635
-0.184594
1.25489
-0.928167
-1.00955
-1.34438
-0.84419
-0.22537
-1.02546
1.38244
1.31814
0.422216
-1.03243
-1.01683
0.337714
-1.01734
1.39604
0.217799
1.05517
0.70602
1.26915
0.100451
-0.982795
-1.05815
-0.0514298
-0.956641
-0.051352
-0.164571
-0.854627
1.29296
-0.399834
0.228853
-0.538588
-1.00715
-1.07333
)
;

boundaryField
{
    frontback
    {
        type            empty;
    }
    Top
    {
        type            zeroGradient;
    }
    outlet
    {
        type            fixedValue;
        value           uniform 0;
    }
    bottom
    {
        type            zeroGradient;
    }
    Inlet
    {
        type            zeroGradient;
    }
    rectangle
    {
        type            zeroGradient;
    }
}


// ************************************************************************* //
