/*--------------------------------*- C++ -*----------------------------------*\
| =========                 |                                                 |
| \\      /  F ield         | OpenFOAM: The Open Source CFD Toolbox           |
|  \\    /   O peration     | Version:  2306                                  |
|   \\  /    A nd           | Website:  www.openfoam.com                      |
|    \\/     M anipulation  |                                                 |
\*---------------------------------------------------------------------------*/
FoamFile
{
    version     2.0;
    format      ascii;
    arch        "LSB;label=32;scalar=64";
    class       surfaceScalarField;
    location    "15";
    object      phi;
}
// * * * * * * * * * * * * * * * * * * * * * * * * * * * * * * * * * * * * * //

dimensions      [0 3 -1 0 0 0 0];

oriented        oriented;

internalField   nonuniform List<scalar> 
3181
(
-1.04753
0.404622
0.642907
-0.391313
0.368483
0.0228298
0.526179
-0.361354
-0.164825
0.121817
-0.201503
0.0796862
-0.0698029
0.0948011
-0.0249981
0.80848
0.528829
-1.33731
0.149478
-0.143127
-0.00635071
0.0764046
0.00393115
-0.0803358
0.591814
-0.778289
0.186475
-0.0738508
0.137252
-0.0634012
-0.0104621
-0.050377
0.0608391
0.121951
0.050105
-0.172056
-0.0180394
-0.0556818
0.0737212
-1.0928
0.151272
0.941525
-0.330109
0.702491
-0.372382
-1.11916
0.63664
0.482524
0.0847368
-0.935161
0.850424
-0.357777
0.321384
0.036393
-0.659561
-0.552634
0.000882642
0.0557936
-0.0566763
0.03432
-0.0839208
0.0496007
-0.0747531
0.0603097
0.0144434
1.05847
-1.03261
-0.0258547
0.0205818
0.035716
-0.0562979
-0.956263
0.328391
0.627872
-0.108351
0.230168
0.306789
-0.244232
-0.0625568
0.0297402
0.0626255
-0.0923657
-0.408586
0.336139
0.0724468
-0.03433
-0.00840658
0.00798609
0.00042049
-0.0381164
-0.918147
0.0946128
-0.0713758
-0.023237
0.11441
1.43283
-1.54724
-0.0456858
0.0471881
-0.00150235
0.178027
0.275333
-0.45336
1.54471
-1.4303
0.0703527
-0.0360326
1.55114
-0.798731
-0.752412
-0.178239
0.986718
-0.113495
0.0954552
-0.0801891
0.00543602
-0.411402
0.0812933
-0.142798
0.0626084
-0.633101
0.12842
0.504681
-0.148757
0.0749066
-0.169737
0.174025
-0.00428767
-0.272026
-0.0776504
0.349676
-0.0544666
1.53086
-1.47639
0.0806363
0.213627
-0.294264
-0.00752393
-0.0990401
0.105042
-0.00600151
0.519766
0.182725
-0.0956451
0.138404
-0.042759
0.0870039
0.0076089
-0.171727
0.19806
-0.0263327
0.16475
0.0564972
-0.221247
0.10936
-0.115323
0.00596288
1.29523
0.255911
-0.859671
-0.187858
0.158195
-1.61575
1.45755
0.549947
0.228052
-0.777999
-0.445092
-0.203496
0.648587
-0.769615
0.591376
-0.270801
0.820749
-0.324761
-0.104522
0.429284
-0.206877
-0.201709
-0.190893
0.165852
0.0250403
0.135932
0.284697
-0.420629
-0.192145
0.783959
-0.0244258
0.10083
-1.84579
2.00399
0.18835
0.118439
-0.178393
-0.111528
0.289921
-0.269643
0.35752
-0.0878774
-0.081349
0.0894736
-0.00812468
-1.90026
-0.918342
0.0109917
0.90735
-0.0579238
0.012238
-1.0481
0.801192
0.246904
0.577613
-0.316054
-0.26156
-0.868764
0.0991488
1.10805
-0.956776
-0.715893
1.14393
-0.202403
1.06993
0.166124
-0.174188
0.00806352
1.30985
-0.781023
0.448105
-0.448105
-0.00778256
-0.000170123
0.00795268
-0.212507
-0.0534021
0.265909
0.113328
-0.0807961
-0.0325323
-0.450696
0.833524
-0.382829
-0.0145128
-0.237356
0.251869
-1.07784
0.0452266
0.345426
0.0560096
-0.401435
0.134866
-0.849639
1.07769
0.0847437
0.110772
-0.195516
-0.0176605
-0.154067
-0.445364
0.136057
0.309307
-0.235819
-0.209545
0.118881
-0.96852
0.334338
-0.785034
0.920052
-0.835315
-0.00335654
0.195118
-0.191762
0.0812873
0.0514957
-0.132783
-1.3932
-0.102481
1.49569
-0.244792
0.41037
-0.165578
-1.20032
0.616987
0.583337
-0.466951
-0.581146
0.17929
-0.0986538
-0.153854
0.148198
0.0056555
-0.0770104
-0.01257
0.0895804
-0.54996
-0.22833
-0.0812125
0.0413303
0.0398821
-1.09249
-0.103154
1.19565
1.80541
-0.274559
-0.0117814
0.00399884
0.0400629
0.148287
-0.199861
0.377888
0.0100192
0.301159
-0.311178
0.137049
0.0678334
-0.204883
0.292049
0.0719679
-0.364017
-0.592984
-0.526181
-1.06075
-0.0317435
-0.0670306
0.151774
-0.106191
0.183862
-0.0776715
-0.0657279
0.0248722
0.124606
-0.0565918
0.0709419
-0.01435
-0.095717
-0.0219172
0.117634
0.075168
-0.075168
-0.18582
0.210692
0.341794
0.223647
0.104966
0.0930938
-1.27416
1.08201
-1.58225
0.119602
1.46264
0.0319044
-0.025695
-0.00620934
-0.0264404
-0.050876
0.0773164
0.542709
-0.023399
-0.51931
-0.0478229
0.0495259
-0.00170304
-0.200702
0.0148821
0.163783
0.669741
-0.367729
0.531512
-0.159664
-1.23354
-0.128857
0.0590539
0.4891
-0.304268
-0.184832
0.132803
-0.113753
-0.0190505
0.0484655
-0.320491
0.02362
-0.941962
0.0490597
-0.15525
-0.286744
-0.402412
0.0704794
1.38858
-0.941156
-0.447428
1.09277
0.295814
0.0670566
0.28262
0.0335327
-0.00162828
-0.0437488
0.16619
-0.122441
-0.253781
-0.58251
0.836291
-0.35632
0.650291
0.827778
-1.38041
0.142533
0.0335778
-0.0599428
0.026365
-1.42567
0.381013
1.04466
-0.297614
-1.12806
-0.305183
0.650609
-0.911541
-0.017641
0.00465032
-0.265894
0.261244
1.48369
-1.5914
0.107715
-0.114542
-0.0143148
0.567325
-0.821106
0.202706
-0.473576
0.27087
-0.296179
-0.116592
0.412771
0.176111
-1.00234
-0.0755021
-0.0137587
-0.0429176
-0.554967
0.351471
-0.24515
0.0184989
0.226651
0.00123979
-0.115782
0.0150129
-0.0150129
-0.117992
0.129231
-0.0112391
-0.313435
-1.26881
0.0641429
0.0353105
-0.0994534
-0.118825
-0.0188649
0.13769
-0.22214
0.031247
1.63723
-0.457966
-1.17927
-0.192185
0.44907
-0.256885
0.00803977
-0.00734713
-0.000692647
-0.764142
-0.436181
-0.18449
-0.00482671
0.189316
-0.173438
0.30937
-0.100409
0.098709
0.00169999
0.0745758
0.0101986
-0.0847743
-0.138244
0.149955
-0.0117102
-0.470399
1.05429
-0.583895
-0.22035
-0.0512427
0.271592
-0.693865
0.660857
0.0330087
-0.00330592
0.039022
0.0299311
-0.0297099
-0.000221181
-0.00121428
-0.0550836
0.798901
1.00651
0.174471
-0.884472
0.710001
-0.026837
2.09712
-2.07028
0.384577
0.284521
0.163584
0.0613937
0.202718
-0.0656686
-0.0706033
-0.0284368
0.236519
0.155292
-0.0740047
0.737284
-0.408893
0.0609423
0.204967
0.0488804
-0.164454
0.115573
-0.785183
-0.135355
0.920537
-0.0294507
0.0294507
-0.0747324
-0.265874
0.541207
0.0126641
-0.233014
0.199641
0.121742
0.037819
-0.10485
0.134141
-0.144604
-0.341664
0.327151
0.048617
0.0638024
-0.112419
0.385381
-0.335276
0.633948
-0.274703
-0.359245
-0.207435
0.274492
0.187852
-0.49212
-0.210014
0.614637
0.165909
-0.0335357
0.0335357
-0.283553
0.485291
-0.201738
0.383211
0.0271594
-0.0339313
0.0416787
-0.00774741
-0.183492
-0.030964
-0.0502484
-0.049265
0.183406
-0.179021
0.240014
-0.0609934
0.127223
0.0280695
-0.390758
0.146527
0.188859
-0.0616369
-0.0454449
-0.0549641
-0.0840658
0.0792466
0.00481917
0.14808
-0.105105
-0.0429756
-0.0185434
0.394686
-0.376142
-0.125727
0.101301
0.103262
-0.107571
0.00430891
0.0236971
0.49508
0.138869
-0.0981897
-0.0249956
0.123185
-0.101748
-0.0230039
0.124752
-0.0899227
0.0959918
-0.719652
0.62366
-0.0493517
-1.50003
-0.418602
1.91863
0.693188
1.00642
-1.69961
0.0830276
-0.286729
0.358697
0.275674
0.25241
-0.528084
-0.205947
0.254827
0.141966
-0.894928
0.752962
0.0444204
-0.146168
-0.0178916
0.00413292
-0.989991
0.447732
0.542259
0.941156
-0.822275
-1.68253
1.58005
-1.48369
1.60329
0.040053
-0.082812
0.0104564
0.0194747
0.0167647
0.799655
-0.657689
0.122342
-0.073282
0.411865
0.732063
-0.136462
-1.78598
1.75914
-0.676966
-0.59719
-0.240786
-0.392314
-0.0302719
-0.166257
0.214722
-0.578126
-0.374073
0.181889
0.777833
-0.235125
-0.888803
-0.793726
0.741796
0.185086
-0.140666
0.283492
0.0380392
-0.0380392
0.6707
0.147937
-0.818637
-0.22541
0.896109
0.407224
-1.24543
0.838201
0.269091
-0.0454447
0.00713544
0.00576859
-0.012904
-1.61575
-1.17017
0.895607
1.02534
0.611887
-0.0348202
-0.134917
-0.239863
0.759629
-0.196367
-0.0487832
-0.00305781
-0.0782912
-0.0521878
0.103684
0.377543
-0.249123
-0.836629
-0.288186
-0.116759
-0.0275131
0.144272
-0.65865
0.943171
-0.162464
0.115816
0.0466474
0.0288594
0.00467328
-0.0889933
0.0304901
0.0585032
0.00961973
0.419664
0.0956419
0.0371614
0.0169772
0.005874
-0.0228512
-0.0160101
-0.16848
-0.724165
0.371585
0.35258
0.526212
-1.51546
0.989245
0.137532
-0.15855
0.0210179
-0.00704819
0.186338
0.132001
-0.580106
-0.101024
0.0120312
-0.141737
0.0430833
0.14292
-0.342781
-1.56831
0.652457
0.915855
0.0385961
0.0930574
0.0550227
-0.785183
0.126383
-0.596782
0.115254
-0.0847642
0.0436472
-0.636592
-0.0572735
0.0608173
0.128042
0.290151
0.0406695
-0.461298
0.122834
0.346835
-0.290825
-0.117594
0.0218773
0.222913
0.840536
-1.06345
0.102762
-0.710285
0.607523
-0.940398
0.805044
-1.15162
0.2739
0.87772
-0.0130464
0.0141952
-0.00114879
0.167418
-0.463597
0.206594
-0.120857
-0.0857369
0.0509822
-0.0739862
-0.0593587
-0.0574006
-0.0144379
0.0235178
-0.0247321
0.0208114
0.0755852
-0.0963965
1.10041
-0.00451209
0.0049749
-0.000462812
0.114044
-0.0127427
0.859554
0.0561239
-0.0704388
-0.26463
-0.905536
0.23993
0.0291611
0.00756763
0.0854898
-0.87772
0.580106
0.188803
-0.26388
0.0750776
-0.25274
0.0785517
0.118845
-0.110781
-0.00144572
0.0909194
-0.0438917
-1.41742
-0.150889
-0.041165
0.0619764
0.739367
-0.256842
-0.25818
0.139355
0.343404
0.0148511
-0.0487824
-0.00777073
0.0829388
0.146044
0.211476
0.155886
-0.330133
0.174247
0.106709
0.563033
-0.0413954
-0.107362
0.936879
-0.260704
-0.676174
-1.15162
-0.448703
0.974915
1.54471
-0.146222
0.383685
-0.237463
0.352855
-0.0685357
-0.28432
-0.286565
-0.582198
-0.0711931
0.071901
-0.000707877
-0.0851188
-0.174932
0.26005
0.463448
-0.970485
0.507037
0.0403377
0.65847
-0.698807
-0.0444352
-0.109419
0.00372747
-0.101917
0.291972
-0.575525
-0.0152594
0.00221298
0.196655
-0.00553456
-0.191121
0.0875649
-0.131314
0.000610275
0.0282491
0.0631737
0.131945
-0.0258747
-0.0038352
0.192351
-0.429706
-0.45849
1.46491
0.0250671
0.00438367
-0.983968
-0.0183694
0.106832
-0.0724459
-0.0451484
-0.0878103
0.290517
0.874302
-1.0953
0.220997
0.190572
0.049358
-0.941718
-0.0150576
-0.0113259
-0.649708
0.7457
-0.0177295
0.183638
0.00170053
-1.24713
0.180742
-0.444011
0.263269
0.0160036
0.285155
0.00184934
-0.00194117
9.18247e-05
-0.0584156
-0.0798289
-0.0209644
-0.133102
0.746565
-0.643803
-0.142441
0.0940977
-0.0748986
0.310055
-0.154169
0.0663614
1.19869
-0.246819
-0.951875
-0.119924
0.138423
-0.505353
-0.218812
-0.56059
0.61133
-0.589641
-0.0216891
-0.0967658
-0.0456749
-1.78598
0.548424
-0.548424
-1.79965
1.79965
0.799655
-0.110362
-0.162283
0.272646
-0.893364
-0.0906039
0.627977
-0.368457
-0.25952
0.162711
-0.240383
-0.0103249
-0.00145647
-0.887275
-0.0812455
-0.932536
0.212884
0.0386096
-0.0661227
0.700353
-0.111706
-0.588647
1.10543
0.439281
-0.00101489
0.00286423
-0.967573
0.478311
-0.753015
-0.0665917
-0.605603
0.672195
-0.0454019
-0.882792
-0.708609
0.219678
-0.812662
-0.920537
1.36245
-0.441917
-0.139927
0.281337
-0.141411
-0.0272562
0.727609
-0.106525
-1.00928
1.00928
-0.791353
0.297174
0.494179
-8.39833e-06
-0.00450369
0.0659026
-0.440219
0.81488
-0.0136879
-0.0837863
-0.0349814
0.118863
0.00545687
0.00258291
1.58655
-1.31265
-0.327683
0.402258
-0.630263
1.00673
-0.376465
-0.0700777
-0.0309467
0.123173
-0.0553395
0.353178
0.00899504
-0.0646769
0.352054
0.0426312
0.0424823
-0.246555
0.204073
0.139796
0.0342285
0.0967324
0.180014
1.43347
0.570521
0.103522
0.713158
-0.81668
-1.01675
1.39776
0.194687
-0.132079
0.0761047
-0.766678
0.690573
-0.00684017
0.134218
-0.475882
-0.0734749
0.133373
-0.0598982
0.1319
-0.205375
-0.449317
-0.105649
-0.0708145
0.0738449
-0.00303034
0.000125034
-0.0259997
0.0137768
-0.0061679
0.657689
-0.607523
-0.0501661
-0.292239
0.304903
0.880874
0.59903
-0.246175
-0.0267685
0.062079
-0.353621
-0.119955
0.171615
-0.583307
0.411692
-0.00178285
-0.000158314
0.0552937
0.0932632
-0.148557
0.00265956
-0.00904776
0.0063882
-0.0230197
0.0149335
0.00808618
-1.23004
0.449017
-0.146089
-1.35394
-0.196908
-0.822275
1.60329
1.58005
-0.193134
-0.173503
0.122261
-0.0626058
0.0682069
-0.00560105
-0.201727
0.975918
-0.774191
0.553931
0.0740467
0.0013526
-0.00313545
0.12043
-0.408294
0.0349814
-0.0457832
0.00461823
-0.670066
0.316444
-0.0569764
0.0947954
-0.229541
0.614921
1.09277
0.0052432
-0.061298
0.00131881
0.0599792
1.94574
-0.365691
-0.0610155
-0.0543077
-0.979898
0.157622
0.382378
-0.206267
-0.476333
-0.130798
0.607132
0.816907
-0.366185
-0.450722
0.0198049
0.854497
-1.75914
0.143397
-0.0097729
-0.0311442
0.0409171
0.340255
1.75686
-0.170441
0.177577
0.121274
2.26462
-0.661334
-0.678279
0.0543044
0.623975
0.384735
0.0100373
-0.350089
0.53797
0.814522
0.448168
0.0764138
-0.0213911
-0.61707
0.234512
0.382559
1.3656
0.0636766
-0.0466993
-0.0499642
-0.360666
0.105585
-0.311532
0.830902
0.367792
-0.11499
0.0182241
0.285367
-0.431588
-0.0213737
0.0180678
0.111242
-0.148105
0.0368628
-0.299312
0.312797
-0.0134844
0.488598
-0.735417
-1.30424
0.089615
1.21463
0.0799103
-0.210104
0.130194
0.269732
0.0403227
-0.316638
0.443022
-0.665192
0.665192
1.45755
1.10543
-0.710285
0.33059
0.483932
-0.566579
0.364842
0.912548
-0.358617
0.0119837
-0.876796
0.864813
0.132344
0.00490784
0.0266886
-0.751089
0.434451
0.114522
-0.169929
-0.119706
0.289635
0.30593
-0.51361
0.343681
-1.11217
-0.286175
-0.653208
-0.0409502
0.00449334
0.000481559
-0.224548
0.0874616
0.0568107
0.0343608
-0.144305
0.109944
-0.33183
-0.459523
-0.0056823
0.0683078
-1.01692
0.514919
0.501998
-0.568523
0.383691
-0.0910263
0.154829
0.232414
-0.00453294
-0.0133586
-0.986562
0.528596
0.033944
0.0693182
-0.150995
0.0760966
0.198532
0.00806261
-0.431474
1.17666
0.478643
-0.0379316
0.867048
-0.790943
0.787688
-0.444284
-0.613859
0.17364
0.15314
-0.793191
0.762553
0.0306382
1.12615
-0.295244
-0.196303
-0.13138
-0.102503
0.0217071
0.958388
-0.844082
-0.114306
-0.181089
0.107085
0.0275332
0.120665
0.882886
0.656725
-0.814975
0.15825
-0.323508
-0.0505648
-0.326397
-0.69052
0.135696
1.35999
1.06577
0.0396543
0.168027
0.554766
-0.722793
0.00698935
0.0497022
-0.00381619
-0.000716754
-0.513462
-0.100397
0.175003
-0.173764
-0.185603
0.136338
-0.533891
0.277006
-0.992087
-0.36401
-0.28935
-0.644768
1.56318
-0.100534
-0.28318
-0.385323
-0.284742
0.159238
0.299527
0.0525272
1.32151
-0.858067
-0.188393
0.126756
-0.465665
-0.329765
0.79543
-0.0108259
0.00105299
0.048332
-0.0610195
-0.238293
-0.119993
0.697778
-0.418233
-0.279545
0.183765
0.134077
-0.0965761
-0.0375014
0.240181
0.059346
-0.426753
-1.27286
-0.0953829
0.13903
0.936681
-0.279955
0.0185504
0.106201
-0.0208368
0.0199868
0.000849985
0.0181967
-0.0438917
-0.242057
0.0776032
-0.0706695
-0.559107
0.41918
0.0194986
0.124267
-0.0443564
-0.694216
1.59794
-1.23015
0.0159692
-0.191603
0.175634
-0.13581
-0.539255
0.675064
0.0768363
-0.713428
-1.13631
-0.167933
-0.0617298
0.000739285
0.0609905
-0.246653
-0.61133
-0.173853
-0.142766
-0.61707
-0.229617
0.163948
-0.308716
-1.1611
-0.545295
0.407735
0.13756
0.263504
0.114217
0.535655
0.140271
-0.675925
0.130993
0.0540935
0.903195
0.196964
-1.10016
-0.221493
0.341302
1.05646
-0.240312
0.179319
-0.731467
1.07277
0.202366
-0.0663087
-0.0335575
0.0503222
-0.00822595
1.13065
-1.16858
0.729653
0.087254
-1.29936
-0.118061
0.231454
0.681094
0.917506
0.019373
-0.0203601
-1.06577
-0.653208
-0.711101
0.722093
-0.0267285
-0.888803
0.65847
0.610756
-0.934686
0.837903
-0.00446906
-0.788722
-0.309793
0.635774
-0.773026
0.137252
0.0806612
0.0534163
-0.462864
-0.188214
1.07759
-0.889379
0.00190166
0.00259168
-0.262134
0.213351
0.71261
0.222254
-0.207372
-0.181274
0.625692
-0.728845
0.224735
0.0479108
0.552976
0.682962
-1.23594
-0.772928
1.00744
1.09177
-0.576848
0.0808765
0.194344
-0.382559
-0.00661456
0.215863
-0.0614371
0.0894855
0.0173461
0.00121689
-0.0236395
0.0224226
-1.02869
-0.0347599
0.31905
-0.809012
-0.480672
1.36915
-0.888479
0.370727
0.636001
-0.0495241
0.0529944
-0.00347024
0.0275055
0.598186
-0.718722
0.669299
0.625052
-1.10572
0.312526
-0.0966629
-0.584615
-0.407472
-0.67235
1.22533
-0.0585535
-0.881265
-1.94605
-0.12423
0.194344
0.0504915
-0.859503
0.833919
-0.648469
-0.185451
-0.982032
0.397417
0.00606714
0.113944
-0.000394198
-0.11355
-0.9722
0.564728
-0.214559
0.910262
-0.925319
0.191233
-0.207243
-0.0954724
0.238392
1.18496
0.351955
-0.162601
-1.44128
0.489407
1.30378
-0.855611
-0.55356
-0.517368
1.07093
0.44644
0.017443
-0.0116744
-0.733567
0.698807
0.162304
-0.134798
-0.163584
0.190314
-0.02673
0.688384
0.680768
0.780529
-0.814859
-0.491831
-0.450131
-0.4716
-0.5006
0.802705
-0.802705
0.683076
-0.683076
-0.733567
-0.289463
0.289463
-0.190314
-0.421841
-0.4857
-0.542337
-0.29239
0.29239
0.162304
-0.134798
0.780529
0.769633
-0.769633
0.814859
0.761313
-0.761313
0.508169
0.5284
0.482632
-0.130086
-0.4994
-0.549869
1.07827
-0.368129
-1.3775
0.70515
0.613765
0.478002
-0.0595461
-0.0176945
0.0738185
-0.885224
0.0922295
0.792994
-0.121605
0.0913334
-0.996156
0.587264
0.923537
-0.592948
-0.124033
0.00798582
-0.00788481
-0.806259
-0.0782126
-0.542259
-0.00134904
0.00548196
0.572312
-0.135732
0.0509681
0.17275
0.00770195
-0.0130896
0.00538767
-0.814209
0.065822
0.748387
0.595767
0.589194
-0.532837
0.415086
0.117751
0.916939
-0.742195
-0.174744
0.079217
0.298671
-0.0137609
-0.0570537
-0.0567777
-0.0144155
0.474305
-1.13296
-0.842518
0.0982374
-0.744058
0.795441
-0.0513825
0.123761
-0.899275
0.775514
-0.801268
0.902833
-0.101565
-0.0752938
0.0934904
0.0199039
-0.285798
0.584481
0.640846
-0.0943231
-0.790901
0.915574
-0.0924861
-0.823088
0.0378699
-0.107948
1.20953
0.822616
-0.752828
0.457005
-0.382958
0.103574
-0.894475
1.4303
0.369351
-0.791965
0.00324367
1.0174
-0.893637
1.21771
1.22826
-0.871134
-0.357123
-0.880444
-0.115712
-0.409514
0.0333723
-0.601906
0.822903
-0.788002
0.788002
-0.604359
-0.0846867
-0.864892
0.122697
-0.931815
0.865223
0.0754924
-0.19635
-0.0576374
0.0598942
0.0110477
0.187919
0.829479
0.818146
0.771777
0.137932
-0.909709
-0.729658
1.20766
-0.782534
-0.105795
0.888329
0.17185
-0.890572
-0.676973
0.88784
-0.784267
-0.107173
0.461624
-0.024115
-0.437509
-0.00905908
1.34592
-1.33686
0.115363
-0.325447
0.210085
-0.889707
-0.830945
0.0868868
0.528168
0.25952
-1.7394
1.12159
-0.580553
0.580553
-0.902913
-0.538369
-0.0987264
0.533178
-1.05999
1.1496
0.782045
-0.202485
1.13861
-0.689597
1.00545
-1.24968
0.244227
-0.065163
-1.45029
0.253746
0.498599
-0.342834
-0.253948
0.276054
0.300931
-0.221714
0.780376
-0.881941
0.781853
0.425807
-0.151361
0.738624
0.586979
-0.586979
-0.0736365
0.0783098
0.109127
-0.0747662
1.24829
0.0976248
0.334513
-0.000628674
0.00324335
-0.00261467
-0.66858
0.697064
-0.0284838
0.373308
-1.24444
0.109331
-0.893597
-1.1203
1.46741
-0.347111
0.176947
0.874275
-1.12834
1.50165
-0.755666
0.600616
-0.657889
-0.659546
0.154193
-0.238988
0.0275167
0.0624689
-0.811593
0.572604
0.0064261
-0.933971
0.0694201
0.726021
0.69387
-0.0932537
0.0724585
0.787095
-0.122738
0.687764
-0.565027
-0.850988
0.530089
0.514885
-0.953592
0.731257
0.222335
-0.684108
-0.128554
0.922226
-0.418647
-0.156878
-0.0379508
0.486096
0.513904
-0.770559
-0.111382
-0.564877
-0.342832
-0.554097
-0.287274
0.403371
0.596629
-0.129514
0.116771
-0.863045
-0.0676825
-0.590207
-0.155254
-0.248974
0.404229
-0.0392583
-0.00463346
0.111589
0.0718177
-0.128244
-0.113813
0.758563
-0.644542
0.717001
-0.0810813
-0.730511
0.203819
-0.0145223
-0.189297
-0.74786
-0.190855
0.938715
-0.242255
0.230352
-0.0253853
-0.103492
-0.0122896
0.0159684
0.711145
-0.130592
0.123454
0.10896
-0.736822
0.0682412
1.02287
-0.361367
-0.0406157
-0.318629
0.190344
-0.290857
1.02292
-0.00486993
0.367407
-0.246133
-0.00897541
-0.0568514
-0.102056
0.0444966
0.97837
0.253789
-0.137839
-0.115949
0.845449
-0.0209203
0.00167164
0.0192487
0.127558
-0.0142382
-0.00102116
0.21801
-0.106768
0.241799
-1.30179
0.384409
-0.13062
0.00526137
0.291351
-0.152362
-0.976244
1.32563
-0.349381
-0.779075
0.835425
-0.0563501
0.13046
0.201786
0.000579353
-0.0713504
1.29279
-0.456199
-0.076638
0.27506
0.454916
0.190714
-0.64563
0.408655
0.0387958
0.658268
-0.574174
0.560586
0.0135881
1.31252
-1.15328
-0.0302144
0.0382417
-0.0080273
0.694089
-0.00949609
-0.0829111
0.0197107
1.36942
0.519874
-0.389414
0.0885937
-0.0492298
-0.160874
0.172882
0.00920683
-0.182089
0.00863663
-0.00741975
0.989778
-0.792813
0.187803
0.220856
-0.025844
-0.0894531
0.224596
0.0948243
0.00614295
0.083832
0.763509
0.381006
0.224162
-0.605169
0.801801
0.157779
-0.95958
0.644569
0.120474
-0.0691782
-0.00833034
0.0775086
-0.748412
-0.0769466
-1.17273
-0.00454173
0.746338
0.716427
0.143932
-0.145878
-0.316986
0.81642
0.147755
-0.0813941
-0.882195
0.145721
-0.270622
-0.186493
-0.17453
0.688268
0.0752405
0.0132428
0.63525
-0.433464
-0.228851
0.162721
0.0277399
-0.111661
0.421219
-0.0575604
-0.0640202
-0.0714414
0.173379
0.242663
0.559139
-0.152551
0.370621
-0.0462116
-0.108483
0.0219856
-0.000946691
-0.0210389
-1.45462
0.301338
-0.0108008
0.901844
-0.230118
-0.615552
0.640386
-0.024834
0.404439
0.756509
-0.155109
-0.0341876
0.0780146
-0.173487
0.630668
0.125841
0.608928
0.334243
-0.268583
0.725588
0.0953851
0.882985
-0.597451
0.347507
0.249944
-0.285729
-0.0711453
0.0414779
0.0630151
-0.046732
1.1947
0.736785
0.0796345
0.620093
0.216198
-0.876004
-0.0813086
-0.675364
0.678608
-0.023656
-0.586135
0.430881
0.874037
0.669464
0.160295
0.0385413
-0.161341
-0.314541
1.10266
0.49528
0.0418296
0.0275585
0.841646
0.0413395
0.697034
0.498614
-0.0773249
0.807458
-0.742084
0.929312
-0.187228
-0.411128
-0.186323
-0.0492649
-0.186526
-0.218453
0.791565
0.00915102
-0.00327702
0.631012
0.0384037
-0.357033
0.601782
-0.130468
0.23767
0.759525
0.232079
-0.991604
0.275615
-0.924084
0.143314
-1.37346
-0.180198
0.76921
-0.589012
-0.663578
-0.10933
0.00583752
-0.0552655
-1.03939
0.0224667
-0.0433035
0.93401
0.183587
-0.362163
0.178576
-0.0557027
-0.578126
0.0745933
0.292814
-1.40202
0.0038963
0.00380566
-0.347584
-0.0539828
-0.595381
0.0212066
0.565113
0.308924
1.03457
0.884055
-0.243869
-0.386381
0.63025
0.0135877
-0.617254
0.617254
-0.247661
-0.913173
1.16083
0.0300433
-0.149967
0.683149
-0.118036
-0.224842
-0.376629
0.21975
0.663904
0.672291
-0.246161
0.17515
-0.10467
-0.461916
0.483259
0.0773271
0.0563435
0.0140091
-1.41064
-0.28212
-0.255887
0.695632
0.304368
-0.28212
0.695632
-0.259729
-0.239567
-0.259729
-0.695536
0.695536
0.304464
-0.0142517
0.165102
-0.0763639
0.18852
0.140894
-0.464886
0.637413
-0.0356317
0.654997
-0.502952
-0.152045
-0.0575573
0.057045
0.000512276
-0.00929338
0.00866471
-0.123422
0.0187763
-0.0978624
-0.433629
-0.352745
0.128197
0.0416368
0.831031
-0.276266
-0.603798
0.319056
0.00460959
-0.17567
-0.00878114
0.679962
0.0663756
0.152456
-0.0208741
-0.00197711
0.018804
0.0842624
0.560962
-0.475538
-0.0854239
1.92811
0.54416
-0.603468
0.898895
0.0111872
-0.0620633
0.105762
0.201987
0.127065
1.12612
-0.366592
0.0171802
-0.0581304
0.60396
-0.789962
0.0220958
-0.0220958
0.0197541
-0.0197541
-0.0193707
0.0193707
0.0250671
0.367168
0.45908
-0.000881698
-0.721515
0.48639
0.189039
0.0289709
-0.0828156
-0.483721
0.792403
0.111116
-0.795224
-1.15056
-0.0965632
0.0713619
0.0187463
-0.00381278
-0.0200144
0.0200144
0.254034
-0.0207537
0.0207537
0.700925
0.0922386
-0.0147943
-0.00607986
0.0066289
-0.0679269
-0.0224541
0.0224541
-0.010302
0.010302
-0.0218136
0.0218136
-0.0169109
0.0169109
0.118009
-0.293399
-0.08198
0.219136
-0.0164403
0.0164403
-0.374639
0.510883
-0.136244
0.50314
-0.221803
-0.369291
-0.234507
0.557748
-0.100593
0.075627
0.564758
0.565774
-0.00916348
0.00916348
0.153036
0.0242449
-0.0242449
-0.0155
0.0155
0.75559
-1.16008
0.0358622
-0.254076
0.347339
0.00468603
-0.00468603
0.0134198
-0.0134198
0.0180309
-0.0180309
0.0232511
-0.0232511
-0.0230021
0.0230021
0.0345737
-0.0345737
0.48111
-0.0312737
0.0312737
-0.00366487
0.00366487
0.023632
-0.023632
-0.00445309
0.00445309
0.0108665
-0.0108665
-0.100123
-0.0249528
0.0249528
0.144049
0.0381804
-0.0388827
0.0388827
0.00467427
-0.00467427
0.022452
-0.022452
0.0329737
-0.0329737
0.0256557
-0.0256557
0.00563272
-0.00563272
-0.000739918
0.000739918
-0.519935
-0.223593
-0.00850948
0.00850948
-0.00251608
0.00251608
-0.0375975
0.0375975
-0.0279519
0.0279519
-0.0012303
0.0012303
-0.416197
0.647651
0.25887
-0.031596
0.031596
-0.0458728
-0.0155123
0.0155123
-0.00152649
0.00152649
0.0372901
-0.0372901
-0.232335
0.150941
0.00184594
-0.00184594
-0.0230404
0.0230404
-0.498676
0.0443522
-0.406777
-0.0313272
0.0313272
-0.444521
0.033939
0.0190554
-0.0105051
-1.28886
-0.0362338
0.0362338
-0.198145
0.140585
-0.0409395
-0.000833844
0.000833844
0.00354073
0.04606
0.262521
-0.324387
-0.283163
0.60755
0.196342
-0.00307589
0.00307589
-0.227353
0.386115
-0.158762
0.775035
-0.399861
-0.375174
-0.461063
-0.662449
-0.096995
0.416051
-0.453611
-0.397377
-0.571522
0.0198539
0.191728
-1.32362
0.0151359
-0.0151359
-0.000281294
0.000281294
0.0304221
-0.0304221
0.0262108
-0.0262108
0.00191971
-0.00191971
-0.00012298
0.00012298
0.0454091
-0.361463
0.174431
-0.298464
-0.00188254
0.00188254
-0.0449871
0.0449871
-0.0397907
0.0397907
0.180178
0.0629027
-0.24308
-0.00261121
0.315669
-0.545787
0.00156092
-0.00156092
-0.0232603
0.0232603
-0.0947873
0.0773654
-0.17436
-0.000214804
0.000214804
0.105061
0.0134221
0.994299
-0.484562
-0.0794645
0.564026
-0.627583
0.0293414
-0.631247
-0.0386364
0.0386364
-0.67966
0.278253
0.0488713
-0.0488713
-0.644255
0.384735
0.263678
0.121831
0.00208938
-0.00208938
-0.828806
0.00160782
-0.00160782
0.317802
0.409806
0.0661546
-0.0527693
0.0527693
-0.000464364
0.000464364
-0.0418002
0.0418002
-0.0538234
0.0538234
0.00207063
-0.00207063
-0.0594789
0.0594789
0.00203251
-0.00203251
-0.0450695
0.0450695
0.000552623
-0.0452272
0.0452272
0.00225124
-0.00225124
0.0475458
-0.0475458
0.00111331
-0.00111331
0.0476019
-0.0476019
-0.225346
-0.00129762
0.00129762
-0.0037603
0.0037603
-0.0533142
0.0829388
-0.0101485
0.0101485
0.00524107
-0.00524107
-0.058441
0.058441
0.293292
-0.0182347
0.0182347
-0.0570948
0.0570948
-0.00759929
0.00759929
-0.0661229
0.0661229
-0.0132982
0.0132982
-0.0790233
0.0790233
-0.0214917
0.0214917
-0.0939576
0.0939576
-0.688326
0.296096
-0.533132
0.508298
-0.882792
0.0437027
-0.567197
0.392667
0.0508599
0.132905
0.00359414
-0.00359414
0.319924
-0.724248
0.042133
-0.0281239
-1.00034
1.43962
1.28228
0.254166
-0.0445495
-0.0349788
-0.395781
-0.579349
-0.0814678
0.390058
-1.3035
-0.0187861
0.0187861
-0.749684
0.0204991
-0.0204991
0.000108799
-0.000108799
0.309392
-0.35964
-0.00208112
0.00208112
0.0190268
0.0145089
0.594575
0.153442
-0.00762174
-0.00939879
-0.0109613
-0.0974209
0.493796
-0.396375
0.221435
0.0323112
0.0150298
0.978515
-0.00992895
0.0550714
-0.405711
0.439083
-0.485176
-1.01123
-0.222311
-0.069939
0.0177512
-0.275013
-0.0504344
0.045714
-0.0036502
-0.0139095
0.782802
-0.553785
-0.0359277
0.0636676
-0.0350906
0.0410126
0.124089
0.423809
0.237048
-0.166955
0.211869
0.0107715
-0.000572938
-1.25809
0.0234475
-0.105894
-0.256269
-0.0189838
-1.40393
-0.071389
0.264003
-0.348188
0.39082
0.324981
-0.969748
0.0491991
0.00639264
-0.11434
-0.348061
0.465812
-0.089187
0.00799187
0.0811951
-0.0266623
0.0266623
0.181156
-0.42733
-0.137748
0.118883
-0.0775995
0.0539435
-0.064802
-0.00654244
0.0713445
-0.0287186
-0.151549
0.130948
-0.0427341
-0.293842
-0.357483
0.651324
0.0141857
0.0577154
0.14999
-0.0265357
-0.189026
0.0672637
-0.154529
0.30767
-0.00714367
0.0263923
-0.0282724
0.178262
0.00316983
0.258074
-0.000684747
0.000684747
-0.13627
0.833304
0.0879091
-0.169218
-0.057767
0.0123651
0.783222
0.718424
0.0206632
-0.0356761
-0.534
0.000868475
0.158685
0.0908951
-0.678027
0.31941
-0.0564505
0.381692
-0.675534
0.218856
0.512401
-0.0881056
0.0881056
-0.000394198
-1.28182
0.571316
0.710504
-0.209772
0.154507
0.0707502
-0.111102
-0.624315
-0.124591
-0.0364661
0.0469225
0.931896
0.263339
-0.103044
-0.0691874
-0.373781
-0.731943
-0.0820633
-0.264822
0.802792
0.582325
-0.266656
-0.261852
0.553204
0.0134035
0.370281
-0.268781
0.108934
-0.465042
0.328798
0.122928
-0.122928
0.0827944
-0.125941
0.0431464
0.00505266
-0.00166022
0.0199868
-0.291292
-0.45712
0.228159
-0.184385
-0.043774
0.543849
-1.0752
0.110791
-1.01633
0.698982
-0.12087
-0.177594
-0.0416655
-0.0783275
-0.480648
0.0470181
-0.284525
0.00384277
-0.0189838
0.376423
-0.00519871
0.00308124
0.000470662
0.0115104
-0.0133103
0.00179987
-0.109969
-0.0166784
-0.165229
0.181907
-0.126657
-0.338385
0.0190268
0.345214
0.00385848
-0.37287
0.08352
0.00243129
0.219863
-0.220745
-0.012074
0.012074
-0.000944629
0.00311785
-0.00933811
0.000940297
-0.0497751
0.000797068
-0.00118842
0.261467
0.0290501
-0.000670092
0.000670092
0.127738
0.512465
0.00179248
-0.290634
0.435424
1.12585
-0.474718
0.338769
-0.438158
-0.241479
0.10373
0.234056
-0.229353
-0.00259713
0.0206949
-0.0047265
-0.0100486
-0.183506
-0.378516
0.864906
0.527564
-0.482155
0.21403
-0.00160004
0.19645
-0.0195032
0.00209245
0.00119574
0.0194992
0.244801
0.00128515
-0.000210716
0.719474
-0.65221
-0.244674
0.112833
0.927768
0.000989587
0.00110602
-0.0409395
-0.00567148
0.818368
-0.431882
0.509209
-0.598719
0.900997
-0.52684
0.581803
-0.189136
0.694386
0.0013772
0.00325702
0.0154893
-0.117939
0.140953
-0.21395
0.00937843
0.00254556
0.0634138
-0.0485997
-0.0148142
0.00122996
0.023311
0.0482724
-0.0715834
-0.0884627
0.00303762
0.000205728
0.00158115
0.471421
-0.431013
0.000808355
0.000330622
1.05641
-0.485095
0.389031
-0.00581169
0.000552549
0.236177
-0.0483735
-0.0397628
-0.115723
-0.0179361
-0.00355685
0.119925
0.0583293
-0.00159668
0.414848
0.000848716
-0.00443698
0.00443698
0.00792264
-0.0173214
3.71678e-05
-0.319729
-0.00366026
0.0715048
-0.107169
0.0326611
0.00734315
-0.0656812
0.000321619
0.00246267
0.467818
0.000169669
-0.00464531
-0.0446196
-0.00200955
0.000545553
0.12045
0.214063
-0.711199
0.480435
-0.858951
0.0269311
-0.000249559
-0.714779
0.128654
0.1474
0.600084
-0.015187
-0.0222104
-0.00389801
-0.00132547
-0.553819
-0.00326932
-3.81271e-05
-0.0394969
0.932917
-0.524262
-0.00247632
-0.000919199
-0.00567167
-0.00241093
0.0671518
-0.0222696
0.0222696
-0.0347738
0.0378916
-0.00235822
-0.00768193
0.0509126
-0.0478314
-0.16276
0.0916145
-0.00569894
-0.0129004
0.042695
-0.0159955
0.0607139
-0.0429627
-0.622647
0.571265
0.0208518
-0.00164693
0.331374
-0.157995
-0.0706443
-0.687812
-0.0767561
-0.119723
-0.0929945
0.090985
0.685605
0.000575948
0.0105152
-0.00940919
0.341885
0.0565892
-0.143479
0.0868903
-0.0705212
-0.617131
0.865624