/*--------------------------------*- C++ -*----------------------------------*\
| =========                 |                                                 |
| \\      /  F ield         | OpenFOAM: The Open Source CFD Toolbox           |
|  \\    /   O peration     | Version:  2306                                  |
|   \\  /    A nd           | Website:  www.openfoam.com                      |
|    \\/     M anipulation  |                                                 |
\*---------------------------------------------------------------------------*/
FoamFile
{
    version     2.0;
    format      ascii;
    arch        "LSB;label=32;scalar=64";
    class       volVectorField;
    location    "15";
    object      U;
}
// * * * * * * * * * * * * * * * * * * * * * * * * * * * * * * * * * * * * * //

dimensions      [0 1 -1 0 0 0 0];

internalField   nonuniform List<vector> 
2186
(
(1.33811 -0.063468 1.77836e-19)
(1.6326 -0.956826 -1.07398e-19)
(1.47828 -0.932287 -2.28155e-22)
(0.752602 -0.595505 -1.23604e-19)
(-0.403237 0.571938 -2.02263e-19)
(1.16563 0.0352159 0)
(0.73676 -0.680376 0)
(-0.341153 -0.483768 1.26745e-19)
(1.49644 -0.264629 2.13647e-19)
(0.562262 -0.333607 -2.373e-21)
(0.663008 0.596007 0)
(0.804397 -0.282419 -1.46909e-19)
(-0.387971 -0.496791 -5.08585e-20)
(1.18952 0.024325 -3.14384e-19)
(1.82087 -0.704942 -1.14161e-19)
(1.00907 -0.0051905 1.48794e-19)
(0.98852 0.0115372 0)
(-0.658836 0.612624 0)
(1.21068 0.0718123 0)
(-0.0673041 0.21061 -6.88755e-20)
(0.478794 0.0609201 -1.0117e-19)
(-0.235207 0.139024 9.36256e-20)
(1.17508 0.0239468 2.60023e-19)
(-0.219609 -0.00553774 5.52844e-21)
(1.02839 0.0111376 -2.04149e-19)
(0.803545 -0.570162 0)
(0.761923 -0.0440048 1.25444e-19)
(0.623692 -0.60269 -1.39732e-19)
(1.19706 0.70023 0)
(0.966875 0.0254413 -2.79224e-19)
(-0.0169896 0.0230869 0)
(1.02489 -0.0114428 9.65775e-21)
(-0.0393753 0.285518 0)
(2.50149 0.164937 2.35311e-19)
(-0.104867 -0.181499 3.31163e-21)
(1.52089 0.770685 4.22073e-20)
(1.82697 0.158625 1.44077e-19)
(0.502769 0.109762 -3.01419e-19)
(1.88587 0.347296 -3.61574e-19)
(1.0551 0.0710986 1.01158e-20)
(-0.426017 -0.485897 0)
(-0.209098 0.104622 0)
(1.89543 -0.900998 9.8021e-20)
(-0.38539 0.138552 0)
(1.10428 0.27294 1.30448e-19)
(0.603451 -0.314759 2.44776e-19)
(0.937793 -0.7997 0)
(1.20605 -0.802129 8.13954e-20)
(2.40776 -0.400783 0)
(-0.369936 0.728081 2.06597e-19)
(-0.00583934 0.0813044 1.01826e-19)
(0.6173 0.569045 6.83641e-20)
(2.09119 -0.787282 1.2447e-19)
(0.584042 0.248542 -2.42103e-19)
(-0.24528 0.159263 3.4411e-20)
(0.777947 -0.663217 0)
(1.67977 -0.985381 1.85474e-20)
(0.593076 -0.552785 0)
(2.32994 0.302625 1.17109e-19)
(1.15682 -0.167383 -2.88316e-19)
(1.82578 -0.110945 1.65115e-19)
(1.33656 0.297085 -1.44838e-19)
(1.33168 0.522285 0)
(0.850861 0.125748 -1.10818e-20)
(1.35007 0.379988 -8.42397e-20)
(1.27238 -0.745675 -1.08099e-19)
(1.15675 0.650366 4.37621e-20)
(0.677132 0.0552822 -4.86574e-19)
(0.821592 0.048403 0)
(2.15257 -0.221657 -7.67521e-20)
(-0.333497 -0.532086 -1.48711e-19)
(1.9572 -0.388976 -1.51155e-19)
(0.725512 -0.0561964 -2.13731e-19)
(0.886893 -0.527934 0)
(0.82503 0.172885 -7.87328e-20)
(0.560393 -0.522194 -2.53014e-19)
(2.48352 -0.322465 0)
(1.00495 0.00935859 3.06781e-19)
(-0.0884371 -0.276063 0)
(1.92532 0.432439 0)
(0.856692 0.469433 1.50465e-19)
(0.821332 0.0959765 -2.04398e-20)
(1.03484 0.00445058 3.39552e-20)
(1.31164 0.416943 2.18109e-20)
(0.971446 0.0256785 3.55592e-19)
(1.04012 0.0283775 -8.43736e-21)
(0.662818 0.158527 -2.9107e-19)
(1.19696 0.0153434 -8.44337e-22)
(0.372257 -0.120781 0)
(-0.0652939 -0.0363689 1.06765e-19)
(0.875704 -0.634725 -1.35064e-19)
(-0.0998736 0.41247 -1.92553e-21)
(1.12362 -0.0801609 2.05359e-19)
(0.817633 -0.200873 0)
(0.974286 0.0211137 3.40599e-20)
(1.35483 0.640386 0)
(1.64491 -0.971568 0)
(1.28847 0.21745 0)
(-0.43908 0.685743 0)
(0.80664 -0.679582 2.42253e-19)
(0.578017 0.236675 -4.65962e-19)
(0.792501 0.342337 2.94009e-19)
(1.53097 0.197443 0)
(1.14569 -0.106513 -1.87731e-19)
(1.10707 0.0231322 1.5209e-19)
(-0.0656048 0.543934 1.25968e-19)
(0.619548 0.482884 0)
(2.22492 -0.182585 -1.51354e-19)
(0.978601 -0.486821 6.76643e-20)
(-1.56492 0.173505 2.1163e-19)
(1.69314 0.317841 1.19192e-19)
(-0.268932 0.699169 -2.95307e-19)
(0.831881 -0.756014 0)
(0.549312 0.322231 1.47029e-19)
(1.69182 -0.26873 -6.15968e-19)
(-0.411998 -0.216411 -4.73174e-19)
(1.25415 0.201438 6.8889e-20)
(2.00562 -0.536762 0)
(-0.0875569 -0.0406145 -3.19883e-19)
(0.709157 -0.0927191 6.75264e-20)
(1.53926 0.873275 0)
(-0.278193 0.826776 -3.31435e-19)
(0.870283 0.745797 -2.3145e-19)
(-0.906908 0.484812 5.04641e-19)
(1.02842 -0.0233762 0)
(1.34307 0.221943 -8.68028e-20)
(-0.348936 0.651125 0)
(0.709746 -0.510056 -9.04417e-20)
(-0.794299 0.523178 -2.70238e-19)
(0.80439 -0.733754 0)
(0.44798 -0.305613 3.58153e-19)
(0.555277 -0.474074 2.38342e-19)
(0.420543 -0.380844 0)
(1.00164 -0.796152 -9.58521e-20)
(0.825776 0.366169 0)
(-0.139561 0.833847 -1.62099e-19)
(0.826649 -0.71142 1.14366e-19)
(2.44731 -0.26026 3.36218e-19)
(2.27966 0.186508 0)
(-0.0907947 -0.201607 0)
(0.672138 0.624067 -2.84942e-19)
(1.80867 -0.646066 2.20542e-20)
(-0.226199 -0.296399 0)
(1.00223 -0.821273 -1.06262e-20)
(1.14843 -0.101043 0)
(1.10314 -0.127366 3.27481e-19)
(2.15108 -0.192965 -1.47366e-19)
(-0.439413 0.580083 0)
(1.24532 -0.561859 -4.16891e-20)
(-0.221233 0.359245 -4.29658e-20)
(-0.225473 0.498121 0)
(1.11275 -0.828302 1.24387e-20)
(1.00644 0.00416933 -5.12565e-19)
(0.663686 -0.497065 -8.93105e-21)
(0.829038 -0.52863 0)
(1.22081 -0.742691 -6.91859e-20)
(0.646927 0.217391 2.26841e-19)
(1.22427 0.102692 0)
(1.48579 0.105343 -1.59314e-19)
(1.21773 -0.871036 -1.3182e-19)
(-0.0757608 -0.174541 -1.18472e-19)
(-0.312729 -0.33202 -2.17249e-19)
(1.06248 0.00170912 1.92071e-19)
(0.930363 -0.474367 -8.50883e-20)
(1.19754 0.0526199 7.81733e-22)
(1.32802 0.0328091 1.26653e-21)
(0.713501 -0.10819 1.3052e-19)
(-0.207441 -0.0420115 -2.88039e-19)
(1.36733 -0.425783 0)
(1.34207 -0.513166 4.98726e-20)
(1.43156 0.644281 1.00061e-19)
(0.823192 -0.627606 -1.7671e-19)
(0.996349 0.00864167 1.05089e-20)
(0.734307 -0.546035 2.48634e-19)
(1.28645 0.79139 9.5525e-20)
(1.87172 0.100941 2.4123e-20)
(-0.48214 0.519806 0)
(1.07644 0.0518515 -1.98871e-19)
(-0.913861 -0.225479 -3.03912e-19)
(1.06253 0.478934 6.69768e-20)
(0.0395936 -0.107646 1.74051e-19)
(1.14732 0.0262303 -3.62966e-20)
(-0.1356 0.208393 -1.67301e-19)
(1.28555 0.577126 -5.95725e-20)
(1.11981 0.872398 0)
(-0.53689 0.529653 -1.08856e-19)
(-0.146381 -0.0310387 0)
(0.636271 0.542892 -2.39315e-19)
(2.05393 0.271733 -2.61832e-20)
(-0.431982 -0.422228 1.68903e-19)
(-0.796337 0.302175 -6.99213e-19)
(0.724494 0.059215 2.13639e-19)
(2.17342 0.02299 -7.02693e-20)
(0.995084 -0.357706 -2.51098e-20)
(-0.0292375 -0.051985 0)
(-0.969903 -0.0832902 3.51328e-19)
(1.30558 0.958051 8.05776e-22)
(0.84096 0.0660916 -1.16392e-19)
(0.541569 0.506983 1.66066e-19)
(0.414419 0.18727 0)
(-0.210609 -0.463434 -2.57802e-19)
(-0.555523 -0.0707964 1.9329e-19)
(1.31702 -0.974081 1.36342e-22)
(0.989351 -0.0403672 -1.59066e-19)
(-0.175713 -0.139425 7.15252e-21)
(-0.137002 0.183178 1.64861e-19)
(-0.309131 -0.129366 -2.07109e-19)
(2.00749 -0.5234 0)
(1.12591 0.0414059 -2.66522e-19)
(2.30589 0.0698452 2.757e-19)
(1.2997 -0.631617 7.04352e-20)
(0.33 -0.0585705 1.82937e-20)
(0.578639 0.302819 0)
(0.927 0.734445 -1.36138e-20)
(0.669599 0.614832 1.55611e-19)
(0.911702 -0.574988 1.22196e-19)
(0.668062 0.479164 0)
(1.02175 0.000633296 6.82372e-21)
(0.898139 -0.676724 1.73872e-19)
(0.82753 0.408839 -3.91491e-19)
(1.24628 -0.10877 0)
(-0.169331 -0.138523 -3.17275e-19)
(-0.033625 0.409632 -1.02073e-19)
(1.56999 0.721056 0)
(1.37137 -0.955645 -1.16694e-22)
(-0.655909 0.621407 0)
(-0.376399 0.585777 1.26389e-19)
(0.718998 0.634162 -8.36078e-20)
(0.852689 -0.236977 0)
(-0.216885 -0.203764 0)
(1.60291 -0.474901 0)
(-0.858157 -0.240934 6.3941e-19)
(1.23339 -0.900048 8.66447e-20)
(1.19872 -0.614567 4.62935e-20)
(1.08025 -0.172981 -1.29662e-19)
(0.895482 -0.707087 -1.3648e-19)
(0.190096 -0.194309 0)
(-1.22069 0.255308 0)
(1.01806 -0.520175 1.40956e-19)
(-0.162921 -0.303541 0)
(-0.331275 0.755639 0)
(-0.407551 -0.18053 4.04789e-19)
(0.775463 0.652276 7.25335e-20)
(0.995821 0.778948 0)
(0.679139 0.5319 -7.3073e-20)
(0.831894 -0.0544822 -1.91415e-19)
(0.729018 0.541597 -1.94905e-19)
(0.575965 0.533781 -1.43034e-19)
(-0.280675 -0.569851 3.10789e-21)
(0.733303 -0.657469 0)
(0.892252 0.16813 -2.74888e-19)
(-0.380629 -0.536534 6.82234e-20)
(0.589232 0.545345 3.2e-19)
(0.939808 0.781294 0)
(-0.81492 -0.0677296 4.96309e-19)
(-0.0515186 -0.492057 3.63919e-19)
(0.035123 -0.390829 -1.90352e-19)
(0.645869 0.548631 -1.27123e-20)
(0.972059 -0.00721507 4.95837e-20)
(-0.429289 -0.430064 0)
(2.34309 -0.00825819 -3.4481e-19)
(1.72592 -0.682554 -1.89221e-19)
(0.665259 -0.615856 -6.18161e-20)
(-0.506332 0.449928 1.83082e-20)
(1.18433 0.453448 1.47274e-19)
(0.873004 0.400201 0)
(1.06144 -0.176962 1.56637e-19)
(0.140569 -0.562322 -9.65178e-21)
(-0.0470303 0.0973802 3.88607e-19)
(0.932095 0.0208174 -4.37587e-20)
(1.1167 0.132543 0)
(1.95502 -0.0641755 -3.46284e-19)
(1.94701 0.125647 0)
(0.534024 0.22701 -3.98883e-19)
(-0.150228 0.221187 0)
(-0.312146 -0.507473 2.91546e-19)
(0.7163 0.102689 0)
(0.634402 -0.530718 -1.5345e-19)
(1.13025 0.015188 1.73945e-19)
(-0.465945 0.639916 4.72103e-20)
(2.16193 -0.107192 2.59085e-22)
(2.13342 -0.277417 -1.55013e-19)
(1.10743 0.223746 -1.82667e-19)
(-0.394151 -0.508232 -1.32521e-19)
(1.09423 -0.866209 0)
(0.804231 0.012996 -1.26656e-19)
(0.937448 -0.389518 -2.41321e-19)
(1.75365 -0.59407 -9.72219e-21)
(1.75021 0.0210375 3.2225e-19)
(1.07074 -0.00862342 3.1976e-19)
(0.112801 -0.473787 -1.88611e-19)
(1.01015 -0.448232 -1.02572e-19)
(0.200414 -0.193076 2.17111e-19)
(1.00565 -0.00770829 0)
(1.00451 -0.00666467 0)
(1.20449 -0.702686 7.52117e-20)
(-0.0480238 0.748743 -1.08101e-19)
(0.176096 -0.120115 -1.54237e-19)
(1.91113 -0.1413 1.80548e-20)
(1.27268 -0.343678 0)
(2.08424 0.011047 -1.86139e-19)
(0.960449 -0.836235 -5.28711e-20)
(1.81748 -0.581244 -9.40138e-20)
(1.08718 0.822333 0)
(0.482746 -0.465535 0)
(0.586523 0.495867 -1.52867e-19)
(1.09057 0.276846 -3.35682e-19)
(2.30477 -0.270663 5.00971e-22)
(0.864323 0.153706 1.1815e-19)
(-0.06916 -0.417412 -5.4792e-19)
(1.05578 -0.170307 -4.09888e-20)
(-0.365978 -0.31665 0)
(-0.0825153 -0.2021 0)
(-0.468235 -0.311942 0)
(1.3629 -0.737812 -4.89248e-20)
(-0.236134 0.50422 -2.34416e-19)
(-0.0620325 0.159216 0)
(1.26703 0.959978 -2.02782e-20)
(1.10518 0.146191 -3.4983e-19)
(1.73589 0.469337 -4.53144e-20)
(1.06041 0.905998 5.92614e-20)
(-0.236163 0.690527 1.51548e-19)
(0.522742 -0.0774579 0)
(-0.46972 -0.244598 -3.50277e-19)
(-0.305769 0.658718 2.85805e-19)
(0.778516 0.0214263 1.57035e-19)
(1.50916 0.936119 2.37842e-20)
(1.57991 0.43705 -1.91634e-20)
(-0.145898 0.38069 -3.66475e-21)
(0.759614 -0.692794 -2.92366e-20)
(1.1315 0.00594056 0)
(1.73158 -0.0595182 0)
(1.05564 0.0560079 0)
(-1.31552 0.254981 -2.0324e-19)
(-0.467144 -0.315913 1.27961e-19)
(1.02834 0.827887 0)
(1.00001 -0.0084391 4.27849e-19)
(0.750444 0.584039 -1.95111e-19)
(-1.70983 0.0603975 -1.94333e-19)
(0.864784 0.0120836 -3.49951e-20)
(0.728268 -0.664164 -1.76785e-19)
(1.3689 0.699994 -2.14076e-20)
(0.576534 -0.470456 -2.48461e-19)
(1.12267 -0.00130195 -3.84683e-19)
(0.822989 0.0395882 3.69674e-20)
(1.53828 -0.176162 3.83317e-20)
(1.11223 -0.122506 -4.38497e-20)
(-0.0642582 -0.094831 -2.7671e-22)
(1.06978 0.45545 -2.23213e-19)
(1.29284 0.6031 8.34497e-20)
(-0.0565547 -0.444026 0)
(-0.123124 -0.320345 2.01659e-19)
(-0.230637 -0.158766 1.33559e-19)
(-0.196465 -0.0773821 -1.48078e-19)
(0.457748 0.285195 0)
(1.40656 -0.709748 0)
(0.0299991 -0.0281422 -1.41626e-19)
(-0.329904 -0.566144 -7.52338e-20)
(1.04684 -0.0300866 1.52526e-19)
(-0.431294 0.496852 -5.04565e-20)
(1.68551 -0.35526 -6.4174e-19)
(-0.0669094 0.762869 0)
(0.848784 -0.751964 -2.35491e-19)
(0.774579 -0.142048 6.36394e-20)
(-0.563679 -0.309479 1.89135e-19)
(0.715323 0.146536 2.83435e-19)
(0.616516 0.114033 9.21716e-20)
(0.511941 -0.485443 1.6987e-19)
(-0.250937 -0.355418 -1.53498e-19)
(1.44564 0.463779 0)
(0.374522 0.316179 -1.69613e-19)
(1.02502 -0.0154606 -2.42823e-19)
(-0.889747 0.28501 2.72806e-19)
(1.4049 0.483381 -8.56068e-20)
(-0.189293 -0.377038 -5.8306e-20)
(0.699618 -0.639016 -1.75583e-20)
(0.814258 0.180249 -1.76454e-19)
(0.964763 0.412703 1.92157e-20)
(1.15814 -0.142264 2.8053e-20)
(0.610944 -0.253054 -2.56799e-19)
(2.04216 -0.383315 -2.03504e-19)
(1.30101 -0.194429 0)
(1.33211 0.432687 -3.14431e-20)
(1.75945 0.112242 -2.04422e-20)
(0.928674 -0.246232 1.52574e-19)
(0.902702 0.335149 -1.90796e-19)
(0.895009 0.0829798 3.61183e-20)
(0.401499 0.366879 -2.19137e-19)
(-0.209295 0.499919 3.12125e-19)
(2.00492 -0.178532 0)
(0.930173 0.00455098 0)
(0.889186 -0.786479 4.34962e-20)
(-0.0473558 -0.57887 -3.97958e-19)
(-0.960738 0.201802 -3.51787e-19)
(-0.0893092 -0.144431 -2.5144e-19)
(-0.449542 0.790298 -1.99723e-19)
(-0.413505 -0.296938 0)
(-0.065899 -0.145329 4.49182e-20)
(0.214101 0.495361 -9.59362e-20)
(-0.158017 0.211658 -3.77194e-19)
(0.801571 -0.129307 0)
(1.47817 -0.64788 7.35674e-20)
(-0.235223 -0.230054 0)
(0.992472 0.0234363 3.08439e-19)
(-0.263152 -0.383919 2.26795e-20)
(0.552276 -0.442952 3.32984e-19)
(-0.947758 -0.204441 5.03782e-19)
(-1.69775 0.0476276 0)
(0.256067 0.695973 1.20027e-19)
(1.00543 0.0196088 -9.25272e-21)
(-0.186745 -0.139465 0)
(1.00597 -0.00629736 -4.81023e-20)
(0.87612 -0.739301 -2.29137e-19)
(1.44206 -0.80541 0)
(0.942805 -0.289969 1.7211e-19)
(0.128988 0.788197 2.76969e-19)
(-0.0126411 -0.0117097 0)
(-0.27533 -0.384796 -7.33225e-21)
(0.739475 -0.646204 -3.50628e-19)
(0.964916 -0.0302513 -2.19055e-19)
(-0.0680685 -0.603066 5.05231e-19)
(-0.239519 -0.498431 1.79429e-19)
(-0.392105 -0.316462 0)
(0.944239 0.459999 0)
(-0.483851 -0.373344 2.39448e-19)
(1.88216 0.0754936 -2.51699e-19)
(1.05616 0.880718 1.44167e-20)
(1.06529 0.2078 -1.03329e-19)
(1.15695 -0.00350882 -1.79796e-19)
(1.0495 -0.0812991 -6.13105e-20)
(-0.0792695 -0.597854 -4.63863e-19)
(2.02897 0.0608406 5.49393e-19)
(0.674624 0.0264194 1.69906e-19)
(1.96797 -0.0943277 1.64077e-19)
(1.05335 -0.136822 0)
(-0.147801 0.430274 4.41448e-19)
(1.1296 0.0266631 -4.17982e-19)
(1.72758 0.622875 -1.09823e-20)
(0.750249 -0.468883 -1.35377e-19)
(-0.0711886 -0.0343373 2.392e-19)
(0.811959 -0.712056 3.02813e-19)
(1.22631 0.192917 5.97337e-20)
(1.0047 -0.00731359 2.13191e-19)
(0.0289696 -0.442706 -2.0689e-19)
(1.02743 0.0118721 0)
(1.57048 0.165539 -2.14628e-19)
(-0.0235518 -0.0182987 0)
(1.02444 0.0137721 -1.25129e-19)
(-1.34461 -0.17719 -6.98595e-19)
(1.67824 0.331084 1.41814e-20)
(-0.355167 -0.126364 1.74339e-19)
(1.61427 0.00864024 -2.51966e-20)
(1.01347 -0.0159897 4.40647e-20)
(1.34478 -0.0891912 0)
(1.47345 -0.623316 -8.18154e-20)
(1.02263 0.0300996 -1.30333e-19)
(1.42358 0.780305 -2.6084e-20)
(1.38319 -0.0584872 0)
(0.717534 -0.153448 -1.38512e-20)
(0.0292977 -0.0303486 0)
(1.36132 0.0498388 0)
(-0.45749 -0.381164 0)
(1.23272 0.429908 0)
(1.83329 0.321035 5.70775e-20)
(0.723788 0.596629 3.41779e-19)
(0.297147 -0.298879 -2.01071e-19)
(-0.297092 -0.578743 -4.33364e-19)
(-0.0278462 -0.0535452 0)
(1.53138 -0.524226 8.52739e-20)
(1.30525 0.510153 0)
(1.43599 0.29779 0)
(-0.496412 -0.201995 1.54822e-19)
(0.792634 0.699054 1.06618e-19)
(1.69339 -0.0260743 0)
(-0.386841 -0.454648 9.72061e-20)
(0.89801 0.215016 1.61372e-19)
(1.63846 -0.435991 -4.3097e-20)
(1.22208 0.913602 3.31553e-20)
(0.937412 -0.843667 -1.96546e-20)
(0.935947 -0.187039 -2.2908e-20)
(0.77913 0.703166 1.08765e-19)
(1.15932 0.911945 0)
(2.22187 -0.400593 1.67875e-19)
(1.19418 0.647721 0)
(1.35877 -0.546473 2.68258e-20)
(0.888493 0.0717973 1.87887e-19)
(1.00664 -0.00389076 0)
(-0.12109 0.180349 4.18631e-19)
(0.891788 -0.190779 4.01704e-20)
(0.639961 -0.425759 0)
(0.676847 -0.398467 1.79795e-19)
(1.22772 0.546149 -2.70383e-20)
(0.460856 0.433277 2.38954e-19)
(-0.192236 0.291748 4.50341e-20)
(0.0689299 0.0365835 9.59868e-20)
(0.765609 0.0619209 0)
(1.34378 -0.915783 -2.84206e-20)
(1.04189 -0.0431442 3.38288e-19)
(1.4597 0.321027 1.51231e-19)
(-0.399606 -0.434013 8.40315e-20)
(-0.971598 -0.237114 0)
(1.24628 -0.244078 -8.92028e-20)
(-0.0113575 -0.0145167 -2.06601e-19)
(-0.0411891 0.0803137 -5.66471e-20)
(-0.123849 0.0291272 -4.89396e-22)
(-0.199635 0.0827643 3.13642e-19)
(1.26333 -0.0407941 -6.35626e-22)
(2.38389 -0.0536077 4.61716e-19)
(1.18624 0.455021 -2.37493e-19)
(0.883723 -0.0357099 0)
(1.93128 -0.108484 3.06759e-19)
(1.85658 0.11764 1.42382e-19)
(0.927292 -0.77826 1.1024e-19)
(1.1738 -0.99046 -1.11436e-20)
(0.465843 0.431307 1.59657e-19)
(1.43408 0.358253 0)
(1.73684 0.579706 4.45822e-20)
(-0.0168935 -0.0290432 -4.2103e-19)
(0.86891 0.757074 0)
(1.26173 0.34671 0)
(0.29844 -0.298302 -3.77699e-21)
(0.307669 0.277616 0)
(-1.29824 -0.104146 -4.81868e-19)
(-0.29095 0.476851 -1.31244e-19)
(1.75002 -0.438454 0)
(1.26832 0.0805813 1.09567e-19)
(-0.677057 0.232943 2.95167e-19)
(0.543974 -0.516495 -3.83886e-19)
(1.98894 -0.0970855 -5.98448e-20)
(0.622645 -0.565304 0)
(1.02671 0.1186 0)
(1.36032 -0.250781 0)
(1.11278 0.22263 -1.93295e-19)
(1.32921 0.109148 2.71513e-19)
(-1.39496 0.0808339 0)
(0.881711 -0.0638261 0)
(2.06542 -0.128229 7.55405e-21)
(-0.0804757 0.182801 1.08319e-19)
(2.57411 -0.159912 -3.65637e-19)
(1.07419 -0.52031 2.1556e-19)
(2.01132 -0.0387636 -3.72615e-19)
(-1.10952 0.302322 -2.27806e-19)
(2.02898 0.132922 -2.60264e-19)
(1.01695 -0.0255566 3.47172e-19)
(1.50451 0.602098 0)
(-0.332997 0.623605 3.52144e-20)
(1.02086 -0.842608 1.29515e-19)
(0.86077 -0.0235414 4.09047e-20)
(0.645028 -0.448209 0)
(1.92916 -0.558131 1.03849e-20)
(1.22891 -0.19609 1.14629e-19)
(1.54288 -0.62115 0)
(0.619028 -0.574638 3.48589e-19)
(0.605876 0.114684 -3.86401e-20)
(2.46834 -0.167784 6.76267e-19)
(-0.118623 0.283369 -2.26423e-19)
(1.32099 0.610681 1.1429e-19)
(1.14164 0.395887 3.04305e-21)
(0.892768 0.363891 1.91466e-19)
(1.95548 0.130535 -2.61382e-19)
(-0.120042 -0.564394 -5.90889e-21)
(0.907291 -0.168474 0)
(-0.153079 -0.097357 3.93422e-19)
(1.10731 -0.964347 0)
(1.08019 -0.662248 1.69085e-20)
(1.21198 0.00404964 -7.36898e-19)
(1.35198 0.0364045 8.35458e-22)
(-0.692472 -0.1498 -4.3842e-19)
(0.975581 0.470089 1.47659e-19)
(-0.275614 0.274407 2.24828e-19)
(0.704625 -0.0375167 0)
(1.65313 -0.172142 0)
(1.41852 0.155796 2.2884e-20)
(0.764092 -0.0119867 0)
(1.37954 -0.213319 -1.17951e-19)
(-1.64148 0.127081 6.4125e-19)
(1.90723 0.499474 3.81974e-20)
(1.04645 -0.0274866 0)
(0.562202 -0.369731 8.82226e-20)
(1.00962 0.0230875 1.6552e-19)
(0.733915 0.782329 -2.15679e-19)
(-0.475951 0.800779 0)
(1.13007 -0.484275 3.8453e-19)
(1.49182 -0.107787 -4.08583e-22)
(1.11779 -0.504094 -1.67604e-19)
(2.34821 0.26344 2.07991e-19)
(1.27326 0.779869 0)
(0.865388 0.0211345 0)
(-0.431075 -0.367472 -2.08578e-19)
(0.0306619 -0.02685 1.593e-19)
(0.939329 0.359109 -1.75926e-19)
(0.227468 -0.366175 -1.85116e-19)
(0.633727 0.387753 2.10034e-19)
(0.801866 -0.110091 0)
(0.548115 -0.509359 0)
(1.06432 -0.152258 3.35151e-21)
(1.25352 -0.514501 -7.49007e-20)
(0.636212 -0.0365177 1.50827e-20)
(0.729684 -0.172978 1.01101e-19)
(-0.0416863 0.0939008 -2.85966e-19)
(1.37994 0.200711 3.73554e-19)
(0.647238 0.602155 0)
(1.25782 0.68572 0)
(1.58521 0.259626 0)
(-0.493467 -0.2775 -1.92541e-19)
(1.2298 0.549755 2.17993e-19)
(2.00668 0.0852825 5.83744e-20)
(0.936944 -0.00167122 0)
(1.28667 -0.41916 0)
(2.20726 -0.103988 -4.23602e-19)
(0.647153 0.421976 2.47378e-19)
(1.00799 0.00232185 -1.65549e-19)
(1.47835 0.464066 0)
(-0.318102 0.759337 0)
(1.23946 0.314494 2.35028e-19)
(1.01037 0.513608 -1.08571e-19)
(1.06687 0.0207116 0)
(1.70812 0.213733 0)
(1.94501 0.67193 -3.26682e-19)
(-0.120406 0.496064 -3.03325e-21)
(0.999159 0.0133708 0)
(0.694374 0.453526 -2.87031e-20)
(0.951181 -0.838424 0)
(1.01312 0.0162292 3.83788e-20)
(1.03556 -0.403607 4.49199e-20)
(0.910434 -0.334662 2.53352e-19)
(0.999867 -0.181764 -5.85622e-20)
(2.21212 -0.132324 4.27784e-19)
(1.23669 0.138005 8.74622e-20)
(0.778392 -0.0225388 0)
(1.02035 0.0113435 0)
(-0.699085 -0.329133 0)
(0.652791 0.624332 -1.581e-19)
(-0.00465032 0.0332534 1.93218e-19)
(1.16288 0.338017 -3.77921e-19)
(-0.599741 0.546833 0)
(0.81362 0.625083 1.42989e-19)
(1.01973 -0.347842 0)
(1.00459 -0.00120773 9.69117e-20)
(0.25469 0.0430691 6.52427e-20)
(1.0261 0.39606 2.14662e-19)
(1.50615 0.236317 0)
(2.19308 0.225535 -1.05177e-19)
(0.824234 -0.124813 -3.08304e-19)
(-1.25822 -0.0638479 -6.63506e-19)
(1.11554 0.28789 0)
(0.869983 0.23836 1.49717e-19)
(2.0695 -0.135083 0)
(0.762214 0.503301 3.10677e-19)
(-1.65508 0.0858809 2.68049e-19)
(-0.0258204 0.0871777 0)
(0.577266 0.547634 -6.03064e-20)
(1.04133 -0.649472 -1.18853e-19)
(0.488659 -0.272665 -1.05252e-19)
(1.02146 -0.0203552 0)
(-0.418613 0.436553 -2.97992e-19)
(0.649357 -0.579987 6.78411e-20)
(0.893945 0.283982 0)
(1.62393 -0.690474 1.06023e-19)
(0.967014 0.823094 1.98284e-20)
(1.05838 -0.351194 -3.41086e-20)
(0.247659 -0.279163 -2.92777e-19)
(0.238026 -0.0813382 -4.80456e-19)
(-0.122426 -0.284367 1.08667e-20)
(0.808001 0.346126 2.11199e-19)
(-0.252584 0.545554 -5.85405e-21)
(1.43798 -0.662232 3.60983e-21)
(1.02442 0.00710745 -2.86777e-19)
(-0.571711 -0.247789 0)
(1.02916 0.0285423 -3.39146e-19)
(2.12917 0.238361 2.17319e-19)
(0.872042 0.672931 2.37534e-19)
(1.13126 -0.0753108 1.31324e-19)
(1.00167 -0.0348349 1.32762e-19)
(1.41132 0.0455063 -6.99439e-22)
(-0.34278 -0.352722 2.85562e-22)
(1.74832 -0.88799 1.5378e-20)
(1.15272 -0.136868 -5.70373e-20)
(0.806185 0.0455176 6.50014e-20)
(0.914534 -0.306875 7.51026e-20)
(0.766499 0.177841 0)
(0.94637 0.718332 0)
(0.725636 0.252419 -7.77845e-20)
(2.06291 0.202475 -3.66641e-20)
(-1.19568 -0.0780165 2.28783e-19)
(1.04364 -0.545467 -4.12041e-19)
(0.628001 -0.546513 3.27797e-19)
(1.21913 0.294681 -1.7765e-19)
(0.321661 -0.45886 2.12414e-20)
(1.42991 -0.344202 0)
(0.753041 0.105016 -5.80202e-21)
(1.41514 -0.481947 -5.31071e-20)
(1.02411 0.746465 0)
(1.26191 -0.485158 0)
(0.60372 0.129995 0)
(-0.239521 -0.40047 -7.08671e-20)
(-0.143532 0.15065 0)
(1.53152 0.692148 2.84755e-19)
(1.21409 0.18065 5.23412e-21)
(-1.22225 0.133964 2.57765e-19)
(1.59829 0.527341 2.20323e-20)
(1.79459 0.477899 -8.7128e-20)
(2.16944 -0.34055 -4.46895e-20)
(-0.170084 -0.0042834 -2.21659e-19)
(-0.283086 -0.363844 5.46857e-21)
(0.926286 0.0908962 0)
(0.682323 -0.0334667 0)
(0.998081 0.00164266 2.56333e-22)
(-0.527134 -0.262543 0)
(1.53287 0.00144475 -1.47886e-19)
(0.68117 -0.031536 0)
(1.06262 0.00465597 1.04946e-19)
(0.997126 0.0175939 -3.76271e-20)
(1.32694 0.111574 2.30384e-19)
(1.06249 -0.0184268 -7.74057e-22)
(0.953127 -0.20897 -4.53824e-20)
(1.02648 -0.0362868 3.07297e-19)
(0.683084 -0.62137 1.52367e-19)
(-0.718518 -0.193121 -2.57156e-19)
(1.10373 0.354831 4.12354e-20)
(0.0308412 -0.0197165 0)
(1.10978 0.780666 0)
(1.02793 -0.0096572 0)
(1.01836 -0.786017 -8.02927e-20)
(1.05486 -0.904289 1.20008e-20)
(0.73683 0.0407328 -4.44122e-20)
(0.0428928 0.344201 -8.66835e-19)
(1.25154 -0.251808 6.91019e-21)
(0.595211 -0.401765 -5.37583e-19)
(1.12145 0.428594 -5.44985e-20)
(1.05531 -0.00212668 -5.55818e-20)
(2.10128 -0.343064 1.41127e-19)
(0.381638 0.0501163 -3.99599e-20)
(-0.372855 -0.478804 -1.47474e-19)
(1.10362 0.538635 1.62334e-19)
(-0.0696396 -0.392707 0)
(0.0934999 -0.387087 4.47975e-19)
(-0.0712936 -0.117467 9.31216e-23)
(1.03919 -0.0427106 2.77366e-19)
(1.02759 -0.0028217 -7.11896e-21)
(1.10406 -0.0113607 -7.67791e-20)
(1.2405 -0.0379763 -1.09162e-20)
(1.6051 0.316927 3.67287e-20)
(0.4081 -0.383706 -2.65665e-19)
(0.735601 -0.00931058 8.04537e-20)
(1.0373 -0.000475187 -2.02657e-19)
(0.901626 0.217212 -4.24435e-20)
(1.17426 -0.0845692 0)
(1.09737 0.577628 -3.0371e-19)
(1.00396 -0.00436203 7.91808e-20)
(0.658879 0.585926 2.22284e-19)
(1.27088 -0.108256 6.44946e-22)
(1.0612 -0.0142907 -2.51923e-20)
(1.12344 0.014737 7.15019e-22)
(2.54008 -0.00961005 2.50285e-20)
(0.120689 0.0443649 0)
(1.0542 -0.0399344 0)
(1.06036 -0.0339013 4.87539e-19)
(1.00232 -0.00372825 0)
(-0.0437989 -0.0843197 0)
(0.961675 -0.58742 0)
(1.00215 -0.000908716 -4.6018e-19)
(1.17487 -0.692146 6.11257e-20)
(1.02368 -0.00370236 9.61543e-21)
(1.32341 0.944033 -1.48313e-20)
(1.50423 0.993332 -6.57526e-20)
(1.18117 -0.0865453 -1.08174e-20)
(1.54419 0.280113 2.26811e-19)
(1.21616 0.256671 0)
(0.0149208 0.589431 0)
(2.18407 -0.0278656 5.45201e-19)
(1.249 -0.672909 0)
(1.00073 -0.00719238 -1.42786e-19)
(1.01014 -0.000582485 2.77334e-19)
(1.42319 0.146292 -5.60142e-20)
(-0.000638459 -0.122293 3.03827e-19)
(0.969453 0.000138954 1.5042e-19)
(0.311107 -0.0606823 4.77709e-20)
(0.323412 0.0883614 -3.53528e-20)
(1.23407 -0.0813948 -1.33858e-22)
(0.928746 0.0170872 -1.50955e-19)
(1.00101 0.00281283 1.78855e-19)
(1.0011 -8.33141e-05 1.05636e-20)
(0.789112 -0.0137758 0)
(0.724235 -0.0265969 0)
(0.722401 -0.0286868 6.49801e-22)
(0.700801 -0.0293924 0)
(0.544275 -0.13979 0)
(0.0780856 -0.000135919 0)
(0.212682 0.00334355 3.02301e-20)
(0.411652 0.111675 -1.891e-20)
(1.0789 0.104706 0)
(1.30658 0.0328061 -8.93131e-22)
(1.23462 -0.0857068 0)
(0.213259 -0.0106228 0)
(0.0391339 -0.00319713 0)
(-0.000857014 0.0272173 3.27524e-21)
(0.419374 0.120387 7.67955e-20)
(0.790936 0.0247633 0)
(0.797989 0.0196182 0)
(0.966422 0.0187536 -1.86198e-19)
(0.824748 0.00805965 3.4904e-19)
(1.00621 -0.00150723 0)
(0.999684 -0.0011842 3.30269e-19)
(1.00064 -0.000730622 -3.70504e-22)
(0.797683 0.0237944 2.95479e-19)
(0.991323 -0.00662986 -1.72739e-19)
(0.374113 -0.0476421 0)
(0.0720523 -0.00143845 3.53856e-20)
(1.00051 -0.00287009 -1.67139e-19)
(0.999639 0.000772258 -2.86469e-19)
(1.0589 -0.150364 0)
(1.00074 0.00119201 0)
(0.999477 -1.25848e-05 0)
(1.34682 -0.219234 2.19095e-20)
(1.16091 0.0103524 7.14605e-21)
(0.877414 0.163994 0)
(-0.39271 0.48243 2.35536e-19)
(-0.812148 0.415172 -4.09332e-19)
(1.02143 -0.0134971 -2.22213e-19)
(-0.407782 -0.452238 -1.34772e-19)
(1.02201 0.00183505 -1.78593e-19)
(1.18178 -0.223112 -7.12319e-20)
(0.806677 -0.482496 2.52179e-19)
(-0.0644452 -0.105582 -1.0194e-19)
(1.027 0.0112711 0)
(1.05121 -0.0102841 -4.83864e-20)
(0.861938 0.0234496 0)
(-0.0123511 0.0285414 2.80758e-19)
(1.22664 -0.607363 0)
(-0.518403 -0.272049 -3.34029e-19)
(0.312984 -0.0347465 -4.74388e-20)
(1.63946 0.682111 4.34234e-20)
(-0.0494504 -0.0587607 0)
(1.06507 -0.0404392 1.50579e-19)
(1.23271 -0.112686 1.27599e-21)
(0.929154 -0.0144579 2.38086e-19)
(1.01196 -0.0100315 -1.51451e-19)
(1.65239 0.857088 5.90668e-20)
(0.507436 0.47411 0)
(0.428567 0.377359 1.77132e-19)
(1.27199 -0.2666 -5.71115e-21)
(1.14291 0.126033 1.60581e-19)
(1.10209 -0.721375 0)
(1.02259 0.00632148 0)
(1.00083 -0.0200064 -3.49437e-19)
(1.01529 0.0148367 -3.39423e-19)
(-0.16484 -0.438012 0)
(1.20567 0.809118 -9.75177e-20)
(1.28905 -0.0899744 -6.86627e-22)
(1.01572 0.00536788 1.30823e-19)
(1.00778 0.0132041 -1.64099e-19)
(-0.550566 -0.18 -3.27885e-20)
(1.23019 0.0111035 -2.57148e-20)
(1.01706 -0.0159289 5.58398e-19)
(1.17786 0.0051126 0)
(1.83408 0.655219 -7.0708e-20)
(1.0146 -0.0146166 -1.73858e-19)
(1.97054 0.130178 -1.49901e-19)
(1.06289 0.00794275 -4.00807e-22)
(1.00958 -0.0113177 3.48472e-20)
(2.10687 -0.238504 -3.51505e-19)
(1.01735 0.00459632 1.68476e-19)
(1.28833 0.200298 7.28268e-21)
(1.01659 0.00108836 0)
(0.924083 0.143944 4.20299e-20)
(-1.3647 0.127932 6.71139e-21)
(0.996382 0.0226647 1.67529e-19)
(1.03583 0.0217969 -6.91342e-22)
(1.24194 -0.050822 1.80285e-22)
(1.24643 0.308963 3.29993e-19)
(0.999066 0.0165306 1.14803e-19)
(1.01758 -0.0141537 3.23643e-22)
(1.71974 0.261675 -9.38192e-21)
(1.73915 0.927688 -1.0989e-19)
(0.787393 -0.70625 4.53689e-20)
(0.460929 -0.346004 -2.61719e-19)
(1.00829 -0.00974422 0)
(1.02075 0.00355762 4.19294e-20)
(1.01148 -0.00775269 8.8368e-20)
(1.24814 0.118222 3.53328e-21)
(1.01262 0.00482756 -1.75416e-19)
(1.0314 -0.0272139 1.99931e-19)
(1.01065 -0.00680022 -1.65223e-19)
(1.01527 0.00461778 -5.07392e-22)
(1.01365 -0.000796061 -3.49885e-22)
(1.02378 0.0132927 1.67726e-19)
(0.902461 0.0786548 4.33006e-19)
(1.74819 0.622262 0)
(0.502115 -0.00372725 2.79515e-19)
(1.01295 -0.00357264 0)
(1.02372 -0.0174412 -4.87108e-20)
(1.52337 0.453393 -5.005e-20)
(1.82082 -0.00951213 0)
(1.95187 -0.419983 -8.90687e-20)
(1.32548 0.621995 -4.5589e-20)
(0.764959 -0.0139117 0)
(1.97017 -0.0524495 0)
(0.373374 0.342619 -1.50069e-19)
(1.34674 0.0355336 1.09751e-21)
(1.01715 -0.003364 -1.76815e-19)
(1.13486 -0.570189 -4.71121e-20)
(1.2889 0.0106114 -3.70048e-21)
(1.51133 0.467556 0)
(1.29781 -0.246672 0)
(1.77565 0.485848 0)
(0.176574 0.572724 1.05314e-19)
(1.37055 0.199417 2.23022e-20)
(-0.144645 0.141918 0)
(-0.025427 0.689473 -3.66e-19)
(1.67504 0.959836 -8.67924e-20)
(1.00808 -0.00302971 -3.45669e-19)
(1.35185 0.106293 4.13071e-21)
(1.02219 0.00588554 2.28523e-19)
(0.700101 -0.0398488 0)
(-0.1237 -0.380881 -3.13638e-20)
(0.599036 0.412038 -2.95695e-19)
(1.74384 0.680543 8.44763e-20)
(0.130783 0.742199 0)
(0.792597 0.0831085 6.01142e-20)
(0.506416 0.482513 4.45621e-20)
(1.16992 0.87268 -2.5836e-20)
(-0.0326445 -0.0199762 1.52319e-19)
(1.02237 0.0101949 0)
(1.46443 0.301015 1.40229e-20)
(1.01077 -0.0051064 1.29808e-19)
(2.46924 0.134953 0)
(1.01061 0.0076644 2.17593e-19)
(0.20765 -0.414456 -2.13209e-19)
(1.01991 0.0114598 -1.3454e-19)
(1.43068 0.219021 0)
(1.77265 -0.479677 4.41925e-22)
(1.00834 0.00493076 -9.03936e-20)
(0.993604 -0.0360119 2.38988e-19)
(1.09001 0.0951814 -2.47235e-21)
(1.30592 0.28095 -2.9573e-20)
(-0.151089 -0.0683717 3.98116e-19)
(1.96048 0.36383 2.15079e-19)
(0.914846 0.214767 3.44352e-20)
(0.812402 0.0125594 -3.26711e-19)
(0.803894 0.0226717 0)
(1.02249 0.111566 3.63782e-20)
(1.02215 -0.0144258 -2.61671e-20)
(0.971665 0.0188962 0)
(1.04881 0.00106233 -1.66275e-19)
(0.572471 -0.284193 -5.49159e-20)
(-1.62534 0.0165074 2.96423e-19)
(2.17466 -0.606087 0)
(-1.00054 -0.0631826 -8.98443e-19)
(1.53055 -0.349824 0)
(1.03794 -0.0167404 4.88044e-20)
(0.996316 -0.123421 1.39404e-21)
(1.01556 -0.000586077 1.40287e-19)
(-1.10946 0.143626 5.77484e-19)
(1.01797 0.0026867 0)
(0.991653 0.00365841 -3.39829e-19)
(1.00815 0.00712203 1.78517e-19)
(0.91367 0.123153 0)
(0.843598 -0.157285 -5.83438e-21)
(0.962512 -0.00127188 -1.53091e-19)
(-0.33322 -0.498821 4.71351e-19)
(1.00593 -0.00277571 -1.74165e-19)