/*--------------------------------*- C++ -*----------------------------------*\
| =========                 |                                                 |
| \\      /  F ield         | OpenFOAM: The Open Source CFD Toolbox           |
|  \\    /   O peration     | Version:  2306                                  |
|   \\  /    A nd           | Website:  www.openfoam.com                      |
|    \\/     M anipulation  |                                                 |
\*---------------------------------------------------------------------------*/
FoamFile
{
    version     2.0;
    format      ascii;
    arch        "LSB;label=32;scalar=64";
    class       volScalarField;
    location    "37.7";
    object      p;
}
// * * * * * * * * * * * * * * * * * * * * * * * * * * * * * * * * * * * * * //

dimensions      [0 2 -2 0 0 0 0];

internalField   nonuniform List<scalar> 
2186
(
1.17594
0.21641
0.488691
1.4739
-0.885933
-0.156269
1.12921
-0.391427
-0.21054
1.67742
1.21241
-0.309351
-0.406128
1.32321
0.0138548
1.30388
1.34288
-1.00567
-0.0846457
-1.05255
1.6904
-1.01248
1.32869
-0.374062
1.32021
1.45167
1.53985
1.32779
0.679739
1.32224
-1.01915
1.32038
-1.00222
-0.597818
-0.318917
0.118778
-0.602397
1.66794
-0.835519
-0.0572247
-0.406314
-0.976119
-0.0851411
-1.15735
1.0767
1.65822
0.8394
0.988333
-0.0666599
-1.02116
-1.03203
1.03118
-0.0822511
1.57502
-1.06457
1.37035
-0.131405
1.39492
-0.897822
1.20215
-0.0160084
0.749144
0.639716
0.00342887
0.672739
0.935315
0.769423
1.58639
1.48011
-0.202541
-0.382628
0.0572791
1.57961
1.40847
1.43694
1.55065
-0.136472
1.33585
-0.322951
-0.884118
-1.26554
-0.0420204
1.31678
0.727145
1.3153
1.3187
1.56569
-0.143134
-0.110116
-0.328169
1.36966
-1.0211
1.28699
1.51789
1.3284
0.479768
0.378084
0.694963
-0.954533
1.40601
-1.35378
-1.285
0.765148
1.30384
1.34534
-1.0341
1.42222
-0.0474363
1.34677
-1.48172
-0.861875
-1.00273
1.01152
1.5559
-0.219634
-0.486652
0.380218
0.0827078
-0.328937
1.59123
-0.0394811
-1.10729
0.985385
-1.051
1.31024
0.350512
-0.951456
1.53874
-0.999723
1.11306
1.74405
1.62353
0.740799
1.10587
-1.23935
-1.05453
1.34526
-0.212865
-0.501597
-0.34036
0.918905
0.3412
-0.38284
1.15139
1.28694
1.32056
-0.0092887
-0.883135
1.06724
-1.12424
-0.989127
1.04371
1.33913
1.57326
1.44952
0.996655
1.54765
0.527544
0.412431
0.904071
-0.338365
-0.358532
1.25431
1.39565
-0.117937
0.0914161
-0.242427
-0.323941
0.0770349
0.257638
0.41165
1.4094
1.34311
1.51072
0.485383
-0.276089
-0.829585
1.25344
-0.582694
1.00676
-0.324086
1.33231
-1.04114
0.628878
0.603461
-0.814267
-0.534301
1.32485
-0.490668
-0.431752
-0.689777
1.5506
-0.832833
1.37783
-0.334126
-1.74843
0.0808363
1.46175
1.24722
-1.02454
-0.335464
-1.55906
0.597897
1.35835
-0.320096
-0.949519
-0.329794
0.2248
1.20652
-0.48082
0.989418
-0.193834
1.54666
0.953067
1.06581
1.36839
1.39024
1.32132
1.32533
1.30577
0.863571
-0.502405
-1.02972
0.104893
0.694818
-1.04736
-0.935061
1.21073
1.49502
-0.365255
-0.268088
-0.890846
0.858424
1.10673
1.18637
1.32768
1.52376
-1.03074
1.30926
-0.353881
-0.996844
-0.50247
1.16443
0.838076
1.35075
1.50261
1.30352
1.2734
-0.364779
1.26391
1.36779
-0.38245
1.14722
0.89334
-0.876097
-0.313726
-0.288305
1.35066
1.33206
-0.419015
-0.339848
0.701339
1.37869
-1.11938
0.879704
1.27001
1.24466
-0.288038
-1.02517
1.31379
0.757907
-0.0287852
-0.451785
1.60705
-0.957161
-0.372241
1.22656
1.57871
1.31894
-0.915885
-0.447162
-0.149886
1.10896
-0.394779
1.01573
1.30654
1.41808
0.350806
0.0939402
1.22868
-0.290142
1.34125
1.58943
1.32938
1.327
0.540015
-1.05897
-0.384512
-0.139026
-0.00403955
-0.70884
0.866556
0.022338
0.696307
1.56755
1.41638
1.10371
-0.0548317
1.41047
-0.301404
-0.408989
-0.364489
-0.333862
-0.448452
0.841795
-0.996937
-1.00846
0.178584
1.13689
-0.460594
0.432611
-1.01788
-0.14926
-0.462069
-0.987479
1.52317
-0.0316738
0.28552
-1.02347
1.23337
0.67123
-0.376721
0.989645
-1.73304
-0.434605
0.75799
1.34923
1.25819
-1.51616
1.45696
1.32112
0.429438
1.63115
1.29575
1.2909
0.85264
0.28114
-0.3451
1.02647
-1.12838
-0.319498
-0.328341
-0.523083
-0.33365
1.61388
0.569048
-1.02897
-0.371847
1.29625
-0.807641
-0.48677
-1.07593
1.20811
0.125367
-0.444554
1.52868
1.59708
1.53074
-0.386245
0.0418297
1.62676
1.30476
-0.732964
0.520794
-0.358266
0.682489
1.43531
1.17136
1.26133
1.66086
0.0801743
0.28367
-0.201702
-0.522338
-0.26953
-0.994688
-0.196493
1.54049
-1.16108
-0.277502
1.28256
1.05093
-0.318096
-1.12473
-0.348122
-1.03764
-0.381169
-0.330623
-1.04641
-0.933706
1.53681
0.383497
-0.492582
1.33344
-0.324462
1.64612
-0.611669
-1.17188
-1.08882
1.31839
-0.314121
1.33097
1.285
0.462718
1.42346
-1.15447
-0.328394
-0.345736
1.42982
1.2942
-0.311168
-0.357458
-0.379174
1.16559
-0.394465
-0.609872
0.582884
1.17001
1.25569
1.13056
-0.321864
-0.494562
1.0277
-0.366889
1.20698
-1.657
1.33837
-0.0592505
1.52815
-0.328314
1.2898
0.848061
1.33745
-0.309112
1.28442
-0.557422
-0.32582
1.32127
-1.26588
0.17097
-0.519032
-0.126297
1.30762
0.626548
0.790689
1.29179
0.271129
0.422502
0.150373
-1.0292
0.749555
-0.418281
0.835119
-0.809939
1.25483
1.53888
-0.361634
-0.333027
0.381534
-1.01155
0.498303
-0.476147
0.968271
0.499295
-0.417593
1.34253
0.343918
0.422884
0.795099
0.236887
0.924046
0.390877
0.259455
-1.73672
-0.184378
-1.03705
1.32648
-1.90639
1.46965
1.61403
1.59875
0.760708
1.36959
-0.926453
-0.950924
1.26369
0.723578
1.28422
-1.0016
-0.428494
-0.666995
1.21024
-0.32663
-1.14562
-1.05072
-1.09465
-0.461382
-0.250848
0.865878
0.866972
-0.498009
-0.176969
1.19977
0.594607
1.33214
-1.41884
-0.223363
-0.327314
0.880588
0.228068
1.57232
1.64469
-0.772054
-0.938577
-0.250515
0.341838
-1.26823
1.45423
-0.221664
1.41577
0.933817
-0.38288
1.06665
1.02851
-1.13624
1.25313
-0.267136
-1.02002
-0.423271
-0.296012
-0.372483
-0.984331
-0.537116
1.32398
0.241585
-0.969223
1.05799
1.46708
1.6041
0.215265
1.17584
0.237363
1.2245
-0.0885897
-0.534527
-1.00993
0.574934
0.966168
1.27054
-0.761847
-0.32685
-0.261518
-0.33073
0.423473
1.18136
-0.583771
-0.215515
-0.469394
1.11464
-1.91062
1.22327
0.118988
-0.467396
1.2965
1.09985
-0.963505
-0.216816
1.2417
1.67028
1.33997
-1.772
-1.09159
1.2369
0.194962
1.22252
-0.649093
0.512495
1.2375
-0.443187
-1.02606
1.22284
-0.275767
1.47222
0.234608
1.31373
-0.368882
1.08094
-0.245445
1.57895
-1.02577
-1.11464
1.12375
0.603804
0.588732
-0.40425
-1.03589
-0.300449
0.966132
-0.114312
-0.526456
-1.71383
1.32821
0.460312
-1.08135
0.895187
1.05636
1.26671
-0.946234
-0.910164
-1.02136
1.33143
1.38965
0.969919
1.3287
-0.477261
1.44653
-0.381859
-0.11008
-0.295646
1.28439
1.31102
-0.502137
0.991598
-1.02555
0.972869
-0.852336
1.1747
1.35411
1.32715
-1.37316
1.10256
-1.27328
-0.631945
1.50588
-0.855482
-1.55414
1.35689
-0.265442
1.30584
-1.02353
-1.01887
1.22448
1.22513
1.72397
1.31834
-1.21363
1.49468
1.31359
0.744143
0.737382
-0.483771
-0.248014
1.81176
-0.344141
1.35555
-0.982456
0.801888
1.31947
-0.440776
1.27421
-0.817569
1.08355
1.30637
1.33938
-0.250316
-0.444669
-0.0213231
1.03486
1.09929
1.45007
-0.0120779
0.968719
-1.19776
-0.357402
-0.74568
1.26766
1.54945
-1.10753
-0.262497
-0.658585
1.52255
-0.336989
0.857666
-0.510485
-1.37338
-0.369679
-1.0256
-1.63312
0.988563
-1.46321
-0.0206599
-0.373483
0.0635276
-1.07054
-0.345664
-0.0932207
1.251
1.33332
-0.424231
0.182827
1.27303
1.29388
1.33649
-1.21675
1.26728
1.42782
1.32844
1.47429
-1.08686
-0.217116
-1.02625
0.720675
1.33328
1.163
0.668037
0.331912
-1.70225
-0.694068
1.64402
-0.313873
-0.10933
-0.0337744
-0.169291
-0.395324
0.930781
-0.331514
-0.306314
-0.326818
1.29946
1.32248
1.31189
-0.0338881
0.398595
1.63056
0.294184
1.32486
0.0524758
0.128938
0.897654
1.32937
1.28393
-0.726223
1.2546
1.25905
-0.597715
-0.141995
1.3133
1.32901
1.33026
-0.328463
-0.374905
1.33208
1.07534
1.32106
0.240185
-0.153464
-0.429844
-1.14398
-0.34661
-1.03773
-0.54456
0.0617393
1.33458
1.33855
0.926806
-0.338209
1.29871
0.195844
-0.101203
-0.121488
1.32399
1.33967
1.33282
1.33965
1.31377
1.30433
1.29082
0.0257847
-0.145033
0.0656595
0.0207397
-0.118108
-0.0373581
-0.114383
0.301908
0.326745
0.213127
-0.100761
1.32069
1.33458
1.33034
1.349
1.34472
1.33368
1.33369
1.32682
1.31029
0.277192
-0.0823211
1.33177
1.33402
-0.0733618
1.33701
1.33235
-0.638973
-0.241728
0.0955768
-0.819914
-1.95301
1.31261
-0.390181
1.3175
1.07385
1.48282
-0.341833
1.31997
1.21027
1.29215
-1.02847
-0.219224
-0.432202
-0.00870295
-0.0536384
-1.02345
1.32119
-0.321155
1.40335
1.3139
-0.207097
1.38969
1.56747
-0.498447
1.08931
1.12593
1.30505
1.32431
1.3269
-0.343254
0.565414
-0.574503
1.31462
1.33159
-0.47183
-0.468326
1.31439
-0.493283
-0.397951
1.31714
-0.464583
1.27827
1.3267
-0.178935
1.32954
0.288465
1.31856
1.34344
-1.31791
1.33824
1.3444
-0.651973
0.83534
1.32401
1.31772
0.171385
-0.89649
1.17392
1.72404
1.32289
1.32448
1.32188
-0.111619
1.32171
1.32184
1.32056
1.31879
1.31866
1.32326
1.39376
-1.12589
-0.759822
1.32395
1.30978
0.352864
-0.492709
0.462315
-1.42133
1.11288
-0.418155
-1.8344
-0.102403
1.31653
1.17864
-0.406967
0.179151
-0.662695
-0.660868
-1.09977
0.182907
-1.77679
-1.23692
-0.396711
1.32666
-0.275589
1.31332
1.18049
-0.332021
1.48315
-0.785156
-1.1633
1.16941
1.342
0.534457
-0.326624
1.30143
0.509161
1.32265
-0.72977
1.32451
-0.279551
1.31257
0.443101
0.326073
1.32434
1.34304
1.18807
0.210484
-0.328572
-0.891501
0.133785
1.34297
1.15729
0.0540475
1.30748
1.35598
1.29231
-0.297988
-0.930253
-0.0700462
-1.16478
0.826894
1.31307
0.0580789
1.32205
-1.18944
1.31033
1.34913
1.32777
0.0120963
0.0125915
1.35612
-0.364986
1.33025
1.33206
0.545928
-0.395113
1.11898
1.3775
1.31109
1.29492
-0.0433573
-0.463122
1.30991
0.903551
1.32709
1.2865
-0.776762
-0.377889
1.08211
1.60104
1.30653
0.842464
-1.61241
0.0587658
-0.586543
-1.69026
1.32035
-0.283745
1.28225
-0.876697
-0.33512
-0.927716
0.562055
-0.297267
-1.17145
-0.61619
1.31043
-0.327002
1.0857
-0.351502
0.374687
-0.45646
-0.351409
-1.18084
1.26247
-0.211117
-0.254335
-0.476249
-0.999772
1.32081
-1.27371
-0.25572
-1.3689
1.31826
-0.791151
-0.351616
1.37996
1.31845
1.31619
0.959456
-0.311466
1.30792
1.32475
-1.39282
-0.98686
1.311
1.24469
1.50226
1.32595
0.358685
-1.11115
-1.00803
-0.501905
-0.789893
-0.32662
-0.7335
-0.259424
1.24806
0.512728
1.33237
1.48133
1.3005
-0.329557
-0.323424
1.31078
-0.136532
-0.279289
1.31439
0.304044
-0.734452
-1.11965
0.0539706
1.21489
1.18019
-1.40013
1.23255
0.819816
-0.585362
1.32046
-0.380337
1.02853
-1.03191
1.37921
-0.45351
0.912757
1.31318
1.30169
-1.0968
-0.797335
1.05749
1.68248
1.33198
1.21766
-1.01176
1.63927
-0.26213
-0.270654
-0.207652
0.956623
-0.756046
1.41801
1.55368
-0.359824
-1.16814
1.3017
-0.633366
1.28073
1.34033
1.23219
-0.977155
1.31093
-0.0763032
1.34698
-0.0522853
-0.596825
-0.149744
1.31565
-0.435014
-0.551979
-1.11314
1.36766
-1.07741
1.42713
0.769431
1.57855
1.17855
-0.845149
1.32184
-1.01638
1.25183
1.26565
-0.222292
-1.28087
1.34935
1.28593
1.45979
1.2356
0.613278
1.22846
1.32929
1.08454
1.31565
-0.278184
-0.915651
-0.582865
1.45568
-0.959412
-0.694528
-1.02505
-1.1028
-0.666694
0.428263
1.042
-0.528481
1.30573
1.36797
-0.982917
-0.255042
-0.733027
-0.329133
-1.04937
-1.00961
1.30262
-0.650812
1.32706
1.61547
1.37429
-0.201257
1.3332
1.20574
-0.664446
1.31935
1.27523
-0.737312
1.27837
1.13196
-0.474281
-0.631944
1.79036
-0.112469
-0.688882
-0.403268
0.74701
1.31295
-0.83578
-1.00991
-1.02212
1.42466
-0.596379
1.03026
1.30822
1.33104
-0.442603
1.33567
-0.866908
1.32068
1.33686
-0.452349
1.3293
0.61865
1.33539
1.15986
-1.29004
0.143905
-0.0310078
-0.718646
1.50238
0.315246
1.31776
1.67459
-0.676715
0.0657408
1.38646
0.105105
1.38362
0.0677193
0.169958
1.3729
1.37775
0.916078
-0.320071
0.925817
-0.990869
-1.03239
-0.798641
1.32894
1.34896
1.78459
-0.327071
-0.234704
1.19921
-0.451328
1.35638
1.21564
1.34929
1.29281
1.30392
-0.849507
-0.328069
-0.421187
1.01373
1.18193
-1.03367
-1.00124
-0.349459
1.33496
1.37775
-0.899764
-0.942803
1.34484
0.00499056
0.316461
0.937773
1.11041
-0.265555
-0.414653
-0.215193
-0.456719
-1.00138
-0.734892
-0.159941
1.75147
1.61883
-0.799041
-0.476414
1.33271
1.31136
-0.847556
0.486849
0.207949
0.80119
1.39473
-0.299818
1.31617
0.675963
-0.39971
-0.910048
-0.750873
-1.13696
1.33536
-0.458618
-0.35804
1.63374
-0.44101
1.31831
1.48361
-0.995587
1.4671
1.64808
-0.899889
1.48157
-0.42741
-0.383118
1.25782
-0.0857244
1.44094
1.32345
-0.414199
1.40956
0.669783
-1.07138
1.34575
1.45666
-0.279313
-0.467478
1.20757
1.30997
-0.379797
-1.10309
1.52692
-0.40229
1.16595
0.559441
1.31012
-0.320378
-1.34136
-0.353287
-0.871334
1.30922
1.38488
1.68061
1.44034
1.17731
1.36606
1.27677
-0.346615
1.35646
1.55438
-0.95999
-0.391135
-0.747301
1.57354
0.33911
-0.36823
-0.658242
1.13081
-0.944346
-0.752985
1.22694
1.44737
-0.36117
-0.99414
-0.374737
-0.52811
-1.2479
-0.922858
-0.340457
1.07707
1.33707
-1.01499
-0.511729
-0.247762
1.02046
-0.400355
-0.838781
-0.335419
1.38267
-0.420744
-0.984734
1.7152
1.26963
0.890889
1.59903
-0.593644
1.41314
1.31384
1.46928
1.61169
-0.27891
0.8387
1.21883
0.77791
-0.330944
1.7319
1.33742
1.31448
1.42158
-0.973802
-0.45128
1.26303
1.00019
1.3111
-0.765109
-1.10713
1.31769
-0.33687
1.24372
-0.0410561
1.67845
-0.328125
0.90149
1.20076
-1.02576
-0.32602
-1.30201
1.46902
-1.02329
-0.325803
1.16747
0.766343
-0.572309
1.36641
1.26747
-1.01942
-0.700381
1.21431
-0.747502
-0.325972
-0.351165
-1.02164
-0.168365
1.24127
1.35724
-1.44815
1.09517
1.32795
1.63215
0.789129
0.39081
0.0804722
1.32339
0.129164
-1.02736
0.164781
-0.645578
-1.02824
1.2842
-1.02984
0.264159
-0.325535
0.688203
1.05255
-1.02778
1.11032
-0.921459
0.987792
-1.02747
0.602295
-1.02881
0.89186
-0.327703
0.505841
-1.02794
1.27314
-0.510782
-1.03222
-1.04394
-0.327966
1.33069
0.621029
-1.07631
-0.334261
0.110229
0.219862
-1.03697
-0.328266
-1.12153
0.430818
-0.346998
-0.0790201
-0.377048
-0.319812
-1.20545
0.276947
1.13125
-0.274818
-0.690582
1.25714
-0.00236165
-0.373964
0.940986
1.31499
-1.23456
-1.18411
-0.330591
-0.652968
1.2937
1.69889
-0.775934
-0.381114
0.561213
-0.449822
-0.33965
0.209825
1.23692
-0.731521
1.31022
-0.779128
1.75779
0.938023
1.79067
-1.00236
1.59556
-0.609366
1.42646
-0.192811
-0.328598
1.49601
1.33686
-1.33669
-0.326168
-1.03354
1.20902
-1.07573
1.28497
-0.895915
-0.342944
-0.356432
1.60864
1.30405
1.52653
1.28417
1.3383
-0.355579
0.0749658
1.44116
-0.661561
-0.48001
1.68383
-1.01284
1.17104
1.35079
1.69589
1.77753
-1.02791
-0.310181
1.37056
0.744661
0.121808
-0.991499
-1.22539
-1.33474
-0.994178
1.01716
-0.715992
1.60603
-0.571278
1.26235
1.39424
1.29102
-1.18403
-0.307002
-0.497179
1.41519
-0.52082
1.40321
-0.82345
-0.642689
1.47972
1.69212
-0.333503
0.160484
1.29929
-0.533289
-0.798921
1.1191
1.51846
1.5889
-0.999412
1.12629
1.03319
-0.328441
1.60544
0.386411
-1.00895
0.630158
0.310857
-0.539488
1.34858
-0.548313
0.3585
0.483459
-0.628046
-0.592783
-0.320411
1.27395
-1.26303
1.27916
-0.0639739
0.615443
1.14041
0.774077
-0.327335
-0.689046
-0.529329
-0.248634
0.216198
-0.948943
1.13187
-0.576937
-0.459104
1.25384
-0.450421
-0.957857
1.33198
-0.201861
1.17506
0.246533
-0.33031
0.242905
1.22537
-0.206208
-0.336505
1.30556
-0.350992
1.41751
0.0130617
-0.555794
-0.468939
-0.327966
1.84127
-1.15354
1.50993
0.265517
1.30856
1.47837
1.16974
1.39372
1.3876
-0.0997706
-0.52914
1.32435
1.49409
1.72103
-0.449576
1.33221
0.829081
-0.434614
1.23739
1.61202
-0.648968
1.59586
0.218093
-0.776879
1.2799
-0.420713
-1.03479
1.30814
-0.514896
1.39597
1.47815
1.21245
-0.820275
1.11876
1.50366
-0.911683
-0.331054
-1.11858
-1.40028
-0.523134
-0.326455
1.73492
1.2071
-0.88713
1.35041
-0.407887
-0.547335
1.66555
1.46181
-1.3081
-0.538118
-0.326677
-0.343832
1.35073
-0.912851
0.610365
-0.980702
-0.452977
1.39597
-0.384809
1.64895
1.33876
1.29201
1.30038
1.54967
-0.606948
-0.396931
1.39326
1.53798
-0.645008
1.34844
-1.14559
-0.350053
-0.372428
1.29814
1.33268
-0.357386
-0.908429
1.0236
0.478923
-1.23662
1.26804
1.15644
-0.64894
1.20303
1.25255
-0.261447
-0.952292
-0.855953
-0.343343
-0.368204
1.69417
0.116709
1.10295
-0.935406
1.69797
1.12405
1.04658
1.1677
-1.17456
-0.961414
-0.337199
0.657346
-0.990279
1.35792
0.801599
-0.638232
1.07375
1.43257
1.35213
1.29341
0.0300845
1.36243
0.0614286
0.90725
1.00908
-0.652041
-0.968077
-1.13738
-0.813894
1.33044
1.40086
1.33112
-0.361256
-0.196323
-0.332287
-0.959987
1.31851
1.53674
1.33323
-0.98004
-0.615048
-0.626352
-0.618645
-0.325895
-0.328236
-0.210714
1.28218
-0.726835
-1.01758
0.299245
0.44932
0.875049
-1.6762
-0.329187
-0.207842
1.164
1.75189
-0.15542
1.4423
1.7826
0.804244
1.47125
-0.949506
0.440501
1.77174
-0.32668
0.815918
-0.999045
-0.370111
-1.02875
-1.02499
1.36418
1.19294
1.42189
1.37806
-0.0166105
1.23295
0.086107
0.148921
-0.325395
1.44194
0.877387
1.33002
1.34617
0.231171
0.0642779
1.35426
-0.455844
-0.330934
-1.02183
-1.04339
1.05592
-1.02698
1.30564
1.13542
-0.328437
1.6305
-0.972934
-0.361199
1.31701
-0.57862
-0.497636
-0.495609
0.729728
-1.0127
-1.19012
1.09847
1.33816
-0.542321
0.58208
-0.662702
-0.325081
0.0092597
-1.29323
0.367761
1.07677
-0.563134
-1.02834
1.50692
0.333503
0.451897
-1.02821
-0.374483
1.32113
1.46749
0.647421
1.01874
-1.02741
-0.462383
-0.16121
0.557966
0.935854
-1.02756
1.07398
0.196335
-1.02815
1.71287
-1.03495
-0.398787
-0.365749
-0.96066
1.28989
-1.0552
-0.88742
-0.337821
0.540102
-1.0957
0.0269084
-0.781778
0.338882
1.4195
-1.15564
0.37458
-0.361905
-0.18371
1.59386
1.76214
1.46619
1.32358
1.43846
-0.881213
1.30229
-0.965401
1.4636
-0.331637
-0.292972
1.65604
-0.207169
0.960695
-1.34873
1.74788
-0.0245123
1.69269
0.727957
0.964812
-1.00614
-0.987975
-0.328965
-1.17648
1.63333
1.44388
1.29295
1.08427
1.31789
1.3114
0.977094
-1.01797
-0.335957
0.313815
-0.40234
0.946952
1.32129
0.504586
-1.00628
-1.02222
-0.277685
-0.329191
-0.345122
1.72438
1.34111
1.31653
0.214124
-0.0369243
1.35031
-1.10546
-0.326519
-0.94552
-0.441846
0.933607
-1.01596
-1.02698
0.24907
1.28103
-0.410038
-0.364379
1.31486
1.08344
1.14461
1.30339
-0.32615
1.04149
1.55526
1.28675
-0.326305
1.32135
0.85622
0.557749
-0.585743
-1.02406
1.73656
0.758747
-1.04917
0.571164
1.08867
1.2045
-0.46945
-0.493228
0.359397
-1.09316
-0.26733
-0.880334
0.463137
1.29523
-0.951211
1.25886
1.63849
1.50686
1.23602
1.30645
1.37977
1.30977
-0.585267
-0.068267
-0.473328
-0.401802
-0.203373
-1.02664
1.40002
1.26193
-0.40721
1.34451
-0.668793
-0.364304
-1.03092
-0.651501
1.00875
-0.256441
1.28811
1.07864
-1.29754
0.168654
1.64649
-0.350915
0.200501
-0.225441
-0.869886
-1.00209
1.38101
0.928027
1.48636
-0.478099
-0.84789
-0.3021
-0.407022
-0.413228
-0.566439
-0.880646
-0.566659
1.08991
-0.139782
1.81295
-1.30508
0.0126089
-0.3569
-1.02543
1.31742
-0.371673
-0.501754
-0.224004
0.244503
1.41801
1.59727
-0.849405
-1.10244
0.98639
-0.345527
-0.242507
1.48407
-1.16635
-0.764033
-1.2277
0.899684
0.144431
-0.419979
1.29544
0.0556354
-1.08791
1.29365
-0.65656
-0.813016
-0.960299
-1.12413
0.476988
-0.420019
1.56391
-0.330053
0.681901
-0.331878
0.946835
-0.997874
-0.578739
0.775304
1.19274
1.38155
1.31861
1.43139
-1.04892
1.24742
1.01797
-0.850194
1.16224
-0.427045
-1.08445
-0.464346
1.56082
1.54306
-0.991817
-0.611316
-0.532581
1.20431
-0.692516
0.142828
-0.222685
-1.0312
1.5265
1.21628
-0.997763
-0.822476
-0.999808
-1.0117
1.14935
-0.962123
1.17378
0.291735
0.844526
0.998321
-1.00576
-0.649353
1.12845
-1.02877
0.34535
1.59764
-0.338704
-1.01373
0.973982
-0.912479
-0.856719
0.367323
-0.475063
1.68402
-0.0355116
0.662559
-0.993726
1.69096
-0.977597
-0.80441
0.769615
-0.234615
-0.331448
1.68327
0.804402
1.43285
-0.875007
1.46023
-0.422491
-0.15478
-0.901397
-0.897958
-0.971922
1.49787
0.690813
-0.366312
-0.984118
-0.432329
1.36793
-0.733661
1.67001
-0.330891
0.888206
-1.02098
0.45408
0.648015
0.608312
0.514335
0.698341
-0.76021
1.21538
-0.912277
-0.80355
-0.242266
0.781626
1.70438
0.261738
-0.846834
-0.970706
-1.01918
0.330586
-1.28471
-1.02239
1.29053
0.703559
-1.00435
1.75907
-0.4252
-0.84557
1.69772
-1.01379
0.197469
-0.707811
-1.0283
-1.02599
1.73715
-1.02697
1.63032
-1.02654
-0.693171
1.41922
0.348734
-0.768995
0.67922
-0.464575
0.0416312
0.160063
-1.02256
1.23142
-0.318511
-1.01948
-1.02785
-1.02996
-0.335938
1.25911
-0.159793
0.13156
-1.00133
1.65025
-0.244421
-0.841544
-0.971528
0.377137
-1.17583
-1.01184
-1.00894
0.463494
1.47775
-0.966951
-0.325694
-1.01206
-0.102722
-0.252034
-0.340497
1.73011
1.65302
0.504503
-0.653943
-0.333379
0.405928
-0.331308
1.72961
0.265597
1.49041
0.834593
1.67288
0.128048
-1.18116
-0.618791
-0.0495574
-0.907101
-0.0496219
0.427707
-1.02667
1.63665
0.29193
0.279613
0.173765
-0.3166
-0.69717
)
;

boundaryField
{
    frontback
    {
        type            empty;
    }
    Top
    {
        type            zeroGradient;
    }
    outlet
    {
        type            fixedValue;
        value           uniform 0;
    }
    bottom
    {
        type            zeroGradient;
    }
    Inlet
    {
        type            zeroGradient;
    }
    rectangle
    {
        type            zeroGradient;
    }
}


// ************************************************************************* //
