/*--------------------------------*- C++ -*----------------------------------*\
| =========                 |                                                 |
| \\      /  F ield         | OpenFOAM: The Open Source CFD Toolbox           |
|  \\    /   O peration     | Version:  2306                                  |
|   \\  /    A nd           | Website:  www.openfoam.com                      |
|    \\/     M anipulation  |                                                 |
\*---------------------------------------------------------------------------*/
FoamFile
{
    version     2.0;
    format      ascii;
    arch        "LSB;label=32;scalar=64";
    class       surfaceScalarField;
    location    "37.7";
    object      phi;
}
// * * * * * * * * * * * * * * * * * * * * * * * * * * * * * * * * * * * * * //

dimensions      [0 3 -1 0 0 0 0];

oriented        oriented;

internalField   nonuniform List<scalar> 
3181
(
-1.01607
0.393369
0.622696
-0.374253
0.352472
0.0217812
0.503265
-0.345856
-0.157408
0.113054
-0.188881
0.0758274
-0.0445111
0.0549938
-0.0104827
0.583923
1.42552
-2.00945
0.14093
-0.134964
-0.005966
0.00437404
-0.000744252
-0.00362979
0.532967
-0.715257
0.18229
-0.0761608
0.127794
-0.0516333
-0.010789
-0.0547613
0.0655503
0.110071
0.0508055
-0.160877
0.000405644
-0.00377872
0.00337308
-1.09793
0.153593
0.944334
-0.315842
0.672425
-0.356582
-1.12476
0.642347
0.482409
0.0834837
-0.929267
0.845783
-0.142029
0.0683416
0.0736874
-1.86663
0.251074
0.00506562
0.0588795
-0.0639451
0.0527967
-0.095774
0.0429773
-0.0438602
0.0463478
-0.00248763
1.06328
-1.04046
-0.0228196
0.0274719
0.0320303
-0.0595022
-0.956533
0.330242
0.626291
-0.105229
0.218282
0.301675
-0.25659
-0.045085
0.0278609
0.0585492
-0.0864101
-0.428983
0.353187
0.0757964
-0.0346501
-0.0266339
0.0287034
-0.00206949
-0.0414089
-0.915124
0.0582434
-0.0578857
-0.000357722
0.270875
1.4369
-1.70778
-0.0583509
0.0451084
0.0132425
0.190448
0.284651
-0.475098
1.81527
-1.5444
0.0774817
-0.0246849
1.61674
-0.905175
-0.711564
-1.13175
1.71567
-0.0257534
0.026159
-0.0304636
-0.0133966
-0.392174
0.076332
-0.138372
0.107908
-0.651188
0.127227
0.523961
-0.138243
0.0620823
-0.160397
0.164267
-0.00386971
-0.259826
-0.0745555
0.334381
-0.0120372
1.03933
-1.02729
0.0428447
0.0793702
-0.122215
-0.0215682
-0.106695
0.113279
-0.00658436
0.498718
0.173707
-0.0944867
0.153487
-0.0590001
0.0794922
-0.0212488
-0.162585
0.187202
-0.0246169
0.156575
0.0533532
-0.209928
0.102377
-0.107988
0.00561073
1.19735
0.419385
-0.838479
-0.177587
-0.0441213
-1.12872
1.17284
0.570322
0.2398
-0.810122
-0.462543
-0.214313
0.676856
-1.91724
0.785491
-0.280975
0.851296
-0.310266
-0.100546
0.410812
-0.215531
-0.213452
-0.182399
0.17195
0.0104493
0.15401
0.276267
-0.430276
-0.173546
0.706514
-0.00636217
0.0107362
-1.57932
1.5352
0.171126
0.130549
-0.166922
-0.109993
0.276916
-0.267115
0.367941
-0.100826
-0.074876
0.0831572
-0.00828111
-1.59136
-0.920596
0.0116742
0.908922
-0.0241786
-0.0341723
-1.15647
0.816816
0.339655
0.267845
-0.318739
0.0508941
-1.6112
-0.306041
1.09963
-0.946039
-0.743518
1.14558
-0.201247
1.05822
0.180214
-0.170598
-0.0096164
1.85922
-0.4337
2.35461
-2.35461
-0.00741215
-0.0015229
0.00893505
-0.200518
-0.0525664
0.253084
0.0708513
-0.0567959
-0.0140554
-0.453585
0.818364
-0.364778
-0.0333111
-0.217252
0.250563
-1.08264
0.0421848
0.359161
0.0601223
-0.419283
0.129012
-0.882468
1.12227
0.0483998
0.0415987
-0.0899985
-0.0177647
-0.14482
-0.209826
0.202253
0.00757344
-0.242481
0.0326552
0.120672
-1.00314
0.317723
-0.771308
0.924547
-0.841064
0.0231378
0.075961
-0.0990987
0.0915226
0.0548853
-0.146408
-1.33682
-0.0868477
1.42366
-0.230947
0.393976
-0.163029
-0.185379
-0.212197
0.397576
-0.491269
-0.665203
0.08469
-0.0418453
-0.145367
0.14004
0.00532685
-0.0797456
-0.0191932
0.0989388
-0.521439
-0.193819
-0.0160041
0.00445827
0.0115459
-1.05146
0.133252
0.91821
1.23365
-0.194325
-0.0169832
0.00957107
0.0211541
0.149972
-0.208411
0.398859
0.0195207
0.0760414
-0.095562
0.146188
0.0721978
-0.218385
0.181339
-0.0914684
-0.0898711
-0.594245
-0.530511
-0.965767
-0.0856942
-0.0310843
0.0794841
-0.096351
0.173831
-0.0774797
0.0393105
0.0234931
0.117437
-0.055759
0.0627567
-0.00699765
-0.0888462
-0.0189898
0.107836
0.0702737
-0.0702737
-0.17688
0.200373
0.0253637
0.0988909
0.0990768
0.0881251
-1.20228
1.02873
-1.45985
0.0206545
1.4392
0.00679616
-0.00840422
0.00160806
-0.0282974
-0.0550392
0.0833366
0.519463
-0.0222901
-0.497173
0.0036067
-0.00356911
-3.75855e-05
-0.190729
0.0138486
0.165866
0.652497
-0.3543
0.520166
-0.156414
-1.1804
-0.0647828
0.0202717
0.468133
-0.290835
-0.177298
0.0749818
-0.0675103
-0.00747145
0.0464289
-0.306254
0.0223932
-0.94299
0.0476138
-0.143965
-0.272151
-0.384821
0.0857273
1.4109
-0.955169
-0.455734
1.08483
0.326071
0.0641398
0.270241
0.00385339
0.00294277
-0.133705
0.133605
0.000100368
-0.24935
-0.598151
0.847501
-0.34094
-0.0074093
0.918269
-0.667194
0.137543
0.0402331
-0.0464331
0.00619998
-1.37968
-0.508496
1.88818
0.320807
-1.70049
-0.321003
0.680163
-0.906874
-0.0150506
0.00439717
-0.279484
0.275087
1.42966
-1.57339
0.143731
-0.0641594
-0.000623334
0.581259
-0.83061
-0.0697751
-0.21802
0.287795
-0.304612
-0.1268
0.431412
0.177776
-1.0094
-0.073239
-0.00996231
-0.0539828
-0.581033
0.36672
-0.259114
0.0197489
0.239366
-0.0208403
-0.0433191
-0.00743417
0.00743417
-0.127532
0.140277
-0.0127442
-0.19208
-1.26777
0.019535
0.000583399
-0.0201184
-0.105776
0.0490023
0.0567734
-0.231182
0.0487825
1.45639
-0.200429
-1.25596
-0.177038
0.431233
-0.254195
0.00280629
-0.00338601
0.000579716
-0.381154
0.195776
-0.196932
-0.00462461
0.201557
-0.16281
0.31682
-0.109035
0.107251
0.00178388
0.0800063
0.0230666
-0.103073
-0.08263
0.0801181
0.00251195
-0.0711569
0.445782
-0.374625
-0.210194
-0.0487034
0.258898
-0.682632
0.661843
0.0207886
-0.00610554
0.0381358
0.0284687
-0.0296689
0.00120011
-0.0151354
-0.0443668
0.678139
0.555512
0.170954
-0.895014
0.72406
-0.101708
1.77913
-1.67743
0.367587
0.494364
1.86024
0.0737413
0.214998
-0.0688107
-0.0763572
-0.0303374
0.224349
0.167862
-0.0763395
0.733644
-0.403402
0.0585107
0.194573
0.0578054
-0.176373
0.118568
-0.749999
-0.134146
0.884145
0.00343309
-0.00343309
-0.0347479
-0.28347
0.568121
0.0121015
-0.222296
0.000365987
0.0679756
0.0263237
-0.0574081
0.144553
-0.155342
-0.346622
0.313311
0.0404344
0.0274164
-0.0678509
0.370145
-0.31934
0.62553
0.220134
-0.845664
-0.19763
0.26177
0.180301
-0.471135
-0.201276
0.594646
0.157587
-0.0308374
0.0308374
-0.348991
0.242918
0.106072
0.36621
0.0277657
-0.00380607
0.00260176
0.00120431
-0.0806161
-0.00500173
-0.0110024
-0.0513982
0.195951
-0.190055
0.253975
-0.0639199
0.139284
0.0285779
-0.381805
0.125215
0.202699
-0.0634153
-0.0488436
-0.0601913
-0.00805841
0.0153155
-0.00725705
0.139656
-0.0994029
-0.0402531
-0.0318055
0.412925
-0.381119
-0.0316416
0.0252794
0.111721
-0.116358
0.00463683
0.0249434
0.955469
-0.329939
-0.0564557
0.0233092
0.0331466
-0.0498005
0.0688766
-0.0190761
-0.0989544
0.0962174
-0.720077
0.62386
-0.00621834
-1.39999
-0.470311
1.8703
-0.367537
1.06192
-0.694381
0.0777604
-0.138823
0.0473548
0.291096
0.260561
-0.551657
-0.212017
0.269822
0.132729
-0.867479
0.73475
-0.0365688
-0.0132317
-0.0299635
0.0200012
-0.982128
0.441476
0.540652
0.955169
-0.834498
-1.62468
1.53783
-1.42966
1.45032
0.0368706
-0.0958708
0.00518944
0.0232793
0.0026778
0.774337
-0.641609
0.114014
-0.0664005
0.411611
0.733969
-0.0697268
-1.38636
1.28466
-0.643049
-0.559227
-0.243458
-0.40773
-0.00548254
-0.158191
0.20462
-0.570517
-0.356345
0.179307
0.74504
-0.225577
-0.855731
-0.76895
0.752214
0.0414783
-0.0780471
0.268204
0.0347101
-0.0347101
0.668799
0.151034
-0.819834
-0.227375
0.896175
0.257822
0.0395181
-0.29734
0.1071
-0.00820865
0.00689545
0.00538995
-0.0122854
-1.12872
-0.828412
0.634088
0.733506
0.722885
-0.0330627
-0.127335
-0.228374
0.727092
-0.207732
-0.0513824
-0.00267351
-0.0722025
-0.0585293
0.113415
0.387748
-0.260521
-0.799462
-0.29892
-0.0902513
0.0163881
0.0738632
-1.5257
2.02007
-0.102761
0.0982904
0.00447065
0.0187388
-0.0148854
-0.03994
0.0301835
0.00975648
0.00917177
0.40164
0.0461647
0.0288171
0.010092
0.0174504
-0.0275424
-0.0181813
-0.178751
-0.743835
0.385007
0.358828
0.729372
-1.99922
1.26985
0.145817
-0.168517
0.0226998
0.00741474
0.0772752
-0.46611
-1.8885
-0.0359986
-0.00394134
-0.0693241
0.0274789
0.153686
-0.362097
-1.53129
0.661472
0.869817
0.0361034
0.0878928
0.0517632
-0.749999
-0.20448
0.133323
0.0490161
-0.0188326
0.0462429
-0.640878
-0.041754
0.0639089
0.138791
0.0646277
0.0236941
-0.45397
0.115986
0.365144
-0.305021
-0.106734
0.0178883
0.22079
0.842575
-1.06336
0.106096
-0.704424
0.598328
-0.915691
0.781545
-1.25592
-0.311764
1.56769
0.000205428
-0.000626149
0.000420721
0.180375
-0.484987
0.231695
-0.136271
-0.0954239
0.0570746
0.011802
-0.0204681
-0.0697833
-0.00400107
0.0172152
-0.0323506
0.0199344
0.0899933
-0.109928
-0.109715
0.00986669
-0.0100881
0.000221374
0.0341378
-0.00885846
0.863137
0.0373159
-0.0379393
0.0813712
-0.909783
0.0768105
0.030289
0.00706015
0.0808326
-1.56769
1.8885
0.187849
-0.0614086
-0.126441
-0.264776
0.0941786
0.120556
-0.130172
-0.00119923
0.0843564
0.00286245
-1.65253
0.121245
-0.0523825
0.0723169
0.742145
-0.259736
-0.115856
0.01008
0.355854
-0.00313504
-0.00067103
-0.00731562
0.0775894
0.141764
0.226177
0.158159
-0.346231
0.188073
0.103728
0.548769
-0.0284889
-0.109754
0.898973
-0.24698
-0.651993
-1.25592
-0.597189
1.32656
1.81527
-0.0327575
0.166769
-0.134011
0.411571
-0.07663
-0.334941
-0.0188343
-1.59236
-0.0806633
0.0820091
-0.00134584
0.0565209
-0.119707
0.0631863
0.455927
-0.868512
0.412586
0.0393139
0.664866
-0.704179
-0.0421821
-0.103185
-0.0373929
-0.0190629
0.0106686
-0.359659
0.00140487
-0.00119944
0.0386752
0.0170075
-0.0556826
0.00969542
-0.143401
0.00763594
0.0111029
-0.0110264
0.0869874
-0.0261359
-0.00353292
0.203953
-0.421205
0.448854
0.613063
-0.00220634
-0.00122675
-0.990354
-0.0190484
0.113137
-0.0675999
-0.0391346
-0.20146
0.131685
0.0908405
-0.673718
0.582877
0.0821232
-0.0053127
-0.935519
-0.0105205
-0.00599865
-0.64992
0.746137
-0.0165831
0.174171
0.412613
-0.373095
0.187502
-0.428516
0.241013
-0.0311801
0.107221
0.0038828
-0.00451043
0.000627633
-0.0285071
-0.0541229
-0.0193997
-0.125421
0.737796
-0.631701
-0.0506246
0.0121804
-0.0930656
0.325017
-0.166858
0.18795
1.05497
-0.383348
-0.671618
-0.127425
0.147173
-0.512674
-0.231161
-0.549756
0.588549
-0.573061
-0.0154882
-0.0582756
0.00765099
-1.38636
0.560085
-0.560085
-1.82895
1.82895
0.774337
0.600242
-0.0532771
-0.546965
-0.899438
-0.090916
0.660539
-0.379111
-0.281428
0.149759
-0.227238
-0.0124401
-0.00454309
-0.915725
-0.0874146
-0.93346
0.213383
0.0445857
-0.0281975
0.697199
-0.100487
-0.596712
1.43431
0.380964
-0.00365977
0.00754257
-0.958338
0.885915
-0.66578
-0.106462
-0.61686
0.723322
-0.00900281
-0.871684
-0.70171
0.221336
-0.815581
-0.884145
1.31552
-0.431378
-0.133619
0.268893
-0.135274
-0.0351039
0.732303
-0.109954
-0.974974
0.974974
-1.35751
0.281389
1.07612
0.00198467
0.00788202
0.0427978
-0.452422
0.912847
-0.0960308
-0.0914329
-0.0320366
0.0268808
-1.68102e-05
0.0028231
1.25163
-1.5634
-0.368087
0.448094
-0.666534
1.05466
-0.388127
-0.0100846
-0.0259141
0.131726
-0.0595287
0.340549
-0.00100565
-0.00277307
0.359641
0.0532838
0.045551
-0.260698
0.215147
0.132154
0.0321135
0.103429
0.191368
1.39412
0.141073
-0.418919
0.985636
-0.566716
-1.3391
0.8306
0.317461
-0.209553
0.0732302
-0.765254
0.692024
0.181322
0.113552
-0.460174
-0.0742608
0.126077
-0.0518157
0.118733
-0.192994
-0.468051
-0.112982
-0.077746
0.0812097
-0.00346365
-0.00399115
-0.0221448
0.0398122
-0.0610611
0.641609
-0.598328
-0.0432804
-0.279413
0.291515
0.881889
0.700822
-0.289251
-0.00172977
0.00231317
-0.417407
0.199386
0.161714
-0.559677
0.397963
-0.0048093
0.000298869
0.680182
-0.292932
-0.387249
0.0108386
-0.0172338
0.00639519
-0.029447
0.0215592
0.00788784
-1.23457
0.800868
-0.090141
-1.30985
-0.20749
-0.834498
1.45032
1.53783
-0.183669
-0.164312
0.115608
-0.0684655
0.0747763
-0.00631086
-0.671567
1.10529
-0.433719
0.566669
0.0938695
-0.00241874
-0.00239057
0.128372
-0.304295
0.0320366
-0.0568926
0.00451013
-0.337112
-0.0802941
-0.0347849
0.0611086
-0.218567
0.588713
1.08483
-0.128155
-0.0568977
0.000970226
0.0559275
1.9191
-0.381262
-0.0573568
-0.0506312
-0.999784
0.165286
0.374699
-0.196922
-0.488151
-0.141548
0.629699
0.838128
-0.376228
-0.4619
-0.524197
0.615037
-1.28466
0.155939
-0.00733595
-0.0358013
0.0431373
0.343717
1.43542
-0.160255
0.167151
0.153047
1.92849
-0.478174
-0.671846
0.0448889
0.626957
0.396693
0.01016
-0.358111
0.516666
0.78441
-0.726032
0.0716355
-0.0198723
-0.888908
0.388324
0.500583
1.07722
0.0498567
-0.0397647
-0.0525629
-0.371281
0.116516
-0.328533
0.478532
0.576434
-0.0398165
-0.0184591
0.221533
-0.254291
-0.022932
0.0168264
0.1053
-0.139881
0.0345809
-0.286555
0.298876
-0.0123205
0.199275
-0.582624
0.775849
-0.711636
-0.0642122
0.114217
-0.141015
0.0267978
0.285502
0.0395155
0.172618
-0.377098
-0.669004
0.669004
1.17284
1.43431
-0.704424
0.315149
0.469261
-0.166477
0.272549
0.961736
-0.395067
0.0100492
-0.882498
0.872449
0.119416
0.00837849
0.0251094
-0.658858
0.831476
0.0568869
-0.164661
-0.113404
0.278066
-0.0830855
-0.49256
0.327899
-1.09726
-0.300624
-0.658955
-0.0103619
-0.00921059
-0.000877473
-0.229715
0.0121417
0.0617215
0.0322509
-0.156497
0.124246
-0.498957
-0.858551
-0.00522982
0.063779
-0.0694581
-0.104914
0.174372
-0.544652
0.367354
-0.102933
0.130349
0.225107
-0.00506334
-0.0249002
-0.996939
0.79651
0.0368135
0.0749077
-0.106911
0.0138456
0.221606
0.0100887
-0.439699
1.42207
0.542126
0.326778
0.865188
-0.791958
0.819023
-0.463169
-0.636156
0.183734
0.158702
-0.797969
0.776208
0.0217607
1.08364
-0.605108
-0.226041
-0.142046
-0.056539
-0.000256896
0.948983
-0.838104
-0.110879
-0.195436
0.119097
0.0260728
0.113967
0.875744
0.456334
0.477829
-0.934164
-0.315461
-0.0408839
-0.569702
0.500244
0.11129
1.31237
1.4861
-0.0517877
0.163772
0.54963
-0.713402
0.226387
0.0537503
-0.0168112
0.0117478
-0.527548
-0.108608
0.066523
-0.0873633
-0.198038
0.14664
-0.512981
0.258786
-0.992629
-0.724845
-0.296915
-0.971575
1.41739
0.0218032
-0.29599
-0.521999
0.184887
0.538571
0.314996
0.0446449
1.21721
-0.761286
-0.201866
0.138451
0.0859948
-0.636003
0.550008
-0.0205369
0.0132009
0.0524898
-0.0597363
-0.226819
-0.107392
0.697494
-0.425494
-0.272
-0.0723524
0.125379
-0.0906826
-0.0346968
0.246672
0.0683236
0.252357
-0.946738
-0.101629
0.147872
-0.116563
0.572897
-0.00160337
-0.0174727
-0.0268513
0.0120081
0.0148433
-0.00700189
-0.00140233
-0.253865
0.077492
-0.0400315
-0.534337
0.400718
0.0256484
0.0434117
0.0708053
-0.698638
1.63246
-1.05603
0.0159584
-0.20351
0.187551
-0.14476
-0.527876
0.672636
0.0655293
-0.706407
0.10335
0.672499
-0.000275526
-0.000242634
0.00051816
-0.235599
-0.588549
-0.16145
-0.127959
-0.888908
-0.243222
0.174412
-0.0446628
-1.12404
-0.303238
0.350273
-0.0470355
0.252806
0.105733
0.445868
0.387268
-0.833135
-0.0180953
0.0595736
1.2627
-0.368151
-0.894546
-0.215994
-0.585852
1.41645
-0.25383
0.189911
-0.7267
0.140849
0.045322
0.156931
0.0015872
0.00109061
-0.0302822
1.41115
-1.08437
0.750438
0.0876904
-1.45296
-0.199571
0.275288
0.686448
0.88249
0.0164826
-0.0186084
-1.4861
-0.658955
-0.711679
0.723353
-0.0634995
-0.855731
0.664866
0.593036
-0.92902
0.804083
-0.00188489
-0.796084
-0.314963
0.638173
-0.763582
0.125409
0.0757863
0.0495932
-0.601152
-0.156252
1.3738
-1.21755
-0.00224258
-0.00696801
-0.276402
0.225019
0.703703
0.2119
-0.198051
-0.171628
1.00968
-0.876433
-0.258409
-0.288555
0.544072
0.185203
-0.729276
-1.0288
1.41712
0.264656
-0.36957
0.0830281
0.344332
-0.500583
-0.000256713
0.223922
-0.0107762
0.0856745
0.0274621
0.010394
-0.028535
0.018141
-1.02871
-0.0346524
0.30815
-0.807376
0.126893
0.413908
-0.540801
0.388231
0.66643
-0.0452226
0.0482168
-0.00299418
0.232977
0.776708
-0.718693
1.06951
0.853131
-0.726239
0.328513
-0.104591
-0.583298
-0.409332
-0.706963
1.25104
-0.054401
-0.884383
-1.7422
0.0647762
0.344332
0.0510005
-0.858377
0.831403
-0.646842
-0.184561
-0.98199
0.398692
0.00761913
0.106902
-0.000361566
-0.10654
-0.97141
0.562079
-0.204521
0.911994
-0.922515
0.20093
-0.219111
-0.0999023
0.253589
0.359576
0.649921
-0.0688097
-1.28057
0.608951
-0.14796
-0.578072
-0.552373
-0.518689
1.07106
0.447627
0.0163476
-0.0109576
-0.738832
0.704179
0.770383
-0.537405
-1.86024
1.58131
0.278927
-0.0656757
0.479584
0.771763
-0.806414
-0.493895
-0.449095
-0.472089
-0.499322
0.804293
-0.804293
0.687831
-0.687831
-0.738832
-1.27527
1.27527
-1.58131
-1.52292
0.151317
-0.0368733
-1.17224
1.17224
0.770383
-0.537405
0.771763
0.764229
-0.764229
0.806414
0.758168
-0.758168
0.506105
0.527911
0.481311
-0.401855
-0.500678
-0.550905
1.07882
-0.292619
-1.68096
0.974002
0.476549
-0.211894
0.193074
-0.00838374
0.0456997
-0.885001
0.0897121
0.795289
-0.0521833
0.0467007
-0.99353
0.590128
0.894307
-0.579158
-0.122392
0.000981906
-0.0031304
-0.818048
-0.0769659
-0.540652
-0.0125084
0.0325097
-0.874661
-0.0760265
0.0571938
0.18901
-0.00764133
-0.00723626
0.0148776
-0.813153
0.0680997
0.745053
0.0283938
0.331182
-0.5269
0.424752
0.102148
0.916374
-0.745698
-0.170676
0.0883302
0.310529
-0.0144603
-0.0632857
-0.0670462
-0.0136171
0.418267
-1.94397
-0.864379
0.0943549
-0.746154
0.795325
-0.0491717
0.119974
-0.900275
0.780301
-0.803997
0.902086
-0.098089
-0.0223564
0.0153545
0.021332
-0.300816
0.347649
0.903386
-0.0909022
-0.794099
0.914875
-0.0891902
-0.825685
0.0552411
-0.0653257
0.504943
0.825471
-1.6618
0.49153
-0.39766
0.098204
-0.892303
1.5444
0.284556
-0.795007
-0.00107771
1.01715
-0.897172
1.14002
0.145841
-0.469987
0.324146
-0.882471
-0.111058
-0.427024
0.0459046
0.249102
0.333775
-0.783277
0.783277
-0.626388
-0.0825942
-0.863748
0.11805
-0.992501
0.886039
0.0764887
-0.212759
-0.0541315
0.0509389
0.0118178
0.185606
0.83154
0.819491
0.774253
0.135803
-0.910056
-0.128485
-0.0834092
-0.783705
-0.101896
0.885602
0.164354
-0.883048
-0.678142
0.885799
-0.787596
-0.103023
0.461731
-0.00850055
-0.45323
-0.103787
1.60723
-1.50345
0.450496
-0.452749
0.00225386
-0.886728
-0.829441
0.0832871
0.54062
0.278403
-1.31104
1.30736
-0.590791
0.590791
-0.746901
-0.533668
-0.0373342
0.86881
-0.676209
-0.0354275
0.783903
-0.193069
1.07801
-0.277141
1.07964
-0.908074
-0.171562
-0.221276
-1.77794
0.0710968
0.0173566
-0.291501
0.424824
0.0320062
0.321643
-0.233312
0.782051
-0.88014
0.0375922
-0.121001
-0.144769
0.734896
0.592038
-0.592038
-0.0331869
0.0183015
0.11809
-0.0858388
1.5433
0.0639338
0.101909
0.000529696
0.00646826
-0.00699795
-0.675088
0.69298
-0.017892
0.0467215
-0.516709
0.104678
-0.892273
-1.03189
1.20008
-0.168185
0.0978162
0.873615
-0.612561
0.659282
-0.75647
0.610655
-0.652409
-0.675491
0.162817
0.562928
0.0267863
0.201283
-0.218176
0.781104
0.001247
-0.0454235
0.0634455
0.73188
0.688797
-0.0781418
0.0715468
0.791591
-0.912692
-0.165978
1.07867
-0.436004
0.508525
0.431272
-0.920613
0.706336
0.214277
-0.685228
-0.130354
1.13452
0.112277
-0.471936
-0.034152
0.485833
0.514167
-0.771421
-0.108719
-0.192749
-1.16794
-0.841902
-0.716444
0.400768
0.599232
-0.0587025
0.049844
-0.860611
-0.0572127
-0.595196
-0.149244
-0.237816
0.38706
0.00254782
0.000314632
0.11949
0.0764611
-0.128589
-0.125276
0.762557
-0.648657
0.720204
0.840232
-1.05841
0.0724596
0.772352
-0.844812
-0.744166
-0.186277
0.930442
-0.230693
0.219869
-0.025296
-0.0439717
0.000652609
-0.00198192
0.727199
-0.136408
0.110814
0.114294
-0.735424
0.0603356
1.27002
0.73568
-0.465466
-0.380198
0.577309
-0.282122
1.01609
-0.00341605
0.179061
-0.026014
-0.00044324
-0.038776
-0.0334614
-0.145629
1.41565
-0.755814
-0.156006
0.911821
0.845844
-0.0313835
0.00364703
0.0277364
0.135448
0.00113529
0.000269574
0.206789
-0.10149
-0.410814
-0.265395
0.12335
-0.879165
0.0059109
0.271766
0.616346
-1.12648
1.28792
-0.161439
-0.7761
0.827494
-0.0513936
0.548174
-0.22565
0.270972
-0.0818609
1.39767
-0.46606
-0.0608398
0.271926
0.440485
0.182834
-0.623318
0.39179
0.031189
0.661791
-0.57251
0.57388
-0.00137055
1.47852
-0.939945
-0.0298772
0.0356285
-0.00575125
0.701075
-0.00949792
-0.082756
0.01825
0.819212
0.447692
0.100482
0.0535794
-0.127932
-0.013083
0.0406244
0.0428392
-0.0834636
0.0155944
-0.00520039
0.345595
-0.713746
0.0436262
0.210371
-0.0242723
-0.0794506
0.235943
0.0934878
0.00385434
0.0519205
0.764521
0.272009
-0.391197
0.119188
-0.364021
-0.50483
0.868851
0.641217
0.119243
-0.037957
-0.00565204
0.0436091
-0.523726
0.373192
-1.28127
-0.0106392
0.762853
0.725307
0.394148
-0.256077
-0.345076
0.805572
0.126871
0.061079
-0.901599
0.1268
-0.271968
-0.721543
-0.16675
0.697382
0.0671394
0.014585
0.44147
-0.66712
-0.383532
0.167114
0.0134985
-0.109273
0.421142
-0.0592474
0.0730668
-0.0642124
0.128746
0.396832
-0.760852
-0.145633
0.522841
-0.0292183
-0.108505
-0.0023396
0.00019128
0.00214832
-1.52037
0.580423
-0.00354396
0.939218
-0.224356
-0.624193
0.655715
-0.0315216
0.136963
0.757717
-0.197186
-0.647626
0.0842853
-0.184188
0.638755
0.118963
1.31344
0.706631
-0.273968
0.765498
0.499041
0.916612
-0.587537
0.351472
0.236065
-1.07635
-0.0711899
0.039474
0.0708
-0.0508077
1.21916
0.734023
0.0715485
0.634832
0.212669
-0.878472
-0.0827697
-0.681549
0.680472
-0.0283182
-0.560789
0.411545
0.859432
0.669944
0.0421008
-0.00320385
-0.139059
-0.321115
0.870447
0.762014
0.40699
0.0182371
1.33284
-0.41623
0.93331
-0.0151002
-0.0829372
0.685216
-0.728473
0.91992
-0.191448
-0.413687
-0.17385
-0.0373487
-0.161999
-0.092673
0.865253
0.0218595
-0.00440903
0.626687
-0.499236
0.119038
0.612731
-0.130912
0.222737
0.758304
0.27561
-1.03391
0.276415
-0.923257
0.312909
-1.36894
-0.16685
0.752827
-0.585978
-0.676878
-0.0597045
0.0157328
-0.05687
-1.68063
0.00798737
-0.0348387
0.134852
-0.00156144
-0.162372
0.163933
-0.00938547
-0.570517
0.117417
0.0616443
-1.72472
-0.0120086
0.00436726
0.507473
-0.0556709
-0.602213
0.0297035
0.566827
0.292605
1.11031
0.759985
-0.23144
-0.388049
0.619489
0.641879
-0.619732
0.619732
-0.199485
-0.962058
1.16154
0.0321394
-0.159564
0.671728
-0.104902
-0.216753
-0.406629
-0.0653071
0.11589
-0.101086
-0.383681
0.188207
-0.102479
-0.900812
0.483241
0.0906391
0.073057
0.00442465
-1.82973
-0.830798
-0.0620308
0.693016
0.306984
-0.830798
0.693016
-1.01275
-0.519158
-1.01275
-0.696488
0.696488
0.303512
-0.0133671
0.154333
-0.079419
0.2564
0.0690666
-0.50001
0.637205
-0.0244743
0.645128
-0.504879
-0.140249
-0.0474559
0.0435492
0.00390671
-0.0155817
0.0161114
0.116276
0.0175039
-0.0207854
-0.435524
-0.369366
0.139651
0.0386545
0.823149
-0.273518
-0.169593
0.354479
-0.0174321
-0.0725952
-0.00358725
0.690953
0.0718999
0.31194
-0.0279494
0.000407027
-0.010176
0.0832372
0.551767
-0.47934
-0.0724263
2.19892
0.559063
0.531801
0.928851
0.0122289
-0.067268
0.113275
0.297764
0.0710394
1.15578
-0.397478
-0.000735663
-0.00962629
0.649771
-0.189743
0.0186246
-0.0186246
0.0235915
-0.0235915
-0.0154047
0.0154047
-0.00220634
0.367138
0.462896
-0.0467389
-0.690927
0.465349
0.179472
0.0273178
-0.0864912
-0.482448
0.634119
0.113323
-0.798551
-0.500621
0.127527
0.0616539
0.0220615
-0.000502364
0.00200779
-0.00200779
0.100451
0.00225042
-0.00225042
0.701187
0.10545
-0.0217212
-0.00622827
0.00610591
-0.0630036
-0.0202545
0.0202545
-0.0118361
0.0118361
-0.0245251
0.0245251
0.00220824
-0.00220824
0.0661246
-0.301042
-0.0767565
0.218032
0.00244063
-0.00244063
-0.377917
0.499057
-0.121141
0.480917
-0.212024
-0.596637
0.427044
0.557693
-0.199036
0.0842958
0.571419
0.565735
0.00235944
-0.00235944
0.582912
0.0275164
-0.0275164
0.00263649
-0.00263649
0.775249
-0.698255
0.0391098
-0.0997128
-0.19322
-0.00158218
0.00158218
0.0135458
-0.0135458
0.0199007
-0.0199007
0.0207123
-0.0207123
-0.0257122
0.0257122
0.0379516
-0.0379516
0.496853
-0.0344857
0.0344857
0.00131261
-0.00131261
0.0262115
-0.0262115
-0.00873218
0.00873218
-0.00232185
0.00232185
-0.0168653
-0.0288622
0.0288622
-0.0548908
0.0120017
-0.0425884
0.0425884
0.00753207
-0.00753207
0.0162186
-0.0162186
0.0362696
-0.0362696
0.0235992
-0.0235992
-0.00177346
0.00177346
-0.00647802
0.00647802
-0.227803
0.176283
-0.011065
0.011065
0.000891886
-0.000891886
-0.0411389
0.0411389
-0.0258564
0.0258564
0.00448674
-0.00448674
-0.420454
0.695742
0.243483
-0.0345545
0.0345545
0.0022911
-0.0139874
0.0139874
0.000353222
-0.000353222
0.0345062
-0.0345062
-0.180064
0.241143
0.0074341
-0.0074341
-0.0201598
0.0201598
-0.480128
0.0414355
0.144506
-0.0288955
0.0288955
-0.43505
0.030767
0.0174498
0.17858
-1.63154
-0.0395903
0.0395903
-0.211198
0.151951
-0.0381603
-0.000226494
0.000226494
-0.0137288
0.0567061
0.265189
-0.32144
-0.264
0.58544
0.177942
-0.00817191
0.00817191
-0.0931737
0.348984
-0.255811
0.749646
-0.378463
-0.371182
-0.47989
-0.656924
0.292066
0.0624135
0.262862
-0.698866
-0.574898
-0.0178324
0.189968
-1.16002
0.0190814
-0.0190814
-0.000659029
0.000659029
0.0332657
-0.0332657
0.0242803
-0.0242803
-0.00310047
0.00310047
-0.000957899
0.000957899
-0.219189
-0.09955
0.161633
-0.284025
0.00364535
-0.00364535
-0.0417842
0.0417842
-0.0434262
0.0434262
0.157255
-0.0517478
-0.105507
0.0144047
0.29945
-0.523807
-0.00409306
0.00409306
-0.0164063
0.0164063
-0.104072
0.140895
0.151171
-0.00158553
0.00158553
0.0523559
0.0153067
0.931113
-0.489274
-0.0916695
0.580944
-0.619589
0.358122
-0.10902
-0.0358182
0.0358182
-0.674647
0.266366
0.0534011
-0.0534011
-0.675096
0.393668
0.252115
0.116872
-0.00284902
0.00284902
-0.864688
-0.00197155
0.00197155
0.323386
0.408917
0.0543405
-0.057765
0.057765
-0.00213015
0.00213015
-0.0456109
0.0456109
-0.0500703
0.0500703
-0.00219293
0.00219293
-0.0553971
0.0553971
-0.0024617
0.0024617
-0.0491612
0.0491612
-0.014751
-0.04203
0.04203
0.00405532
-0.00405532
0.0518913
-0.0518913
-0.00298736
0.00298736
0.0441526
-0.0441526
0.0463225
-0.00447234
0.00447234
-0.00583807
0.00583807
-0.0416107
0.0775894
-0.0122333
0.0122333
0.00475399
-0.00475399
-0.0641268
0.0641268
0.311991
-0.0201211
0.0201211
-0.0533171
0.0533171
-0.0070809
0.0070809
-0.0726788
0.0726788
-0.012647
0.012647
-0.087079
0.087079
-0.0235151
0.0235151
-0.087898
0.087898
-0.701562
0.2618
-0.542108
0.510587
-0.871684
-0.521905
-0.542907
0.376157
0.00387574
-0.0762281
0.00357432
-0.00357432
0.148813
-0.699904
0.0494261
-0.0450015
-1.29738
1.67835
1.57625
0.243101
-0.00101119
0.0317429
-0.378873
-0.593346
-0.0373044
0.392044
-1.19119
-0.0265479
0.0265479
-0.732857
0.0159148
-0.0159148
-0.00566768
0.00566768
0.345044
-0.378733
-0.00253242
0.00253242
0.0174933
0.0133441
0.598801
0.0916237
-0.0119347
-0.0135714
-0.005037
-0.107001
0.509926
-0.402925
0.1621
-0.0910032
0.003594
1.11974
0.0125395
0.0417776
-0.410898
0.456803
-0.502568
-0.97054
-0.209863
-0.0777335
0.0192042
-0.124469
-0.32828
0.00323151
-0.00746652
-0.00295962
0.797207
-0.535968
-0.0458307
0.0593292
-0.0394686
0.0763406
0.0779924
0.415748
0.246095
-0.160071
0.201253
0.0331748
-0.0101082
-1.33058
0.0139073
0.0371277
-0.199499
-0.0172603
-1.39487
-0.0727468
0.270822
-0.35476
0.408044
0.0714475
-1.04302
0.0449485
-0.0337359
-0.0315898
-0.355208
0.457356
-0.0268854
-0.0100311
0.0369165
-0.0296752
0.0296752
0.168946
-0.458197
-0.00869543
0.0576977
-0.0875391
0.0592209
-0.0593174
-0.00433582
0.0636532
-0.0381668
-0.161168
0.0293229
-0.0733837
-0.282661
-0.342025
0.624686
0.0172561
0.064753
0.149143
-0.0383291
-0.0636086
0.0736863
-0.165109
0.323811
-0.000942931
0.0286794
-0.0175962
0.166739
0.0039646
0.271122
0.00515065
-0.00515065
0.124105
0.809205
0.0975426
-0.180312
-0.0181413
0.00913846
0.0819385
0.577344
0.0217654
-0.0143312
-0.536055
-0.00605316
-0.0365309
0.102043
-0.705659
0.310592
-0.0543418
0.366362
-0.649023
0.21121
0.495126
-0.0977171
0.0977171
-0.000361566
-0.0992951
0.0816434
0.0176517
-0.222701
0.165831
0.308122
-0.224515
-0.358109
-0.0842849
-0.0286393
0.0338287
0.929217
0.150228
-0.108127
-0.0707503
0.0493461
-0.775585
-0.0368953
-0.255638
0.772304
0.558779
-0.259328
-0.263622
0.535388
-0.0908882
0.257657
-0.265021
0.0394203
-0.456946
0.335805
0.115216
-0.115216
0.0606212
-0.0437358
-0.0168855
-0.000198556
0.00367126
0.0120081
-0.607555
0.0838289
0.215948
-0.185352
-0.0305955
0.529414
-1.09919
-0.0499351
-0.859848
0.684649
-0.108961
-0.175064
-0.0275329
-0.0798594
-0.497646
0.0621213
-0.299944
-4.2184e-05
-0.0172603
0.398131
-0.00527073
0.000813813
0.000232394
0.0185995
-0.00978164
-0.00881788
-0.0986718
-0.0202762
-0.177079
0.197355
-0.113624
-0.343322
0.0174933
0.349783
0.00141738
-0.389056
0.0921412
0.00299131
0.0545195
-0.101258
-0.0131106
0.0131106
-0.00153516
0.00170972
-0.00864975
0.000195851
-0.0281723
0.000457781
-0.00118714
0.212119
-0.0804338
-0.00205403
0.00205403
0.0292443
0.501254
0.000771128
-0.279382
0.596055
1.19329
-0.468832
0.320419
-0.440447
-0.112185
0.10349
0.214451
-0.217466
0.0053591
-0.00290675
0.000924834
-0.00241427
-0.175553
-0.365385
0.830735
0.339209
-0.558399
0.185941
-0.00168205
0.0576708
0.0401454
0.000441535
-0.000338854
-0.0025679
-0.687787
0.00144953
-0.000552485
0.734485
-0.660799
-0.249405
0.233825
0.901535
-0.000538666
0.00095608
-0.0381603
-0.00529626
0.817678
-0.432567
0.523206
-1.22997
0.906215
-1.2356
0.557466
-0.181309
0.71739
0.000560267
0.00339404
0.0186675
-0.113153
0.137259
-0.184062
0.00867531
0.00289263
0.0702829
-0.0571829
-0.0131
0.000737811
0.00519274
0.0237934
-0.0289862
-0.101878
0.00654438
-7.6128e-05
0.00200129
0.499538
-0.43862
0.000187702
0.000393676
-0.131698
0.213342
0.372113
-0.00632456
-0.000432536
0.0609512
-0.017325
-0.0485675
-0.0992444
-0.0117046
-0.00383589
0.133464
0.0324693
-0.00270985
0.397395
0.000810343
0.00143461
-0.00143461
-0.00509595
-0.00847545
0.000544874
-0.321517
-0.00396296
0.0770121
-0.107805
0.159483
0.444475
-0.0651515
0.000447708
0.00136573
0.449134
0.000251449
-0.000922091
-0.0364266
-0.00218476
0.000663912
0.00903103
0.0928777
-0.709874
0.462031
-0.827416
-0.187385
-0.00054462
0.181064
0.025334
0.00667226
0.575097
-0.0142521
0.059754
-0.00436387
-0.00150986
-0.555684
-0.00355027
-0.000268773
-0.00120975
0.899071
-0.507281
-0.00273008
-0.000525656
-0.00636183
-0.00148498
0.0795597
-0.0206266
0.0206266
-0.0276124
0.0293222
-0.0023269
-0.00855194
0.0321621
-0.0313483
-0.17401
0.10282
-0.00556607
-0.0144002
0.0365516
-0.0185127
0.0672487
-0.0480445
-0.625071
0.575899
0.0238396