/*--------------------------------*- C++ -*----------------------------------*\
| =========                 |                                                 |
| \\      /  F ield         | OpenFOAM: The Open Source CFD Toolbox           |
|  \\    /   O peration     | Version:  2306                                  |
|   \\  /    A nd           | Website:  www.openfoam.com                      |
|    \\/     M anipulation  |                                                 |
\*---------------------------------------------------------------------------*/
FoamFile
{
    version     2.0;
    format      ascii;
    arch        "LSB;label=32;scalar=64";
    class       surfaceScalarField;
    location    "10.5";
    object      phi;
}
// * * * * * * * * * * * * * * * * * * * * * * * * * * * * * * * * * * * * * //

dimensions      [0 3 -1 0 0 0 0];

oriented        oriented;

internalField   nonuniform List<scalar> 
3181
(
-1.04604
0.421393
0.624646
-0.383365
0.360377
0.0229873
0.51458
-0.353828
-0.160752
0.119013
-0.197229
0.0782161
-0.0986448
0.121661
-0.0230161
0.751849
0.452367
-1.20422
0.146
-0.139759
-0.00624104
0.0903035
-0.0018876
-0.0884159
0.583528
-0.762609
0.179081
-0.0755401
0.134139
-0.0585993
-0.010156
-0.0519506
0.0621066
0.125905
0.0465868
-0.172492
0.000390722
-0.0755745
0.0751838
-1.08729
0.1479
0.939385
-0.321311
0.687738
-0.366427
-1.11909
0.638785
0.480308
0.0866234
-0.936343
0.849719
-0.351818
0.281993
0.0698257
-0.631088
-0.436481
-0.00565933
0.0721723
-0.066513
0.0427438
-0.0900309
0.0472871
-0.0779531
0.0649773
0.0129758
1.05412
-1.03089
-0.0232288
0.0213562
0.0339696
-0.0553258
-0.95327
0.328505
0.624765
-0.10712
0.226133
0.306127
-0.248803
-0.0573236
0.0292719
0.0611925
-0.0904645
-0.416521
0.342781
0.0737397
-0.0331641
-0.00794653
0.0109912
-0.0030447
-0.0406902
-0.91258
0.104286
-0.0688239
-0.035462
0.0171528
1.37292
-1.39007
-0.0430226
0.0389929
0.00402972
0.182343
0.278937
-0.46128
1.32053
-1.30337
0.0742849
-0.0315411
1.60148
-0.852909
-0.748575
-0.275109
1.02696
-0.146535
0.146925
-0.0776222
-0.000330892
-0.402685
0.0813741
-0.159085
0.0814628
-0.636915
0.124708
0.512206
-0.145242
0.0697021
-0.1654
0.169528
-0.00412776
-0.267125
-0.0751737
0.342299
-0.251398
1.49398
-1.24258
0.0881782
0.19705
-0.285228
-0.0136059
-0.10093
0.107074
-0.00614402
0.505214
0.182524
-0.0954861
0.145912
-0.0504261
0.0869128
0.0173731
-0.168319
0.194251
-0.0259322
0.160327
0.0558998
-0.216227
0.107213
-0.113028
0.00581445
1.27424
0.327239
-0.85649
-0.189549
0.225559
-1.25127
1.02571
0.556148
0.231599
-0.787747
-0.448543
-0.206863
0.655406
-0.958943
0.683834
-0.271613
0.827761
-0.320218
-0.100772
0.42099
-0.210099
-0.206422
-0.189882
0.169916
0.019966
0.137805
0.282586
-0.420391
-0.189905
0.773434
-0.00591168
0.0962152
-1.47467
1.70023
0.182376
0.12375
-0.175193
-0.110892
0.286085
-0.26966
0.358652
-0.0889919
-0.0794227
0.0876263
-0.00820364
-1.72607
-0.91978
0.0107662
0.909014
-0.0421511
-0.000871486
-1.0974
0.819866
0.277536
0.619184
-0.412255
-0.206929
-0.983674
0.0247312
1.11093
-0.963031
-0.720156
1.13817
-0.198784
1.07024
0.172518
-0.173864
0.00134534
1.17898
-0.726618
0.651708
-0.651708
-0.00852219
0.00034114
0.00818105
-0.208857
-0.0523861
0.261244
0.147809
-0.0971502
-0.0506584
-0.434274
0.816926
-0.382652
-0.0252494
-0.226582
0.251832
-1.07452
0.0436245
0.350221
0.0575466
-0.407768
0.131215
-0.852694
1.08429
0.110734
0.100713
-0.211447
-0.0172757
-0.151043
-0.527463
0.352078
0.175386
-0.383222
-0.144241
0.114164
-0.966858
0.32172
-0.755994
0.915602
-0.828979
-0.0372684
0.246144
-0.208875
0.0870646
0.0524773
-0.139542
-1.3472
-0.120525
1.46772
-0.240571
0.404369
-0.163798
-0.799118
0.474178
0.32494
-0.485776
-0.611625
0.199095
-0.110917
-0.150027
0.144556
0.00547084
-0.0782254
-0.0160507
0.0942761
-0.543421
-0.219188
-0.126206
0.057364
0.0688421
-1.07678
0.111336
0.965443
1.60103
-0.107051
-0.0103825
0.00186031
0.0322533
0.150123
-0.202627
0.38497
0.0124712
0.258393
-0.270864
0.1401
0.0689601
-0.20906
0.342436
-0.0448878
-0.297548
-0.595751
-0.523342
-0.796285
-0.280494
-0.0728549
0.183589
-0.1025
0.180476
-0.077976
-0.00938229
0.0244817
0.121518
-0.0568971
0.0679201
-0.011023
-0.0934462
-0.0208372
0.114283
0.0730494
-0.0730494
-0.181526
0.206008
0.235962
0.209521
0.103156
0.0910947
-1.24427
1.05436
-1.53278
0.0714234
1.46136
0.0186992
-0.0144975
-0.00420172
-0.0269153
-0.0518229
0.0787382
0.52868
-0.0204355
-0.508244
-0.0389452
0.0409519
-0.00200665
-0.196655
0.0151287
0.157418
0.659508
-0.367893
0.525311
-0.14354
-1.20366
-0.147717
0.0490723
0.479087
-0.301147
-0.17794
0.181951
-0.153338
-0.0286136
0.0469772
-0.314102
0.0221412
-0.941921
0.0487644
-0.151265
-0.282313
-0.395391
0.0770322
1.41666
-0.975941
-0.440722
1.10554
0.311121
0.0653499
0.276949
0.0206616
-0.00196241
-0.109926
0.195593
-0.0856672
-0.251058
-0.58624
0.837298
-0.351463
0.547896
0.704132
-1.14061
0.147261
0.0262879
-0.0617774
0.0354894
-1.02732
0.0782516
0.949064
-0.036725
-0.990591
-0.309574
0.659795
-0.914202
-0.0167531
0.0043934
-0.270519
0.266126
1.48087
-1.60706
0.126194
-0.146785
-0.000932544
0.562532
-0.81359
0.180612
-0.512029
0.331417
-0.29733
-0.1218
0.41913
0.173549
-0.999552
-0.0749648
-0.0200172
-0.0464957
-0.563529
0.356667
-0.249389
0.0190697
0.23032
-0.026602
-0.120183
0.0298818
-0.0298818
-0.121563
0.133723
-0.0121597
-0.257424
-1.27536
0.108
0.0328992
-0.140899
-0.189393
0.0176964
0.171696
-0.225263
0.0353807
1.6586
-0.324415
-1.33418
-0.183361
0.439982
-0.256621
0.00282539
-0.00229405
-0.000531334
-0.482614
-0.316504
-0.18824
-0.00469264
0.192933
-0.172477
0.310282
-0.103117
0.101463
0.00165377
0.0757652
0.0129264
-0.0886915
-0.163663
0.230809
-0.0671453
-0.2592
0.450349
-0.19115
-0.215286
-0.0499361
0.265222
-0.686243
0.660578
0.0256645
-0.00391777
0.0378874
0.0539065
-0.0545468
0.000640277
0.00446969
-0.0597955
0.593521
1.00751
0.164716
-0.880341
0.715625
-0.11884
1.94161
-1.82277
0.378315
0.094685
0.557023
0.0676868
0.206417
-0.0663167
-0.0720927
-0.0288378
0.233698
0.160745
-0.0736806
0.733451
-0.404946
0.0593935
0.20185
0.0542077
-0.169236
0.115028
-0.771692
-0.136296
0.907988
-0.0453285
0.0453285
-0.106092
-0.271371
0.550308
0.0123413
-0.227627
0.152271
0.129721
0.0561304
-0.128985
0.138315
-0.148471
-0.34307
0.31782
0.0611039
0.0415825
-0.102686
0.378472
-0.331885
0.378185
-0.00981516
-0.36837
-0.202771
0.268121
0.182885
-0.484032
-0.188305
0.609698
0.16255
-0.0329523
0.0329523
-0.425804
0.521827
-0.0960224
0.378386
0.0259831
-0.0216249
0.0277293
-0.00610441
-0.184515
-0.0597504
-0.0664557
-0.0492698
0.187585
-0.182371
0.244195
-0.061824
0.1334
0.0273457
-0.385314
0.136511
0.194383
-0.0609838
-0.0463239
-0.0567931
-0.087775
0.0661005
0.0216745
0.144843
-0.102739
-0.0421042
-0.0192373
0.398618
-0.37938
-0.149555
0.143643
0.105706
-0.110051
0.00434568
0.0240457
0.502302
-0.124116
-0.087576
-0.0167095
0.104286
-0.101184
-0.000727638
0.101912
-0.0942177
0.0997417
-0.720751
0.621009
-0.0385345
-1.50552
-0.379339
1.88486
0.553731
0.883522
-1.43725
0.081281
-0.325535
0.280647
0.27921
0.253975
-0.533185
-0.205778
0.259985
0.138288
-0.873964
0.735676
0.0552231
-0.156407
-0.0256611
0.00564388
-0.987933
0.447714
0.540219
0.975941
-0.861777
-1.65891
1.53838
-1.48087
1.55229
0.0388946
-0.0893207
0.0161083
0.0377982
0.00844014
0.798003
-0.659715
0.119562
-0.0707973
0.406577
0.731592
-0.162375
-1.62294
1.5041
-0.663807
-0.580459
-0.238372
-0.398543
-0.00262939
-0.162749
0.209726
-0.581356
-0.365459
0.182097
0.761422
-0.232743
-0.890783
-0.768124
0.727248
0.236698
-0.181475
0.276185
0.0372892
-0.0372892
0.669327
0.14867
-0.817997
-0.229169
0.898497
0.421649
-1.18524
0.763592
0.266184
-0.0566629
0.00661593
0.00647563
-0.0130916
-1.25127
-1.19051
1.08346
0.85262
0.805977
-0.0339165
-0.131483
-0.239845
0.745059
-0.1997
-0.0496894
-0.0029371
-0.0764856
-0.0554451
0.107922
0.378054
-0.253345
-0.807346
-0.288898
-0.142029
-0.107127
0.249156
-0.768842
0.863526
-0.191868
0.182862
0.00900578
0.0166113
0.00405036
-0.145593
0.0740739
0.0715189
0.00900485
0.411985
0.130422
0.0515294
0.0276521
0.0132945
-0.0409466
-0.0168423
-0.171398
-0.728362
0.377478
0.350884
0.417572
-1.16286
0.745291
0.139732
-0.16129
0.0215574
-0.0142432
0.213339
-0.182456
-0.469252
-0.148539
0.00294629
-0.166874
0.0559567
0.146314
-0.348941
-1.21755
0.797522
0.420025
0.0417163
0.0911619
0.0536809
-0.771692
-0.249767
-0.00943254
0.162984
-0.0889103
0.0444952
-0.636605
-0.0496384
0.0610716
0.133312
-0.0322649
0.0354531
-0.455844
0.120367
0.35362
-0.296074
-0.113657
0.0202111
0.216542
0.833822
-1.05036
0.103548
-0.704483
0.600936
-0.940456
0.80416
-0.701409
0.195433
0.505977
-0.00694142
0.00774069
-0.000799271
0.171828
-0.469158
0.213526
-0.125028
-0.0884983
0.0564687
-0.0571964
0.015824
-0.157853
-0.0154468
0.0272823
-0.0228126
0.0203748
0.0829975
-0.103372
0.97538
-0.00128701
0.00193134
-0.000644336
0.120896
0.022747
0.855328
0.0779201
-0.0788527
-0.0876181
-1.1029
0.256118
0.0100662
0.00772513
0.0834367
-0.505977
0.469252
0.239226
-0.285648
0.0464212
-0.25667
0.0828067
0.120862
-0.119516
-0.00139982
0.0890262
-0.0408328
-0.852192
-0.365355
-0.046768
0.0671428
0.741018
-0.260711
-0.314799
0.125406
0.345832
0.0169806
-0.0386055
-0.00757392
0.0806234
0.145271
0.213382
0.154188
-0.333776
0.179588
0.120813
0.538694
-0.036055
-0.109187
0.906979
-0.24885
-0.65813
-0.701409
-0.343098
0.76067
1.32053
-0.164308
0.471549
-0.307242
0.36845
-0.0714974
-0.296953
-0.315494
-0.66818
-0.0757971
0.0768956
-0.00109854
-0.0427615
-0.153113
0.195875
0.451008
-0.964949
0.513941
0.0439624
0.666568
-0.710531
-0.0432586
-0.106769
0.0050598
-0.0926358
0.227294
-0.653098
-0.00926672
0.0023253
0.161355
0.0107186
-0.172073
0.0629251
-0.172851
-0.000696812
0.0173081
0.104926
0.141217
-0.0473439
-0.00720286
0.197526
-0.424108
-0.24798
1.1315
0.0350197
0.0103088
-0.982062
-0.0174905
0.211417
-0.0708898
-0.0427675
-0.136712
0.317325
0.788483
-0.849313
0.0608301
0.164918
0.0912005
-0.944715
-0.0183161
-0.000673461
-0.64732
0.747062
-0.017628
0.180178
0.00684321
-1.19208
0.188554
-0.438237
0.249683
0.044151
0.214242
-0.000682707
0.000688516
-5.80937e-06
-0.0250085
-0.138655
-0.02058
-0.130463
0.742085
-0.638538
-0.151347
0.0830811
-0.128943
0.314483
-0.160295
0.153559
1.25947
-0.202946
-1.05652
-0.121847
0.140916
-0.500761
-0.227601
-0.552244
0.626084
-0.609698
-0.0163856
-0.0936236
-0.0577237
-1.62294
0.583466
-0.583466
-1.69174
1.69174
0.798003
0.113898
-0.472277
0.358379
-0.893416
-0.0886457
0.63797
-0.372303
-0.265667
0.158343
-0.236319
-0.0103529
-2.96292e-05
-0.882341
-0.0845161
-0.934783
0.214032
0.0274614
-0.134588
0.709312
-0.112456
-0.596856
0.837615
0.482912
-0.000999572
0.000316864
-0.967944
0.375135
-0.38495
-0.080016
-0.606193
0.686209
-0.0751972
-0.896505
-0.710558
0.216509
-0.812259
-0.907988
1.35311
-0.445126
-0.136296
0.275364
-0.139068
-0.0282529
0.737565
-0.10766
-1.01001
1.01001
-1.04812
0.453297
0.594826
0.0021971
-0.00348411
0.12445
-0.440946
0.858048
-0.038182
-0.0873992
-0.0343521
0.142571
0.00271408
0.000111311
1.23857
-1.04314
-0.339119
0.414884
-0.643571
1.02178
-0.378208
-0.0812454
-0.0672937
0.125394
-0.0564343
0.343103
0.00521367
-0.0807882
0.353677
0.0449406
0.0435849
-0.250903
0.207318
0.136248
0.0332796
0.0984792
0.183317
1.09592
0.604314
0.179985
0.967861
-1.14785
-0.950511
1.02876
0.220474
-0.139011
0.0725706
-0.764319
0.691749
0.293882
0.119753
-0.462822
-0.0744292
0.131054
-0.0566244
0.126923
-0.201352
-0.454873
-0.108657
-0.0734102
0.076673
-0.00326273
-0.00333189
-0.044012
0.0254009
-0.00802779
0.659715
-0.600936
-0.0587794
-0.285954
0.298295
0.877784
0.624787
-0.256337
-0.0404059
0.0733051
-0.401536
-0.110493
0.168384
-0.562804
0.39442
0.000696229
-7.71295e-06
0.0242363
0.246176
-0.270413
0.0029657
-0.0097488
0.0067831
-0.0243046
0.0161095
0.00819509
-1.06998
0.343363
-0.179764
-1.32575
-0.200898
-0.861777
1.55229
1.53838
-0.188929
-0.169168
0.119232
-0.0645133
0.0703888
-0.00587549
-0.05023
1.10687
-1.05664
0.559063
0.0789065
0.00101683
-0.000320601
0.122525
0.00123671
0.0343521
-0.0512896
0.00452155
-0.673738
0.272202
-0.0801126
0.136243
-0.23131
0.609781
1.10554
-0.0982411
-0.0601125
0.00130568
0.0588068
1.8715
-0.333123
-0.0597668
-0.0532609
-1.0203
0.158522
0.387389
-0.21384
-0.472548
-0.139106
0.611654
0.809381
-0.363451
-0.44593
0.00596175
0.782521
-1.5041
0.252826
-0.015482
-0.0427203
0.0582023
0.468368
1.47325
-0.167114
0.173729
0.224278
2.13064
-0.578347
-0.671748
0.0553221
0.616426
0.388424
0.0167152
-0.349861
0.521577
0.79303
0.180991
0.0745818
-0.0209009
-0.351749
0.0140849
0.337664
1.32099
0.0933787
-0.0657266
-0.0511011
-0.361357
0.110007
-0.315785
1.02573
0.233742
-0.151416
0.0577928
0.315108
-0.479416
-0.0218945
0.0179767
0.108405
-0.144342
0.0359368
-0.29417
0.308278
-0.014108
0.629403
-0.832349
-1.00107
0.0383755
0.96269
0.118583
-0.264774
0.146191
0.276001
0.0384814
-0.272388
0.0226214
-0.678433
0.678433
1.02571
0.837615
-0.704483
0.313836
0.479194
-0.570429
0.474406
0.928085
-0.369021
0.0160471
-0.877453
0.861406
0.127514
0.00662517
0.0221856
-1.09827
0.825877
0.10951
-0.164346
-0.118857
0.283203
0.324302
-0.501143
0.336797
-1.11033
-0.29168
-0.662386
-0.0693805
0.00196724
-3.5899e-05
-0.223769
0.168597
0.0805593
0.0324483
-0.149903
0.117455
-0.570461
-0.477662
-0.00558635
0.0667789
-1.1274
0.496486
0.630911
-0.55405
0.37611
-0.104712
0.146294
0.229779
-0.00770023
-0.0179609
-1.08294
0.758526
0.0349781
0.0707277
-0.194312
0.0653699
0.205123
0.00840271
-0.436833
0.766608
0.507703
-0.130405
0.86178
-0.78921
0.795384
-0.449552
-0.618661
0.177715
0.154201
-0.78819
0.762564
0.025626
1.2273
-0.201573
-0.204316
-0.134803
-0.139284
0.0421333
0.958426
-0.846194
-0.112232
-0.187322
0.113641
0.0269619
0.117594
0.883461
0.918891
-0.800761
-0.11813
-0.320954
-0.0445043
-0.634789
-0.492608
0.144955
1.32277
0.694847
0.142768
0.164265
0.555879
-0.720144
0.0457692
0.0506402
-0.0100911
0.00239088
-0.514873
-0.103789
0.178874
-0.205476
-0.190256
0.140986
-0.524198
0.267577
-0.993488
-0.522506
-0.28957
-0.846978
1.51048
-0.0491239
-0.287598
-0.393479
-0.280259
-0.0409773
0.302417
0.0512603
1.31421
-0.863206
-0.19389
0.132906
-0.440111
-0.449478
0.889589
-0.0207738
0.00529179
0.0495127
-0.0587002
-0.23547
-0.115496
0.69112
-0.420432
-0.270688
0.127534
0.131288
-0.0946049
-0.036683
0.240725
0.061692
-0.377083
-1.06017
-0.0969636
0.141459
0.93916
-0.0202694
0.0101596
0.0917522
-0.0238706
0.0167816
0.00708903
0.0155571
-0.0300546
-0.245281
0.076045
-0.0973811
-0.547238
0.410942
0.0193714
0.134167
-0.0155846
-0.698696
1.52995
-1.29621
0.0153354
-0.195765
0.180429
-0.131062
-0.521997
0.653058
0.0657243
-0.702329
-0.9141
-0.086966
-0.079225
-0.00159929
0.0808243
-0.242358
-0.626084
-0.145608
-0.132401
-0.351749
-0.234228
0.167911
-0.49827
-1.14916
-0.591362
0.498015
0.0933464
0.259529
0.111358
0.529954
0.233772
-0.763726
0.164863
0.0718346
0.916486
-0.121678
-0.794809
-0.22129
0.0472702
0.981493
-0.244896
0.183072
-0.821587
0.868857
0.304189
0.0478883
-0.029725
0.0381652
-0.00652011
1.12813
-1.25854
0.72382
0.0855608
-1.01675
0.164554
0.24529
0.682795
0.895312
0.0116679
-0.0213389
-0.694847
-0.662386
-0.712727
0.723493
-0.060145
-0.890783
0.666568
0.611024
-0.93484
0.933911
-0.000733971
-0.787456
-0.318484
0.641149
-0.773292
0.132143
0.079041
0.0522468
-0.417215
0.0793034
0.836359
-0.915663
0.00209759
-0.000130346
-0.267052
0.217362
0.706873
0.21833
-0.203202
-0.176742
0.860982
-0.749646
0.234824
0.123555
0.696025
0.477437
-1.17346
-0.737024
0.751109
1.10996
-0.613476
0.0879653
0.416968
-0.337664
-0.0132321
0.218232
-0.0462176
0.098059
0.113358
0.000796213
-0.0151604
0.0143642
-1.02263
-0.0277363
0.313019
-0.806119
-0.440338
1.19783
-0.757489
0.375443
0.646336
-0.0483009
0.0516581
-0.0033572
0.0511185
0.809863
-0.71797
0.837596
0.556349
-0.996686
0.318756
-0.100523
-0.585874
-0.407615
-0.356682
1.05271
-0.0510264
-0.878187
-1.84554
0.0227631
0.416968
0.0520645
-0.858183
0.837021
-0.649091
-0.18793
-0.982634
0.39676
0.00201726
0.111214
-0.000127391
-0.111086
-0.970112
0.562497
-0.212506
0.907994
-0.92631
0.194118
-0.21096
-0.0967315
0.243045
1.10835
0.17066
-0.198809
-1.46958
0.413059
1.0719
-0.890907
-0.55037
-0.518186
1.06856
0.44963
0.0186449
-0.0121693
-0.738267
0.710531
0.556037
-0.504918
-0.557023
0.576553
-0.01953
0.639571
0.558256
0.78014
-0.813304
-0.491836
-0.450085
-0.470932
-0.49918
0.801744
-0.801744
0.686202
-0.686202
-0.738267
-0.601284
0.601284
-0.576553
-0.514285
-0.372795
-0.428755
-0.689183
0.689183
0.556037
-0.504918
0.78014
0.769679
-0.769679
0.813304
0.764984
-0.764984
0.508164
0.529068
0.481814
-0.133147
-0.50082
-0.549915
1.07898
-0.511622
-1.10094
0.744255
0.587309
0.522654
0.0879504
-0.0178332
0.0957533
-0.889345
0.0917752
0.797569
-0.158573
0.155943
-0.996558
0.591613
0.907148
-0.593312
-0.123969
0.00353897
-0.00458589
-0.81038
-0.0699607
-0.540219
-0.00618707
0.011831
0.250311
-0.188997
0.100087
0.178005
0.00734395
-0.011884
0.00454008
-0.817854
0.072389
0.745465
0.491435
0.616912
-0.527264
0.416405
0.110859
0.922383
-0.742995
-0.179388
0.0819002
0.30307
-0.0137047
-0.0597056
-0.0619717
-0.0138254
0.18445
-0.953292
-0.835999
0.0957721
-0.739909
0.792491
-0.0525816
0.117857
-0.899053
0.781196
-0.80172
0.902464
-0.100744
-0.0565569
0.072114
0.0205832
-0.291102
0.599638
0.453069
-0.0943783
-0.794966
0.913952
-0.090058
-0.823894
0.0839245
-0.16517
1.07874
0.828005
-0.604577
0.467762
-0.388855
0.0986459
-0.893612
1.30337
0.388366
-0.791325
0.00386882
1.01359
-0.895731
1.19931
1.07164
-0.544411
-0.527233
-0.880798
-0.115761
-0.417598
0.0382173
-0.615463
0.676293
-0.78717
0.78717
-0.610032
-0.0844829
-0.862092
0.119097
-0.957456
0.87744
0.076201
-0.201229
-0.0563219
0.0563271
0.011593
0.186243
0.827346
0.817981
0.774515
0.139882
-0.914397
-0.516188
1.03884
-0.784451
-0.100932
0.885383
0.172305
-0.890274
-0.675848
0.879761
-0.781116
-0.108329
0.461374
-0.0176579
-0.443716
0.0783141
1.15852
-1.23683
0.0704406
-0.437395
0.366954
-0.89278
-0.829572
0.0896632
0.529764
0.26562
-1.42022
1.20644
-0.611234
0.611234
-0.934875
-0.534705
-0.148586
0.974463
-0.87578
0.914156
0.778829
-0.200829
0.960191
-0.616828
0.591364
-1.08555
0.494184
0.0385162
-1.20138
0.269844
0.555456
-0.231218
0.221785
0.240026
0.307256
-0.225356
0.785518
-0.886262
0.594285
0.444557
-0.144647
0.73626
0.608472
-0.608472
-0.0526625
0.0567129
0.113107
-0.0806587
1.05416
0.104365
0.305443
-0.0020725
0.00212363
-5.11287e-05
-0.67248
0.690293
-0.0178125
0.527476
-1.07189
0.107262
-0.888378
-1.08878
1.33783
-0.249052
0.266656
0.870604
-0.633715
1.16119
-0.748496
0.600598
-0.650236
-0.658912
0.158152
-0.480523
0.0291426
0.109473
-1.08439
0.603864
-0.00276148
-1.14071
0.068863
0.723628
0.690258
-0.0896607
0.0677821
0.787546
-0.52915
1.17163
-0.642484
-0.83359
0.513749
0.508263
-0.935591
0.716106
0.219485
-0.687645
-0.124615
1.00965
-0.348831
-0.304267
-0.0320029
0.485153
0.514847
-0.772978
-0.113284
-0.512673
-0.525166
-0.498023
-0.525999
0.406037
0.593963
-0.157628
0.180375
-0.863036
-0.0643498
-0.585886
-0.153123
-0.243477
0.3966
-0.0356626
-0.00517023
0.114566
0.0730182
-0.126875
-0.118406
0.754843
-0.65316
0.720942
-0.400455
-0.683932
0.929605
-0.309869
-0.619736
-0.744739
-0.182203
0.926942
-0.236688
0.226061
-0.0242113
-0.122393
0.00221028
0.0112268
0.749958
-0.138725
0.118006
0.111773
-0.731268
0.0587876
1.05786
-0.536845
0.22216
-0.59053
0.743245
-0.285577
1.01717
-0.00377907
0.423267
-0.198988
-0.00425646
-0.0834445
-0.154013
0.0477377
1.01012
-0.237694
0.684207
-0.446513
0.844507
-0.0183939
0.00451244
0.0138814
0.129902
-0.00843475
-0.000831962
0.212876
-0.10447
0.180421
-1.0562
-0.28045
0.042756
0.00418256
0.282678
0.374339
-1.06847
1.34296
-0.274488
-0.784664
0.832174
-0.0475093
-0.0586648
0.0523689
0.25182
-0.0750601
1.10189
-0.457947
-0.0693174
0.272429
0.44951
0.178915
-0.628425
0.395941
0.0326558
0.657637
-0.575904
0.567783
0.00812074
1.23948
-1.28046
-0.0503994
0.0643454
-0.013946
0.699859
-0.00875175
-0.0822166
0.0191673
1.19783
0.0192941
-0.077959
0.116179
-0.0944854
-0.170289
0.171918
0.0504679
-0.222386
0.00383031
-0.00303409
0.72691
-0.848588
0.245422
0.21731
-0.0251102
-0.0859025
0.228077
0.0878589
0.0072481
0.0962205
0.768722
0.215585
0.613132
-0.828717
0.936725
-0.108102
-0.828623
0.649971
0.119228
-0.0948111
0.000556932
0.0942542
-0.798309
-0.323233
-0.762315
-0.0113784
0.738626
0.712863
-0.0190558
-0.373485
-0.0437297
0.822276
0.136176
0.0173836
-0.882762
0.166618
-0.274515
-0.151325
-0.168924
0.704299
0.0644229
0.0135957
0.767764
-0.715396
-0.31916
0.166492
0.0219139
-0.111945
0.421236
-0.0569444
-0.171855
-0.0691382
0.156454
0.55045
0.386275
-0.149361
0.680146
-0.039439
-0.109397
0.0145392
-0.000812397
-0.0137268
-1.38907
0.108618
-0.00764025
0.932132
-0.224959
-0.609819
0.640083
-0.030264
0.218516
0.763087
-0.818586
0.198849
0.0798859
-0.176617
0.640665
0.122422
0.68771
0.175817
-0.27136
0.739122
0.0325845
0.977537
-0.605711
0.356127
0.249584
-0.77583
-0.0698665
0.0404941
0.0669468
-0.0479449
1.22512
0.752617
0.0696592
0.621197
0.2161
-0.874005
-0.0802493
-0.676122
0.679991
-0.026435
-0.574084
0.420961
0.884759
0.67332
0.163587
0.0164996
-0.147702
-0.31512
1.21841
0.311538
-0.554615
0.0402415
0.808316
0.16922
0.710907
0.254536
-0.0791586
1.00717
-0.727501
0.913943
-0.186441
-0.417688
-0.188023
-0.079013
-0.191515
-0.156649
0.857193
0.0194401
-0.00614558
0.629384
-0.0633569
-0.527174
0.608971
-0.13165
0.232312
0.762299
0.242281
-1.00458
0.278044
-0.927135
0.0496284
-1.34584
-0.176359
0.767089
-0.59073
-0.67307
-0.15051
0.0281167
-0.0547784
-0.920072
0.0161093
-0.0399799
1.02011
0.161276
-0.443316
0.28204
-0.034123
-0.581356
0.153523
0.269744
-1.19832
0.00382675
0.00351719
-0.632574
-0.0537986
-0.594844
0.0189402
0.58304
0.301719
0.952076
0.932781
-0.250254
-0.384437
0.634692
0.152973
-0.613813
0.613813
-0.234381
-0.925076
1.15946
0.0306728
-0.152519
0.689153
-0.106113
-0.217253
-0.420865
0.116598
0.541361
0.533935
-0.446552
0.180677
-0.103645
-0.703608
0.482678
0.0851053
0.0644777
0.00980712
-1.05861
-0.509063
-0.25089
0.698755
0.301245
-0.509063
0.698755
-0.516971
-0.24104
-0.516971
-0.69374
0.69374
0.30626
-0.0138887
0.249534
-0.0769851
0.212446
0.156676
-0.475676
0.64351
-0.03454
0.667942
-0.512794
-0.155149
-0.0535895
0.05148
0.0021095
-0.00734317
0.00527067
-0.0194417
0.0182599
-0.105073
-0.435255
-0.356148
0.132379
0.0448197
0.824979
-0.2691
-0.523572
0.243313
0.00214771
-0.188436
-0.00266646
0.666609
0.0720171
0.0288566
-0.0383837
-0.00256291
0.0265242
0.0851202
0.558732
-0.471276
-0.0874554
1.68446
0.55385
-0.821874
0.905208
0.0114216
-0.0632445
0.107996
0.0236464
0.165457
1.13822
-0.375919
0.016945
-0.0863256
0.699843
-0.973199
0.0210362
-0.0210362
0.0215694
-0.0215694
-0.0313444
0.0313444
0.0350197
0.366255
0.465572
-0.0335584
-0.706351
0.473609
0.184416
0.0284594
-0.0839795
-0.483155
0.829049
0.112719
-0.800363
-1.05442
-0.137665
0.131334
0.019632
-0.00352254
-0.0258755
0.0258755
0.294344
-0.0242762
0.0242762
0.702731
0.0984601
-0.0270433
-0.0113404
0.0064756
-0.0665881
-0.0219877
0.0219877
-0.0198853
0.0198853
-0.0228822
0.0228822
-0.0179327
0.0179327
0.140339
-0.294456
-0.0803467
0.222648
-0.0159055
0.0159055
-0.370709
0.501843
-0.131134
0.492749
-0.217385
-0.194992
-0.328581
0.561971
-0.142014
0.0813522
0.558731
0.567294
-0.00635357
0.00635357
0.280677
0.0256419
-0.0256419
-0.0135305
0.0135305
0.747962
-0.91421
0.0383194
-0.0678553
0.314032
0.00260091
-0.00260091
0.0245207
-0.0245207
0.0185525
-0.0185525
0.0226583
-0.0226583
-0.0239967
0.0239967
0.0353698
-0.0353698
0.492653
-0.0321482
0.0321482
-0.00176895
0.00176895
0.024428
-0.024428
-0.0106893
0.0106893
0.00836022
-0.00836022
-0.100042
-0.0267405
0.0267405
0.0469075
0.00168451
-0.0397155
0.0397155
0.010049
-0.010049
0.0329879
-0.0329879
0.033802
-0.033802
0.025183
-0.025183
0.0034133
-0.0034133
-0.00421308
0.00421308
-0.461916
-0.140187
-0.0172519
0.0172519
-0.000969675
0.000969675
-0.0383505
0.0383505
-0.0273598
0.0273598
0.000923242
-0.000923242
-0.419395
0.664684
0.255104
-0.0322065
0.0322065
-0.0488947
-0.0269716
0.0269716
-0.000252179
0.000252179
0.0365433
-0.0365433
-0.192988
0.210371
0.00623153
-0.00623153
-0.0222894
0.0222894
-0.486081
0.0434862
-0.760613
-0.0307289
0.0307289
-0.435299
0.0329995
0.0186587
-0.143444
-0.873302
-0.036967
0.036967
-0.203165
0.146221
-0.0397698
0.000279156
-0.000279156
-0.00415417
0.0514413
0.266799
-0.320157
-0.275327
0.595483
0.186722
-0.00843631
0.00843631
-0.316079
0.496488
-0.18041
0.745205
-0.39606
-0.349146
-0.465145
-0.657842
-0.0981971
0.341511
-0.481302
-0.352288
-0.577256
0.0194515
0.182401
-1.12767
0.0170479
-0.0170479
0.000488445
-0.000488445
0.0310237
-0.0310237
0.0255473
-0.0255473
0.000416656
-0.000416656
0.000496158
-0.000496158
-0.0744262
-0.337829
0.169365
-0.293335
-8.94705e-05
8.94705e-05
-0.0438072
0.0438072
-0.0406126
0.0406126
0.252651
0.0391221
-0.291773
0.00949765
0.307171
-0.53213
-0.000400475
0.000400475
-0.0298489
0.0298489
-0.100181
-0.0162045
-0.0819926
0.000501968
-0.000501968
0.11323
0.0106603
0.989646
-0.485779
-0.0879499
0.573729
-0.626425
-0.166969
-0.448494
-0.0375661
0.0375661
-0.671789
0.272918
0.0500532
-0.0500532
-0.654044
0.388378
0.259682
0.118019
0.000796863
-0.000796863
-0.846006
0.000832761
-0.000832761
0.320117
0.417448
0.0819577
-0.0541084
0.0541084
0.000236233
-0.000236233
-0.0426942
0.0426942
-0.0523154
0.0523154
0.0014771
-0.0014771
-0.0577863
0.0577863
0.00172863
-0.00172863
-0.0460667
0.0460667
-0.00408949
-0.0438976
0.0438976
0.00185777
-0.00185777
0.0486447
-0.0486447
0.00100378
-0.00100378
0.0464482
-0.0464482
-0.147218
-0.00150738
0.00150738
-0.00411727
0.00411727
-0.0400034
0.0806234
-0.0109004
0.0109004
0.00573668
-0.00573668
-0.060003
0.060003
0.299014
-0.0190955
0.0190955
-0.0555131
0.0555131
-0.00783892
0.00783892
-0.06796
0.06796
-0.0132189
0.0132189
-0.0813017
0.0813017
-0.0222376
0.0222376
-0.0914499
0.0914499
-0.677847
0.231017
-0.537691
0.507427
-0.896505
-0.186684
-0.553396
0.384472
0.0779962
0.0495377
0.00398512
-0.00398512
0.361303
-0.716216
0.0458187
-0.0360115
-0.730088
1.213
0.958449
0.249272
-0.0622799
-0.0109429
-0.386862
-0.585961
-0.0926008
0.391946
-1.31142
-0.0225188
0.0225188
-0.76154
0.0188911
-0.0188911
-0.0027221
0.0027221
0.319727
-0.336109
-0.00219891
0.00219891
0.0187074
0.0142449
0.60076
0.164486
-0.00283074
-0.00840498
-0.0129339
-0.101406
0.497628
-0.396222
0.272191
-0.00234694
0.00692102
1.09391
-0.0381869
0.0503997
-0.410457
0.448674
-0.498406
-0.975893
-0.227765
-0.0736235
0.0181784
-0.394527
-0.0428675
0.0676728
-0.0054709
-0.0231048
0.784881
-0.549842
-0.0405459
0.0624599
-0.0374803
0.0236492
0.225884
0.422012
0.238567
-0.163143
0.207404
0.0127387
0.000187631
-1.21737
0.037302
-0.0745516
-0.368764
-0.0186305
-1.34044
-0.0702589
0.264642
-0.350921
0.395861
0.217511
-1.06449
0.0470891
-0.0194731
-0.145697
-0.346948
0.457807
-0.120636
-0.0131131
0.133749
-0.0276908
0.0276908
0.181322
-0.437659
-0.145678
0.163375
-0.0826825
0.0562475
-0.0629522
-0.00556878
0.068521
-0.024306
-0.154823
0.158166
-0.0969797
-0.283089
-0.347128
0.630217
0.0159437
0.060952
0.150376
-0.0323704
-0.173797
0.0701143
-0.159355
0.313557
-0.0140134
0.0278948
-0.0236286
0.174005
0.00364247
0.262483
0.00181777
-0.00181777
-0.106256
0.817163
0.0931235
-0.173373
-0.0758064
0.000609141
0.443164
0.718027
0.0163491
-0.0462308
-0.536218
-0.00147311
0.066245
0.0977531
-0.687392
0.318371
-0.0555326
0.367453
-0.650542
0.213455
0.502651
-0.0908002
0.0908002
-0.000127391
-0.99862
0.529077
0.469542
-0.214526
0.159748
0.0837987
-0.101961
-0.730388
-0.165218
-0.0572419
0.0733502
0.928752
0.263364
-0.0997775
-0.0683049
-0.339501
-0.657186
-0.0731844
-0.262315
0.783892
0.564381
-0.25721
-0.264949
0.547627
0.0355059
0.436044
-0.264552
0.104384
-0.458487
0.327353
0.119909
-0.119909
0.140109
-0.168926
0.028817
0.00914428
-0.0050822
0.0167816
-0.368076
-0.430233
0.221993
-0.185419
-0.0365734
0.542849
-1.08648
-0.0784041
-1.02449
0.693665
-0.115846
-0.177489
-0.035718
-0.0797784
-0.492176
0.0569203
-0.290401
0.00634348
-0.0186305
0.383457
-0.00517107
0.0016435
0.0020272
0.0123587
-0.0141058
0.00174715
-0.102935
-0.0176897
-0.168747
0.186437
-0.123931
-0.334556
0.0187074
0.346128
0.00437277
-0.376662
0.0870914
0.00275976
0.199649
-0.233207
-0.01249
0.01249
-0.00125323
0.00463544
-0.00918351
0.00237503
-0.0889194
0.00067055
-0.00111454
0.312303
0.00502166
-0.000222996
0.000222996
0.130908
0.516383
0.00263339
-0.28539
0.489982
1.14851
-0.470879
0.330931
-0.441486
-0.321162
0.175484
0.224365
-0.225243
-0.0134999
0.0147576
-0.00353076
-0.00732439
-0.177286
-0.371179
0.844788
0.481785
-0.556211
0.286752
-0.00156781
0.283592
-0.0169365
0.00245095
0.000590497
0.0141671
0.084473
0.00136499
-0.000368851
0.71627
-0.646156
-0.244283
-0.0145488
0.954368
0.000717496
0.00201846
-0.0397698
-0.00554593
0.821106
-0.434915
0.52002
-0.776055
0.895208
-0.767038
0.569543
-0.185071
0.697215
0.00225297
0.00314218
0.0164899
-0.117932
0.139543
-0.280573
0.00882293
0.00621862
0.0667388
-0.0531214
-0.0136174
0.00220478
0.0456217
0.0465475
-0.0921692
-0.0922192
0.0016644
0.000459229
0.00163477
0.481075
-0.436388
-0.003139
0.000522767
0.844455
-0.315378
0.380487
-0.00594324
0.000209289
0.282216
-0.036794
-0.0441341
-0.107946
-0.0154297
-0.00364566
0.124433
0.0790012
-0.00214509
0.406401
0.00149098
-0.00282281
0.00282281
0.00956576
-0.0179707
0.000327185
-0.325477
-0.00369404
0.0727949
-0.108003
0.172212
0.0922211
-0.0662295
0.000489943
0.00260989
0.452931
0.000380203
-0.00732753
-0.0716855
-0.00208155
0.000894525
0.0502478
0.255195
-0.713103
0.471968
-0.843147
-0.059072
-0.000265736
-0.74415
0.157392
0.082634
0.582473
-0.0147493
0.00655721
-0.0040552
-0.00140848
-0.549367
-0.00337255
0.000251533
-0.0531357
0.915749
-0.519808
-0.00257795
-0.000724851
-0.00589466
-0.00251116
0.0703201
-0.0217735
0.0217735
-0.0556188
0.0602542
-0.00210224
-0.007957
0.0657844
-0.0641409
-0.167194
0.0973278
-0.00538002
-0.0133417
0.0404571
-0.017376
0.0633996
-0.0452212
-0.62315
0.570568
0.0400512
-0.00175156
0.318966
-0.162512
-0.0684676
-0.671152
-0.0731983
-0.115833
-0.0947105
0.092629
0.694548
0.000904335
0.0230009
-0.0209824
0.322438
0.0615451
-0.143716
0.0821713