/*--------------------------------*- C++ -*----------------------------------*\
| =========                 |                                                 |
| \\      /  F ield         | OpenFOAM: The Open Source CFD Toolbox           |
|  \\    /   O peration     | Version:  2306                                  |
|   \\  /    A nd           | Website:  www.openfoam.com                      |
|    \\/     M anipulation  |                                                 |
\*---------------------------------------------------------------------------*/
FoamFile
{
    version     2.0;
    format      ascii;
    arch        "LSB;label=32;scalar=64";
    class       volVectorField;
    location    "10.5";
    object      U;
}
// * * * * * * * * * * * * * * * * * * * * * * * * * * * * * * * * * * * * * //

dimensions      [0 1 -1 0 0 0 0];

internalField   nonuniform List<vector> 
2186
(
(1.30184 -0.106904 1.63684e-19)
(1.5992 -0.932763 -1.10455e-19)
(1.44743 -0.910758 -8.75693e-22)
(0.738996 -0.581696 -1.16363e-19)
(-0.548329 0.643568 -2.40537e-19)
(1.05284 0.0506581 0)
(0.718593 -0.664749 0)
(-0.300989 -0.536633 1.24551e-19)
(1.48766 -0.262008 2.01613e-19)
(0.552572 -0.308352 -2.28711e-21)
(0.67785 0.613466 0)
(0.825638 -0.279187 -1.47579e-19)
(-0.384262 -0.658102 -5.07404e-20)
(1.16768 0.0180835 -2.8789e-19)
(1.78654 -0.682488 -1.16379e-19)
(1.01108 -0.00768668 1.35388e-19)
(0.984605 0.00520362 0)
(-0.688346 0.456583 0)
(1.06817 0.0114315 0)
(-0.0489131 0.273054 -8.61564e-20)
(0.489829 0.0996253 -9.42935e-20)
(-0.230853 0.173711 1.17128e-19)
(1.14907 0.0315088 2.37682e-19)
(-0.220174 -0.00318924 4.23047e-21)
(1.01889 0.0114609 -1.87058e-19)
(0.790378 -0.558907 0)
(0.762487 -0.0272395 1.16426e-19)
(0.609889 -0.590518 -1.30483e-19)
(1.21998 0.715951 0)
(0.983123 0.0216704 -2.55271e-19)
(-0.00138773 0.051739 0)
(1.025 -0.00601329 8.8356e-21)
(0.0132425 0.329811 0)
(2.22369 0.263535 1.79464e-19)
(-0.117966 -0.133798 2.78092e-21)
(1.55099 0.780581 2.67112e-22)
(1.64239 0.151465 1.02997e-19)
(0.517427 0.148548 -2.79672e-19)
(1.95532 0.25308 -4.56777e-19)
(1.05365 0.0329239 2.69653e-22)
(-0.453062 -0.712512 0)
(-0.194297 0.154394 0)
(1.85853 -0.874938 9.72709e-20)
(-0.440582 0.211836 0)
(1.11266 0.290009 1.13686e-19)
(0.596644 -0.290552 2.31349e-19)
(0.913429 -0.779141 0)
(1.17995 -0.789008 7.34561e-20)
(2.08328 -0.622586 0)
(-0.386997 0.698729 2.64507e-19)
(0.0153013 0.11956 1.27394e-19)
(0.629126 0.580592 5.71881e-20)
(2.05081 -0.758595 1.24762e-19)
(0.600321 0.281461 -2.22559e-19)
(-0.253946 0.180004 4.38104e-20)
(0.762349 -0.651288 0)
(1.64533 -0.958857 1.78152e-20)
(0.581117 -0.542206 0)
(2.39205 0.19944 1.41674e-19)
(1.14109 -0.18924 -2.65364e-19)
(1.37467 -0.102704 9.67953e-20)
(1.35603 0.297683 -1.16242e-19)
(1.3443 0.532787 0)
(1.06143 0.043532 -2.95431e-22)
(1.36191 0.381921 -6.19067e-20)
(1.24743 -0.736803 -9.65939e-20)
(1.1787 0.665521 3.50229e-20)
(0.684839 0.0717061 -4.51045e-19)
(0.81759 0.0557668 0)
(2.09041 -0.208743 -7.28065e-20)
(-0.272072 -0.607107 -1.45179e-19)
(1.68056 -0.501484 -8.92964e-20)
(0.727168 -0.0359441 -1.98942e-19)
(0.875806 -0.519767 0)
(0.827177 0.17559 -7.21457e-20)
(0.548778 -0.509922 -2.39395e-19)
(2.04951 -0.385452 0)
(1.00383 0.0129715 2.80874e-19)
(-0.102225 -0.208531 0)
(2.0274 0.427132 0)
(0.988247 0.321554 1.70595e-19)
(0.949274 0.0505125 -1.33491e-21)
(1.03781 0.00701449 3.1081e-20)
(1.31971 0.415233 1.67768e-20)
(0.974669 0.0135727 3.25642e-19)
(1.03923 0.0285601 -7.71913e-21)
(0.67332 0.178699 -2.68254e-19)
(1.07266 0.0326884 6.58189e-23)
(0.452747 0.0117706 0)
(-0.0688719 -0.0303761 1.05597e-19)
(0.860459 -0.62528 -1.26072e-19)
(-0.0824054 0.55213 -2.12849e-21)
(1.09675 -0.0807601 1.88764e-19)
(0.809603 -0.178109 0)
(0.993348 0.0271136 3.11414e-20)
(1.37766 0.648787 0)
(1.60947 -0.946201 0)
(1.30905 0.226927 0)
(-0.540691 0.72156 0)
(0.7903 -0.666592 2.27199e-19)
(0.777995 -0.0904747 -4.68651e-19)
(0.95861 0.163689 3.2317e-19)
(1.5128 0.190245 0)
(1.10184 -0.108539 -1.72573e-19)
(1.08286 0.023554 1.39615e-19)
(0.0348846 0.641804 1.66485e-19)
(0.641432 0.515314 0)
(2.1728 -0.150301 -1.44505e-19)
(0.964114 -0.478441 6.31799e-20)
(-0.997774 0.236738 1.31833e-19)
(1.76201 0.296189 1.55075e-19)
(-0.302876 0.762252 -3.75314e-19)
(0.810895 -0.737771 0)
(0.571673 0.358208 1.3431e-19)
(1.65162 -0.261916 -5.78511e-19)
(-0.586556 -0.395732 -4.77697e-19)
(1.04704 -0.113838 9.76305e-21)
(1.80633 -0.683306 0)
(-0.0929407 -0.0273441 -3.16505e-19)
(0.710481 -0.0715334 6.31728e-20)
(1.57043 0.8854 0)
(-0.284543 0.725129 -4.13507e-19)
(0.886174 0.762123 -1.95946e-19)
(-0.937093 0.267096 5.85088e-19)
(1.0274 -0.024198 0)
(1.07184 -0.109785 -1.22997e-20)
(-0.458728 0.742743 0)
(0.697794 -0.494318 -8.53617e-20)
(-0.877503 0.367244 -3.20011e-19)
(0.78443 -0.716862 0)
(0.435196 -0.272306 3.40761e-19)
(0.541926 -0.455815 2.26213e-19)
(0.408831 -0.370059 0)
(0.978311 -0.780042 -8.72527e-20)
(1.01014 0.157322 0)
(-0.113285 0.756547 -2.07485e-19)
(0.809479 -0.698223 1.06705e-19)
(2.37121 -0.2505 3.24292e-19)
(2.21905 0.115732 0)
(-0.0440411 -0.12374 0)
(0.684428 0.635396 -2.35347e-19)
(1.77444 -0.626744 2.4191e-20)
(-0.178938 -0.258966 0)
(0.979358 -0.805673 -9.73406e-21)
(1.13094 -0.0934913 0)
(1.08986 -0.137625 3.01616e-19)
(2.08158 -0.168667 -1.40733e-19)
(-0.585939 0.63367 0)
(1.21537 -0.557397 -3.81144e-20)
(-0.200232 0.398158 -5.46891e-20)
(-0.303572 0.682935 0)
(1.08924 -0.813867 1.20323e-20)
(1.00588 0.00730569 -4.69316e-19)
(0.651441 -0.479229 -8.44662e-21)
(0.817895 -0.516965 0)
(1.19703 -0.734873 -6.26662e-20)
(0.662518 0.24164 2.08496e-19)
(1.24963 0.0931747 0)
(1.52081 0.0958697 -7.36472e-20)
(1.19146 -0.854567 -1.15347e-19)
(-0.0352404 -0.105711 -1.16613e-19)
(-0.14246 -0.506978 -2.48407e-19)
(1.06811 0.00151456 1.73794e-19)
(0.920965 -0.463694 -7.94519e-20)
(1.07147 0.0212756 -6.09363e-23)
(1.08374 0.0078921 -1.96849e-21)
(0.728483 -0.11456 1.31633e-19)
(-0.226545 -0.0100946 -2.8773e-19)
(1.05856 -0.0772419 0)
(1.20358 -0.184962 3.755e-20)
(1.44978 0.652528 6.18502e-20)
(0.808445 -0.615976 -1.6572e-19)
(0.998638 0.00904333 9.62712e-21)
(0.721347 -0.531922 2.34718e-19)
(1.31122 0.803143 6.40362e-20)
(1.88089 0.026866 3.04487e-20)
(-0.638132 0.531546 0)
(1.05983 0.0544162 -1.79358e-19)
(-0.961907 -0.286593 -3.66975e-19)
(1.07426 0.491562 5.73894e-20)
(0.0615158 -0.0969408 1.73821e-19)
(1.12289 0.0232711 -3.31744e-20)
(-0.148186 0.254875 -2.0826e-19)
(1.30589 0.585157 -4.25534e-20)
(1.13976 0.886125 0)
(-0.686394 0.536726 -1.23525e-19)
(-0.233365 -0.0959919 0)
(0.655384 0.567474 -2.12204e-19)
(2.05621 0.207963 -3.17661e-20)
(-0.528779 -0.654762 1.73027e-19)
(-1.02747 0.179506 -8.0694e-19)
(0.730865 0.0741831 1.97871e-19)
(2.14708 -0.250719 -6.28235e-20)
(0.978885 -0.340958 -2.34065e-20)
(-0.00457739 -0.0208769 0)
(-0.711238 -0.130497 1.59306e-19)
(1.33183 0.973456 2.85703e-20)
(0.841436 0.0687876 -1.06873e-19)
(0.5553 0.522377 1.46379e-19)
(0.440736 0.187182 0)
(-0.0314394 -0.749995 -2.6237e-19)
(-0.155105 0.108791 2.38466e-20)
(1.28675 -0.951304 8.26432e-23)
(0.983649 -0.0268378 -1.46187e-19)
(-0.160332 -0.137483 7.14951e-21)
(-0.264825 0.336181 1.96136e-19)
(-0.337192 -0.105393 -2.07429e-19)
(1.7894 -0.684956 0)
(1.10897 0.0499974 -2.39098e-19)
(2.12023 -0.166224 2.094e-19)
(1.27224 -0.625089 6.3152e-20)
(0.713169 0.0449202 4.74087e-21)
(0.598591 0.337361 0)
(0.943656 0.750365 -1.13932e-20)
(0.682171 0.627861 1.32826e-19)
(0.898977 -0.567274 1.13999e-19)
(0.687268 0.510399 0)
(1.02142 0.00405302 6.23555e-21)
(0.881529 -0.666296 1.62283e-19)
(0.83672 0.430745 -3.50461e-19)
(1.21061 -0.114455 0)
(-0.244369 -0.22694 -3.07482e-19)
(0.0415512 0.502785 -1.28505e-19)
(1.59561 0.728404 0)
(1.33943 -0.932926 -7.07251e-23)
(-0.681382 0.495774 0)
(-0.526402 0.724518 1.52461e-19)
(0.735728 0.655092 -7.29594e-20)
(0.840461 -0.20791 0)
(-0.231705 -0.13348 0)
(1.59627 -0.457017 0)
(-0.400982 -0.388374 4.02467e-19)
(1.20418 -0.879827 7.58334e-20)
(1.17563 -0.611625 4.2328e-20)
(1.0468 -0.190574 -1.20635e-19)
(0.876649 -0.695181 -1.27192e-19)
(0.186828 -0.190844 0)
(-1.25352 -0.0401051 0)
(1.00256 -0.514964 1.30371e-19)
(-0.0986466 -0.215807 0)
(-0.371194 0.718439 0)
(-0.572999 -0.360981 4.06627e-19)
(0.791759 0.67277 6.33045e-20)
(1.01326 0.793277 0)
(0.698053 0.561008 -6.51044e-20)
(0.828872 -0.038607 -1.77408e-19)
(0.746111 0.569533 -1.73189e-19)
(0.590984 0.551712 -1.26039e-19)
(-0.20815 -0.574868 2.89463e-21)
(0.716828 -0.644313 0)
(0.898638 0.172701 -2.49572e-19)
(-0.344852 -0.726866 6.74881e-20)
(0.601803 0.558987 2.78022e-19)
(0.956309 0.796274 0)
(-0.657709 -0.154009 3.91907e-19)
(-0.0613163 -0.414448 3.51541e-19)
(-0.00829322 -0.34954 -1.77888e-19)
(0.66571 0.576029 -1.13203e-20)
(0.978696 -0.0110148 4.53875e-20)
(-0.480247 -0.71949 0)
(2.28216 0.0847245 -3.33603e-19)
(1.38574 -0.50965 -7.39016e-20)
(0.651271 -0.603966 -5.78236e-20)
(-0.601755 0.213063 2.04234e-20)
(1.19221 0.458611 1.2113e-19)
(0.881853 0.419611 0)
(1.05465 -0.172516 1.4568e-19)
(0.147881 -0.573906 -9.96602e-21)
(-0.0572335 0.13935 4.8315e-19)
(0.927675 0.014445 -4.01348e-20)
(1.13881 0.123865 0)
(1.90502 -0.0313637 -3.21643e-19)
(1.92851 0.0517392 0)
(0.551995 0.261903 -3.68544e-19)
(-0.276584 0.394908 0)
(-0.245026 -0.526761 2.84862e-19)
(0.731306 0.110601 0)
(0.620962 -0.513891 -1.45176e-19)
(1.11566 0.017947 1.59256e-19)
(-0.581986 0.649343 5.74765e-20)
(1.90475 -0.100262 -1.0089e-20)
(2.0931 -0.258074 -1.48019e-19)
(1.11449 0.237881 -1.60821e-19)
(-0.377721 -0.777445 -1.35852e-19)
(1.0688 -0.848339 0)
(0.805086 0.0158077 -1.15891e-19)
(0.930834 -0.369009 -2.25383e-19)
(1.71298 -0.569438 -1.01023e-20)
(1.72218 0.0374941 2.97191e-19)
(1.06029 -0.00304509 2.88037e-19)
(0.175095 -0.597036 -1.79933e-19)
(0.992105 -0.43339 -9.5211e-20)
(0.196809 -0.189488 2.058e-19)
(1.00607 -0.00124819 0)
(1.00699 -0.00413369 0)
(1.25315 -0.703932 9.31738e-21)
(-0.0260666 0.742328 -1.40142e-19)
(0.180823 -0.119005 -1.52897e-19)
(1.45368 -0.17772 2.22293e-20)
(1.39963 -0.646745 0)
(2.16796 -0.274524 -1.38879e-19)
(0.936236 -0.815173 -4.63657e-20)
(1.7863 -0.552932 -9.42216e-20)
(1.10633 0.83568 0)
(0.472598 -0.45438 0)
(0.608293 0.525773 -1.37209e-19)
(1.09392 0.284178 -2.92376e-19)
(2.22206 -0.245113 4.80758e-22)
(0.862028 0.15263 1.0766e-19)
(0.157458 -0.662585 -5.76773e-19)
(0.941531 0.0891253 -9.10626e-21)
(-0.269807 -0.562523 0)
(-0.0471627 -0.127085 0)
(-0.631044 -0.575092 0)
(1.33569 -0.726067 -4.12367e-20)
(-0.320351 0.697633 -2.92255e-19)
(-0.116457 0.27021 0)
(1.29143 0.974946 -4.55433e-21)
(1.11146 0.160533 -3.08374e-19)
(1.36553 0.409486 -3.11399e-20)
(1.08031 0.921006 3.38909e-20)
(-0.2525 0.787257 1.93416e-19)
(0.702763 0.0648275 0)
(-0.639237 -0.4762 -3.65343e-19)
(-0.380857 0.788829 3.61123e-19)
(0.778973 0.0293833 1.45346e-19)
(1.53874 0.947933 6.20986e-20)
(1.13413 -0.023511 -7.23122e-21)
(-0.140446 0.529615 -2.97933e-21)
(0.742223 -0.678606 -2.7029e-20)
(1.20226 0.0111281 0)
(1.72389 0.0165026 0)
(1.06359 0.0469364 0)
(-0.271982 0.256121 -5.76276e-20)
(-0.554843 -0.598417 1.39173e-19)
(1.04624 0.842047 0)
(0.996737 0.00273134 3.9295e-19)
(0.767744 0.610551 -1.72139e-19)
(-0.837306 0.0504267 -9.87522e-20)
(0.858315 0.0170815 -3.22626e-20)
(0.712786 -0.651727 -1.64724e-19)
(1.39502 0.710734 -1.01744e-20)
(0.562953 -0.449316 -2.36044e-19)
(1.09555 0.000732563 -3.50436e-19)
(0.831474 0.0417495 3.40198e-20)
(1.54437 -0.175901 3.2386e-20)
(0.752604 -0.0528219 -4.30454e-20)
(-0.0302804 -0.0517461 -2.05513e-22)
(1.07941 0.46973 -1.92589e-19)
(1.335 0.61884 1.08174e-19)
(-0.119444 -0.362477 0)
(0.0901783 -0.606399 2.16255e-19)
(-0.341256 -0.293497 1.29035e-19)
(-0.216557 -0.0632848 -1.46795e-19)
(0.484537 0.325976 0)
(1.28108 -0.587382 0)
(0.0193196 -0.00806511 -1.76144e-19)
(-0.263475 -0.789387 -7.98377e-20)
(1.04734 -0.0241892 1.38559e-19)
(-0.58172 0.543645 -5.66191e-20)
(1.694 -0.691519 -4.73832e-19)
(0.0116472 0.760527 0)
(0.829034 -0.736536 -2.173e-19)
(0.665525 0.0438095 7.82166e-20)
(-0.559077 -0.396444 2.23042e-19)
(0.724605 0.159775 2.6101e-19)
(0.631047 0.141818 8.53874e-20)
(0.501549 -0.474955 1.60617e-19)
(-0.20096 -0.335978 -1.5115e-19)
(1.1498 0.0274938 0)
(0.400607 0.356024 -1.55638e-19)
(1.02429 -0.0105767 -2.20954e-19)
(-1.12871 0.139426 3.13715e-19)
(1.42252 0.481732 -5.29187e-20)
(-0.122803 -0.294956 -5.70719e-20)
(0.680366 -0.621121 -1.115e-20)
(0.816788 0.182035 -1.60538e-19)
(0.971747 0.428344 1.68114e-20)
(1.12235 -0.157421 2.57002e-20)
(0.607084 -0.227932 -2.42711e-19)
(1.98962 -0.358324 -1.98851e-19)
(0.703089 -0.160351 0)
(1.07021 0.298692 -3.25634e-20)
(1.47047 0.233743 -1.96696e-20)
(1.13166 -0.326356 1.6752e-19)
(0.951069 0.355074 -2.37169e-19)
(1.02887 0.0678337 2.6547e-21)
(0.425019 0.39675 -1.99502e-19)
(-0.148371 0.309523 3.71654e-19)
(1.96629 -0.174727 0)
(0.945872 -0.000216896 0)
(0.866874 -0.767843 3.9567e-20)
(-0.0485302 -0.521056 -3.84536e-19)
(-1.19031 -0.0452723 -3.79662e-19)
(-0.0471222 -0.0880489 -2.46902e-19)
(-0.459411 0.688948 -2.44107e-19)
(-0.400044 -0.471823 0)
(-0.0315351 -0.0854302 4.42416e-20)
(0.330908 0.600732 -1.26749e-19)
(-0.297696 0.383507 -4.489e-19)
(0.794451 -0.106186 0)
(1.29401 -0.387941 2.57236e-20)
(-0.321935 -0.352091 0)
(1.01348 0.0224319 2.81231e-19)
(-0.0636308 -0.607973 2.66317e-20)
(0.539031 -0.421143 3.16358e-19)
(-1.02649 -0.339408 6.08177e-19)
(-1.44519 0.0980035 0)
(0.339669 0.683196 1.59002e-19)
(1.01616 0.0167449 -8.46216e-21)
(-0.225411 -0.0923513 0)
(1.00024 -0.00870451 -4.39222e-20)
(0.857305 -0.726169 -2.12734e-19)
(1.28428 -0.715747 0)
(0.937044 -0.25946 1.59788e-19)
(0.199137 0.64914 3.45431e-19)
(0.00373195 0.00582827 0)
(-0.114669 -0.665551 -7.83236e-21)
(0.724804 -0.633779 -3.29768e-19)
(0.972859 -0.0308422 -2.01619e-19)
(-0.0467116 -0.636481 4.75291e-19)
(-0.166275 -0.453047 1.74639e-19)
(-0.347537 -0.543787 0)
(0.955582 0.479581 0)
(-0.473053 -0.598365 2.88282e-19)
(2.11434 0.217224 -2.42347e-19)
(1.07487 0.894699 1.03561e-20)
(1.06658 0.219816 -9.25313e-20)
(1.12277 0.00625602 -1.67226e-19)
(1.06474 -0.0717032 -5.75754e-20)
(-0.00191515 -0.689522 -4.40008e-19)
(1.83517 -0.0257866 4.73617e-19)
(0.728729 0.0264958 1.49335e-19)
(1.82927 -0.0273905 1.38577e-19)
(1.02531 -0.17502 0)
(0.113943 0.396085 3.34507e-19)
(1.10456 0.030275 -3.81328e-19)
(1.75074 0.624421 -3.80172e-20)
(0.740462 -0.453325 -1.27677e-19)
(-0.0706052 -0.0179544 2.36755e-19)
(0.794116 -0.698302 2.81711e-19)
(1.2368 0.201803 5.03591e-20)
(1.00266 -0.00410559 1.94694e-19)
(0.213027 -0.711141 -2.01491e-19)
(1.04212 0.0140953 0)
(1.32479 0.132306 -1.385e-19)
(-0.00461656 0.0026979 0)
(1.02307 0.0104807 -1.14564e-19)
(-1.16944 -0.416178 -4.2782e-19)
(1.70191 0.32111 -6.84577e-21)
(-0.511014 -0.271218 1.72098e-19)
(1.62464 0.0439944 -4.29413e-20)
(1.01234 -0.0193591 4.01575e-20)
(1.31713 -0.0989 0)
(1.44042 -0.611597 -7.04552e-20)
(1.03449 0.0307708 -1.18133e-19)
(1.44988 0.791921 1.01471e-20)
(1.38092 -0.0479687 0)
(1.03807 -0.0426221 1.92768e-22)
(0.0244157 -0.00931362 0)
(1.37685 0.0336839 0)
(-0.523391 -0.668482 0)
(1.2385 0.440915 0)
(1.90031 0.287305 7.45335e-20)
(0.741532 0.620678 3.01332e-19)
(0.291809 -0.293562 -1.90138e-19)
(-0.218615 -0.700667 -4.23268e-19)
(-0.00228765 -0.0210098 0)
(1.3163 -0.410631 5.50983e-20)
(1.35172 0.51922 0)
(1.46496 0.291069 0)
(-0.694096 -0.435666 1.63257e-19)
(0.806957 0.712495 8.86246e-20)
(1.69655 -0.0343013 0)
(-0.41294 -0.589395 9.68375e-20)
(0.906161 0.218989 1.46466e-19)
(1.23321 -0.26407 -3.43588e-20)
(1.24427 0.927107 2.08041e-20)
(0.912831 -0.821643 -1.64768e-20)
(0.407412 -0.0721314 -3.86418e-20)
(0.793153 0.716091 8.92347e-20)
(1.18074 0.925681 0)
(1.73509 -0.424829 9.91808e-20)
(1.43492 0.894831 0)
(1.20329 -0.221529 1.0356e-20)
(0.971619 0.100959 2.44268e-19)
(1.01008 -0.0014379 0)
(0.203811 0.47506 2.32988e-19)
(0.87728 -0.160839 3.73249e-20)
(0.628924 -0.405544 0)
(0.66814 -0.377884 1.69931e-19)
(1.24316 0.557245 -2.16169e-20)
(0.477368 0.452095 2.13629e-19)
(-0.344607 0.479724 5.31911e-20)
(0.131682 0.0356793 1.28178e-19)
(0.791895 0.0564991 0)
(1.31482 -0.896173 -1.98391e-20)
(1.04859 -0.0455192 3.07463e-19)
(1.50851 0.323327 1.87908e-19)
(-0.454075 -0.627645 8.40264e-20)
(-1.06968 -0.32266 0)
(1.18678 -0.240255 -8.15664e-20)
(0.0059853 0.00359422 -2.0356e-19)
(0.351008 0.411519 -5.58022e-20)
(-0.131851 0.0326936 -5.16104e-22)
(-0.209826 0.0904653 3.88316e-19)
(1.09136 0.0368478 -6.21885e-22)
(2.35636 -0.00387513 4.46764e-19)
(1.19898 0.460733 -1.95334e-19)
(0.968692 -0.0249846 0)
(1.84271 -0.0248214 3.10059e-19)
(1.81974 0.158964 1.32518e-19)
(0.906469 -0.763843 1.01781e-19)
(1.14545 -0.965267 -6.1628e-21)
(0.480437 0.447375 1.41633e-19)
(1.73333 0.715927 0)
(1.77015 0.580457 6.96688e-20)
(0.00375819 -0.00496221 -4.14815e-19)
(0.883909 0.770256 0)
(1.07129 -0.0930789 0)
(0.292888 -0.292546 -3.73291e-21)
(0.333234 0.315368 0)
(-1.31487 -0.154076 -5.57558e-19)
(-0.432916 0.654638 -1.59976e-19)
(1.73178 -0.415437 0)
(1.30651 0.0381926 4.51694e-20)
(-0.742988 0.077523 3.20403e-19)
(0.53294 -0.506507 -3.61335e-19)
(1.89618 -0.074759 -5.28849e-20)
(0.610114 -0.55434 0)
(1.05076 0.111452 0)
(1.36485 -0.225199 0)
(1.11243 0.239158 -1.69315e-19)
(1.30617 0.105094 2.36184e-19)
(-1.16568 0.25224 0)
(0.859807 -0.0580676 0)
(1.71692 -0.10748 1.84371e-20)
(-0.107918 0.273719 1.33857e-19)
(2.24805 -0.290883 -2.78231e-19)
(1.05347 -0.505156 2.14178e-19)
(1.71528 -0.100429 -2.80336e-19)
(-1.24141 0.0624003 -2.61089e-19)
(1.9415 0.0517358 -2.63123e-19)
(1.00265 -0.0280186 3.17456e-19)
(1.52921 0.605831 0)
(-0.442573 0.725747 4.25295e-20)
(0.996497 -0.824976 1.18031e-19)
(0.851715 -0.0109593 3.77108e-20)
(0.63308 -0.428845 0)
(1.89279 -0.538288 1.07894e-20)
(1.2025 -0.19122 1.05199e-19)
(1.21856 -0.30351 0)
(0.60392 -0.561462 3.22181e-19)
(0.537256 -0.0413789 -4.34943e-20)
(2.22256 -0.383221 5.49628e-19)
(-0.159635 0.431269 -2.78313e-19)
(1.34079 0.621257 8.16465e-20)
(1.14917 0.405159 2.58932e-21)
(0.900705 0.379068 1.7143e-19)
(2.00094 0.298268 -2.4253e-19)
(-0.0194475 -0.739585 -8.1955e-21)
(1.04769 -0.198978 0)
(-0.15452 -0.100742 3.91456e-19)
(1.08 -0.939318 0)
(1.06086 -0.656894 1.56077e-20)
(1.5212 0.138622 -7.75294e-19)
(1.08722 -0.0167615 -1.32019e-21)
(-0.812702 -0.286631 -5.15454e-19)
(0.988012 0.490032 1.28348e-19)
(0.269 0.430396 6.39511e-20)
(0.724692 -0.0359858 0)
(1.11013 -0.210257 0)
(0.995219 0.176629 1.36029e-20)
(0.746405 -0.0174595 0)
(1.35158 -0.192586 -1.08252e-19)
(-1.85705 -0.0729798 7.21034e-19)
(1.92661 0.493998 7.85624e-20)
(1.05684 -0.0237062 0)
(0.550631 -0.34516 8.34822e-20)
(1.02627 0.0280159 1.51203e-19)
(1.11139 0.950757 -1.01294e-19)
(-0.450164 0.621355 0)
(1.10427 -0.47965 3.55467e-19)
(1.02337 -0.135665 -2.24413e-22)
(1.0898 -0.494892 -1.55e-19)
(2.3642 0.168619 2.57362e-19)
(1.29737 0.794554 0)
(0.875335 0.0250141 0)
(-0.544101 -0.616404 -2.13467e-19)
(0.0153221 -0.00573119 1.98159e-19)
(0.944283 0.371103 -1.55953e-19)
(0.401642 -0.588942 -1.80201e-19)
(0.651497 0.419665 1.90807e-19)
(0.981291 -0.0411083 0)
(0.53542 -0.49843 0)
(1.16357 0.0141492 1.42038e-21)
(1.21958 -0.506347 -6.879e-20)
(0.633497 0.0179204 1.43554e-20)
(0.729008 -0.148517 9.46667e-20)
(-0.057763 0.142411 -3.5439e-19)
(1.56522 -0.0190014 3.67918e-19)
(0.660409 0.616552 0)
(1.28186 0.699089 0)
(1.58757 0.245642 0)
(-0.515459 -0.469506 -2.15663e-19)
(1.27149 0.567356 2.72881e-19)
(1.92843 0.137652 5.15977e-20)
(0.987967 -0.00295524 0)
(1.07492 -0.00609624 0)
(2.03236 -0.0928349 -3.72841e-19)
(1.07951 0.708928 1.13253e-19)
(0.999985 0.00755451 -1.51147e-19)
(1.49087 0.472425 0)
(-0.319425 0.629492 0)
(1.24473 0.319136 1.97861e-19)
(1.02578 0.533291 -9.30187e-20)
(1.05852 0.027015 0)
(2.00323 0.492427 0)
(2.00535 0.676997 -4.12985e-19)
(-0.106948 0.674421 -6.35119e-21)
(1.00073 0.00714469 0)
(0.710965 0.484263 -2.57524e-20)
(0.92702 -0.817865 0)
(1.0113 0.0175687 3.50775e-20)
(1.14834 -0.101475 3.82969e-20)
(0.900985 -0.3105 2.36391e-19)
(1.15895 0.0155867 -2.87613e-20)
(2.14849 -0.104219 4.09035e-19)
(0.941411 0.137689 5.33314e-20)
(0.747355 -0.0338554 0)
(1.00587 0.0165388 0)
(-0.837904 -0.472377 0)
(0.664763 0.636339 -1.33426e-19)
(-0.0285872 0.0767214 2.39043e-19)
(1.16991 0.351244 -3.1981e-19)
(-0.73676 0.502775 0)
(0.829919 0.648826 1.2508e-19)
(1.0034 -0.325885 0)
(1.00331 0.00670709 8.86484e-20)
(0.749468 0.590318 6.08479e-20)
(1.03338 0.406923 1.8506e-19)
(1.69827 -0.0199395 0)
(2.15779 0.151142 -1.10613e-19)
(0.818008 -0.104816 -2.85808e-19)
(-1.24954 -0.12958 -7.2901e-19)
(1.28096 0.692984 0)
(0.874894 0.2413 1.3568e-19)
(2.11201 -0.0935076 0)
(0.776996 0.531549 2.76177e-19)
(-1.74847 -0.0750452 2.83926e-19)
(-0.0615762 0.154375 0)
(0.591248 0.563803 -5.27934e-20)
(1.02395 -0.644646 -1.09771e-19)
(0.477639 -0.239925 -1.00357e-19)
(1.01584 -0.0129366 0)
(-0.45799 0.268628 -3.41312e-19)
(0.636401 -0.567475 6.40315e-20)
(0.901251 0.290377 0)
(1.44643 -0.581003 4.34199e-20)
(0.983799 0.836428 1.58925e-20)
(1.17611 -0.0463106 -2.90327e-20)
(0.177719 -0.209551 -2.72298e-19)
(0.229019 -0.019882 -4.55736e-19)
(-0.0700801 -0.192433 1.06611e-20)
(0.817136 0.366444 1.89458e-19)
(-0.345343 0.723029 -7.26999e-21)
(1.4075 -0.650756 3.31528e-21)
(1.01168 0.00423207 -2.62099e-19)
(-0.634513 -0.409791 0)
(1.03737 0.0280405 -3.06942e-19)
(2.13443 0.440022 2.01646e-19)
(0.888273 0.693721 2.03882e-19)
(1.08966 -0.0784316 1.20914e-19)
(0.993902 -0.0210187 1.21408e-19)
(1.08869 -0.0294158 1.22789e-21)
(-0.417168 -0.493914 -8.73911e-23)
(1.71397 -0.863147 1.48673e-20)
(1.13052 -0.110402 -5.38361e-20)
(0.868269 0.0594441 6.1136e-20)
(0.907378 -0.280269 7.01226e-20)
(0.303445 0.0594157 0)
(0.963211 0.736823 0)
(0.763355 0.417858 -7.25405e-20)
(2.04332 0.201151 -4.62804e-20)
(-1.33123 -0.234637 2.66397e-19)
(1.02657 -0.540923 -3.82381e-19)
(0.615217 -0.531925 3.10313e-19)
(1.45075 0.210155 -2.09543e-19)
(0.367943 -0.594016 2.05455e-20)
(1.12986 0.0074194 0)
(0.757562 0.113127 -5.35519e-21)
(1.13388 -0.122353 -2.08141e-20)
(1.0422 0.76292 0)
(1.16489 -0.15594 0)
(0.694969 -0.184825 0)
(-0.174463 -0.352689 -6.90639e-20)
(-0.162287 0.153322 0)
(1.46735 0.806881 1.35446e-19)
(1.21282 0.184055 4.52517e-21)
(-0.764612 0.279394 1.5219e-19)
(1.16522 0.106018 1.372e-20)
(1.83182 0.472346 -1.27582e-19)
(2.09656 -0.30927 -4.24081e-20)
(-0.177676 -0.00494846 -2.76403e-19)
(-0.165221 -0.650232 5.83654e-21)
(0.671213 0.100977 0)
(0.693636 -0.0362116 0)
(0.99782 -0.00134484 3.1265e-22)
(-0.569671 -0.449432 0)
(1.51994 0.0209074 -1.35626e-19)
(0.688422 -0.0348516 0)
(1.04718 0.00399373 9.65605e-20)
(1.00257 0.0163472 -3.43513e-20)
(1.57881 -0.211203 2.24563e-19)
(1.0628 -0.0136979 -7.00501e-22)
(0.952943 -0.181686 -4.21691e-20)
(1.03111 -0.0287838 2.81539e-19)
(0.669469 -0.608438 1.43489e-19)
(-0.0145992 -0.481046 -1.08044e-19)
(0.931738 -0.0505285 1.83933e-20)
(0.0137439 0.00709209 0)
(1.13004 0.795898 0)
(1.02677 0.00410026 0)
(0.996344 -0.772703 -7.36121e-20)
(1.02816 -0.881816 6.63574e-21)
(0.90496 -0.122614 -6.9332e-21)
(0.0824535 0.684551 -6.52351e-19)
(1.14687 0.0351323 3.05479e-21)
(0.583203 -0.377801 -5.10269e-19)
(0.969603 0.104628 -5.65108e-20)
(1.15168 -0.000194118 -1.71574e-20)
(2.04887 -0.318491 1.3663e-19)
(0.60298 -0.0815221 -3.4412e-20)
(-0.343856 -0.586977 -1.45057e-19)
(1.11894 0.555423 1.34869e-19)
(-0.135791 -0.33001 0)
(0.319102 -0.590003 5.04182e-19)
(-0.0464112 -0.0703642 5.122e-23)
(1.04231 -0.0357934 2.52842e-19)
(1.0183 -0.0004819 -6.50537e-21)
(1.09209 -0.0139646 -6.9997e-20)
(1.07696 -0.0341533 1.99881e-21)
(1.62616 0.305206 1.60043e-20)
(0.397955 -0.372672 -2.52286e-19)
(0.973293 -0.0929561 1.04558e-20)
(1.03408 -0.0017076 -1.85682e-19)
(0.869892 -0.0996548 -1.89274e-20)
(1.06893 -0.0389402 0)
(1.11563 0.594028 -2.50956e-19)
(1.00556 -0.00303976 7.2609e-20)
(0.677017 0.609171 1.9713e-19)
(1.1159 0.0705956 -5.57443e-23)
(1.06128 -0.00744881 -2.27494e-20)
(1.11124 0.0178805 6.47073e-22)
(2.31954 -0.185557 2.26037e-20)
(0.319705 -0.0142451 0)
(1.053 -0.0367999 0)
(1.06896 -0.0336305 4.44911e-19)
(0.999837 -0.00854731 0)
(-0.0135913 -0.0410861 0)
(0.943272 -0.570596 0)
(0.999707 0.00072262 -4.21373e-19)
(1.15245 -0.686308 5.53624e-20)
(1.02197 -0.00689819 8.79389e-21)
(1.34815 0.957082 -7.09461e-22)
(1.53339 1.00723 -1.60877e-19)
(1.13547 0.0377623 -5.12632e-21)
(1.63406 0.573009 1.85921e-19)
(0.693832 0.155168 0)
(0.100587 0.691003 0)
(2.13728 0.0282353 5.47655e-19)
(1.16249 -0.356304 0)
(1.0007 -0.00459276 -1.305e-19)
(1.00593 0.000645722 2.53557e-19)
(1.39897 0.142163 -4.72241e-20)
(0.00636635 -0.125541 3.0156e-19)
(0.97906 0.00625959 1.36928e-19)
(0.737467 -0.0407677 7.2152e-21)
(0.746847 0.0447961 -4.05631e-21)
(1.0785 -0.0316827 1.4301e-23)
(0.904594 0.0181728 -1.37791e-19)
(1.00233 0.00101475 1.63784e-19)
(0.998475 0.000822415 9.673e-21)
(0.784557 -0.00703951 0)
(0.728159 -0.0192496 0)
(0.728001 -0.0282145 7.99693e-22)
(0.713545 -0.0287038 0)
(0.317831 -0.0124825 0)
(0.495327 0.0184556 0)
(0.615405 0.00668854 1.26173e-21)
(0.779374 0.0165538 -9.53858e-22)
(1.06168 0.0135975 0)
(1.07774 0.00119517 1.14064e-21)
(1.07011 -0.0141934 0)
(0.643225 -0.00781606 0)
(0.53544 -0.0127687 0)
(0.446805 -0.0190745 5.31709e-21)
(0.222792 0.00370903 7.58588e-20)
(0.809902 0.0206879 0)
(0.809399 0.0250634 0)
(0.950423 0.0160884 -1.70186e-19)
(0.837439 0.0088136 3.19729e-19)
(1.00555 -0.00148161 0)
(0.999434 -0.00284658 3.02068e-19)
(0.999643 -0.000905446 -3.15285e-22)
(0.814535 0.0318864 2.69879e-19)
(0.997255 -0.00827237 -1.57471e-19)
(0.786824 -0.0172487 0)
(0.557545 0.0114108 4.06e-21)
(1.00447 0.00114788 -1.52886e-19)
(1.00162 0.00333816 -2.62008e-19)
(1.06987 -0.0180959 0)
(0.996054 0.0013616 0)
(0.998057 -0.000967637 0)
(1.08855 0.0755367 3.57164e-21)
(1.15004 0.00158749 4.90633e-21)
(0.927089 -0.102817 0)
(-0.538847 0.554944 2.65883e-19)
(-0.299501 0.491681 -2.24657e-19)
(1.02552 -0.0141274 -2.02705e-19)
(-0.388243 -0.747734 -1.4484e-19)
(1.01903 0.00656144 -1.63248e-19)
(1.17557 -0.205663 -6.52153e-20)
(0.797364 -0.469973 2.36958e-19)
(-0.0288764 -0.0581428 -1.00126e-19)
(1.02225 0.0151918 0)
(1.06518 0.0022746 -4.34848e-20)
(0.86176 0.0240918 0)
(-0.023045 0.0658557 3.49517e-19)
(1.14033 -0.280322 0)
(-0.61774 -0.508453 -3.68283e-19)
(0.676377 -0.0664276 -1.21603e-20)
(1.67075 0.687209 1.11434e-19)
(-0.0402721 -0.0590206 0)
(1.0722 -0.0294814 1.37065e-19)
(1.13142 0.0274428 6.13969e-22)
(0.923804 -0.00458891 2.18764e-19)
(1.01466 -0.0122555 -1.38308e-19)
(1.68528 0.866555 9.4734e-20)
(0.525925 0.496443 0)
(0.454004 0.413102 1.62126e-19)
(1.03232 0.0630716 -1.95452e-21)
(1.14097 0.129035 1.40664e-19)
(1.08216 -0.714437 0)
(1.01762 -0.00072776 0)
(1.00069 -0.0215268 -3.18127e-19)
(1.01005 0.0174114 -3.1043e-19)
(-0.106981 -0.339051 0)
(1.22813 0.823185 -6.53684e-20)
(1.09446 0.0607001 5.9346e-23)
(1.02122 0.00427243 1.19326e-19)
(1.00717 0.0175911 -1.49915e-19)
(-0.751877 -0.400235 -3.62894e-20)
(1.11797 0.0107421 -1.04391e-20)
(1.02273 -0.0152024 5.09592e-19)
(1.06666 0.0618527 0)
(1.8746 0.658848 -1.10497e-19)
(1.01552 -0.00763196 -1.586e-19)
(1.85703 0.162471 -1.25943e-19)
(1.05693 0.0105698 -3.64089e-22)
(1.00875 0.0027085 3.18089e-20)
(2.09041 -0.218659 -3.38449e-19)
(1.01827 0.0146922 1.54053e-19)
(1.15371 -0.0424181 2.259e-21)
(1.0225 0.000473687 0)
(0.937343 0.152062 3.80162e-20)
(-0.986294 0.388394 6.12027e-21)
(0.988637 0.0217903 1.53169e-19)
(1.0297 0.0264424 -6.09276e-22)
(1.10588 0.040383 -9.13217e-22)
(1.25826 0.31878 2.6882e-19)
(1.00012 0.0181127 1.05164e-19)
(1.01857 -0.012375 6.54863e-23)
(1.75084 0.23851 4.52868e-21)
(1.78861 0.948541 -1.33774e-19)
(0.768412 -0.690757 4.18336e-20)
(0.446992 -0.31607 -2.49133e-19)
(1.0125 -0.00629834 0)
(1.02345 0.00220621 3.84318e-20)
(1.01225 -0.0108691 8.0409e-20)
(1.13064 -0.0230042 1.14129e-21)
(1.01921 0.0114064 -1.60425e-19)
(1.0361 -0.0254558 1.82693e-19)
(1.00419 -0.00693876 -1.50651e-19)
(1.00655 0.0082794 -5.03982e-22)
(1.0183 0.00693427 -1.98276e-22)
(1.02494 0.00975258 1.53345e-19)
(0.903836 0.0907111 3.96145e-19)
(1.55764 0.617139 0)
(0.840028 0.187553 3.10355e-19)
(1.00791 -0.00293756 0)
(1.02132 -0.0182045 -4.44565e-20)
(1.54223 0.445371 -2.06943e-20)
(1.63648 0.0821801 0)
(1.46075 -0.409299 -5.75507e-20)
(1.36169 0.790328 -1.96232e-20)
(0.822619 -0.0176903 0)
(2.09974 0.0178419 0)
(0.941864 0.768368 -3.9248e-20)
(1.08335 -0.00859654 -1.39324e-21)
(1.01019 0.000235587 -1.61433e-19)
(1.11142 -0.566858 -4.34844e-20)
(1.10014 0.0229828 -2.33938e-21)
(1.20615 0.0195929 0)
(1.11233 0.0649819 0)
(1.33552 0.463558 0)
(0.301484 0.553506 1.39957e-19)
(1.14377 -0.0414033 7.79029e-21)
(0.273133 0.304823 0)
(0.027904 0.583762 -4.35655e-19)
(1.70823 0.972227 -1.39186e-19)
(1.01237 -0.00609392 -3.15819e-19)
(1.11367 -0.0203637 2.12379e-21)
(1.02575 0.018872 2.08888e-19)
(0.740475 -0.0423592 0)
(-0.0832862 -0.27322 -3.07503e-20)
(0.619753 0.445799 -2.68174e-19)
(1.47738 0.575875 3.15914e-20)
(0.250407 0.615178 0)
(0.833775 0.0210349 5.64531e-20)
(0.522319 0.501512 3.96577e-20)
(1.19085 0.88569 -1.62101e-20)
(-0.0197284 0.000105947 1.50419e-19)
(1.01866 0.0236259 0)
(1.1699 -0.0453268 6.1885e-21)
(1.00446 0.00124742 1.18519e-19)
(2.38187 -0.0535619 0)
(1.02243 0.00678468 1.98841e-19)
(0.434801 -0.592202 -2.36564e-19)
(1.01456 0.0127134 -1.22817e-19)
(1.12046 -0.0874772 0)
(1.4583 -0.490613 2.42739e-22)
(1.00231 0.00124216 -8.27989e-20)
(0.985964 -0.028622 2.18731e-19)
(1.08988 0.107034 -2.86916e-21)
(1.17018 -0.0424204 -1.1868e-20)
(-0.169196 -0.0548774 3.94597e-19)
(2.06256 0.307148 2.72275e-19)
(1.19475 0.0226974 1.40643e-20)
(0.818713 0.0137094 -2.98933e-19)
(0.828092 0.0332565 0)
(1.18405 -0.0110414 9.51343e-21)
(1.0144 -0.0204693 -2.38598e-20)
(0.968865 0.0260368 0)
(1.04877 0.00676158 -1.51049e-19)
(1.14251 -0.00548681 -2.97997e-20)
(-1.61735 0.0160577 3.34252e-19)
(2.1319 -0.579093 0)
(-0.877856 -0.275983 -6.87153e-19)
(1.50785 -0.34178 0)
(1.04187 -0.0150294 4.45094e-20)
(1.04446 -0.0379603 -7.89523e-24)
(1.00473 0.00120323 1.28297e-19)
(-1.12126 -0.0674571 5.76797e-19)
(1.0211 0.00615651 0)
(0.983507 0.00332375 -3.10992e-19)
(1.01379 0.00939628 1.63071e-19)
(1.03873 0.0128124 0)
(1.02454 -0.00695312 4.61345e-22)
(0.968865 -0.00120358 -1.40397e-19)
(-0.25224 -0.773321 4.76664e-19)