/*--------------------------------*- C++ -*----------------------------------*\
| =========                 |                                                 |
| \\      /  F ield         | OpenFOAM: The Open Source CFD Toolbox           |
|  \\    /   O peration     | Version:  2306                                  |
|   \\  /    A nd           | Website:  www.openfoam.com                      |
|    \\/     M anipulation  |                                                 |
\*---------------------------------------------------------------------------*/
FoamFile
{
    version     2.0;
    format      ascii;
    arch        "LSB;label=32;scalar=64";
    class       volScalarField;
    location    "17.9";
    object      p;
}
// * * * * * * * * * * * * * * * * * * * * * * * * * * * * * * * * * * * * * //

dimensions      [0 2 -2 0 0 0 0];

internalField   nonuniform List<scalar> 
2186
(
0.849801
-0.297873
0.0120079
1.15118
-0.736474
-0.0712383
0.745323
-0.957093
-0.977475
1.40507
1.15189
-0.902422
-0.967488
1.10733
-0.529305
1.11424
1.1359
-1.14276
0.00227424
-0.709041
1.51017
-0.690192
1.11565
-0.979671
1.10705
1.12562
1.32956
0.975405
0.692357
1.10714
-0.696017
1.10791
-0.650985
-1.17065
-0.899236
0.216664
-1.07879
1.50048
-0.666529
-0.14262
-0.980097
-0.673837
-0.6409
-0.785924
0.996916
1.38845
0.408127
0.582974
-1.52351
-0.841515
-0.701208
0.998112
-0.640475
1.4356
-0.665928
1.02654
-0.69023
1.05444
-0.768352
0.887894
-1.01193
0.727458
0.651029
-0.127605
0.66418
0.524073
0.767873
1.39786
1.29351
-1.00951
-0.962291
-1.08785
1.36396
1.0807
1.28458
1.23921
-1.28696
1.13093
-0.903336
-0.639367
-1.4184
-0.211319
1.10152
0.714064
1.09578
1.10268
1.40677
-0.012969
-0.0593078
-0.91785
1.02909
-0.705035
1.01647
1.26042
1.11679
0.519323
-0.11412
0.677181
-0.80613
1.06906
-1.68774
-1.6398
0.731158
1.03828
1.13785
-0.710214
1.32773
-0.74831
1.01374
-1.86968
-0.607946
-0.785158
0.607762
1.43513
-0.936565
-0.883784
-0.0823203
-1.63401
-0.919393
1.36507
0.0849352
-1.00483
0.957922
-1.36557
1.11893
-0.0565666
-0.766946
1.23065
-1.20404
0.725564
1.47866
1.3258
0.29683
0.717503
-1.50058
-0.865438
0.996897
-1.01378
-0.624387
-0.927505
0.901871
-0.16284
-0.942403
0.771007
1.00524
1.04611
-0.676486
-0.755587
0.68081
-0.743567
-0.730678
0.646639
1.13377
1.27045
1.12744
0.593835
1.40471
0.52153
0.425186
0.485184
-0.928891
-1.24898
1.0887
1.07043
-0.0036171
0.0152231
-0.829945
-0.875219
-0.226416
-0.260738
0.459656
1.0751
1.13662
1.19501
0.528419
-0.271681
-0.736769
1.08907
-1.48117
0.960218
-0.873037
1.12234
-0.704016
0.646294
0.632785
-0.771608
-0.776519
1.2473
-0.527258
-0.965147
-0.94388
1.36693
-1.48175
1.06273
-0.925202
-1.79233
0.192592
1.28631
1.18148
-0.69489
-1.05175
-1.18511
0.136097
1.13678
-0.915063
-0.73005
-0.918165
-1.47396
1.0552
-1.23509
0.588224
-0.0758526
1.42113
0.93
1.02692
1.03094
1.2993
1.11167
0.975503
1.21269
0.437652
-0.835155
-0.679978
0.203409
0.245678
-1.14361
-0.757131
1.14962
1.23119
-0.898816
-0.851485
-1.89333
0.432598
0.725664
0.864951
0.976576
1.20608
-1.52161
0.965962
-0.934783
-0.846337
-0.86842
1.10957
0.83168
1.26671
1.28423
1.22544
1.20357
-0.950677
0.90142
1.22442
-0.975233
1.09629
0.879193
-1.93575
-0.907595
-0.881431
1.26843
1.13632
-0.985906
-1.2512
-0.733654
1.03533
-1.44291
0.849779
1.18151
0.953928
-0.927215
-0.700453
1.08257
0.717321
-0.699947
-0.515348
1.46006
-0.731492
-0.950346
0.936282
1.27408
1.0978
-0.795069
-1.05902
-0.866921
1.01702
-0.991668
0.613332
1.0809
1.1091
-0.158271
-0.537424
1.07311
-0.976899
1.01353
1.2848
1.13138
1.12819
-0.996916
-0.829142
-0.981819
-1.1005
-1.83493
-1.52928
0.44089
-0.530209
0.711212
1.25966
1.3246
1.02159
-0.718688
1.25536
-1.10025
-0.156214
-1.1414
-0.926934
-0.980437
0.415139
-0.731037
-0.716968
0.27266
1.03226
-0.372504
0.487168
-0.775859
-0.0554969
-0.953702
-0.767699
1.32851
0.0939533
-0.0159202
-0.693766
0.864897
0.645888
-0.388181
0.598647
-1.04167
-1.01647
0.764174
1.13357
1.18836
-1.50558
1.26151
0.9685
0.478781
1.33691
1.10993
1.03953
0.430379
-0.421915
-0.933302
0.97395
-0.788632
-0.894524
-1.15397
-0.797336
-0.922568
1.48647
-0.788055
-0.701214
-0.981141
1.1094
-0.714994
-1.85506
-0.823723
0.835552
-0.16942
-1.34438
1.36922
1.43085
1.21501
-0.948136
-0.0792489
1.50254
1.11385
-0.983934
0.550679
-0.940898
0.230549
1.29322
1.09372
0.968573
1.40276
-0.500388
-0.54835
-0.348912
-0.942718
-1.37947
-0.680058
-0.216982
1.43172
-1.2238
-1.23014
1.10071
0.653474
-0.915153
-1.5726
-0.936148
-1.00893
-1.23707
-0.921284
-0.697879
-0.722945
1.29426
-0.589755
-0.856103
1.12391
-1.22463
1.35572
-1.41573
-1.85547
-0.832827
1.10626
-0.86909
1.13439
0.927111
-1.27143
1.13772
-1.05481
-0.922517
-1.06396
1.09776
1.04415
-0.93453
-0.942085
-1.15682
1.09338
-1.36953
-1.7755
0.616016
1.05506
0.978141
0.794578
-0.951929
-1.01244
0.930369
-1.03297
0.897096
-2.08892
1.1297
0.0650858
1.22255
-0.920037
0.932066
0.798093
1.14191
-1.06934
1.10724
-0.842047
-0.921259
1.10999
-1.72925
0.221908
-0.826237
-0.0977873
1.11641
0.136153
0.353932
1.11509
0.346385
-0.127732
-0.0900605
-0.701514
0.287218
-1.01364
0.803822
-0.576099
1.18712
1.22377
-0.962048
-0.925974
-0.545554
-0.685279
0.524731
-0.959404
0.944112
-0.0216235
-0.96078
1.21275
-0.477902
0.479224
0.35797
-0.250012
0.906219
0.451658
-1.05169
-1.74225
-0.225457
-0.616361
1.12585
-2.02054
1.20869
1.32221
1.30944
0.754808
1.28617
-0.72645
-0.624837
0.994978
0.278165
1.10129
-0.681326
-0.953273
-1.60906
0.879823
-0.921402
-2.12296
-0.708497
-0.745448
0.0383312
-1.09327
0.839329
0.804258
-0.660786
-0.888979
0.826918
0.131356
1.25503
-2.02672
-0.0750876
-0.922716
0.868994
-0.0866119
1.26418
1.51757
-1.63833
-0.739886
-0.823401
0.381544
-1.55854
1.12487
-0.93304
1.07943
0.859095
-0.946894
0.975699
0.936825
-1.81781
0.974653
-1.10385
-0.704979
-1.33557
-0.880872
-1.06625
-1.39734
-0.805672
1.11012
0.317503
-0.758505
0.661977
1.25721
1.30791
-0.316988
0.841518
-0.430721
0.854546
-0.15126
-1.4601
-0.710097
0.601142
0.918948
1.17616
-1.78891
-0.966302
-1.33475
-0.924726
-0.0622274
0.808509
-1.90152
0.0496765
-1.17466
1.05405
-1.27854
1.06375
-0.867786
-0.701303
1.05237
0.743971
-1.50775
-0.0745465
1.07501
1.39036
1.13169
-1.06857
-1.19431
0.881647
-0.748315
0.868586
-0.53091
0.55036
1.07232
-0.958874
-0.700804
1.13341
-1.11032
1.36163
-0.149225
0.958111
0.248564
0.700801
-0.777584
1.34108
-0.70439
-1.47527
1.07642
0.626997
0.592795
-1.13681
-0.696776
-0.999762
0.878365
-0.120677
-0.948922
-1.1977
1.12671
0.491194
-1.05286
0.847761
1.00476
1.09455
-1.966
-0.623434
-0.705578
1.12377
1.29532
0.559826
1.11964
0.0331953
1.14961
0.225081
-0.853258
-0.544114
1.02462
1.07313
-1.48862
0.964495
-0.706867
0.912225
-0.815007
1.11725
1.04293
1.12725
-2.02366
1.03497
-1.37462
-0.757816
1.27396
-1.74983
-1.78066
1.23203
-1.21665
1.22447
-1.68156
-0.711583
1.16202
0.861036
1.4606
1.10959
-1.39788
1.17347
1.20128
-0.906436
0.747484
0.0363147
-0.847464
1.60297
-0.935388
1.25334
-0.736133
0.368382
1.11008
-1.208
1.10079
-1.65418
1.03973
1.05408
1.12264
0.0575739
-0.929003
-0.5666
0.661827
0.755285
1.16372
-0.230517
0.94213
-2.11182
-0.347537
-1.43894
0.917283
1.23879
-0.848937
-0.987563
-0.0818691
1.35163
-0.13168
0.847175
-0.141924
-1.67406
-0.950488
-0.708698
-1.07229
0.90734
-1.75879
-0.139347
-0.208878
-0.544165
-0.725129
-1.14316
-0.303836
1.08081
1.12938
-1.15191
-0.43512
1.09452
1.03837
1.12862
-1.62352
1.09296
1.15615
1.10482
1.14914
-1.48026
-0.134749
-0.701385
0.730435
1.11058
0.785038
0.214739
-0.126712
-2.11701
0.103424
1.35701
-0.156181
0.313074
-0.668364
-0.102546
-0.954591
0.896967
-0.894105
-1.25778
-0.916886
1.11213
1.11127
1.12225
-0.0222711
0.448179
1.33194
-0.173743
1.10603
-0.138076
-0.0526101
0.873683
1.12947
1.21233
0.00602301
1.08765
1.08616
-1.22013
-0.108251
1.12274
1.13482
1.13086
-0.924007
-0.96283
1.13106
0.685658
1.11167
0.323934
-0.00615492
0.174338
-1.8888
-0.446766
-0.720934
-1.58709
-0.464209
1.13718
1.1418
0.858426
-0.929278
1.11216
-0.172818
-0.192861
-0.0142704
1.10814
1.13458
1.13162
1.14544
1.12244
1.11598
1.10673
-0.0731117
-0.114911
-0.143651
-0.218461
-0.0117339
0.0131042
0.0047404
-0.111443
-0.164682
-0.15073
-0.110855
1.10254
1.12347
1.1182
1.14088
1.13918
1.13138
1.13541
1.11285
1.12023
-0.154305
-0.21429
1.13241
1.13108
-0.0152549
1.13326
1.13228
-0.0417338
0.208149
-0.162708
-0.700634
-1.76257
1.1148
-1.02276
1.11177
0.715325
1.16988
-0.933268
1.11079
1.05525
1.05409
-0.699797
-0.234318
-1.05467
-0.133809
0.0704417
-0.695002
1.12819
0.133262
1.20289
1.11864
-0.0570556
1.30324
1.45357
-0.082829
0.986773
0.743675
1.11183
1.12987
1.1205
-0.931423
0.597853
0.004466
1.11708
1.12578
-1.01234
0.159048
1.11921
-0.0787019
-0.22134
1.11806
-1.11715
1.09928
1.13104
-0.985065
1.12296
0.261898
1.11415
1.19666
-1.98864
1.12801
1.13593
0.0561986
0.798149
1.11445
1.121
0.271257
-0.610368
0.796776
1.4516
1.12735
1.11666
1.12192
0.258497
1.11708
1.10213
1.12395
1.11774
1.12022
1.11593
1.22573
-0.713219
-2.11407
1.11835
1.11341
0.394175
-1.09826
-0.775134
-0.808433
0.987623
-1.47683
-0.602939
0.0482955
1.11485
0.811031
0.0829862
0.109933
-0.0876692
-0.568871
-0.745359
0.214399
-0.713764
-1.23941
-0.210594
1.12212
0.135769
1.10977
1.0348
-0.919559
1.37479
-0.452395
-0.964197
0.846734
1.26302
0.573724
-0.92008
1.11407
0.202346
1.12015
-1.00468
1.12053
-1.19351
1.11223
0.120374
-0.83885
1.1223
1.13727
1.0646
0.206562
-0.917751
-0.617309
0.284181
1.13395
1.01867
0.23628
1.11379
1.15575
1.10689
0.332843
-1.76198
-0.636018
-1.72614
0.391705
1.12018
-0.100776
1.11581
-1.68357
1.11446
1.15324
1.12379
-0.0509479
-0.0560116
1.14905
-1.01248
1.12556
1.12972
0.0702722
-0.95652
1.07153
1.26634
1.10981
1.10845
0.417037
0.196109
1.08196
0.484107
1.12442
0.930417
-0.761968
-0.948093
0.9649
1.35398
1.11483
0.414372
-0.674665
0.464727
-1.87012
-0.573303
1.09714
-1.22115
1.10114
-1.2754
-0.927472
-0.735269
0.569866
-0.994012
-0.449245
-0.395563
1.11149
-0.918087
1.0428
-0.938221
-0.116196
0.137153
0.0683717
-0.41569
1.08778
0.247154
-0.784206
-0.179499
-0.967073
1.10043
-0.584459
0.0649221
-1.73123
1.21131
-0.30193
-0.935689
1.18374
1.09829
1.08838
0.559778
-0.883322
1.11992
1.14757
-1.3832
-0.71888
1.11074
0.879879
1.38203
1.13207
-1.26286
-0.770566
-0.73662
-1.21047
-0.879337
-0.920854
-0.0143763
-1.04979
0.884549
0.0386609
1.1201
1.33513
1.111
-0.920918
-1.04587
1.11281
-1.19033
-0.516689
1.0893
-0.277918
-0.685342
-1.72463
0.0973784
1.06679
1.03861
-1.16668
0.930896
0.808554
-1.52574
1.09607
-1.42596
0.932853
-0.647252
1.08258
-1.68257
0.498877
1.11371
1.22814
-1.83876
-1.53261
0.950828
1.48936
1.13451
1.15291
-1.00602
1.34279
-0.86834
-0.277429
-0.786024
0.545078
-1.94585
1.22691
1.2578
-0.941893
-1.40483
1.11124
-0.83087
0.942273
1.14417
1.08504
-1.7339
1.11493
-0.0430417
1.14049
-0.0498522
-0.178864
-0.00289992
1.11777
-0.171706
-0.343229
-0.345901
1.10752
-0.298717
1.32323
0.330816
1.45617
1.12274
-0.818536
1.09288
-0.70975
1.0908
1.08972
-0.146344
-0.394373
1.25937
1.10368
1.35863
1.07253
0.149497
1.07693
1.09923
0.991064
1.12236
-0.952842
-0.835109
-1.22686
1.20668
-1.56784
-0.59
-0.706096
-1.63447
-0.162022
-0.0683736
1.00537
0.0470305
1.0634
1.11709
-0.723331
-1.16009
-0.901848
-1.32415
-0.895177
-0.710025
1.11996
-1.94903
1.13161
1.3367
1.17086
-0.0783424
1.13824
1.05174
-1.49711
1.06712
1.09941
-0.783092
1.0985
1.08008
-0.128324
-1.06347
1.57042
-1.89346
-1.15119
-1.03831
0.304573
1.0895
-1.15533
-0.76402
-0.694217
1.25651
-0.786049
0.99365
1.13158
1.0951
-1.32844
1.0771
-2.04312
1.1282
1.14312
-0.310038
1.13261
0.646564
1.09989
0.796562
-1.73458
0.0231366
0.019661
0.0802297
1.36914
-0.168377
1.1481
1.52073
-0.643803
-0.0478821
1.17869
-0.0676937
1.17587
-0.0366491
-0.0540086
1.17825
1.18258
0.498491
-1.35189
0.904683
-0.60638
-0.786238
-0.537461
1.13862
1.10625
1.52768
-0.920418
-0.90292
0.825284
-1.0599
1.19697
1.12257
1.09812
1.10727
1.06689
-1.89798
-0.919853
-1.24332
0.943166
1.04299
-1.97438
-0.713826
-0.938691
1.12895
1.14406
-1.27729
-1.56782
1.15247
-1.28433
0.345355
0.917946
1.065
-0.212806
-1.0916
-0.108846
-0.93543
-0.643127
-2.03785
-1.67684
1.47492
1.50092
-0.673712
-0.883391
1.12977
1.10601
-0.869368
-0.00674639
-0.305257
0.798207
1.21574
-1.35415
1.12347
-1.35705
-1.0777
-0.883533
-1.09531
-0.781411
1.09222
-0.921999
-1.48077
1.49228
-0.939552
1.12393
1.36065
-0.713694
1.14007
1.35191
-0.723619
1.38335
-0.953555
-1.09707
1.15274
0.166073
1.10925
1.12517
-0.958225
1.16898
0.214613
-1.95869
1.16011
1.12759
-0.85806
-1.30885
1.06977
1.11662
-0.951342
-1.7277
1.42258
-0.958331
1.03414
0.0583606
1.04893
-0.891572
-2.02104
-0.941799
-0.713103
1.23558
1.14297
1.39034
1.34744
1.1223
1.17937
1.20677
-0.93795
1.27556
1.24272
-0.730232
-0.959103
-0.83648
1.4625
-1.75253
-1.06526
0.144645
1.08278
-0.733194
-0.64625
1.16473
1.1165
-0.945837
-0.720504
-1.03372
0.132353
-1.78444
-0.728707
-0.933778
1.03691
0.985849
-0.712555
-0.30807
-0.826013
0.98925
-0.957183
-0.698035
-0.930503
1.03961
-1.55048
-0.723628
1.43132
1.00248
0.471684
1.29716
0.121515
1.07577
1.13061
1.23319
1.31025
-0.205586
0.833978
1.15154
0.337885
-0.926777
1.54676
1.07131
1.0112
1.17145
-0.727776
-1.82073
0.95576
0.939776
1.07552
-1.93763
-1.84642
1.10179
-0.925342
0.923226
0.00405353
1.55061
-0.924334
0.887048
0.826669
-0.705734
-0.922431
-1.20924
1.15996
-0.708044
-0.918404
0.788446
0.77263
-1.1852
1.18833
0.933894
-0.709799
-0.59905
1.08076
-2.08895
-0.920906
-1.01297
-0.696114
-0.929368
1.1069
1.12237
-2.01297
0.704472
1.12145
1.47005
0.353973
0.453877
0.183799
0.978697
-0.397642
-0.703856
-1.57292
-0.43899
-0.701677
1.11352
-0.701171
0.346813
-0.919614
0.706395
0.654
-0.698844
0.724629
-2.07727
0.579116
-0.696212
0.633397
-0.70514
0.46946
-0.918323
0.551697
-0.693838
0.911606
-1.57802
-0.694585
-0.701344
-0.911736
1.13248
0.160257
-0.72918
-0.924416
0.217306
0.258538
-0.696974
-0.916893
-0.771056
-0.0539556
-0.939016
0.0586829
-0.970899
-0.141602
-0.847356
-0.22744
1.01585
-0.23946
-1.76323
1.10454
0.0550469
-0.139432
0.534748
1.08232
-1.46334
-1.94003
-0.919851
-1.38427
0.993394
1.54787
-0.960143
-0.161068
0.0886153
-0.924479
-0.260979
-0.310426
1.09812
-0.70938
1.06537
-1.34595
1.61577
0.537899
1.52512
-0.717748
1.29182
-0.386083
1.1113
-0.994875
-0.917285
1.17383
1.10774
-1.73012
-0.919678
-0.698614
1.10438
-0.742931
1.10392
-1.05391
-0.97898
-0.942216
1.42882
1.16571
1.21156
1.14262
1.13137
-0.0452715
-0.556306
1.34643
-2.07439
-0.876302
1.54937
-0.716552
1.03536
1.05692
1.48917
1.53762
-0.729757
-1.39198
1.15109
0.302203
-0.403367
-0.654105
-1.01764
-2.14439
-0.716815
0.642047
-1.25247
1.30307
-1.29508
1.18644
1.26479
1.16773
-1.26963
-0.896299
-1.01227
1.20454
-0.894907
1.31537
-0.558772
-0.95916
1.37779
1.40874
-0.91331
0.254879
1.05698
-1.17222
-0.962087
0.752651
1.41267
1.33171
-0.904808
1.0058
0.989188
-0.916216
1.34262
0.444984
-0.714653
-1.13529
-0.140144
-0.129401
1.25473
-0.797309
0.42406
0.0677881
-0.041944
-0.704448
-0.905143
1.11265
-1.62611
1.15152
0.0612839
0.154684
0.782658
0.328001
-0.906426
-0.446925
-1.13531
-0.119554
0.0769257
-1.20896
1.078
-1.77231
-1.79369
1.14268
-1.10687
-0.731527
1.12995
-0.937498
1.11338
-0.0494413
-0.926232
-0.293167
0.884287
-0.788294
-1.55654
0.98575
-0.960119
1.18636
-0.52657
-0.946956
-0.905855
-0.919046
1.59441
-1.80501
1.22882
0.121616
1.07305
1.31089
0.813096
1.1334
1.30046
-0.0249759
-1.7611
1.0818
1.19427
1.46792
-0.931397
1.17154
0.819829
-0.950049
0.878243
1.30954
-0.41822
1.48189
0.295358
-0.660059
0.924932
-0.956657
-0.698114
1.05297
-0.309986
1.17232
1.152
1.08852
-0.687413
1.04268
1.40256
-0.944565
-0.19462
-1.79186
-1.02611
-0.947316
-0.919876
1.45465
0.836804
-0.720187
1.00226
-0.9599
-0.841057
1.37219
1.36623
-1.6042
-1.32744
-0.918748
-0.945713
1.0832
-0.727345
0.139034
-0.672912
-0.330631
1.18021
-0.957143
1.5262
1.16895
0.977301
1.14878
1.44244
-1.02198
-0.962628
1.12216
1.246
-0.656178
1.1203
-1.83383
-0.940796
-0.944995
1.22584
1.25533
-0.945119
-0.742032
0.633877
-0.0234127
-1.1079
1.10416
1.10483
-1.30412
1.14437
1.18643
-1.21866
-0.731966
-0.706283
-0.936927
-0.94695
1.41536
-0.527427
1.05897
-0.734356
1.41071
1.00213
1.01115
1.08064
-2.08504
-1.13503
-0.932927
0.675585
-0.723464
1.01083
0.365195
-0.469951
0.999561
1.09861
1.15691
1.1309
-0.0640655
1.15522
-0.0549045
0.493989
0.931371
-0.429589
-0.730245
-0.787217
-0.539588
1.12821
1.06065
1.12731
-1.6169
-0.759327
-0.929304
-0.636744
1.12671
1.42342
1.14011
-0.72699
-0.738846
-1.11215
-0.395628
-0.919461
-0.919681
-0.0635694
1.11696
-0.628058
-0.71192
0.0311116
-0.0367641
0.864862
-1.96545
-0.926569
-1.04812
1.07188
1.54642
0.0956262
1.21536
1.60924
0.804921
1.33678
-0.734649
0.0382699
1.49979
-0.923706
0.384733
-0.720224
-0.951103
-0.694921
-0.707127
1.08344
0.816866
1.33167
1.29394
0.0102467
0.865443
0.182263
0.0125976
-0.921454
1.22602
0.86652
1.13505
1.15168
-0.116019
-0.146732
1.14644
-1.21665
-0.9227
-0.70954
-0.704789
0.674078
-0.704995
1.07298
0.751726
-0.922767
1.33128
-0.72253
-0.180433
1.09673
-0.738828
-0.904798
-1.89941
0.741632
-0.714564
-1.01112
1.05466
1.14298
-0.105846
0.0933143
-2.0648
-0.919934
-0.682857
-1.27944
-0.156286
0.681667
-1.02758
-0.702801
1.40076
0.405416
0.50573
-0.700567
-0.955807
1.11764
1.13959
0.671824
0.614788
-0.697482
-0.914957
-0.742078
0.595862
0.520227
-0.694465
0.964625
0.289669
-0.691122
1.57657
-0.694697
-1.64993
-0.947148
-0.646924
0.930633
-0.71075
-0.719232
-0.92903
0.0697848
-0.746665
0.147382
-0.673354
-0.126133
1.31206
-0.802355
-0.118114
-0.955037
-0.0284704
1.47656
1.50001
1.36791
1.12389
1.34497
-0.554514
1.11096
-0.725753
1.13715
-0.920829
-0.921246
1.36306
-1.07771
0.556552
-1.41572
1.50852
0.0738605
1.4437
0.739787
0.900988
-0.716967
-0.718005
-0.917982
-0.902657
1.42629
1.32735
1.11002
0.715342
1.11235
0.956012
0.951671
-0.694649
-0.940882
0.395947
0.130334
0.926733
1.12777
0.0304185
-0.712658
-0.691236
-1.33215
-0.917819
-1.60483
1.44511
1.14608
1.12189
-0.0875984
-0.11141
1.14306
-1.03954
-0.920444
-2.19617
-0.941164
0.915311
-0.709377
-0.698826
-0.264208
1.12721
-1.6257
-0.94609
1.11248
0.690278
0.810627
1.11207
-0.919265
1.0016
1.29228
0.926316
-0.917493
1.10421
0.42799
0.595015
-0.894041
-0.706117
1.56885
0.310567
-1.00464
0.0739306
1.03751
1.09492
-0.900708
-1.28321
-0.112091
-0.675957
-0.85804
-0.723344
-0.0152349
1.10718
-0.896618
1.11092
1.38291
1.18679
1.11524
1.21724
1.27758
1.11552
-1.2682
-0.617798
-0.269106
-0.996135
-0.872764
-0.69784
1.27654
1.18246
-0.953653
1.06669
-0.669289
-0.0812438
-0.69617
-0.382515
0.616282
-1.17512
1.10528
1.03741
-1.1702
-0.350693
1.45422
-1.52569
-0.979469
-1.03868
-0.728562
-0.666466
1.15425
0.901753
1.1939
-1.11351
-0.886206
-0.895328
-0.226352
-0.954062
-1.47447
-1.13243
-1.90547
1.04139
-0.730881
1.55776
-0.93368
-0.552908
-0.953693
-0.697022
1.02987
-0.977731
-1.06639
-0.909429
-0.333494
1.3275
1.32289
-2.16716
-1.21474
0.951632
-0.937745
-0.862628
1.20653
-1.13319
-1.73919
-0.903555
0.879256
-0.408039
-0.953248
1.10816
0.137987
-0.775655
1.12174
-0.708422
-1.30522
-0.955044
-0.76375
-0.0483606
-0.951803
1.44766
-0.924159
0.215942
-0.921955
0.920894
-0.567948
-0.835918
0.779741
0.851298
1.16995
1.06841
1.30585
-0.707595
0.94324
0.630526
-1.03223
1.0565
-0.235791
-0.576256
-1.78443
1.28055
1.26733
-0.650453
-0.787
-1.08619
1.14493
-0.729764
0.174683
-1.197
-0.703584
1.4119
1.1428
-0.7174
-0.69273
-0.718379
-0.712544
1.02091
-0.740039
1.10902
0.364643
0.838568
0.963959
-0.679537
-0.800601
1.06929
-0.699747
-0.00745817
1.39495
-0.930428
-0.710101
0.94977
-1.02241
-0.707842
-0.16797
-0.91637
1.46637
-0.61092
0.185981
-0.719083
1.40432
-0.72097
-0.689071
0.775028
-1.14544
-0.920827
1.44464
0.804543
1.09979
-0.716242
1.36393
-0.262151
-0.823027
-0.723571
-0.72759
-0.724065
1.39604
0.708203
-0.942806
-0.722328
-0.94714
1.25346
-0.644603
1.37998
-0.921114
0.838864
-0.708394
0.506741
0.671724
0.637806
0.557871
0.249134
-0.667664
1.13757
-0.725652
-0.543189
-1.0745
0.340676
1.42172
-0.297214
-0.713714
-0.737243
-0.709947
0.402173
-0.931401
-0.707095
0.931466
0.245839
-0.713008
1.48858
-0.950018
-1.40885
1.4694
-0.710748
0.290052
-0.67007
-0.696437
-0.705834
1.46274
-0.688536
1.38422
-0.704629
-0.767543
1.30127
-0.22097
-0.69064
0.698385
-0.918891
0.158704
-0.402108
-0.707179
0.897751
-0.997223
-0.707004
-0.697891
-0.697506
-0.927396
0.936958
-0.0103176
-0.474581
-0.715186
1.41342
-0.83474
-0.70193
-0.683765
-0.119376
-0.820091
-0.683091
-0.714123
-0.0791048
1.37861
-0.726124
-0.917267
-1.02391
-0.737449
-0.0898306
-0.932758
1.5015
1.4362
0.549181
-0.851194
-0.924576
0.465619
-0.924634
1.51572
0.347283
1.16696
0.830446
1.38532
0.231541
-0.832436
-0.90219
0.0816775
-0.725822
0.0821041
-0.0632647
-0.704934
1.41043
-0.294729
0.358196
-0.437799
-0.917605
-0.874721
)
;

boundaryField
{
    frontback
    {
        type            empty;
    }
    Top
    {
        type            zeroGradient;
    }
    outlet
    {
        type            fixedValue;
        value           uniform 0;
    }
    bottom
    {
        type            zeroGradient;
    }
    Inlet
    {
        type            zeroGradient;
    }
    rectangle
    {
        type            zeroGradient;
    }
}


// ************************************************************************* //
