/*--------------------------------*- C++ -*----------------------------------*\
| =========                 |                                                 |
| \\      /  F ield         | OpenFOAM: The Open Source CFD Toolbox           |
|  \\    /   O peration     | Version:  2306                                  |
|   \\  /    A nd           | Website:  www.openfoam.com                      |
|    \\/     M anipulation  |                                                 |
\*---------------------------------------------------------------------------*/
FoamFile
{
    version     2.0;
    format      ascii;
    arch        "LSB;label=32;scalar=64";
    class       surfaceScalarField;
    location    "20.1";
    object      phi;
}
// * * * * * * * * * * * * * * * * * * * * * * * * * * * * * * * * * * * * * //

dimensions      [0 3 -1 0 0 0 0];

oriented        oriented;

internalField   nonuniform List<scalar> 
3181
(
-1.04938
0.411166
0.638219
-0.387426
0.365759
0.0216672
0.522938
-0.358551
-0.164387
0.122246
-0.201939
0.0796925
-0.0544258
0.0718156
-0.0173898
0.621713
0.955304
-1.57702
0.148575
-0.142232
-0.00634314
0.0700105
0.00172004
-0.0717306
0.590196
-0.749872
0.159676
-0.0749068
0.137296
-0.0623887
-0.0104252
-0.0510095
0.0614347
0.112053
0.0530264
-0.165079
-0.00900934
-0.0552663
0.0642757
-1.09781
0.151164
0.946643
-0.329154
0.695973
-0.36682
-1.12172
0.638422
0.483302
0.0841584
-0.931704
0.847545
-0.195474
0.132101
0.0633729
-1.05574
-0.378263
0.00412176
0.0448884
-0.0490102
0.0366997
-0.0857556
0.0490559
-0.0583134
0.0512393
0.00707407
1.0648
-1.03935
-0.0254509
0.0181115
0.0364218
-0.0545333
-0.955407
0.325813
0.629594
-0.108438
0.230684
0.307412
-0.244589
-0.0628232
0.0296793
0.0621925
-0.0918719
-0.410577
0.337599
0.072978
-0.0330062
-0.0151624
0.0149094
0.000253004
-0.0368911
-0.918516
0.0438628
-0.041346
-0.00251676
0.178508
1.52304
-1.70155
-0.0506014
0.0500663
0.000535119
0.180498
0.274226
-0.454724
1.73292
-1.55441
0.0715393
-0.0348396
1.52143
-0.804489
-0.716945
-0.510233
1.13195
-0.11473
0.10572
-0.0568893
-0.00142415
-0.406766
0.0776119
-0.13147
0.074581
-0.633547
0.129118
0.504428
-0.148894
0.0739871
-0.168126
0.172366
-0.00424022
-0.272007
-0.0762072
0.348214
0.257507
1.20829
-1.4658
0.0494952
0.132819
-0.182314
-0.0110407
-0.100044
0.106142
-0.00609873
0.519514
0.176459
-0.0954999
0.140227
-0.0447275
0.0865819
-0.0427191
-0.171625
0.197989
-0.0263637
0.163682
0.0546998
-0.218382
0.108951
-0.114866
0.00591501
1.21491
0.306527
-0.860404
-0.188981
0.000904862
-1.73937
1.73847
0.551308
0.22954
-0.780848
-0.44552
-0.203795
0.649315
-0.940843
0.430611
-0.269935
0.821243
-0.324705
-0.101628
0.426333
-0.207715
-0.202862
-0.190473
0.166414
0.0240585
0.132936
0.284318
-0.417254
-0.149805
0.740001
-0.0171961
0.0872066
-2.10715
2.10806
0.18758
0.119832
-0.179394
-0.111228
0.290622
-0.26808
0.354204
-0.0861241
-0.0810482
0.0891715
-0.00812328
-1.84965
-0.918958
0.00941344
0.909544
-0.0529696
0.00236822
-1.07165
0.784104
0.28755
0.383018
-0.257474
-0.125544
-0.799369
-0.141474
1.10423
-0.953063
-0.715455
1.14679
-0.200146
1.06734
0.167102
-0.173778
0.00667632
1.5915
-0.636193
0.990725
-0.990725
-0.00752507
-0.000290682
0.00781575
-0.21323
-0.0528842
0.266114
0.079659
-0.057076
-0.022583
-0.452039
0.835792
-0.383752
-0.0177419
-0.237163
0.254905
-1.08295
0.0435995
0.345531
0.0571813
-0.402712
0.135512
-0.858039
1.08758
0.0602852
0.07299
-0.133275
-0.0174546
-0.15417
-0.189883
-0.0656074
0.25549
-0.169679
-0.0202039
0.119604
-0.977642
0.329281
-0.78132
0.923284
-0.839126
-0.00965219
0.136382
-0.12673
0.0826007
0.0518286
-0.134429
-1.40753
-0.0887772
1.49631
-0.246153
0.410357
-0.164203
-1.02586
0.652235
0.373621
-0.467037
-0.604618
0.121492
-0.0719969
-0.152692
0.14714
0.00555199
-0.0773558
-0.0134196
0.0907753
-0.522101
-0.227771
-0.0940067
0.0415511
0.0524555
-1.14941
-0.245175
1.39458
1.66779
-0.459501
-0.0121367
0.0046116
0.0381642
0.149415
-0.19968
0.380178
0.00262075
0.155693
-0.158314
0.137801
0.0682491
-0.20605
0.239093
-0.141883
-0.0972098
-0.594943
-0.526781
-1.21046
0.0610518
-0.0494476
0.109733
-0.106152
0.184279
-0.0781273
0.0436195
0.0249294
0.123645
-0.0569302
0.0704632
-0.0135331
-0.0956276
-0.0217266
0.117354
0.0740706
-0.0740706
-0.185024
0.209953
0.213339
0.13544
0.105184
0.0928049
-1.26731
1.11751
-1.54339
0.107214
1.43617
0.0269382
-0.0225355
-0.00440267
-0.0266535
-0.0514782
0.0781316
0.541998
-0.0265584
-0.51544
-0.0364052
0.0376977
-0.00129258
-0.200389
0.0153646
0.161268
0.674523
-0.367635
0.528903
-0.179667
-1.22786
-0.0919886
0.0375628
0.486515
-0.305797
-0.180719
0.0986973
-0.0840946
-0.0146027
0.047688
-0.319695
0.0230883
-0.942046
0.0492083
-0.155361
-0.287833
-0.400912
0.0716018
1.3823
-0.930532
-0.451764
1.07864
0.303651
0.0660352
0.282179
0.0276349
-0.000696721
-0.0905768
0.169427
-0.0788501
-0.254175
-0.585899
0.840075
-0.357382
0.535756
0.95828
-1.33654
0.130165
0.0400341
-0.0582921
0.0182581
-1.86704
0.383646
1.48339
-0.251688
-1.61535
-0.30757
0.653102
-0.908616
-0.0176592
0.00410071
-0.266618
0.262517
1.43612
-1.55694
0.12082
-0.087746
-0.00424261
0.571559
-0.825735
0.0261087
-0.351593
0.325484
-0.296242
-0.117879
0.414121
0.170199
-1.00829
-0.0746564
-0.00654965
-0.0424605
-0.556577
0.352781
-0.246244
0.0187689
0.227475
-0.0155209
-0.0722251
0.022399
-0.022399
-0.119089
0.130603
-0.0115138
-0.280185
-1.2632
0.0768458
0.0291286
-0.105974
-0.14447
0.0351865
0.109284
-0.221495
0.0310222
1.42648
-0.405151
-1.02133
-0.192678
0.449175
-0.256497
0.00650695
-0.00607847
-0.00042848
-0.444558
-0.581297
-0.18636
-0.00460407
0.190964
-0.174122
0.307059
-0.101655
0.0999595
0.00169506
0.0750859
0.0157893
-0.0908752
-0.135717
0.160072
-0.0243554
-0.943546
1.10854
-0.164992
-0.218568
-0.0511106
0.269679
-0.693473
0.661429
0.0320438
-0.0022668
0.0386886
0.0261795
-0.0262411
6.1565e-05
-0.00365371
-0.0508796
1.03206
0.635732
0.174305
-0.887556
0.713251
0.0201268
1.98502
-2.00514
0.384887
0.531642
0.459084
0.0628716
0.203622
-0.0658209
-0.0714107
-0.028633
0.237738
0.156491
-0.0738905
0.735131
-0.409318
0.0605792
0.205535
0.0491566
-0.164489
0.115333
-0.780278
-0.142872
0.92315
-0.0310583
0.0310583
-0.0509982
-0.269421
0.543648
0.0133503
-0.231919
0.0515232
0.0805777
0.029294
-0.0787417
0.135245
-0.14567
-0.345752
0.32801
0.0444761
0.0570623
-0.101538
0.380835
-0.327809
0.980607
-0.653276
-0.327331
-0.206736
0.272771
0.18545
-0.491247
-0.201819
0.612985
0.165763
-0.0332468
0.0332468
-0.403249
0.316688
0.0865601
0.38447
0.0258863
-0.02726
0.032759
-0.00549899
-0.109324
-0.0479452
-0.0460615
-0.0492492
0.184494
-0.179802
0.241023
-0.0612207
0.128557
0.0279341
-0.391467
0.146879
0.189996
-0.0614391
-0.045837
-0.0558175
-0.073998
0.0680192
0.00597874
0.147363
-0.104616
-0.0427469
-0.0167005
0.395073
-0.378373
-0.123032
0.105836
0.104432
-0.108782
0.00434966
0.0238202
0.567105
0.413502
-0.0953579
-0.01313
0.108488
-0.0958186
-0.00931775
0.105136
-0.0911553
0.0981424
-0.720467
0.622324
-0.0378839
-1.52211
-0.484124
2.00624
0.439929
1.25033
-1.69026
0.0825877
-0.250298
0.108414
0.275803
0.252361
-0.528165
-0.207102
0.256259
0.139178
-0.886975
0.747797
0.0269008
-0.122719
-0.0168552
0.0103055
-0.990705
0.444312
0.546393
0.930532
-0.810928
-1.72318
1.6344
-1.43612
1.54334
0.0397504
-0.0844779
0.00824183
0.0179377
0.0132086
0.797252
-0.658074
0.122295
-0.073087
0.412947
0.733843
-0.0957124
-1.74253
1.76265
-0.661098
-0.606217
-0.24088
-0.392667
-0.0173115
-0.165903
0.213591
-0.577759
-0.374788
0.18211
0.771788
-0.229789
-0.911843
-0.811339
0.745864
0.171074
-0.144173
0.284972
0.037721
-0.037721
0.670689
0.149013
-0.819701
-0.225217
0.895906
0.467592
-1.01906
0.551463
0.170314
-0.0348741
0.00793533
0.00450674
-0.0124421
-1.73937
-0.983583
0.524082
1.04043
0.386055
-0.0343898
-0.133736
-0.232803
0.752317
-0.197083
-0.0491607
-0.00303997
-0.0780083
-0.0531317
0.10496
0.377024
-0.247906
-0.840766
-0.284781
-0.120995
-0.0366525
0.157648
-0.705727
1.23737
-0.156805
0.131523
0.0252816
0.0287467
-0.00111175
-0.108623
0.0531148
0.0555082
0.00816807
0.418165
0.0711767
0.0275206
0.012489
0.00717048
-0.0196595
-0.0167669
-0.169593
-0.725174
0.372055
0.353119
0.700167
-1.77595
1.07578
0.138301
-0.159619
0.0213176
-0.00730938
0.128802
0.147806
-1.13853
-0.109808
0.00118543
-0.102536
0.0305391
0.145102
-0.344782
-1.69326
0.683479
1.00978
0.0286608
0.0927223
0.0546404
-0.780278
-0.182893
-0.760654
0.12327
-0.0701557
0.0439393
-0.638242
-0.0552312
0.0609036
0.129093
0.66398
0.0433929
-0.460647
0.122484
0.348951
-0.291769
-0.117254
0.0216262
0.223247
0.838758
-1.06201
0.105078
-0.715045
0.609967
-0.949899
0.807027
-1.55828
0.168065
1.39022
-0.00966213
0.0104919
-0.000829763
0.167943
-0.464185
0.213489
-0.125519
-0.08797
0.0489229
-0.0582407
-0.0316012
-0.0893939
-0.00865938
0.0222445
-0.0258982
0.0207797
0.0775386
-0.0983182
0.907521
0.0012814
-0.00118365
-9.77541e-05
0.107981
-0.00214526
0.861668
0.044994
-0.0492366
-0.432155
-0.551429
0.155298
0.0150152
0.00776451
0.0849577
-1.39022
1.13853
0.21346
-0.198727
-0.014733
-0.251957
0.078179
0.119318
-0.112641
-0.0014342
0.0906057
-0.0346851
-1.63315
-0.0601088
-0.0428387
0.0636183
0.739277
-0.255975
-0.199587
0.0551167
0.341745
0.0111329
-0.038393
-0.00758589
0.0816564
0.145446
0.208758
0.156636
-0.331255
0.174619
0.112607
0.561916
-0.0399777
-0.108916
0.938237
-0.267126
-0.671111
-1.55828
-0.498315
1.19848
1.73292
-0.0720458
0.32374
-0.251694
0.370364
-0.0700594
-0.300305
0.0547966
-0.854166
-0.0727053
0.0735237
-0.000818485
0.0156145
-0.109223
0.0936081
0.508491
-0.940555
0.432065
0.0402363
0.658531
-0.698767
-0.0440502
-0.108641
-0.00794713
-0.0874108
0.0598827
-0.463131
-0.0110712
0.00140909
0.0911762
0.00450088
-0.0956771
0.0568392
-0.147416
0.00254117
0.0262055
0.0374672
0.0989146
-0.0228088
-0.00343229
0.195962
-0.433124
-0.331772
1.58211
0.0232114
0.00784695
-0.990619
-0.017674
0.137826
-0.0724609
-0.0447928
-0.183229
0.209337
0.728832
-0.904724
0.175891
0.106362
0.0489366
-0.939021
-0.0140426
-0.013816
-0.64848
0.746622
-0.0178683
0.183631
-0.139073
-0.879982
0.183188
-0.44345
0.260262
0.0123223
0.143371
0.00185964
-0.00205602
0.000196378
-0.0421296
-0.0935874
-0.0210158
-0.133154
0.746011
-0.640933
-0.130667
0.0791522
-0.0999658
0.311947
-0.155312
0.13461
1.23958
-0.379136
-0.860443
-0.120635
0.139404
-0.505395
-0.219779
-0.557694
0.612171
-0.595432
-0.0167382
-0.0936725
-0.0369941
-1.74253
0.543993
-0.543993
-1.90381
1.90381
0.797252
0.066457
-0.252006
0.185549
-0.897735
-0.0928839
0.632207
-0.366688
-0.265519
0.163268
-0.241396
-0.010287
-0.00184969
-0.895759
-0.0818831
-0.933389
0.212922
0.0408121
-0.0774647
0.698274
-0.109452
-0.588821
1.28575
0.447176
-0.00167472
0.00353436
-0.964472
0.252489
-0.905765
-0.0810828
-0.599002
0.680085
-0.0566046
-0.863488
-0.693456
0.218138
-0.813081
-0.92315
1.37709
-0.453939
-0.136444
0.278333
-0.141889
-0.0253774
0.723651
-0.105773
-1.02918
1.02918
-0.91347
0.517793
0.395676
0.000424651
0.00085675
0.0853865
-0.439652
0.82826
-0.044156
-0.0847662
-0.034681
0.11396
0.0041456
0.00236135
1.94712
-1.77906
-0.338628
0.413714
-0.635814
1.01112
-0.37531
-0.0554167
-0.0543918
0.124121
-0.0558722
0.347909
0.00613979
-0.0614061
0.353775
0.0412989
0.043058
-0.247864
0.204806
0.138602
0.0337642
0.0974679
0.181359
1.7949
0.313164
0.207065
0.562753
-0.769818
-1.19928
1.58292
0.237655
-0.163074
0.0760022
-0.766993
0.690991
0.273522
0.130267
-0.476019
-0.0742636
0.133734
-0.0594708
0.131797
-0.206061
-0.449983
-0.106594
-0.0719171
0.0750442
-0.00312711
-0.000548327
-0.0222605
-0.0081637
-0.0345554
0.658074
-0.609967
-0.0481072
-0.290347
0.303697
0.878995
0.63011
-0.259746
-0.0283013
0.0574298
-0.437251
0.0856579
0.173136
-0.580476
0.407341
-0.00209758
4.15645e-05
0.240626
0.019411
-0.260037
0.00622746
-0.0123505
0.00612304
-0.0248098
0.0170476
0.0077622
-1.39645
0.760259
-0.122303
-1.39981
-0.197622
-0.810928
1.54334
1.6344
-0.192624
-0.171868
0.120758
-0.0635304
0.0692911
-0.00576065
-0.2593
0.990886
-0.731587
0.550721
0.0814865
0.000497499
-0.00259508
0.121288
-0.526979
0.034681
-0.0474995
0.00466085
-0.47921
0.041959
-0.0447292
0.0740232
-0.220684
0.601519
1.07864
-0.190415
-0.0609998
0.00133303
0.0596668
2.02612
-0.391711
-0.0608118
-0.0540546
-0.972223
0.161295
0.363436
-0.193238
-0.47858
-0.131175
0.609755
0.822828
-0.368022
-0.454806
0.0338193
0.695013
-1.76265
0.0232804
-0.00633474
-0.0246625
0.0309972
0.158649
1.82637
-0.166413
0.174348
0.219479
2.18538
-0.642037
-0.677774
0.0536254
0.624148
0.38368
0.00719672
-0.348074
0.538985
0.811354
0.38283
0.0758494
-0.021209
-0.783548
0.216363
0.567185
1.19908
0.0472455
-0.0347565
-0.0499309
-0.360222
0.105397
-0.3125
0.767528
0.472051
-0.114426
0.0207534
0.308668
-0.380713
-0.0209574
0.0186906
0.110141
-0.146323
0.0361815
-0.298591
0.312855
-0.014264
0.39723
-0.776367
-1.31218
0.0504474
1.26173
0.106454
-0.202871
0.0964171
0.271718
0.0402289
-0.490668
0.307775
-0.657608
0.657608
1.73847
1.28575
-0.715045
0.330097
0.481257
-0.290852
0.377412
0.92037
-0.36965
0.00744979
-0.875186
0.867736
0.131932
0.00536382
0.025549
-0.584893
0.0942247
0.0671377
-0.166402
-0.121347
0.287749
0.180184
-0.512008
0.345606
-1.08467
-0.287669
-0.650158
-0.0504661
-0.00121011
2.64624e-05
-0.225857
0.0830839
0.0745637
0.0339133
-0.145451
0.111538
-0.509138
-0.404332
-0.00563058
0.0678231
-0.724019
0.524331
0.199688
-0.565802
0.385083
-0.0788431
0.135905
0.234126
-0.00217444
-0.0146807
-0.769556
0.364405
0.0343393
0.0700929
-0.154386
0.0544205
0.204279
0.00921057
-0.42823
1.6312
0.442849
-0.0221391
0.866774
-0.790771
0.787678
-0.445933
-0.613204
0.173553
0.15384
-0.794226
0.767582
0.0266445
1.17408
-0.406554
-0.205936
-0.132693
-0.0748629
0.0177869
0.95282
-0.840163
-0.112657
-0.182257
0.108367
0.0275342
0.119605
0.878164
0.354902
-0.518739
0.163837
-0.324722
-0.0500668
-0.0138415
-0.710178
0.108046
1.38826
1.28186
0.00388264
0.168652
0.551918
-0.72057
0.126757
0.0502702
-0.00579287
0.00361843
-0.51337
-0.0998348
0.108509
-0.12403
-0.186461
0.137212
-0.532463
0.275966
-0.99221
-0.511306
-0.289566
-0.556217
1.50538
-0.0692086
-0.286246
-0.458447
-0.0207629
0.221068
0.299892
0.0538821
1.33078
-0.822294
-0.189305
0.127866
-0.157003
-0.465638
0.622641
-0.0104468
0.00411209
0.0489499
-0.0596253
-0.238966
-0.119319
0.697048
-0.418966
-0.278083
-0.000808188
0.133957
-0.0965128
-0.0374437
0.242054
0.0578383
-0.196022
-1.49424
-0.0960155
0.139955
0.762168
-0.407266
0.0261717
0.0789647
-0.0217605
0.0190258
0.00273463
0.0116326
-0.0341681
-0.241675
0.0771857
-0.0535555
-0.555085
0.41864
0.0192745
0.100411
0.00604227
-0.695352
1.70224
-1.23018
0.0158502
-0.192368
0.176518
-0.140211
-0.536505
0.676715
0.0762134
-0.714455
-1.07524
-0.236937
-0.0585416
-0.000192331
0.058734
-0.243084
-0.612171
-0.168107
-0.141534
-0.783548
-0.230476
0.164655
-0.27068
-1.14238
-0.373748
0.402922
-0.0291743
0.263124
0.114172
0.461557
0.210114
-0.67167
0.105072
0.0660022
0.836459
0.430252
-1.26671
-0.220935
0.44027
1.14265
-0.241195
0.179975
-0.654296
1.09457
-0.178916
0.113309
-0.0263095
0.0395181
-0.01882
1.1852
-1.20734
0.734464
0.0883643
-1.46841
-0.164739
0.245996
0.674374
0.909354
0.0288831
-0.0185823
-1.28186
-0.650158
-0.713431
0.722844
-0.0539751
-0.911843
0.658531
0.605801
-0.933047
0.619895
-0.00544888
-0.788777
-0.313183
0.635733
-0.77161
0.135877
0.0804946
0.0534619
-0.241785
-0.228259
1.26094
-1.03269
-0.000413029
-0.000797078
-0.263189
0.214028
0.711947
0.222302
-0.206937
-0.179454
0.67339
-0.918565
0.0659073
0.119642
0.256723
0.912818
-1.16954
-0.981061
1.19742
0.708358
-0.184027
0.0685884
0.338926
-0.567185
-0.0074549
0.216499
-0.0526155
0.105242
0.0325839
0.00347354
-0.0269328
0.0234593
-1.02571
-0.0362972
0.316165
-0.80757
-0.755292
1.69734
-0.942047
0.373384
0.63774
-0.0492556
0.0526676
-0.00341192
-0.108767
0.782157
-0.717985
0.733966
0.571255
-1.32655
0.314309
-0.09781
-0.584666
-0.407544
-1.12472
1.38144
-0.0581533
-0.880635
-1.82862
-0.176519
0.338926
0.0498687
-0.857439
0.832022
-0.646444
-0.185578
-0.981883
0.397216
0.00668677
0.111713
-0.000721455
-0.110991
-0.971312
0.563769
-0.215462
0.910908
-0.92495
0.191706
-0.208473
-0.0954657
0.240568
1.11251
0.442496
-0.111714
-1.43654
0.576097
1.13868
-0.755849
-0.552526
-0.518438
1.07096
0.447474
0.0164138
-0.011907
-0.735064
0.698767
0.0455598
-0.154327
-0.459084
0.162877
0.296207
1.0632
0.634141
0.777905
-0.810911
-0.492822
-0.449224
-0.471634
-0.499679
0.803517
-0.803517
0.685196
-0.685196
-0.735064
-0.0214027
0.0214027
-0.162877
-0.722934
-0.374176
-0.517154
-0.000116181
0.000116182
0.0455598
-0.154327
0.777905
0.767311
-0.767311
0.810911
0.759436
-0.759436
0.507178
0.528366
0.481562
0.0454436
-0.500321
-0.550776
1.07914
-0.678271
-1.63787
0.51315
0.293105
0.415254
-0.184599
-0.0118463
0.0568403
-0.886407
0.095579
0.790828
-0.123841
0.10653
-0.995878
0.58656
0.926344
-0.596247
-0.124564
0.00608922
-0.00760808
-0.809583
-0.0779729
-0.546393
-0.00382712
0.0141327
0.484383
-0.144491
0.0743357
0.17696
0.00120783
-0.0101436
0.00893576
-0.812433
0.0672564
0.745176
0.767838
0.344668
-0.532183
0.413143
0.11904
0.917635
-0.742999
-0.174636
0.0820867
0.298092
-0.013805
-0.0581121
-0.0583784
-0.0143269
0.801413
-1.50714
-0.846602
0.097393
-0.741849
0.795211
-0.0533618
0.121636
-0.89937
0.777734
-0.802426
0.904131
-0.101705
-0.0659868
0.0776194
0.0203885
-0.287006
0.32966
1.05178
-0.0950935
-0.791313
0.915083
-0.0910402
-0.824043
0.0701942
-0.125611
1.06094
0.822542
-1.24736
0.463543
-0.382056
0.101422
-0.892735
1.55441
0.349399
-0.792151
0.00337337
1.01727
-0.895635
1.22556
0.893154
-0.713667
-0.179486
-0.879917
-0.115961
-0.41255
0.0341771
-0.447526
0.623417
-0.784986
0.784986
-0.607295
-0.0863078
-0.864056
0.121057
-0.941391
0.860308
0.0739268
-0.199446
-0.0572738
0.0592613
0.0112019
0.187833
0.829437
0.817823
0.771679
0.138996
-0.910674
-0.495621
0.910875
-0.781492
-0.106033
0.887525
0.170671
-0.888655
-0.676222
0.88738
-0.785958
-0.107127
0.458903
-0.0225976
-0.436305
-0.0218871
1.3785
-1.35662
0.280004
-0.454211
0.174208
-0.888619
-0.829818
0.0879688
0.523685
0.263994
-1.97508
1.16331
-0.574796
0.574796
-0.846661
-0.58988
-0.106912
0.201136
-0.993643
1.04409
0.781347
-0.203499
1.24935
-0.489092
0.932933
-1.07147
0.138542
-0.124618
-1.65133
0.143829
0.397532
-0.489366
-0.271288
0.10593
0.304602
-0.222516
0.780986
-0.882691
0.508983
0.401892
-0.150516
0.737076
0.579635
-0.579635
-0.0679387
0.0668269
0.110109
-0.0761957
1.22232
0.156181
0.192308
-0.000421118
0.00359828
-0.00317716
-0.668159
0.694007
-0.0258474
0.263264
-0.976931
0.107633
-0.893591
-1.05478
1.38577
-0.330997
0.188326
0.876926
-1.20937
1.47264
-0.754596
0.602969
-0.6582
-0.659901
0.154506
-0.0439987
0.0268561
0.111315
-0.326037
0.282038
0.00483884
-0.363514
0.0691645
0.726046
0.693654
-0.0906851
0.0762509
0.785417
-0.0327226
0.0953172
-0.0625947
-0.61545
0.531633
0.600924
-0.955689
0.73625
0.219439
-0.685061
-0.12802
1.08905
-0.170382
-0.292749
-0.0389899
0.485916
0.514084
-0.770512
-0.112178
-0.409011
-0.341841
-0.410778
-0.302732
0.401437
0.598563
-0.128526
0.12638
-0.861553
-0.0679338
-0.590266
-0.150875
-0.248783
0.399659
-0.0309372
-0.00374796
0.112288
0.0722057
-0.127868
-0.113806
0.760965
-0.642618
0.718869
0.268309
-0.594346
-0.235587
0.0642284
0.171358
-0.745338
-0.190967
0.936305
-0.241125
0.230194
-0.024659
-0.0744654
0.00224036
0.0113883
0.706444
-0.131648
0.123152
0.110974
-0.735787
0.0676274
1.0564
-0.0814757
-0.73676
0.409429
-0.28823
-0.287752
1.02159
-0.00673311
0.259675
-0.0401967
-0.00677519
-0.0452775
-0.103361
0.0114026
1.045
0.375369
-0.464031
0.0886625
0.848934
-0.0239944
0.00152049
0.0224739
0.128138
-0.010344
-0.000727206
0.215433
-0.105292
0.0871915
-1.08083
0.792259
-0.416891
0.00837304
0.284593
-0.399803
-0.954264
1.25046
-0.296197
-0.779584
0.836688
-0.0571038
0.520971
0.157286
-0.336202
-0.0704457
1.23373
-0.457149
-0.0750342
0.276257
0.454464
0.191662
-0.646126
0.408282
0.0407071
0.6533
-0.573781
0.563759
0.010022
1.3845
-1.16343
-0.0248112
0.0314216
-0.00661034
0.698419
-0.00899278
-0.0825797
0.0195891
1.34522
0.758588
-0.237617
0.0638673
-0.104236
-0.0986347
0.0944834
0.0441083
-0.138592
0.0106578
-0.00718427
1.11755
-0.687299
0.179636
0.221201
-0.0255652
-0.0903064
0.223625
0.0966593
0.00589867
0.0826077
0.767583
0.262039
-0.221266
-0.0407725
0.332916
0.306243
-0.639158
0.645721
0.117337
-0.0581548
0.000568489
0.0575863
-0.636021
0.0450523
-1.11653
-0.00387462
0.749739
0.71809
0.177159
0.61385
-0.855635
0.816391
0.156142
-0.0215324
-0.883036
0.0907509
-0.2722
-0.12291
-0.170197
0.693228
0.0743548
0.0134735
0.345087
-0.187801
-0.331789
0.162451
0.0261005
-0.111856
0.422485
-0.0573687
0.593596
-0.0709822
0.162077
0.0343556
0.29856
-0.151349
-0.087068
-0.047504
-0.109599
0.015843
-0.00068309
-0.0151599
-1.54041
0.37698
-0.00974038
0.863344
-0.227036
-0.617031
0.640859
-0.0238278
0.432094
0.760856
0.493155
-0.321797
0.0792937
-0.174759
0.632905
0.12795
0.557959
0.679409
-0.265589
0.729131
0.211965
0.833031
-0.600102
0.349232
0.25087
0.0762643
-0.070719
0.0408522
0.064119
-0.0473471
1.1457
0.736757
0.0796346
0.620906
0.219169
-0.872262
-0.0809385
-0.674949
0.678323
-0.0243202
-0.581494
0.430619
0.872633
0.673612
0.144967
0.0127965
-0.159907
-0.316113
1.09791
0.604324
0.394905
0.0163165
0.87109
-0.0380589
0.701459
0.693122
-0.077912
0.549294
-0.738626
0.926924
-0.188297
-0.412233
-0.187869
-0.0394139
-0.200554
-0.191434
0.768084
0.0100278
-0.00285729
0.627922
0.171944
0.237485
0.605679
-0.132074
0.236505
0.745358
0.245298
-0.990656
0.277046
-0.92349
0.221772
-1.45196
-0.178462
0.768824
-0.590362
-0.668707
-0.0971591
0.0226936
-0.0551559
-1.19256
0.0207632
-0.0425236
0.696026
0.0530667
-0.29162
0.238553
-0.0384546
-0.577759
0.14652
0.113155
-1.48123
-0.00279153
0.00399936
0.157288
-0.0539585
-0.592327
0.0185462
0.568086
0.304548
1.13038
0.875859
-0.245483
-0.385072
0.630554
0.150417
-0.617939
0.617939
-0.224173
-0.919672
1.14385
0.0303232
-0.150958
0.683874
-0.115788
-0.220196
-0.463374
0.170625
0.669914
0.744578
-0.0519903
0.175746
-0.104144
-0.463694
0.484053
0.0797053
0.0585678
0.0129715
-1.64745
0.0337884
-0.14396
0.694005
0.305995
0.0337884
0.694005
0.044111
-0.137172
0.044111
-0.696167
0.696167
0.303833
-0.0141306
0.188726
-0.0765401
0.203099
0.0939275
-0.471524
0.641274
-0.0355952
0.657715
-0.505412
-0.152304
-0.0566617
0.0557241
0.000937611
-0.0105036
0.0100825
-0.0639778
0.0185755
-0.0742971
-0.435148
-0.353179
0.127322
0.0439194
0.82923
-0.277313
-0.456836
0.436074
-0.000727316
-0.141374
-0.0089411
0.682765
0.0669738
0.563919
-0.0184667
-0.00119273
0.0131654
0.0855013
0.561441
-0.475899
-0.0855419
2.12736
0.550589
-0.179846
0.897068
0.0113476
-0.0628257
0.106545
0.217421
0.128756
1.12737
-0.382009
0.0137549
-0.064221
0.677234
-0.302756
0.0217023
-0.0217023
0.020544
-0.020544
-0.0165694
0.0165694
0.0232114
0.365711
0.458993
-0.0295464
-0.716792
0.487003
0.187198
0.0282356
-0.0832141
-0.483809
0.740732
0.112262
-0.797323
-1.029
0.14902
0.0903016
0.0191381
-0.00209054
-0.0172427
0.0172427
0.150853
-0.0170503
0.0170503
0.701417
0.0931663
-0.0131901
-0.00527665
0.00657172
-0.0675715
-0.0222065
0.0222065
-0.00984944
0.00984944
-0.0224193
0.0224193
-0.0132066
0.0132066
0.115583
-0.295341
-0.0818276
0.219684
-0.0123992
0.0123992
-0.373572
0.510777
-0.137205
0.499755
-0.221422
-0.432227
-0.0246094
0.560611
-0.156107
0.0765012
0.564358
0.566567
-0.00621395
0.00621395
0.227717
0.0249654
-0.0249654
-0.0112545
0.0112545
0.759266
-1.14832
0.0362503
-0.111644
0.131055
0.00288437
-0.00288437
0.0123866
-0.0123866
0.0184092
-0.0184092
0.0229629
-0.0229629
-0.0235939
0.0235939
0.0351806
-0.0351806
0.485577
-0.0318827
0.0318827
-0.00215717
0.00215717
0.0241698
-0.0241698
-0.00499184
0.00499184
0.00750653
-0.00750653
-0.0530508
-0.0257839
0.0257839
0.39327
0.0219958
-0.0395303
0.0395303
0.00493028
-0.00493028
0.017946
-0.017946
0.0335778
-0.0335778
0.025409
-0.025409
0.00356746
-0.00356746
-0.00198837
0.00198837
-0.571851
-0.235657
-0.00836257
0.00836257
-0.00132741
0.00132741
-0.0382125
0.0382125
-0.0276521
0.0276521
0.000413897
-0.000413897
-0.41071
0.656707
0.25196
-0.0321137
0.0321137
-0.0383921
-0.0138801
0.0138801
-0.000641436
0.000641436
0.0369363
-0.0369363
-0.240015
0.218483
0.00292516
-0.00292516
-0.0227132
0.0227132
-0.501224
0.0442671
0.101243
-0.0310213
0.0310213
-0.446152
0.0337412
0.0189264
-0.0190302
-1.44938
-0.0367955
0.0367955
-0.198954
0.141585
-0.0403063
-0.000212955
0.000212955
0.00137937
0.0476765
0.26292
-0.323539
-0.280058
0.603597
0.194664
-0.00393359
0.00393359
-0.168386
0.442184
-0.273799
0.770543
-0.397608
-0.372935
-0.460057
-0.658992
0.161615
0.274459
-0.19119
-0.424259
-0.57249
0.00968073
0.190067
-1.17664
0.0158831
-0.0158831
2.07703e-05
-2.07703e-05
0.0309057
-0.0309057
0.0258889
-0.0258889
2.48777e-05
-2.48777e-05
-2.07931e-05
2.07931e-05
-0.0494891
-0.207985
0.175271
-0.299836
4.89265e-05
-4.89265e-05
-0.0444644
0.0444644
-0.0403976
0.0403976
0.203371
-0.0126595
-0.190712
0.00176718
0.316112
-0.543147
-0.000198363
0.000198363
-0.0163718
0.0163718
-0.0955433
0.182231
-0.0206162
-0.000217175
0.000217175
0.102025
0.0134853
0.996548
-0.48416
-0.0815424
0.565703
-0.628203
0.045737
-0.493263
-0.0381213
0.0381213
-0.680573
0.276276
0.0496644
-0.0496644
-0.647674
0.382155
0.263625
0.122676
3.37239e-05
-3.37239e-05
-0.828791
7.26108e-06
-7.26105e-06
0.313541
0.41011
0.0449773
-0.0536711
0.0536711
-0.000574376
0.000574376
-0.0424382
0.0424382
-0.0531252
0.0531252
0.000105013
-0.000105013
-0.0586772
0.0586772
-0.000111819
0.000111819
-0.0457586
0.0457586
-0.00424015
-0.0445465
0.0445465
0.00232297
-0.00232297
0.0482865
-0.0482865
-0.000878378
0.000878378
0.0470978
-0.0470978
-0.113258
-0.00277894
0.00277894
-0.00461513
0.00461513
-0.0536969
0.0816564
-0.0107382
0.0107382
0.00509079
-0.00509079
-0.059507
0.059507
0.298066
-0.0185004
0.0185004
-0.0560912
0.0560912
-0.00748359
0.00748359
-0.0674102
0.0674102
-0.0131635
0.0131635
-0.0807017
0.0807017
-0.0217472
0.0217472
-0.0922728
0.0922728
-0.692096
0.360117
-0.530259
0.506431
-0.863488
0.124058
-0.563783
0.393586
-0.0733152
0.072507
0.00347321
-0.00347321
0.219694
-0.721147
0.0433301
-0.0303586
-1.18574
1.63291
1.21469
0.250972
-0.0447867
-0.0150151
-0.393378
-0.579704
-0.0559144
0.390419
-1.19785
-0.0200525
0.0200525
-0.758237
0.0199634
-0.0199634
-0.00127937
0.00127937
0.318421
-0.403262
-0.00203229
0.00203229
0.0188373
0.0144095
0.596159
0.283934
-0.00898309
-0.0102931
-0.00828916
-0.0960177
0.493182
-0.397165
0.164874
-0.0210451
0.0096153
0.919464
-0.012401
0.0537729
-0.406671
0.440848
-0.488213
-1.01768
-0.210181
-0.0710914
0.0179598
-0.213612
-0.2406
0.0493981
-0.00416938
-0.0109956
0.785063
-0.552259
-0.0373998
0.0635003
-0.0358986
0.080313
0.108413
0.424208
0.237221
-0.162854
0.208865
0.0209981
-0.00520882
-1.30408
0.0182315
0.0164219
-0.308041
-0.0187946
-1.47978
-0.0710882
0.26264
-0.35006
0.391359
0.278385
-0.834602
0.0502472
-0.0276088
-0.0980022
-0.346338
0.465378
-0.0829807
-0.0174725
0.100453
-0.0272969
0.0272969
0.172084
-0.43183
-0.0787791
0.113966
-0.0790071
0.0546869
-0.0646251
-0.00632995
0.0709551
-0.0326215
-0.153076
0.0991352
-0.083475
-0.288754
-0.358637
0.647391
0.0146354
0.0588884
0.1518
-0.0286486
-0.104823
0.0671698
-0.155746
0.309586
-0.00362879
0.0261027
-0.0270419
0.178842
0.0036671
0.25885
0.000826688
-0.000826688
-0.318463
1.01992
0.0886949
-0.169633
-0.0506905
-0.00591413
0.823008
0.64963
0.00642079
-0.0288197
-0.53271
0.00245122
0.093519
0.090788
-0.68022
0.31057
-0.0548545
0.382348
-0.671102
0.225078
0.511172
-0.0903346
0.0903346
-0.000721454
-1.22054
0.547189
0.67335
-0.210702
0.155546
0.246859
-0.228573
-0.547794
-0.128272
-0.0293221
0.037564
0.92948
0.225012
-0.0800448
-0.0691169
-0.615589
-0.710958
-0.0777301
-0.25882
0.797805
0.578833
-0.262721
-0.249501
0.534094
-0.0732016
0.396942
-0.267182
0.101559
-0.466053
0.328848
0.120508
-0.120508
0.110589
-0.116392
0.00580261
0.00596871
-0.000204508
0.0190258
-0.365267
-0.270754
0.228882
-0.186476
-0.0424053
0.543896
-1.07547
0.266721
-0.818149
0.694966
-0.121021
-0.178815
-0.0401281
-0.0791907
-0.485821
0.0506729
-0.286076
0.0038438
-0.0187946
0.378529
-0.00523994
0.00137662
0.000807352
0.0141867
-0.0112364
-0.0029503
-0.104605
-0.018052
-0.167058
0.18511
-0.127387
-0.338666
0.0188373
0.345924
0.0026893
-0.372598
0.0830328
0.00254614
0.107126
-0.136673
-0.0119714
0.0119714
-0.00101088
0.00253716
-0.00928414
0.00114471
-0.068163
0.000756332
-0.0011746
0.254741
-0.0454042
-0.000772095
0.000772095
0.114724
0.513789
0.00148687
-0.286173
0.49065
1.12883
-0.473725
0.336416
-0.43754
-0.225893
0.147114
0.230713
-0.230619
-0.00995105
0.0147275
-0.00333924
-0.0069261
-0.1787
-0.374175
0.861178
0.362715
-0.412204
0.236116
-0.00160282
0.171381
0.0169444
0.00149349
0.000692749
0.0140348
0.151673
0.0013178
-0.000249656
0.720585
-0.653415
-0.245276
0.106446
0.941627
0.000685972
0.000936786
-0.0403063
-0.00561222
0.817917
-0.431107
0.510813
-0.485802
0.904557
-0.439904
0.578531
-0.184945
0.698119
0.00105826
0.00324684
0.0158913
-0.113409
0.138709
-0.241587
0.00951711
0.00217804
0.0643718
-0.0497921
-0.0145797
0.00100843
0.0347339
0.0254929
-0.0602268
-0.0929953
0.00340056
0.000197719
0.00155087
0.475051
-0.428656
-0.00157417
0.000215536
1.17898
-0.631794
0.386484
-0.00588981
0.000233729
0.197942
-0.0183062
-0.0411443
-0.117304
-0.0173179
-0.00360207
0.119481
0.0447011
-0.00173888
0.415677
0.000709
-0.00287471
0.00287471
0.00230063
-0.0125938
7.38047e-05
-0.321545
-0.00370304
0.0722418
-0.107349
0.0442272
0.0551911
-0.0654311
0.000149437
0.00183619
0.468691
8.84814e-06
-0.00350764
-0.0359062
-0.00204056
0.000412791
0.0372158
0.155092
-0.710568
0.48594
-0.860115
-0.0583689
-0.000357201
-0.487486
0.0530367
0.0528937
0.602358
-0.0150039
0.0307221
-0.0040067
-0.00137789
-0.552622
-0.00332043
-0.000216831
-0.038818
0.920875
-0.512593
-0.00252791
-0.00076656
-0.00583588
-0.00190056
0.0715861
-0.0220215
0.0220215
-0.0290046
0.0315418
-0.0023928
-0.00790324
0.038653
-0.0372764
-0.163167
0.0924477
-0.00567994
-0.0132915
0.042191
-0.0164045
0.0618151
-0.0438554
-0.624236
0.570875
0.018996
-0.00161759
0.307816
-0.145739
-0.0702259
-0.68617
-0.0760267
-0.119168
-0.0939122