/*--------------------------------*- C++ -*----------------------------------*\
| =========                 |                                                 |
| \\      /  F ield         | OpenFOAM: The Open Source CFD Toolbox           |
|  \\    /   O peration     | Version:  2306                                  |
|   \\  /    A nd           | Website:  www.openfoam.com                      |
|    \\/     M anipulation  |                                                 |
\*---------------------------------------------------------------------------*/
FoamFile
{
    version     2.0;
    format      ascii;
    arch        "LSB;label=32;scalar=64";
    class       volScalarField;
    location    "1";
    object      p;
}
// * * * * * * * * * * * * * * * * * * * * * * * * * * * * * * * * * * * * * //

dimensions      [0 2 -2 0 0 0 0];

internalField   nonuniform List<scalar> 
2186
(
0.595124
-0.815051
-0.30631
0.979289
0.165765
0.0310837
0.551521
0.0246072
-0.0492235
1.23732
0.94562
-1.91019
0.0868235
1.07244
-0.862252
1.01147
1.098
0.223834
-0.00508801
-1.4979
1.32536
-2.54179
1.06823
-2.97839
1.0109
0.952782
1.16328
0.802574
0.45588
1.06031
-2.33452
1.04544
-0.465401
0.11717
-1.50577
-0.162359
0.115342
1.31295
-0.0313944
0.022271
0.0996273
-2.08087
-1.34736
-1.42093
0.774275
1.21903
0.1289
0.363439
0.119835
0.096583
-1.86602
0.77565
-0.889936
1.24556
-0.6452
0.857817
-1.64879
0.884449
-0.0050278
0.684089
0.0963099
0.541079
0.443968
0.0107789
0.446226
0.292924
0.535758
1.22394
1.11023
-0.0229755
0.0040342
0.0779866
1.18734
0.912215
1.10764
1.07314
0.120101
1.08098
-1.04306
-0.235268
0.130441
0.0164699
1.0627
0.501941
1.0232
1.03549
1.21184
0.0436073
0.0541848
-2.63751
0.858131
-0.207335
0.916923
1.07962
1.0801
0.223663
-0.482622
0.47942
0.1302
0.903676
0.152578
0.150277
0.536853
1.06633
1.11099
-0.145891
1.1266
0.0577011
0.837642
0.121529
-0.392713
0.0470869
0.39094
1.23893
-0.117617
0.243314
0.0530282
0.114359
-2.77606
1.18846
-0.376002
0.115812
0.732495
0.216693
1.04094
0.0521954
0.102954
1.06311
0.224787
0.529105
1.31172
1.15938
-0.0151433
0.517923
0.122636
0.0822655
0.825587
-0.0393721
0.0356022
-0.425912
0.667895
-0.377837
-0.0202929
0.577529
0.927228
1.00132
-0.0218925
0.183712
0.504254
-1.22411
-0.0245804
0.447239
1.09656
1.10242
0.958537
0.369442
1.2168
0.330954
0.242483
0.246849
-0.517548
0.167397
0.984378
0.903929
0.010191
-0.0107306
-2.23686
-2.027
0.0815726
0.091746
0.200979
0.9071
1.11069
1.02436
0.232545
0.00462574
0.218128
0.988252
0.212497
0.742996
-1.71351
1.0678
-0.832807
0.412995
0.340978
0.238859
0.263396
1.04462
-0.0238971
0.156059
0.292505
1.18927
0.129813
0.876103
-0.701671
0.125623
-0.298944
1.10945
0.97615
-2.31093
0.0657001
0.133487
-0.199174
1.0357
-2.86494
0.0562296
-2.93718
0.102651
0.962825
0.0838414
0.379304
0.0430618
1.22752
0.701139
0.809719
0.862785
1.09788
1.00877
0.796128
1.01069
0.376058
0.242448
-0.247961
-0.149109
-0.0490786
0.208405
0.109972
0.942418
1.06426
-0.740057
-1.47986
0.118764
0.181366
0.533722
0.621333
0.804007
1.04275
0.225139
0.778913
-0.203353
0.136249
0.261608
0.899284
0.589101
1.06446
1.12339
1.02086
0.999784
-0.076894
0.723964
1.04946
0.0322537
0.884421
0.643614
0.137811
-0.411886
-0.37622
1.06658
1.08379
0.138589
0.0676829
0.0738567
0.865952
0.213004
0.610107
0.98142
0.881201
-0.0991202
-0.899054
1.00608
0.566353
-0.0503168
0.0416555
1.27051
0.0345743
-0.0483791
0.913414
1.10585
1.03534
0.175328
0.100791
-0.0867464
0.809024
0.0787712
0.404513
1.04335
0.929872
-0.410332
0.000877998
1.00621
-0.0400442
0.857588
1.12063
1.11668
1.0971
0.0999002
0.0229229
-2.43855
0.114072
0.131908
0.119245
0.177253
-0.745343
0.442047
1.09439
1.12482
0.816182
-0.0593956
1.09184
0.0701604
0.0570184
0.140073
-0.623655
0.204288
0.18566
-0.0590803
-0.196079
-0.160876
0.878802
0.0706715
0.153848
-0.0175998
0.0972792
0.22806
0.0461168
1.14579
-0.400349
0.0559324
-0.296437
0.683393
0.557018
0.0322814
0.550004
0.138088
0.189858
0.506518
1.0263
0.982157
0.129971
1.10195
0.795283
0.192525
1.16933
1.05051
0.950704
0.338901
0.0943299
-0.370602
0.764995
-2.31365
-0.601583
0.121173
0.253946
-3.03444
1.29214
0.0820156
-1.4579
0.00988387
1.06048
0.221293
0.132191
-0.00635393
0.651381
0.0932546
0.200069
1.18472
1.23782
1.04951
0.000126872
0.0780525
1.30785
1.01158
0.281872
0.341799
-0.1539
-0.100119
1.10416
0.89005
0.845137
1.23343
-0.216287
0.100179
0.0579946
0.0569538
0.0977427
-1.80678
0.0488969
1.23344
0.186478
0.0391579
1.03092
0.446214
-0.239229
0.208103
-0.297163
0.172112
0.17172
-0.809465
-0.12266
0.0709162
1.11097
0.104056
0.231797
1.06813
0.133158
1.18857
0.223872
0.171237
0.0229756
1.05582
-1.47605
1.08668
0.750645
0.120433
0.977651
0.125864
-1.37942
0.0940059
0.932213
0.974742
-0.172037
-0.135743
0.167051
0.882176
0.177844
0.115193
0.319423
0.919085
0.820186
0.598616
-0.115421
0.0721572
0.74967
0.0481474
0.891742
0.126905
1.06549
-0.265212
1.05772
-2.64069
0.755954
0.609873
1.0996
0.0427619
1.00466
0.0515508
-1.53975
1.06235
0.125181
0.125187
0.276139
0.05607
1.05118
0.158277
0.125751
1.01408
-0.00373752
-0.00654177
-0.0109778
-1.67098
0.283714
0.15504
0.600904
-0.184969
0.980861
1.061
-0.0393874
-0.775013
0.0918772
-2.15072
0.34952
0.246051
0.715901
0.0525622
0.108898
1.02733
0.101539
0.133444
0.0675701
0.0885452
0.672091
0.106224
0.0748621
0.129519
0.0955965
-1.04133
1.05738
0.139465
1.04259
1.15206
1.13888
0.526054
1.08547
0.0818657
-0.476132
0.945945
-0.00599445
1.01918
-0.962118
0.144369
0.20786
0.738718
-1.19258
0.160424
-2.78053
-2.59754
0.0571983
0.0461253
0.624531
0.692285
0.087727
-0.0133824
0.64065
-0.235338
1.0523
0.125532
-0.419768
-1.06791
0.629265
0.0356415
1.1008
1.32509
0.218249
0.0883978
-1.04843
0.17697
0.20067
0.958893
0.0501534
0.911271
0.698539
-0.958349
0.7782
0.761266
0.194137
0.959142
0.113623
-0.328271
0.10324
-2.20268
0.109307
0.233522
0.0916876
1.01698
0.0635448
0.0649815
0.457456
1.10827
1.13863
-0.549696
0.651601
0.101285
0.671899
0.0658947
0.103432
-0.195395
0.32827
0.698858
0.979652
0.120792
-0.0498057
0.0860812
-2.84905
-0.51877
0.624408
0.134595
-0.0145133
0.234127
0.839507
0.134886
0.983499
0.0922367
0.0914593
0.981592
0.544791
0.231617
-0.222994
0.983714
1.22298
1.08622
0.117615
0.187849
0.730712
0.108127
0.706448
-0.0173152
0.274871
0.995744
0.187361
-1.25397
0.930901
0.0446327
1.16644
0.0262661
0.783444
0.0562934
0.518766
-0.582412
1.16462
-0.580539
0.145948
0.864464
0.377847
0.39662
0.187521
-2.35247
0.0579531
0.742028
0.0971916
0.087206
0.117277
1.05165
0.260776
0.168993
0.653653
0.790512
1.00302
0.111148
-1.84402
-0.145461
1.07009
1.09432
0.334162
1.06916
0.0820664
0.980951
0.0613076
0.00142439
0.0921495
0.932192
1.02169
0.197099
0.738379
-0.591856
0.725928
0.229638
0.907793
0.86785
1.08346
0.1068
0.832538
0.133412
0.0405823
1.10856
0.209695
0.130534
1.03388
0.0496118
1.01982
0.197501
-0.335556
0.956161
0.673464
1.29306
1.02528
0.189142
1.00696
1.01116
0.0921525
0.485145
0.0627303
-0.345849
1.43324
-0.319074
1.05302
0.0108136
0.171363
1.03581
0.211684
1.01656
0.120054
0.822968
1.00002
1.01856
0.0203491
0.175455
-1.29113
0.566224
0.569537
1.00132
0.0891019
0.715465
0.110448
0.0178473
0.232995
0.743507
1.07197
0.0139695
-0.092592
0.076362
1.16407
0.083705
0.609537
0.100048
0.170329
-0.0718935
-2.44829
0.105404
0.766085
0.128756
0.0803202
-0.260434
-0.12714
-2.78655
0.112861
0.0496544
1.00224
1.08648
0.206896
0.038949
1.01639
0.98394
1.07709
0.147321
1.00402
1.00126
1.0196
0.981266
0.136106
0.0543781
-1.06433
0.474004
1.02407
0.598102
-0.121506
0.0594883
0.154496
0.0602842
1.18905
0.0572283
0.0505173
-0.171878
0.0756675
0.0568467
0.681598
-0.798076
0.109898
-1.27583
1.04565
1.04448
1.0458
0.00598977
0.289052
1.16591
0.0367951
1.01534
0.0428459
0.0226076
0.64498
1.14503
1.00837
0.0662171
0.98831
0.995242
0.0923444
0.0588493
1.05056
1.10285
1.12514
-0.860699
-2.37733
1.14265
0.488268
1.05033
-0.0818838
-0.581182
0.044934
0.107042
0.0582659
-0.0695554
0.100958
0.0820733
1.11129
1.17002
0.708563
-2.34695
1.04124
0.043843
0.0456181
-0.0133253
1.08297
1.08491
1.09457
1.1659
1.06469
1.04797
1.04427
0.0878684
0.0182385
0.0330236
0.0617507
0.000923145
-0.000896014
-0.0179498
0.0298164
0.00966318
0.0538146
0.0812834
1.08376
1.07558
1.08147
1.16144
1.15802
1.14485
1.15816
1.07154
1.06176
0.0299918
0.067739
1.08872
1.11955
0.00596444
1.15
1.12794
0.0404958
0.0478548
0.0530087
0.207536
0.136281
1.05085
0.0990394
1.02196
0.498441
1.00448
-0.422244
1.06406
0.961743
1.00632
-1.17427
0.0842112
0.200747
0.0571905
-0.333124
-3.34727
1.06969
0.0343777
1.06234
1.05738
-0.568287
1.10329
1.2563
0.0797339
0.781865
0.561015
1.03417
1.07238
1.07135
-0.27699
0.313432
0.0321016
1.08596
1.08653
0.245074
0.0442516
1.05329
0.0448496
-0.791615
1.08192
0.0674008
1.00894
1.10519
-0.0293267
1.06717
0.0507013
1.0319
1.02706
0.157135
1.07376
1.07961
0.0291724
0.611974
1.06551
1.04475
0.128269
-1.75923
0.608008
1.28494
1.06395
1.07003
1.06411
0.0404505
1.06689
1.00286
1.07259
1.05786
1.05792
1.06596
1.07792
0.090263
0.150955
1.06796
1.04597
0.182993
0.112544
0.119078
0.0959175
0.886456
0.0944949
0.108046
-0.00188156
1.04789
0.627798
0.0463809
0.0673446
0.0731495
0.0921923
-0.0238961
0.0396137
0.10604
0.151646
-0.906783
1.07089
0.0583641
1.05915
0.98086
-0.515
1.17964
0.087537
0.0890376
0.592041
1.06087
0.264527
-2.06687
1.02948
0.0604741
1.06809
0.113324
1.06916
0.0761057
1.03912
0.0568101
0.117037
1.08603
1.04711
0.897163
0.0729453
-3.01667
-0.0945246
0.0706076
1.06172
0.932815
0.0587881
1.01856
1.01725
1.01869
0.0726979
0.192459
-0.749358
0.173788
0.272681
1.04349
0.00684996
1.08733
0.189188
1.03996
1.18007
1.071
-0.0107173
-0.0075839
1.1331
0.0378152
1.07575
1.03273
-0.146995
0.0357739
0.857471
1.06937
1.05265
1.03067
0.0741984
0.0964841
1.04805
0.240933
1.08125
0.75277
0.268507
-0.0518475
0.846189
1.18201
1.02368
0.168118
0.107276
0.0622396
0.139441
0.105887
1.00428
0.128082
0.996046
0.25134
-0.59442
0.0981483
0.346285
-0.00258197
0.100694
0.0969249
1.0526
-2.00543
0.826238
-0.257524
-0.586277
0.0834023
0.0396349
0.0997337
1.01038
0.0646708
-0.617449
0.0949368
0.0740534
1.04155
0.102129
0.0273267
0.169606
1.02121
0.0915791
-0.257773
1.05009
1.01057
1.03188
0.434809
-0.86276
1.03308
1.02008
0.124605
-0.0656765
1.06179
0.697461
1.18838
1.0789
0.086139
0.112577
-0.0732678
0.245176
0.267531
-1.30918
0.0900832
0.00574131
0.708714
-0.373151
1.03036
1.15196
1.0425
-2.8548
0.0440365
1.02824
0.110409
0.112358
1.04385
0.00514885
0.256529
0.196198
0.0653169
0.964386
0.941031
0.108671
0.764379
0.568282
0.129551
1.01477
0.157452
0.754822
-0.158773
0.920996
0.140259
0.298007
1.03634
1.02599
0.153741
0.222106
0.789941
1.30767
1.09508
0.944871
0.12154
1.17666
-0.305403
0.0834801
-1.45945
0.316493
0.137007
1.07884
1.09154
-0.169741
0.123075
1.01264
0.0782281
0.784216
1.12539
0.934218
0.148364
1.04951
-0.00367191
1.10527
0.00083467
0.0966961
-0.589484
1.0377
0.036471
-1.00243
0.100023
1.01745
0.102835
1.12483
0.0563207
1.26076
0.913339
0.0206691
1.01384
-0.263312
0.952212
1.00689
0.0716633
0.102315
1.05623
1.01525
1.1605
0.979197
-0.0535101
0.959805
1.03282
0.78264
1.02768
-0.155284
0.197635
0.116753
1.04507
0.119888
0.108464
-0.433378
0.113067
0.0932249
0.0311301
0.786443
0.0853997
1.01729
1.01756
-0.0434318
0.0187182
0.0521832
0.0779925
-0.00941157
-0.241027
1.02317
0.127239
1.01135
1.16616
1.01583
-0.0892466
1.11982
0.969325
0.115867
0.974646
1.01609
0.277616
1.00015
0.867766
0.0849934
0.112826
1.39997
0.125514
0.27365
0.134432
0.00706224
1.07034
0.262747
0.108226
-3.05944
1.07898
0.118145
0.771832
1.02317
0.998428
0.0821625
1.00573
0.131906
1.06162
1.08269
-0.205695
1.11582
0.356425
1.01037
0.623391
0.176597
0.00516361
-0.00392228
0.0800031
1.18102
0.072282
1.01105
1.33255
0.097589
0.0234601
1.18241
0.01165
1.12903
0.0181351
0.00964787
1.13142
1.16489
0.256453
0.129448
0.674359
-0.515268
-0.0275816
-1.41881
1.01155
0.990528
1.36189
-2.17178
0.115745
0.639394
0.226163
1.03582
0.928079
0.982462
1.0154
1.01641
0.209101
-1.09422
0.201549
0.785172
0.934564
0.152011
-0.154294
-0.191529
1.08169
1.04188
0.0915614
0.219659
1.02907
0.121903
0.170799
0.686585
0.851005
0.0745742
0.177477
-0.0618453
0.198805
-0.745264
0.147521
0.133233
1.31038
1.30561
0.207553
0.214579
1.10209
1.02556
0.245472
-0.187338
-0.914443
0.554247
1.06758
0.0797624
1.0583
0.126044
0.148348
0.0574491
0.273116
-2.53212
0.993363
0.185874
0.103631
1.30071
0.156058
1.05062
1.1669
-0.121406
0.974202
1.18683
0.120034
1.18545
0.125273
0.126233
0.963226
0.0724154
0.941929
1.09584
0.0924709
1.03809
-0.0540941
0.21794
1.04051
0.961008
-2.07744
0.211177
0.942564
1.02409
-0.0416367
0.170605
1.22443
0.0570551
0.892276
0.0868125
0.945073
-1.93995
0.172105
-0.233172
0.151634
1.03244
1.02416
1.2256
1.14994
0.915178
1.05486
1.00516
-0.326566
1.07528
1.07982
0.0169196
0.0119083
0.277284
1.26464
0.128649
0.0990226
0.0823747
0.871913
0.0557038
0.233247
0.959611
0.950342
-0.156758
-0.116522
0.075867
0.0462551
0.170495
0.0903152
-0.44667
0.823232
0.814464
-0.306784
-0.507864
-1.98493
0.768074
0.0541406
0.180925
-0.597632
0.871032
0.166052
-0.0677757
1.26659
0.936654
0.344163
1.13071
0.103876
0.910185
1.01624
1.09186
1.145
0.0714684
0.588968
0.944638
0.0394611
-0.785028
1.36667
0.994769
0.860193
1.02694
-0.0229343
0.144025
0.798759
0.747146
1.02386
0.188601
0.178152
1.03153
-0.381852
0.772746
0.0799997
1.36028
-0.997896
0.652052
0.641484
-0.67221
-1.26047
0.119598
0.988875
-0.512199
-1.74205
0.598598
0.514997
0.265292
1.0488
0.747836
-0.399158
0.253175
0.953832
0.168413
-1.57091
0.0216588
-2.82824
0.0470566
0.951659
1.01554
0.145152
0.503584
1.03125
1.28119
0.116032
0.0948307
-0.0340541
0.80876
-0.927473
-0.92334
0.114642
-0.416721
-1.26675
0.975324
-0.445865
-0.0597491
-1.8714
0.43091
0.445588
-1.71595
0.532383
0.123298
0.353995
-2.16532
0.337898
-1.00273
0.220718
-2.43515
0.227767
-2.52446
0.738906
0.181624
-2.70537
-2.74462
-0.932772
1.10685
-0.202612
-2.6817
-2.56028
-0.258883
0.089722
-0.609365
-0.666208
-2.58501
-0.507029
-2.51122
-0.515389
-2.50262
-0.871165
-2.58195
-0.816014
0.835037
0.0446945
0.195609
0.952154
0.172532
0.0572561
0.352243
1.01693
0.16575
0.173143
-2.58749
0.240435
0.801918
1.3613
0.0656696
0.084024
-0.198775
0.185639
-0.0241207
-0.611884
0.960058
0.265933
0.966439
0.114714
1.43495
0.390264
1.36071
-0.170739
1.12601
-0.932735
0.93883
0.0369961
-2.52694
1.00991
1.03364
0.171139
-1.96066
-2.86104
0.908974
-0.000370324
1.02544
0.0915874
-0.0226662
-0.199518
1.24665
0.992044
1.04395
0.97433
1.06755
0.088342
-0.0432793
1.14771
0.139753
0.227976
1.36014
-0.112883
0.919765
0.894366
1.3128
1.36874
-0.098009
0.129187
1.00525
0.112521
-1.04706
-2.81596
0.10582
0.155299
-0.0960983
0.492854
0.258203
1.13803
0.111901
0.980417
1.0681
0.989299
0.122492
-0.610464
0.262721
1.06008
0.279016
1.11758
-0.949494
0.295138
1.18002
1.24254
-2.56569
-0.160487
1.01685
0.262959
0.271456
0.562988
1.2145
1.15115
0.166171
0.855965
0.772034
-2.37763
1.16644
0.124635
-0.233246
0.109994
0.0271581
0.0355514
1.05403
0.28694
0.0640473
0.0505295
0.077376
0.268853
-1.01513
0.983773
0.175735
0.989263
-0.141751
-0.148125
0.589447
0.214168
-2.40052
-1.47879
-2.81447
0.0654379
0.0195232
0.0966411
0.864601
0.181901
0.138533
0.949627
0.225368
0.0344549
1.10571
-0.113575
0.903481
0.0373484
-0.27261
-0.287386
0.71276
-0.490107
0.121215
0.811042
-0.0632383
1.05874
-1.43323
0.292546
0.203381
-2.51276
1.43186
0.187453
1.0618
0.047348
0.973246
1.12862
0.645882
0.998066
1.10034
-0.0414777
0.145088
0.990325
1.0244
1.29934
0.168401
1.02685
0.585735
0.141835
0.694709
1.14451
-1.27198
1.28455
0.0782995
0.219891
0.745385
0.108599
-2.96484
1.02432
-1.10109
1.05107
0.986527
0.918212
0.194415
0.836543
1.20463
0.230283
-0.178291
0.176305
-2.84576
0.2796
-1.53843
1.29003
0.654282
0.136598
0.830846
0.0729212
0.291458
1.2073
1.16879
0.166548
0.237313
-2.18693
-0.119995
0.985915
0.10341
-0.0430232
-0.310657
-0.0995618
1.05693
-0.0170345
1.33301
1.03795
0.843741
1.00018
1.24417
0.286291
0.0392806
0.970203
1.07724
0.26588
1.02304
0.186986
-0.265328
-0.0805507
1.02368
1.0539
-0.186522
0.138515
0.446177
-0.0780618
0.101326
0.968095
0.89579
0.2517
0.938456
0.983243
0.0876461
0.0314953
0.165332
-0.374664
-0.103853
1.24867
0.0978657
0.84693
0.0761904
1.24601
0.896415
0.794045
0.883421
0.15211
0.0731025
-0.509342
0.417177
-0.0909048
0.841609
0.0812636
-0.12692
0.806881
0.932928
1.12319
0.994505
0.0178483
1.11664
0.0179788
0.315062
0.786244
-0.638023
-0.0036429
-2.36736
-1.14031
1.07779
0.893224
1.0908
0.137852
-1.91537
-0.684113
-2.85299
1.06118
1.22661
1.06786
-0.0445706
0.30139
0.274024
-1.12121
-2.16883
-2.37652
-0.546149
1.00015
0.242692
-0.347915
0.0108764
-0.384924
0.625919
0.154559
-0.873994
-0.00127126
0.869783
1.37155
0.0275468
1.08691
1.43412
0.554092
1.14859
0.05597
0.0660252
1.33524
-1.10655
0.200391
-0.141862
-0.0943951
-3.25149
-0.579902
0.926437
0.628816
1.13414
1.09498
0.00879601
0.688417
-0.0307117
0.0668109
-1.40624
1.0919
0.628134
1.09654
1.13508
-0.00857655
-0.00297049
1.11502
0.0825337
-2.60696
-0.444571
-2.81759
0.485073
-0.772124
1.01707
0.559338
-1.07054
1.16628
-0.0151835
-0.878576
1.03346
0.290823
0.264513
0.135381
0.476155
-0.266074
0.0879327
0.841672
1.11751
0.0628956
0.0343295
0.168271
-1.73935
0.125618
0.139031
-0.128244
0.476419
0.284525
-1.0635
1.20285
0.026609
0.166898
-1.47202
-0.0604066
1.01948
0.973889
0.38744
0.39839
-1.96895
0.203689
-0.449354
0.288136
0.284258
-2.4034
0.817031
-0.144315
-2.66902
1.39022
-2.75842
0.128196
-0.129416
-2.21554
0.754179
-2.73324
0.139329
-2.53066
-0.321132
-2.62673
-0.36923
0.225822
0.027695
1.11189
-2.56399
-0.625364
-2.51027
-0.665206
1.28014
1.33384
1.16942
1.07862
1.14653
-1.64769
1.02559
0.00221028
0.968398
-2.59238
-0.26091
1.19704
0.0522132
0.403325
0.156733
1.33823
-0.0227397
1.27448
0.47352
0.749968
-0.200637
-0.0906944
-2.52124
0.0548178
1.24921
1.12981
1.0128
0.572709
1.0442
0.782754
0.72526
-3.33397
-0.170008
0.238397
0.0235846
0.693943
1.04254
-0.334982
-0.147559
-3.25862
0.106761
-2.58168
0.131149
1.27972
1.10736
1.10873
-0.00820151
-0.00693424
1.07128
0.114375
-1.81998
0.166534
0.159137
0.682701
-0.347719
-1.70869
-0.652963
0.996646
0.155366
-0.12515
1.03916
0.487813
0.614091
1.04255
-2.02682
0.780309
1.11737
0.751404
-2.35324
1.04174
0.167275
0.288433
0.30046
-0.595851
1.38808
0.240312
0.0649248
0.0896788
0.82217
0.928321
0.214779
0.23305
0.0431828
-0.0481966
-2.26911
0.154132
0.0296481
1.02239
0.188442
0.961994
1.21146
1.02115
0.956006
1.01558
1.07755
1.04865
0.251378
-1.52245
-1.10694
-2.55566
-0.166652
-2.07629
1.09164
0.977493
0.0766612
0.94521
0.276482
0.0877332
-2.83652
0.0827313
0.458521
0.0495327
1.03016
0.821594
0.120034
-1.05753
1.27345
0.144132
0.109844
-0.037846
0.173524
-2.23475
1.04485
0.67536
1.02199
0.238915
0.0993565
-2.47279
-0.800363
0.0943752
0.0882202
0.256239
0.172239
0.826323
-0.362483
1.39303
-2.73514
-0.408746
-2.42285
-2.80063
0.871733
-2.71059
0.259346
-0.164987
-0.114526
1.12904
1.15147
0.1522
0.103837
0.731916
-2.39084
-0.263803
1.04487
0.114366
0.13388
0.0542875
0.649934
-0.313031
0.110906
1.02247
-0.0104248
-0.0259163
1.01263
0.294573
0.250518
0.209654
-2.42501
0.057034
0.129326
1.25117
-0.900808
0.118122
-2.6158
0.694464
-0.154397
0.304691
0.523335
0.680017
1.02111
1.00066
1.11562
-2.54875
0.809027
0.521464
0.256405
0.891682
-0.995073
-0.137946
0.1586
1.10745
1.09894
-0.0779524
0.303987
0.273373
0.939091
0.287995
0.0852545
0.0473496
-1.48664
1.2157
0.936958
-0.143368
0.196103
-0.101417
-0.26725
0.901183
0.0428579
0.897489
0.0148963
0.59566
0.739864
-3.35186
0.304424
0.853713
-2.53857
0.00782467
1.21637
-0.507558
-0.281288
0.720701
0.237572
0.170129
-0.0566638
0.22914
1.29024
-0.407073
0.150105
-0.115548
1.23924
-0.0413198
0.211997
0.517323
0.0168014
-2.69688
1.2726
0.554566
0.934501
0.154264
1.16623
0.0883454
-0.166793
0.122549
0.132261
-0.0190233
1.19765
0.434931
-0.110196
-0.0633943
0.140999
1.06344
0.248097
1.21413
-2.64565
0.664359
-0.448194
0.171636
0.388867
0.34499
0.241241
-0.0262553
0.235515
0.934689
0.103209
-1.59851
-0.0220038
0.189029
1.25632
-0.125609
0.191518
0.0186527
-0.391607
0.0242125
-2.58712
-0.517013
0.757059
0.0875527
-0.199672
1.32318
0.125868
0.237123
1.29525
-0.30539
-0.137809
0.263978
-2.54842
-0.696659
1.29689
-2.79996
1.21399
-0.784221
0.293141
1.10564
-0.0361328
0.244563
0.421221
0.214459
-0.346968
-0.202845
-0.483986
0.732391
-0.0363382
-0.411834
-2.38142
-2.80011
-2.49005
0.791492
-0.625641
-0.115043
-0.171497
1.24367
-2.05908
0.181043
-1.95449
-0.469114
-2.379
-3.42141
-0.230781
0.0500897
1.18067
0.008179
-2.6274
0.195635
-0.242221
-0.742204
-2.44587
1.32958
1.26026
0.231819
0.301736
-2.5755
0.115697
-2.51373
1.34135
-0.0540117
1.00111
0.582612
1.21885
-0.224312
-2.41115
0.304985
-0.474233
0.119722
-0.468267
-0.295675
-0.761653
1.23695
-0.0281764
-0.0340053
-0.0017709
-2.3741
0.295087
)
;

boundaryField
{
    frontback
    {
        type            empty;
    }
    Top
    {
        type            zeroGradient;
    }
    outlet
    {
        type            fixedValue;
        value           uniform 0;
    }
    bottom
    {
        type            zeroGradient;
    }
    Inlet
    {
        type            zeroGradient;
    }
    rectangle
    {
        type            zeroGradient;
    }
}


// ************************************************************************* //
