/*--------------------------------*- C++ -*----------------------------------*\
| =========                 |                                                 |
| \\      /  F ield         | OpenFOAM: The Open Source CFD Toolbox           |
|  \\    /   O peration     | Version:  2306                                  |
|   \\  /    A nd           | Website:  www.openfoam.com                      |
|    \\/     M anipulation  |                                                 |
\*---------------------------------------------------------------------------*/
FoamFile
{
    version     2.0;
    format      ascii;
    arch        "LSB;label=32;scalar=64";
    class       surfaceScalarField;
    location    "1";
    object      phi;
}
// * * * * * * * * * * * * * * * * * * * * * * * * * * * * * * * * * * * * * //

dimensions      [0 3 -1 0 0 0 0];

oriented        oriented;

internalField   nonuniform List<scalar> 
3181
(
-0.976096
0.335178
0.640919
-0.458798
0.392197
0.066601
0.545564
-0.390236
-0.155328
0.118493
-0.197927
0.0794337
0.089136
-0.0905923
0.00145627
0.659102
0.475459
-1.13456
0.161955
-0.155476
-0.00647896
-0.0598014
-0.01218
0.0719814
0.133092
-0.49365
0.360558
-0.0765253
0.13845
-0.0619242
-0.0129882
-0.0529998
0.0659879
0.637836
-0.264345
-0.373491
0.0336292
0.0392483
-0.0728775
-1.02436
0.126885
0.897474
-0.270808
0.73462
-0.463812
-1.12196
0.650164
0.471792
0.103897
-0.971057
0.86716
0.283785
-0.202262
-0.0815228
-0.61153
-0.3985
0.00888743
-0.271434
0.262546
0.0393675
-0.0907914
0.051424
0.580442
-0.492856
-0.0875866
1.00455
-0.96473
-0.039822
0.00789313
-0.243313
0.23542
-0.919985
0.310316
0.609668
-0.108919
0.227412
0.3025
-0.233035
-0.0694651
0.0304255
0.069136
-0.0995615
-0.414587
0.324426
0.0901609
-0.0198066
0.10851
-0.205382
0.0968724
-0.0148461
-0.905139
-0.454106
0.367147
0.0869585
0.114677
0.58916
-0.703837
0.23734
-0.317844
0.0805041
0.217071
0.248205
-0.465277
0.919893
-0.805216
0.0733422
-0.0339748
0.957366
-0.701997
-0.255369
-0.312439
0.971541
0.117254
-0.0836247
0.472141
0.108301
-0.487569
0.216761
0.659548
-0.187407
-0.62584
0.124787
0.501052
-0.149762
0.0732369
-0.194421
0.199008
-0.0045867
-0.264943
-0.0989735
0.363917
0.10475
0.591654
-0.696404
-0.171695
-0.049684
0.221379
0.117397
-0.109717
0.116255
-0.00653843
0.345373
0.389247
-0.0918908
0.13745
-0.0455597
-0.388114
-0.0659913
-0.173299
0.199287
-0.0259876
0.162212
0.114498
-0.276709
0.11548
-0.122018
0.00653784
0.54841
0.408956
-0.767868
-0.208229
-0.0282445
-0.84598
0.874224
0.564173
0.168049
-0.732222
-0.467372
-0.16239
0.629762
-0.995773
0.683334
-0.225005
0.789178
-0.310227
-0.126462
0.436689
-0.223379
-0.191208
-0.188279
0.167344
0.0209348
0.126752
0.293756
-0.420508
-0.368231
0.501323
0.0509229
-0.110724
-0.941198
0.912954
0.18028
0.122221
-0.172842
-0.119063
0.291905
-0.266083
0.349389
-0.0833059
-0.0832558
0.0936089
-0.0103531
-0.836448
-0.941027
0.0378993
0.903128
0.204614
0.0327252
-0.855204
0.310595
0.544609
0.497281
-0.476176
-0.0211049
-0.997741
0.00196754
1.06555
-0.938661
-0.692377
1.07401
-0.176541
1.0507
0.162458
-0.165412
0.00295324
1.12744
-0.651979
1.10082
-1.10082
-0.0533255
-0.0400291
0.0933546
-0.205623
-0.0630561
0.268679
-0.238608
0.201551
0.0370565
-0.395411
0.810606
-0.415195
-0.0281014
-0.220498
0.2486
-1.02941
0.0646774
0.314418
0.0896728
-0.404091
0.0867665
-0.81733
0.985379
-0.13777
-0.00638934
0.144159
-0.0217893
-0.15151
-0.568846
0.414131
0.154715
-0.48535
-0.0834966
0.0642747
-0.881604
0.297726
-0.693137
0.856697
-0.7528
-0.237195
-0.122284
0.359479
0.081944
0.0540514
-0.135995
-0.799132
-0.184088
0.98322
-0.23674
0.415904
-0.179165
0.909532
-0.381711
-0.527822
-0.101897
-0.753307
-0.189182
0.0174875
-0.170439
0.163118
0.0073211
-0.0760734
-0.014351
0.0904243
-0.537486
0.0438353
0.0627688
-0.0259945
-0.0367743
-0.976866
0.0272938
0.949572
0.910439
-0.318785
-0.125349
0.072024
0.0280497
0.15223
-0.19055
0.407621
-0.246665
0.00504349
0.241622
0.137699
0.0741041
-0.211803
-0.288643
0.0763343
0.212309
-0.588985
-0.532971
-0.790105
-0.18676
0.0177203
-0.15549
-0.103543
0.183411
-0.079868
-0.00485814
0.0233262
0.138629
-0.0571229
0.0705659
-0.013443
-0.0968272
-0.0213177
0.118145
0.0917753
-0.0917753
-0.194158
0.217484
0.0119306
-0.296349
0.101645
0.0976414
-0.768864
0.400633
-0.887523
-0.068317
0.95584
-0.0577366
0.0419728
0.0157638
-0.0305929
-0.0574909
0.0880838
0.429079
0.0672344
-0.496313
0.0479039
-0.0479137
9.84213e-06
-0.20145
0.0072924
0.234517
0.57609
-0.281257
0.515774
0.149645
-0.948777
0.0946151
-0.00547909
0.474444
-0.273618
-0.200826
-0.15647
0.160398
-0.00392809
0.0607945
-0.325738
0.0373494
-0.978376
0.0509721
-0.154515
-0.281761
-0.409201
0.0705677
1.40879
-1.02923
-0.379557
1.02752
0.381268
0.080554
0.283363
-0.0760563
0.0183197
-0.011452
-0.254414
0.265866
-0.239977
-0.576287
0.816264
-0.355803
0.515908
0.661308
-1.05981
0.64573
-0.601697
0.592074
0.00962319
-0.866408
-0.0714549
0.937863
0.0304656
-0.896873
-0.333063
0.647482
-0.933707
-0.0145156
-0.0141425
-0.267275
0.281418
1.07507
-1.32031
0.245238
0.102194
-0.00757937
0.54009
-0.780067
-0.181786
0.40226
-0.220474
-0.305271
-0.11281
0.418081
0.0440323
-0.937016
-0.0923915
0.143763
0.118783
-0.543339
0.380949
-0.258897
0.0260598
0.232837
0.0331582
0.0690363
-0.00441989
0.00441989
-0.122378
0.133494
-0.0111154
0.0663993
-0.953922
-0.055341
-0.0367652
0.0921062
0.0956333
-0.013055
-0.0825784
-0.224291
0.0360117
0.782645
-0.120715
-0.66193
-0.169519
0.428277
-0.258759
-0.00476004
-0.00300984
0.00776987
0.573936
0.335597
-0.218137
0.000740006
0.217397
-0.159633
0.286386
-0.108144
0.105953
0.00219129
-0.00314689
0.243536
-0.240389
0.248266
-0.190814
-0.0574516
0.41268
-0.862188
0.449507
-0.241503
-0.0501098
0.291613
-0.675274
0.62848
0.0467943
-0.108708
-0.134606
-0.0360309
0.0379317
-0.00190075
0.0153228
0.220097
0.541576
0.368863
0.133445
-0.833605
0.70016
-0.0272128
0.958965
-0.931752
0.347983
0.193902
0.906916
0.0613771
0.209244
-0.071545
-0.0776978
-0.032019
0.228849
0.157993
-0.0760489
0.729947
-0.419631
0.0657006
0.202978
0.0467128
-0.160051
0.113338
-0.852844
-0.090266
0.94311
0.00773462
-0.00773462
0.129952
-0.327009
0.575214
-0.000370919
-0.241132
-0.0513602
-0.150902
-0.0637232
0.0814435
0.135468
-0.148457
-0.339789
0.311687
-0.434269
-0.162734
0.597003
0.227091
-0.491436
-0.75574
0.376603
0.379137
-0.212714
0.293268
0.213221
-0.486839
-0.200244
0.535422
0.167346
-0.036389
0.036389
0.242048
-0.328625
0.0865774
0.382496
0.033408
0.0562881
-0.0632142
0.00692608
0.214989
0.0303532
0.0324156
-0.0534114
0.18888
-0.180599
0.250662
-0.0700631
0.128033
0.0299595
-0.371036
0.138001
0.19129
-0.0632571
-0.0490625
-0.0590814
0.0771944
-0.104074
0.0268793
0.158048
-0.111674
-0.0463749
-0.0187819
0.393495
-0.374713
0.141586
-0.0906632
0.111694
-0.116782
0.0050885
0.028645
-0.483267
-0.272473
0.304164
0.0291993
-0.333364
0.439456
-0.296365
-0.143091
-0.0924189
0.071625
-0.69941
0.627785
0.0619128
-0.833618
-0.082102
0.91572
0.0350213
0.819326
-0.854347
0.0894922
0.400595
-0.324261
0.245271
0.264383
-0.509654
-0.207762
0.254475
0.17807
-0.899868
0.721798
0.334476
0.104979
0.109032
0.0347309
-1.15013
0.50369
0.64644
1.02923
-0.964953
-1.22712
1.04304
-1.07507
1.00676
0.0383289
-0.0838886
0.00173691
-0.0377678
-0.0335299
0.986161
-0.808091
0.122598
-0.0716263
0.435532
0.638483
0.13868
-0.916747
0.889534
-0.604018
-0.164846
-0.239319
-0.386521
0.0579614
-0.167426
0.228221
-0.714598
-0.351857
0.182338
0.796841
-0.367762
-0.695367
-0.531757
0.673535
-0.00838784
0.342864
0.249113
0.040091
-0.040091
0.666428
0.188762
-0.85519
-0.222429
0.888858
0.614691
-0.913655
0.298964
-0.198082
-0.0982668
-0.0215452
0.0559528
-0.0344076
-0.84598
-0.806965
0.488179
0.410327
0.372318
-0.0420528
-0.152368
-0.421489
0.766862
-0.198989
-0.0599083
-0.00255156
-0.0807042
-0.0535185
0.10757
0.357547
-0.23276
-0.454373
-0.284865
0.278806
-0.254819
-0.0239872
-0.685262
0.879163
0.254967
-0.151688
-0.103279
-0.0366742
-0.0393821
0.093987
-0.0354601
-0.0585269
0.0238427
0.412846
-0.0653129
-0.0911568
-0.016891
-0.054884
0.071775
-0.0321413
-0.185996
-0.661833
0.308935
0.352897
0.522636
-0.90496
0.382324
0.147929
-0.174749
0.0268201
-0.0865962
-0.102586
-0.173538
-0.92728
0.0996425
-0.0056555
0.109023
-0.0915353
0.182663
-0.373212
-1.05386
0.658276
0.395581
-0.108656
0.0978449
0.0602035
-0.852844
-0.411694
0.824374
-0.127691
0.0922305
0.0516733
-0.637961
-0.0373129
0.0640253
0.127265
-0.288252
0.0361793
-0.456687
0.128067
0.376814
-0.287142
-0.117942
0.0211153
0.171568
0.812004
-0.983572
0.107172
-0.881545
0.774373
-0.873746
0.78348
-0.860632
-0.0361823
0.896814
0.0202158
-0.024454
0.0042382
0.155443
-0.460714
0.355379
-0.222793
-0.132586
-0.403198
0.106833
0.284898
-0.00609159
0.00331473
-0.00865145
0.0239742
0.0200303
0.0790879
-0.0991182
0.649712
0.0319975
-0.0566184
0.0246209
-0.147006
0.0563424
0.821732
-0.0488333
0.041254
-0.311405
-0.49556
0.0273678
-0.22545
0.00510344
0.0927415
-0.896814
0.92728
-0.194403
0.338998
-0.144595
-0.239091
0.0736796
0.117863
-0.11491
-0.00115044
0.0947593
0.0357239
-0.693554
-0.360303
-0.0454467
0.065477
0.71541
-0.243618
0.161629
-0.0659959
0.296699
-0.000962433
0.0572506
-0.0113683
0.103144
0.150858
0.198531
0.16542
-0.327603
0.162184
0.0460696
0.53002
-0.0386785
-0.111084
0.606439
-0.00571847
-0.600721
-0.860632
-0.143381
0.666017
0.919893
-0.402875
0.487964
-0.085089
0.394642
0.227341
-0.621983
-0.258531
-0.73921
-0.0746491
0.075435
-0.000785885
-0.157056
0.425057
-0.268001
0.0274373
-0.480014
0.452576
0.0100118
0.808354
-0.818366
-0.0500578
-0.120381
0.136498
0.167667
-0.237206
0.479254
0.0235861
-0.00337034
-0.0332059
-0.107573
0.140779
-0.170922
0.15947
0.0404104
-0.0770846
0.371869
-0.494153
0.0356232
0.00230845
0.203149
-0.423648
0.0541052
0.765221
-0.0063673
-0.00136732
-0.934112
-0.00290381
0.0304835
-0.0734286
-0.0445139
0.0622259
-0.244012
-0.510335
0.704171
-0.193836
-0.354809
0.382177
-0.928064
-0.0105979
0.157805
-0.633981
0.705606
-0.0163934
0.183739
-0.403329
-0.510326
0.188226
-0.435368
0.247142
0.344421
-0.339378
0.0283017
-0.0440724
0.0157707
0.157779
0.0904865
-0.0198562
-0.131653
0.73128
-0.624108
0.241477
-0.105036
0.0840455
0.31416
-0.148741
0.0714636
0.631339
-0.0845964
-0.546743
-0.128027
0.154087
-0.466572
-0.19526
-0.602142
0.764342
-0.785917
0.021575
0.242567
-0.00109045
-0.916747
0.686201
-0.686201
-1.00301
1.00301
0.986161
0.77665
-0.381689
-0.394961
-0.82402
-0.110092
0.664581
-0.311134
-0.353447
0.156675
-0.236543
-0.0775468
-0.0478027
-0.82165
-0.0599549
-0.919587
0.220177
-0.258259
0.00343964
0.681533
-0.0851584
-0.596375
0.781162
0.138731
-0.051816
0.0801177
-0.967886
-0.32246
0.699063
-0.174989
-0.470282
0.645271
0.0336679
-0.767798
-0.552515
0.202815
-0.7918
-0.94311
1.2645
-0.321392
-0.174195
0.29627
-0.122074
-0.00625204
0.687785
-0.0884623
-0.843308
0.843308
-1.07697
0.495862
0.581104
-0.0699251
0.101923
-0.0657779
-0.447106
0.617037
-0.306442
-0.0844313
-0.0375395
-0.120126
-0.0235555
0.0187954
0.842768
-0.878951
-0.532518
0.529371
-0.605822
0.925589
-0.319768
0.0551695
0.0444731
0.133527
-0.0594226
0.421194
-0.01113
0.0503784
0.356461
0.0370334
0.054548
-0.266946
0.212398
0.157422
0.041586
0.102934
0.202477
0.811141
0.101812
-0.341529
0.807064
-0.465535
-0.876439
0.804984
0.56914
-0.756548
0.0468107
-0.746695
0.699885
0.435121
0.131792
-0.47158
-0.0746908
0.1334
-0.0587089
0.127766
-0.202457
-0.453418
-0.0899217
-0.0758317
0.0790328
-0.00320103
0.0127614
0.0228618
0.484751
-0.550742
0.808091
-0.774373
-0.0337184
-0.307205
0.306834
0.822016
0.858445
-0.463802
0.0146068
-0.051372
0.244208
0.158053
0.115009
-0.485489
0.37048
-0.047358
0.00328566
0.433387
0.0660663
-0.499453
0.127593
-0.119837
-0.00775586
-0.0859156
0.0972625
-0.0113469
-0.995446
0.343467
-0.143178
-0.690441
-0.189034
-0.964953
1.00676
1.04304
-0.196347
-0.19819
0.14808
-0.0679174
0.0739666
-0.00604922
-0.353347
0.762585
-0.409238
0.428383
0.236198
-0.0342276
-0.0131304
0.131579
-0.131829
0.0375395
-0.0500247
0.00457798
0.441363
-0.197155
0.0417829
-0.105506
-0.504687
0.731778
1.02752
0.163389
-0.0652013
0.000683238
0.0645181
1.14619
-0.103155
-0.0640372
-0.0579804
-1.15742
0.192467
0.642015
-0.597983
-0.492942
-0.0696168
0.562558
0.727545
-0.312011
-0.415534
-0.0143489
-0.495986
-0.889534
0.0435545
0.0328175
0.108135
-0.140953
0.166071
0.792894
-0.279971
0.258426
-0.116316
1.27825
-0.271495
-0.645051
0.041199
0.603852
0.320473
-0.0464671
-0.334857
0.375352
0.755927
-0.111218
0.0840932
-0.0238897
-0.798634
-0.0193451
0.817979
0.576398
-0.145192
0.1283
-0.0231418
-0.354211
0.0970231
-0.304785
0.458655
0.172685
0.139798
0.102769
0.0417674
-0.444643
-0.0888899
-0.0198176
0.125417
-0.176859
0.0514416
-0.300533
0.306355
-0.00582202
0.43852
-0.523116
-0.942858
0.0609869
0.881872
-0.0865168
0.203228
-0.116711
0.267162
0.0469987
0.359023
-0.770717
-0.84228
0.84228
0.874224
0.781162
-0.881545
0.322811
0.433117
0.287123
-0.200545
0.901108
-0.472725
0.0256795
-0.830392
0.804713
0.132137
0.00631208
0.0326775
-0.4778
0.836823
-0.208416
-0.16614
-0.118355
0.284495
0.0135921
-0.489095
0.322955
-0.635598
-0.301284
-0.816601
0.0335793
-0.062405
0.00578657
-0.23058
0.311674
-0.335661
0.0372869
-0.147769
0.110482
-0.61974
-0.457225
-0.0062011
0.0753371
-0.946861
0.427504
0.519357
-0.565465
0.364639
-0.639896
0.477161
0.231199
0.0651657
0.0438668
-0.637844
0.517129
0.0349527
0.076741
0.187719
-0.103673
0.326527
0.0288519
-0.47122
0.764325
0.361505
0.329265
0.834944
-0.788134
0.766109
-0.46941
-0.589644
0.142538
0.154352
-0.746
0.731337
0.0146631
0.717794
-0.259139
-0.382009
-0.150509
0.134727
0.066824
0.967947
-0.845321
-0.122626
-0.185065
0.109016
0.0265464
0.136572
0.875556
0.854879
-0.692267
-0.162612
-0.310934
-0.0409229
-0.542395
-0.404466
0.250226
0.732994
0.942015
-0.160853
0.235105
0.560111
-0.795216
0.118524
0.0568326
0.0588369
0.00632874
-0.512334
-0.0773096
-0.108404
0.141562
-0.188291
0.134879
-0.525138
0.266379
-0.969124
-0.735036
-0.29853
-0.625913
0.84633
0.10951
-0.285646
0.248629
0.192735
0.29705
0.296977
0.0594839
0.617695
-0.590258
-0.189918
0.126661
0.245924
0.19079
-0.436714
0.0627199
-0.0299024
0.0529528
-0.0617978
-0.238735
-0.119047
0.659933
-0.403013
-0.25692
0.100796
0.13543
-0.0977297
-0.0377003
0.240847
0.0561306
0.0542171
-0.908564
-0.101072
0.152745
0.789565
0.0653132
-0.496625
0.353534
-0.0228979
0.019753
0.00314483
-0.0246117
0.0665846
-0.236268
0.0762175
0.0688624
-0.545023
0.370828
0.0148815
-0.153046
0.0665296
-0.661445
0.76866
-0.595976
0.0199894
-0.19567
0.175681
-0.0954195
-0.501896
0.597315
0.0618055
-0.699766
-0.857112
-0.0857466
0.0376758
-0.00149241
-0.0361834
-0.325357
-0.764342
-0.0885025
-0.122708
-0.798634
-0.234098
0.162553
-0.301649
-0.708684
0.346747
-0.270583
-0.0761633
0.264142
0.112245
0.0985133
0.425065
-0.523579
0.360333
-0.368721
0.816624
-0.115938
-0.700686
-0.20308
-0.0581188
0.863103
-0.246511
0.176448
-0.762705
0.704587
0.602138
-0.188007
0.030306
-0.0638359
-0.265515
0.84021
-0.510945
0.629183
0.0983627
-0.907066
0.213512
0.421839
0.479268
0.76941
-0.162971
0.0416775
-0.942015
-0.816601
-0.677087
0.714987
0.0346723
-0.695367
0.808354
0.635861
-0.955413
0.671844
0.00959062
-0.755591
-0.303576
0.610569
-0.739784
0.129215
0.0832102
0.0522198
0.410811
0.0202564
0.985417
-1.00567
-0.0660326
0.00362764
-0.271132
0.211224
0.672374
0.215362
-0.20807
-0.209558
0.888516
-0.861222
-0.478962
0.0840012
0.567182
0.471879
-1.03906
-0.811507
0.792161
0.961024
-0.53352
0.315038
0.838236
-0.817979
-0.000896081
0.229046
0.193805
-0.286239
0.316723
0.068535
0.0105123
-0.0790473
-0.962041
-0.0215309
0.326935
-0.759226
-0.43549
1.11962
-0.684128
0.378777
0.546812
-0.0510867
0.0544714
-0.00338473
0.0129504
0.875566
-0.698585
0.853588
0.4838
-0.91929
0.3133
-0.084254
-0.574935
-0.394189
-0.397558
0.964739
-0.0487303
-0.820802
-0.963484
0.0317321
0.838236
0.0832406
-0.842467
0.740039
-0.598462
-0.141578
-0.994541
0.419606
0.016855
0.165474
0.0119261
-0.1774
-0.983633
0.589444
-0.19598
0.898859
-0.909457
0.195333
-0.227475
-0.0935402
0.276203
0.991236
0.308556
0.134029
-0.733039
0.186296
0.832027
-0.943245
-0.560978
-0.508587
1.06956
0.439022
0.0852503
-0.0292975
-0.839897
0.818366
0.843551
-0.830601
-0.906916
0.824137
0.0827787
0.606235
0.513383
0.891139
-0.910946
-0.496998
-0.481378
-0.486762
-0.496872
0.839678
-0.839678
0.756656
-0.756656
-0.839897
-0.826105
0.826105
-0.824137
-0.495562
-0.340404
-0.373945
-0.92437
0.92437
0.843551
-0.830601
0.891139
0.846268
-0.846268
0.910946
0.816494
-0.816494
0.503002
0.513238
0.491413
-0.0808189
-0.503128
-0.518622
1.03186
-0.506925
-1.0581
0.660547
0.49735
0.463674
-0.0076347
0.0041526
-0.0529859
-0.867313
0.0636294
0.803683
0.150458
-0.0924967
-0.992401
0.572769
0.879808
-0.556997
-0.125086
-0.00869015
-0.00627926
-0.755982
-0.077623
-0.64644
0.0907389
-0.056008
0.0693213
0.151298
-0.0590676
0.26408
-0.0507344
0.00258688
0.0481475
-0.759069
0.0585562
0.700512
0.450717
0.540519
-0.526024
0.406404
0.11962
0.903465
-0.750885
-0.15258
0.133767
0.273854
-0.015151
-0.0606808
-0.060436
-0.0142131
0.241481
-0.926742
-0.804953
0.110375
-0.733216
0.79115
-0.0579332
0.109529
-0.929258
0.819728
-0.787609
0.889454
-0.101845
0.111365
-0.135976
0.0341091
-0.301384
0.509813
0.454927
-0.112852
-0.754461
0.910235
-0.0953607
-0.814874
-0.0553885
0.110558
0.948067
0.790613
-0.624748
0.597005
-0.360807
0.119553
-0.874014
0.805216
0.197796
-0.755362
-0.000228536
1.0039
-0.894368
0.650859
0.941266
-0.506589
-0.434678
-0.876704
-0.115697
-0.399105
0.0243923
0.348853
-0.542689
-0.849172
0.849172
-0.589684
-0.0923298
-0.834947
0.0840625
-0.92808
0.753091
0.0279429
-0.250736
-0.0627345
0.0590463
0.0115196
0.18529
0.818607
0.797124
0.789951
0.149134
-0.939085
-0.502181
0.965855
-0.77307
-0.109913
0.882983
0.190071
-0.888656
-0.649657
0.892092
-0.77254
-0.112333
0.444498
-0.0196469
-0.424851
-0.333181
0.85858
-0.525399
0.122268
-0.477694
0.355426
-0.885403
-0.811319
0.0781022
0.463066
0.303042
-0.824734
0.507029
-0.777501
0.777501
-0.535593
-0.197446
0.364463
0.47236
-0.784162
0.845149
0.782179
-0.202344
0.873593
-0.530126
0.50951
-0.923901
0.414392
-0.265115
-0.639845
0.0170601
0.439085
0.384737
0.439638
0.0764202
0.364799
-0.231032
0.777114
-0.878959
0.552437
0.413419
-0.116122
0.688891
0.764657
-0.764657
0.127859
-0.167241
0.112705
-0.0754179
0.498237
0.360343
0.0427993
-0.0169125
0.0871645
-0.0702519
-0.655625
0.663078
-0.00745284
0.403206
-0.909795
0.108289
-0.880828
-0.547641
0.601979
-0.054338
0.0254346
0.845809
-0.623213
1.02642
-0.731694
0.597387
-0.6347
-0.612483
0.145911
-0.400286
0.0633725
0.361668
-0.911586
0.511301
-0.0128435
-0.968198
0.073969
0.717181
0.68989
-0.0925025
0.059338
0.762394
-0.446121
0.999291
-0.553171
0.494552
0.262175
-0.497616
-0.863945
0.616335
0.247609
-0.658744
-0.133056
0.979661
0.277182
0.202072
-0.00763548
0.480565
0.519435
-0.775709
-0.10325
-0.475979
-0.511035
-0.472736
-0.517786
0.430705
0.569295
0.18335
-0.127008
-0.871069
-0.0602446
-0.574456
-0.235645
-0.192891
0.428536
0.0332077
0.0025162
0.112176
0.0767034
-0.126383
-0.109885
0.730112
-0.626737
0.686075
-0.396757
-0.51483
0.842877
-0.354187
-0.48869
-0.649009
-0.169921
0.818931
-0.254767
0.2265
-0.0235217
0.0698305
-0.000794155
-0.0176077
0.900222
-0.122721
0.116513
0.114686
-0.722517
0.0668917
0.871492
-0.456897
0.730933
-0.351796
0.857097
-0.302052
0.940535
0.00703178
-0.231912
0.115596
0.0153098
0.0545443
0.0846055
0.377094
0.494398
-0.458963
0.83135
-0.372387
0.808214
-0.00145681
0.0700804
-0.0686236
0.132166
0.0209574
0.0026287
0.261702
-0.136284
0.186215
-0.970377
-0.82975
0.370787
-0.00824626
0.00211969
0.477163
-0.685114
0.664746
0.0203672
-0.748647
0.796595
-0.0479474
-0.390113
0.257444
0.344694
-0.0639383
0.875331
-0.455645
-0.0703788
0.291526
0.454309
0.0824407
-0.53675
0.133795
0.0565455
0.606533
-0.569228
0.552379
0.0168487
0.793784
-0.496734
0.0793304
-0.0857586
0.00642823
0.692092
-0.0126077
-0.0863918
-0.0190294
0.643388
-0.816487
0.426375
-0.151909
0.0586891
0.144539
-0.0948247
-0.0321172
0.126942
0.0511623
0.0173726
0.653962
-0.7699
0.024672
0.213892
-0.0287788
-0.095914
0.224538
0.0886729
-0.0255174
-0.187375
0.766061
-0.410026
0.802146
-0.39212
0.861565
-0.414284
-0.447281
0.626673
0.147942
0.0474465
0.00129207
-0.0487386
0.467972
-0.363183
-0.560718
-0.00455973
0.678095
0.687317
0.282839
-0.366195
0.777006
0.816744
-0.263282
0.334745
-0.886754
-0.00940215
-0.277996
0.364738
-0.197041
0.669182
0.0968794
0.0148852
0.68604
-0.428596
0.149591
0.214021
0.0237655
-0.114557
0.435584
-0.0610256
-0.36698
-0.0724044
-0.0194634
0.622945
0.23862
-0.102189
0.374636
-0.0502831
-0.108776
-0.0278835
0.0010528
0.0268307
-0.787142
0.290408
-0.00533659
0.574835
-0.239983
-0.59464
0.61209
-0.0174504
0.243248
0.736074
-0.860561
0.371871
0.100903
-0.194443
0.609436
0.126638
0.656431
0.222732
-0.187859
0.784865
-0.367323
0.861721
-0.572582
0.351787
0.220795
-0.489774
-0.0745826
0.0521363
0.0647369
-0.0507942
0.657919
0.70654
0.110204
0.5992
0.217064
-0.829048
-0.0809019
-0.659652
0.659424
-0.0232906
-0.591711
0.356067
0.835755
0.665981
-0.0151872
0.0302761
-0.149924
-0.321656
0.478586
0.290075
-0.78667
-0.0970858
0.506142
0.355579
0.621362
0.32821
-0.0796371
0.878013
-0.692815
0.865138
-0.172323
-0.395048
-0.177534
0.0754023
0.0213093
0.0271942
0.50747
-0.0650567
0.0101727
0.600281
0.349171
-0.700966
0.605736
-0.12922
0.234245
0.430527
0.38365
-0.814177
0.301473
-0.899934
0.0894904
-0.685466
-0.174148
0.730524
-0.556376
-0.646782
0.0819149
-0.0120845
-0.0607905
-0.883279
0.0207996
-0.0436975
0.83735
-0.0785884
0.212354
-0.133765
0.0846803
-0.714598
-0.0830408
-0.148871
-0.790514
-0.0697399
0.0190054
-0.360296
-0.0584172
-0.588365
0.0191377
0.546799
0.288956
0.41655
0.499171
-0.231364
-0.315329
0.546693
-0.326331
-0.6981
0.6981
0.103017
-0.862918
0.759901
0.035455
-0.163482
0.667022
-0.120223
-0.24251
0.532646
-0.330575
0.504745
0.507926
-0.385099
0.17887
-0.108302
-0.700559
0.469615
0.0827639
0.0607893
0.012553
-0.800698
-0.721941
-0.276464
0.708798
0.291202
-0.721941
0.708798
-0.716941
-0.270747
-0.716941
-0.687635
0.687635
0.312365
-0.0157966
0.0534406
-0.0839588
0.0183983
-0.200853
-0.569868
0.617652
-0.0119156
0.626412
-0.492873
-0.133539
-0.0569203
0.05611
0.000810242
-0.0694267
0.0525142
0.44185
0.0213588
0.0959097
-0.418752
-0.3459
0.11532
0.0264222
0.796431
-0.23632
0.467387
-0.274653
-0.0665723
0.225999
-0.011282
0.639182
0.0389123
-0.598804
0.0757778
-0.00400282
0.00632858
0.0882535
0.5511
-0.465407
-0.0856928
0.879235
0.52515
-0.795449
0.841844
0.0134777
-0.0709687
0.111656
-0.145489
-0.162741
0.890824
-0.460296
-0.0133476
0.0469269
0.560789
-0.430711
0.0223414
-0.0223414
0.021383
-0.021383
0.00511638
-0.00511638
-0.0063673
0.354772
0.431971
0.0467372
-0.715416
0.347654
0.212115
0.0495863
-0.0946834
-0.475134
0.494344
0.141954
-0.800699
-0.775501
0.265176
-0.0780606
0.035555
0.0617075
0.00490383
-0.00490383
0.296898
0.00639624
-0.00639624
0.685551
0.0924778
0.0657969
0.00998099
0.00740486
-0.0726062
-0.02319
0.02319
0.00633328
-0.00633328
-0.0233286
0.0233286
0.00591813
-0.00591813
-0.18134
-0.289769
-0.0838935
0.239201
0.00676928
-0.00676928
-0.373566
0.49979
-0.126224
0.50364
-0.20737
0.295229
0.172158
0.541998
0.0814041
0.0890844
0.523006
0.546996
0.00525882
-0.00525882
-0.25411
0.0256382
-0.0256382
0.00778487
-0.00778487
0.728267
-0.809973
-0.160038
0.57393
-0.507863
-0.00156841
0.00156841
-0.00624882
0.00624882
0.0198633
-0.0198633
0.0238756
-0.0238756
-0.0249256
0.0249256
0.0390983
-0.0390983
0.471619
-0.0347485
0.0347485
-0.00106029
0.00106029
0.0259125
-0.0259125
0.00702855
-0.00702855
-0.00526867
0.00526867
0.0497977
-0.0264241
0.0264241
0.406639
-0.0908536
-0.0441868
0.0441868
-0.0051278
0.0051278
-0.00452564
0.00452564
0.0369398
-0.0369398
0.0282468
-0.0282468
-0.00262121
0.00262121
0.00689755
-0.00689755
-0.417941
0.278536
0.00743625
-0.00743625
-0.0052985
0.0052985
-0.04323
0.04323
-0.031253
0.031253
-0.00329689
0.00329689
-0.272929
0.694769
0.475187
-0.0366916
0.0366916
0.0323116
0.00539712
-0.00539712
-0.0119182
0.0119182
0.0413222
-0.0413222
0.254467
0.0802789
-0.00743895
0.00743895
-0.0234955
0.0234955
-0.409636
0.0465185
-0.715783
-0.0347844
0.0347844
-0.43557
0.0341857
0.0202857
-0.309888
-0.597178
-0.0433223
0.0433223
-0.199274
0.138248
-0.0501892
-0.0196881
0.0196881
0.000292051
0.0511319
0.265436
-0.321638
-0.266032
0.58767
0.178134
0.00749165
-0.00749165
-0.363478
0.420175
-0.0566968
0.684475
-0.362684
-0.321791
-0.431521
-0.58261
0.149915
-0.424567
0.247459
0.247093
-0.561721
-0.00811726
0.198986
-0.921022
0.016805
-0.016805
-0.0253531
0.0253531
0.0360332
-0.0360332
0.0301243
-0.0301243
-0.0136069
0.0136069
-0.0286387
0.0286387
-0.361376
-0.1148
0.173465
-0.298551
0.00414261
-0.00414261
-0.0514831
0.0514831
-0.0479839
0.0479839
-0.151705
-0.0234809
0.175185
-0.0035148
0.30294
-0.542923
0.000732334
-0.000732334
0.00370394
-0.00370394
-0.0894773
-0.329818
0.479733
-0.0444094
0.0444094
-0.18446
-0.0970807
0.629839
-0.468575
-0.0686834
0.537259
-0.598946
-0.0949677
0.443821
-0.0450041
0.0450041
-0.67037
0.290772
0.0616817
-0.0616817
-0.623516
0.270069
0.262257
0.0668394
-0.0330716
0.0330716
-0.650289
-0.0388581
0.0388581
0.274977
0.412808
-0.205742
-0.0679056
0.0679056
-0.0542752
0.0542752
-0.0508248
0.0508248
-0.0632514
0.0632514
-0.063479
0.063479
-0.0705725
0.0705725
-0.0846907
0.0846907
-0.0553502
0.0553502
0.0247063
-0.0547759
0.0547759
0.093637
-0.093637
0.0590312
-0.0590312
-0.0856207
0.0856207
0.0540141
-0.0540141
0.37299
-0.0714334
0.0714334
-0.0427211
0.0427211
0.138042
0.103144
-0.0349652
0.0349652
0.0307124
-0.0307124
-0.0770713
0.0770713
0.371561
-0.0236184
0.0236184
-0.0743647
0.0743647
-0.0194496
0.0194496
-0.0894334
0.0894334
-0.0224815
0.0224815
-0.110189
0.110189
-0.0255341
0.0255341
-0.125806
0.125806
-0.659042
-0.266515
-0.506
0.48855
-0.767798
-0.162417
-0.563302
0.366261
0.438689
-0.337893
0.0502063
-0.0502063
-0.208357
-0.684321
0.0453177
-0.0327647
-0.504388
0.643119
0.565443
0.310749
0.0243282
0.18214
-0.396578
-0.558053
0.0466524
0.363242
-0.630198
-0.021512
0.021512
-0.791305
0.0205633
-0.0205633
0.0060841
-0.0060841
0.511935
-0.0606017
-0.0536079
0.0536079
0.0208419
0.0155471
0.552152
-0.518581
0.000653692
0.00484139
0.0368361
-0.0957704
0.489944
-0.394174
0.408754
-0.391694
0.0126419
0.610408
-0.0446613
0.0524338
-0.409913
0.434305
-0.478596
-0.663405
-0.285373
-0.0728982
0.0193797
-0.440817
-0.0368769
-0.0273618
-0.004707
-0.017182
0.726229
-0.544028
-0.0408071
0.0645726
-0.0361207
-0.305571
0.359012
0.42011
0.208369
-0.220883
0.278716
0.354161
-0.110625
-0.507675
-0.0199618
0.051241
0.161113
-0.0198053
-0.614346
-0.0726132
0.258015
-0.348506
0.38554
0.0197894
-0.645703
-0.226531
0.0203798
0.0901781
-0.323352
0.442972
0.0590743
0.0178143
-0.0768887
-0.0291135
0.0291135
-0.0444795
-0.419323
0.0639673
-0.0770222
-0.0800075
0.0567169
-0.0653584
-0.00601427
0.0713727
0.22972
-0.177879
-0.0930155
0.060946
-0.295947
-0.329129
0.625075
0.0144773
0.0609577
0.150531
-0.0340183
0.107416
0.0692248
-0.151368
0.30572
-0.069682
0.00105838
-0.0233781
0.173909
0.0150764
0.266341
-0.00518562
0.00518562
-0.175007
0.796368
0.0872548
-0.168157
0.0270593
0.00660867
0.444374
0.582045
-0.00301042
0.0074303
-0.492042
-0.0139582
-0.355192
0.085799
-0.64163
0.168906
-0.0834016
0.315947
-0.611893
0.117858
0.498478
-0.131146
0.131146
0.0119261
-0.883459
0.439766
0.443693
-0.213535
0.152744
0.106476
0.0206424
-0.543759
0.130582
0.0614343
-0.0596974
0.944216
0.403329
-0.418516
-0.0752865
-0.339143
-0.580147
0.159549
-0.378228
0.75358
0.571639
-0.268699
-0.519415
0.521534
0.241103
0.246861
-0.276544
-0.164788
-0.45368
0.327456
0.175393
-0.175393
-0.0794542
0.0822454
-0.00279125
-0.00146347
-0.0250326
0.019753
0.219079
0.248893
0.222535
-0.188979
-0.0335558
0.529921
-1.01281
0.120006
-0.615566
0.652198
-0.116939
-0.181612
-0.0395468
-0.0795004
-0.4661
0.0473483
-0.285892
-0.00047811
-0.0198053
0.392742
-0.00504106
0.000590738
0.000851151
0.0911249
0.0404451
-0.13157
-0.0958221
-0.0451709
-0.195432
0.240603
-0.119262
-0.334417
0.0208419
0.341998
0.000280741
-0.372504
0.0739741
0.00230956
-0.127569
0.174306
-0.0115731
0.0115731
-0.00115413
8.44555e-05
-0.0100692
0.00101559
0.0448736
0.000685526
-0.00159698
-0.225943
-0.0180692
-0.0565523
0.0565523
-0.158459
0.486231
0.00110297
-0.359349
0.563007
0.94204
-0.442614
0.311126
-0.431248
0.157246
-0.0932789
0.226345
-0.225715
0.000693516
-0.020893
0.00328526
-0.00914875
-0.198663
-0.437763
0.785418
0.117866
-0.479241
-0.157116
-0.00215856
0.39066
-0.365226
0.000851703
-0.000647658
-0.0202453
-0.293533
0.000956823
-0.000380014
0.672733
-0.603508
-0.257185
-0.335705
0.374847
-0.0066197
-0.000541401
-0.0501892
-0.00653764
0.831801
-0.417987
0.500751
-0.787499
0.860496
-0.788533
0.595352
-0.22909
0.660921
0.0004631
0.00191574
0.0336393
0.0926126
0.156083
-0.122375
-0.00200709
0.0886464
0.0655302
-0.0505238
-0.0150064
-5.27e-05
-0.014039
-0.0160626
0.0301015
-0.177126
0.0848873
0.00227714
0.0370847
0.537934
-0.431945
0.000821704
-0.00256456
0.769874
-0.330108
0.397516
-0.00728914
-0.00566501
0.4074
-0.382728
-0.0434054
-0.108115
-0.0183672
-0.00466159
0.116236
-0.0440718
-0.00177812
0.374468
-0.000813459
0.00197356
-0.00197356
-0.0885926
0.093434
-0.00946425
-0.317684
-0.00418792
0.0807947
-0.152043
0.207429
0.104164
-0.107696
-0.00487494
-0.0287123
0.426412
-0.0194647
-0.00597161
0.0813739
-0.0028409
-0.00188873
-0.354578
0.397378
-0.679757
0.323442
-0.761206
-0.366695
-0.00986576
-0.740815
0.358998
-0.282578
0.40719
-0.0182473
-0.0110335
-0.00622393
-0.00265055
-0.543732
-0.00452532
-0.0212117
0.0228647
0.779319
-0.645524
-0.00368101
-0.000929977
-0.00916568
0.0141873
0.176018
-0.0250519
0.0250519
0.0288238
-0.0287393
0.0112628
-0.0123621
-0.0232002
0.0237909
-0.166522
0.0919391
-0.00303189
-0.0207553
0.042667
-0.0161813
0.0648687
-0.045489
-0.628033
0.5701
-0.0373047
0.0194939
0.374681
-0.394144
-0.0717189
-0.638726
-0.0756674
-0.118179
-0.10664
0.103799
0.649639
-0.000898477
-0.0374422
0.0369008
0.0541761
0.0621231
-0.143156
0.0810324
-0.0740439
-0.603828
0.749064
-0.52885
0.0225555
0.0141361
-0.0944939
0.0225555
0.111119
0.00340153