/*--------------------------------*- C++ -*----------------------------------*\
| =========                 |                                                 |
| \\      /  F ield         | OpenFOAM: The Open Source CFD Toolbox           |
|  \\    /   O peration     | Version:  2306                                  |
|   \\  /    A nd           | Website:  www.openfoam.com                      |
|    \\/     M anipulation  |                                                 |
\*---------------------------------------------------------------------------*/
FoamFile
{
    version     2.0;
    format      ascii;
    arch        "LSB;label=32;scalar=64";
    class       volVectorField;
    location    "1";
    object      U;
}
// * * * * * * * * * * * * * * * * * * * * * * * * * * * * * * * * * * * * * //

dimensions      [0 1 -1 0 0 0 0];

internalField   nonuniform List<vector> 
2186
(
(1.27131 0.0326925 1.51881e-19)
(1.95226 -0.940953 -2.10999e-19)
(1.65364 -0.891988 -4.77658e-21)
(0.743274 -0.580896 -1.166e-19)
(0.461876 -0.368211 3.08467e-20)
(1.00092 -0.0436801 0)
(0.814753 -0.739787 0)
(0.420038 0.409595 -5.09125e-21)
(1.18358 0.405632 1.69086e-20)
(0.568448 -0.324577 -2.40913e-21)
(0.710468 0.622698 0)
(2.42989 0.445675 -3.22513e-19)
(0.414567 0.388476 4.89119e-21)
(1.0333 0.0296145 -3.34778e-19)
(2.15469 -0.331911 -1.63557e-19)
(1.08684 0.042932 1.51131e-19)
(0.988409 -0.0109883 0)
(0.696584 -0.2052 0)
(1.00688 -0.0122495 0)
(0.547988 -1.29427 -1.40373e-19)
(0.510668 0.0853677 -9.64306e-20)
(1.79564 -0.835377 3.43312e-19)
(0.995408 0.0024549 2.7837e-19)
(1.22035 0.44119 5.18176e-20)
(1.04915 -0.0218044 -2.12556e-19)
(0.79589 -0.553336 0)
(0.719998 -0.0615427 1.21509e-19)
(0.682861 -0.649674 -1.29664e-19)
(1.24034 0.667216 0)
(1.01371 -0.0274034 -2.98931e-19)
(0.209553 -0.800762 0)
(0.958991 -0.0860817 1.01784e-20)
(0.855401 -1.04292 0)
(1.08459 0.00675387 -2.09708e-20)
(0.672788 1.05343 -1.70177e-20)
(1.67023 0.62169 -2.12929e-20)
(1.02792 0.0414628 -1.29619e-20)
(0.519281 0.126773 -2.86452e-19)
(1.28774 -0.281081 -2.15104e-20)
(0.972353 0.0442935 -2.16966e-21)
(0.485891 0.424664 0)
(1.61097 -1.1766 0)
(2.44555 -0.522689 2.10056e-19)
(1.14446 -1.25678 0)
(1.13023 0.317403 1.17367e-19)
(0.61552 -0.308244 2.34774e-19)
(1.08299 -0.893112 0)
(1.2626 -0.741895 6.46945e-20)
(1.04228 -0.0105563 0)
(0.667597 -0.439873 -1.72805e-20)
(-0.122047 -0.760884 2.06442e-19)
(0.68546 0.622714 5.96465e-20)
(2.28647 -0.139776 1.50449e-19)
(0.569049 0.255667 -2.29548e-19)
(0.902738 -1.20239 4.02626e-20)
(0.795342 -0.658158 0)
(2.39908 -0.93848 4.30148e-20)
(0.632803 -0.583277 0)
(1.30215 -0.277032 8.30108e-22)
(1.13557 -0.121808 -2.49207e-19)
(1.05055 -0.0271196 -1.77181e-20)
(1.31498 0.210396 -1.31178e-19)
(1.33444 0.47026 0)
(0.992188 -0.0759735 2.37715e-21)
(1.30383 0.308814 -6.90346e-20)
(1.30214 -0.687864 -7.83385e-20)
(1.18942 0.569299 3.67199e-20)
(0.667589 0.0631158 -4.64603e-19)
(0.832487 0.07324 0)
(1.15324 0.297929 -4.52705e-21)
(0.448973 0.462081 -3.60097e-21)
(1.05003 0.0038698 1.24985e-20)
(0.726724 -0.0343042 -2.03581e-19)
(0.899649 -0.486309 0)
(0.780179 0.165494 -7.47469e-20)
(0.586545 -0.530628 -2.41141e-19)
(1.03621 -0.0530291 0)
(1.01796 0.0284531 3.29389e-19)
(0.417747 0.949617 0)
(1.57455 -0.503484 0)
(0.985623 -0.256747 -1.16664e-20)
(1.06579 0.0843492 5.04367e-21)
(0.994631 -0.0258738 3.67054e-20)
(1.33195 0.305881 1.84314e-20)
(0.947092 -0.0478558 3.77946e-19)
(0.992425 0.0675083 -8.89251e-21)
(0.647688 0.173398 -2.74971e-19)
(1.01783 0.0174196 8.79121e-22)
(0.959833 0.0364899 0)
(-0.568849 -0.787648 2.861e-19)
(0.892449 -0.601086 -1.24922e-19)
(0.509705 -0.715196 1.38396e-20)
(1.0651 -0.175637 2.22814e-19)
(0.79235 -0.168135 0)
(1.01257 -0.00870311 3.68248e-20)
(1.41724 0.526691 0)
(1.80667 -0.816578 0)
(1.27978 0.0914287 0)
(0.573155 -0.420267 0)
(0.805677 -0.655574 2.28063e-19)
(0.955429 -0.127257 3.18654e-20)
(0.975702 -0.184115 -2.1829e-20)
(1.31991 0.126322 0)
(1.02461 -0.0638207 -2.03735e-19)
(0.911572 -0.0123302 1.61662e-19)
(0.777404 -0.745879 2.02847e-20)
(0.639634 0.487145 0)
(1.33277 0.057129 5.88898e-21)
(0.982825 -0.427809 6.33006e-20)
(1.00119 0.0156647 -1.95417e-20)
(1.63857 -0.541224 9.54674e-20)
(0.614105 -0.495595 9.12922e-21)
(0.931758 -0.828768 0)
(0.548941 0.331111 1.38761e-19)
(1.27822 0.451716 -7.03405e-20)
(0.269356 0.207282 1.24856e-19)
(1.01182 -0.101377 -1.71497e-20)
(0.956003 -0.0547585 0)
(-0.708652 -0.705196 -8.51938e-19)
(0.722431 -0.0609499 6.45057e-20)
(1.69695 0.859288 0)
(0.747758 -0.385034 3.037e-20)
(0.910817 0.75806 -2.05375e-19)
(0.757729 -0.154447 -6.6265e-20)
(0.985045 -0.0153591 0)
(1.02537 0.011964 2.1607e-20)
(0.557744 -0.44249 0)
(0.706937 -0.493075 -8.5774e-20)
(0.727645 -0.18362 3.66746e-20)
(0.886127 -0.786589 0)
(0.447028 -0.295512 3.45124e-19)
(0.562461 -0.468574 2.28068e-19)
(0.514302 -0.464273 0)
(1.05582 -0.797463 -7.9387e-20)
(0.951254 -0.222595 0)
(0.726251 -0.455646 1.35055e-20)
(0.85021 -0.703643 1.06055e-19)
(1.41844 0.284876 9.79435e-21)
(1.32708 -0.093842 0)
(0.106592 0.360078 0)
(0.758773 0.693831 -2.44743e-19)
(1.82226 -0.311972 3.56847e-20)
(0.222811 0.240156 0)
(1.03466 -0.802838 -9.08192e-21)
(1.10749 0.135506 0)
(0.95605 -0.0286183 3.41269e-19)
(1.41965 0.237022 2.52967e-21)
(0.494091 -0.361556 0)
(1.20829 -0.492863 -3.62537e-20)
(1.2607 -1.40789 -5.05625e-20)
(0.566225 -0.495171 0)
(1.1663 -0.795903 1.48855e-20)
(1.0349 -0.0121182 -5.50277e-19)
(0.662754 -0.488075 -8.50891e-21)
(0.818453 -0.531715 0)
(1.29101 -0.673389 -5.52579e-20)
(0.627346 0.218544 2.1507e-19)
(1.21025 0.0369468 0)
(1.58488 -0.113557 -1.30139e-19)
(1.29011 -0.884367 -7.84859e-20)
(0.0656047 0.390445 -6.56054e-20)
(0.800962 0.317574 2.39062e-20)
(0.973653 0.0378171 1.96946e-19)
(0.937755 -0.463737 -7.95997e-20)
(1.01264 0.00727783 -8.13882e-22)
(1.0253 0.0154701 -1.22487e-22)
(2.29336 0.631872 3.42152e-19)
(1.8673 1.15412 -5.79069e-19)
(1.05343 -0.0280984 0)
(0.978912 -0.00420126 -1.54255e-20)
(1.45352 0.61654 7.12269e-20)
(0.833554 -0.601168 -1.66339e-19)
(1.03196 -0.00483156 1.13946e-20)
(0.738573 -0.529935 2.35894e-19)
(1.39984 0.716375 5.98824e-20)
(1.5401 -0.162594 -6.60364e-22)
(0.449673 -0.328368 0)
(1.03175 0.00593421 -2.06081e-19)
(0.815443 0.118439 4.18228e-20)
(1.08209 0.486369 5.98612e-20)
(2.29361 1.1186 3.46801e-19)
(1.00376 -0.0176139 -3.86931e-20)
(0.274495 -0.991798 -1.73449e-19)
(1.31524 0.446315 -4.35193e-20)
(1.2029 0.883787 0)
(0.471409 -0.279939 2.78506e-20)
(0.0342733 0.0127842 0)
(0.661691 0.553339 -2.22021e-19)
(1.44163 -0.204779 -7.68331e-22)
(0.422781 0.349582 -2.83405e-20)
(0.511789 -0.0440959 1.73577e-19)
(0.746421 0.0557956 2.04021e-19)
(0.976438 -0.159154 4.67723e-21)
(0.986628 -0.324335 -2.32962e-20)
(-0.106515 0.0732659 0)
(0.976944 0.0149129 -3.12653e-20)
(1.52986 1.02275 6.85166e-20)
(0.790201 0.0402619 -1.10357e-19)
(0.587263 0.540784 1.53544e-19)
(2.12282 0.000773685 0)
(0.694442 0.51391 9.54071e-21)
(0.978357 -0.0232584 -2.70628e-20)
(1.46837 -1.00888 -2.04918e-22)
(0.884904 -0.0942098 -1.65089e-19)
(1.01086 -0.243335 -1.89757e-20)
(0.248129 -0.2337 -1.12823e-20)
(1.10763 0.438413 -5.91553e-19)
(1.0491 -0.0670773 0)
(0.986059 -0.0356501 -2.74542e-19)
(1.11593 -0.0537887 -1.84789e-20)
(1.29673 -0.546716 5.21207e-20)
(1.02869 -0.0324499 -3.18782e-21)
(0.570135 0.307979 0)
(0.963545 0.731777 -1.19023e-20)
(0.740549 0.667011 1.39404e-19)
(0.92374 -0.520006 1.14026e-19)
(0.682656 0.486255 0)
(1.0242 -0.0128135 7.05021e-21)
(0.925131 -0.662752 1.60821e-19)
(0.807474 0.397476 -3.63819e-19)
(1.31198 0.0262861 0)
(0.041469 0.0251446 8.89071e-20)
(0.768497 -0.922093 -3.38793e-20)
(1.69353 0.635473 0)
(1.48214 -0.92105 1.75472e-22)
(0.706636 -0.248244 0)
(0.518821 -0.411188 -1.53698e-20)
(0.748426 0.642691 -7.65478e-20)
(0.833083 -0.200014 0)
(1.17575 1.4087 0)
(2.46746 0.525659 0)
(0.976474 -0.0198493 -4.15686e-20)
(1.32786 -0.885167 5.14698e-20)
(1.24368 -0.528283 4.02686e-20)
(0.940807 -0.160673 -1.11371e-19)
(0.905349 -0.685203 -1.26154e-19)
(0.207336 -0.210946 0)
(0.814451 -0.0621162 0)
(1.05489 -0.50187 1.27938e-19)
(0.264567 0.38221 0)
(0.655561 -0.37663 0)
(0.271818 0.184822 -1.08741e-19)
(0.801568 0.650836 6.6407e-20)
(1.04923 0.769014 0)
(0.69311 0.534495 -6.78824e-20)
(0.842845 -0.0727764 -1.83814e-19)
(0.743558 0.542565 -1.80395e-19)
(0.619396 0.563106 -1.3215e-19)
(0.450749 0.542739 -7.74857e-21)
(0.783269 -0.691014 0)
(0.896717 0.150075 -2.61148e-19)
(0.513405 0.491808 -1.3067e-21)
(0.646234 0.588621 2.91647e-19)
(0.984105 0.788773 0)
(0.969658 0.00259447 -4.01621e-20)
(0.665062 1.03306 1.13327e-19)
(1.1241 1.08525 -4.24677e-20)
(0.66713 0.557095 -1.18278e-20)
(0.93054 0.0473379 5.33557e-20)
(0.489134 0.40872 0)
(1.11319 0.102442 1.56814e-20)
(1.03177 -0.0175341 2.98044e-20)
(0.714367 -0.648486 -5.7617e-20)
(0.806551 -0.161383 -1.9281e-21)
(1.1869 0.425691 1.26743e-19)
(0.871808 0.391962 0)
(1.10494 -0.288963 1.56226e-19)
(0.997054 0.89689 1.77843e-20)
(0.033039 -0.854692 3.76799e-19)
(1.08128 0.0474614 -4.65186e-20)
(1.24766 0.0552625 0)
(1.31702 0.149161 -1.28761e-20)
(1.28547 -0.102313 0)
(0.523929 0.239837 -3.7873e-19)
(0.308086 -0.276424 0)
(0.423013 0.469145 1.03807e-20)
(1.11856 0.214467 0)
(0.637575 -0.513701 -1.46146e-19)
(1.062 -0.0939793 1.86236e-19)
(0.544832 -0.371651 -8.30558e-21)
(1.09361 0.00305078 -3.30083e-21)
(1.27634 0.326432 -2.17525e-20)
(1.05956 0.220147 -1.69891e-19)
(0.521539 0.466243 1.05461e-20)
(1.1599 -0.857625 0)
(0.90882 0.0647378 -1.35917e-19)
(0.920225 -0.325378 -2.27352e-19)
(1.86038 -0.205196 -1.38009e-20)
(1.24243 0.0323457 7.88667e-22)
(0.966847 0.0874178 3.31896e-19)
(0.905229 0.722001 -2.39975e-21)
(0.975053 -0.388402 -9.70716e-20)
(0.213298 -0.201312 2.07832e-19)
(1.04023 0.0535108 0)
(0.964244 -0.0660207 0)
(1.03213 -0.0278076 -1.26211e-20)
(0.717955 -0.504518 -7.33231e-22)
(0.838603 -0.103188 -3.56639e-19)
(0.96012 -0.00228578 -1.4473e-21)
(1.00664 -0.0330538 0)
(1.07839 -0.148766 1.10663e-20)
(1.10028 -0.927985 -3.00867e-20)
(2.07131 0.0868604 -1.13193e-19)
(1.15909 0.812581 0)
(0.506034 -0.475374 0)
(0.609104 0.505385 -1.43049e-19)
(1.05755 0.256557 -3.03618e-19)
(1.45124 0.263212 2.83929e-23)
(0.888243 0.165647 1.13148e-19)
(0.866056 0.472043 3.09867e-20)
(0.911708 0.0378849 7.04901e-21)
(0.684329 0.382111 0)
(-0.0296547 0.459014 0)
(0.47325 0.328644 0)
(1.38519 -0.687999 -2.25467e-20)
(0.567904 -0.530651 -1.6677e-20)
(0.42125 -0.487085 0)
(1.45438 1.02139 8.08163e-21)
(1.00387 0.0511691 -3.33072e-19)
(1.05994 0.0394149 8.84106e-21)
(1.20305 0.989155 2.23994e-20)
(0.659923 -0.534987 -2.20839e-21)
(0.986222 -0.0367078 0)
(0.441018 0.300413 8.03307e-20)
(0.593832 -0.478684 -1.38446e-20)
(0.796277 -0.00901851 1.49536e-19)
(1.73498 0.83873 1.18993e-19)
(1.0288 0.0257607 1.07479e-20)
(0.483311 -0.7994 4.57015e-21)
(0.819232 -0.735472 -2.62382e-20)
(1.29013 0.0122763 0)
(1.24467 -0.0396984 0)
(1.13531 -0.0346972 0)
(0.958706 0.00566565 2.85932e-20)
(0.522675 0.357124 -2.24899e-20)
(1.09282 0.834311 0)
(1.06421 0.0372116 4.33527e-19)
(0.76159 0.580509 -1.80074e-19)
(1.00052 0.00472719 1.5807e-20)
(0.846573 -0.0676521 -3.38809e-20)
(0.770608 -0.686486 -1.63125e-19)
(1.4427 0.593279 -7.04688e-21)
(0.583427 -0.464573 -2.38015e-19)
(1.00088 -0.00121281 -4.05052e-19)
(1.05336 -0.00270278 3.85633e-20)
(1.37491 -0.186101 4.25858e-20)
(1.01335 -0.00719977 1.43581e-20)
(0.0761809 0.149153 -7.36308e-21)
(1.10216 0.458781 -2.0229e-19)
(2.17191 0.63685 1.99844e-19)
(1.30572 1.45905 0)
(0.818026 0.432118 -1.4584e-20)
(0.0597104 0.0510083 -3.81282e-20)
(0.407389 0.223375 -4.42956e-19)
(0.466474 0.307979 0)
(0.966646 -0.043886 0)
(-0.574341 0.313613 -2.24609e-19)
(0.546183 0.536081 1.07816e-20)
(0.956575 0.00650397 1.60014e-19)
(0.369828 -0.278492 1.11754e-20)
(1.01742 -0.0808237 4.16225e-20)
(0.780065 -0.573091 0)
(0.90842 -0.785341 -2.09487e-19)
(0.998451 -0.0130267 -2.68655e-20)
(0.791111 0.200362 -3.00323e-20)
(0.672176 0.173381 2.6797e-19)
(0.622459 0.12981 8.73686e-20)
(0.537734 -0.500839 1.62082e-19)
(0.252006 0.288666 3.15937e-21)
(0.950274 0.0340527 0)
(0.390228 0.345825 -1.60688e-19)
(0.96831 -0.0347209 -2.4713e-19)
(0.561929 -0.0744356 -6.96983e-20)
(1.42658 0.33616 -6.09266e-20)
(0.332829 0.452726 -7.16848e-21)
(0.877906 -0.780957 2.85504e-20)
(0.82006 0.132369 -1.65629e-19)
(0.969022 0.395252 1.75825e-20)
(1.09574 -0.0827817 2.71371e-20)
(0.617589 -0.238437 -2.4626e-19)
(1.64511 0.180537 -6.73741e-20)
(0.944291 -0.0296774 0)
(0.967951 0.0561358 7.02057e-21)
(1.00333 -0.0236199 4.88773e-21)
(1.00953 0.246069 -1.01877e-20)
(2.44058 -0.722839 -3.37924e-19)
(0.976389 -0.00478698 -1.16184e-20)
(0.420869 0.386332 -2.06627e-19)
(0.794297 -0.288118 -3.23884e-20)
(1.08039 0.281639 0)
(1.01191 -0.0108257 0)
(0.987101 -0.845897 3.57861e-20)
(0.598577 0.954071 -1.2592e-19)
(0.82414 -0.0856375 3.52163e-20)
(0.137413 0.244281 -7.85293e-20)
(0.700063 -0.330341 2.799e-20)
(0.72416 0.313102 0)
(-0.135669 0.382189 4.13521e-20)
(1.03175 -0.691366 -1.65497e-20)
(0.221404 -0.209 2.75972e-20)
(0.838617 -0.0955316 0)
(0.991586 -0.0031379 -1.34102e-20)
(0.0800748 0.0597201 0)
(1.01182 0.00827211 3.26047e-19)
(0.82019 0.369279 -6.97719e-21)
(0.559455 -0.437631 3.18991e-19)
(0.768366 0.122435 -6.91549e-20)
(0.928415 -0.0189195 0)
(0.893911 -0.536158 1.96113e-22)
(1.00879 0.0129965 -9.82871e-21)
(1.87554 1.43498 0)
(0.949306 -0.0249521 -5.13267e-20)
(0.893883 -0.742933 -2.08709e-19)
(0.939896 -0.038799 0)
(0.961482 -0.275405 1.63862e-19)
(0.845971 -0.384342 -2.52854e-20)
(-0.425922 -0.290688 0)
(0.692146 0.464365 6.04802e-22)
(0.742377 -0.637106 -3.31081e-19)
(0.95192 -0.00903571 -2.31754e-19)
(0.734043 0.875284 6.6636e-20)
(0.394286 0.533185 1.81859e-20)
(0.67755 0.353965 0)
(0.967751 0.436774 0)
(0.80536 0.270329 -3.02312e-20)
(1.03137 0.118745 1.48614e-20)
(1.1656 0.933174 9.70523e-21)
(0.953327 0.245008 -9.9759e-20)
(1.12617 0.0203951 -1.79335e-19)
(1.36851 0.0943832 -5.20035e-20)
(0.661492 0.776932 -4.72881e-20)
(1.03947 -0.0479592 -4.03679e-20)
(1.00719 -0.0425646 1.60092e-19)
(1.03927 0.03992 -8.9911e-21)
(1.03673 -0.342816 0)
(0.996391 0.0385578 -3.6662e-20)
(0.997654 -0.00375056 -4.42604e-19)
(1.83017 0.435684 -5.1095e-20)
(0.749265 -0.450067 -1.29142e-19)
(-0.716555 -0.454167 6.49911e-19)
(0.855101 -0.731785 2.77903e-19)
(1.24464 0.128125 5.56781e-20)
(1.0431 0.02682 2.28053e-19)
(0.896037 0.581837 2.09967e-21)
(1.0853 0.0672366 0)
(1.06969 -0.0134883 1.81239e-20)
(-0.500552 -0.124901 0)
(1.00422 0.00212915 -1.33887e-19)
(0.97664 -0.0202654 4.67239e-20)
(1.49129 0.114081 1.72564e-20)
(0.202774 0.148612 -5.57909e-20)
(1.3014 -0.0167318 -1.65872e-23)
(0.978035 -0.0427179 4.62015e-20)
(1.2214 0.00465168 0)
(1.46633 -0.456221 -5.13662e-20)
(0.892213 -0.0513836 -1.29678e-19)
(1.5181 0.772689 3.14788e-20)
(1.2246 0.0255206 0)
(1.05416 0.0586993 -1.59923e-21)
(-0.614148 0.0682037 0)
(1.45994 0.0104495 0)
(0.534986 0.396149 0)
(1.20422 0.339079 0)
(1.42325 -0.462401 1.34144e-20)
(0.743707 0.59484 3.1521e-19)
(0.320719 -0.321288 -1.91813e-19)
(0.511454 0.580846 -1.21426e-20)
(-0.152992 0.100297 0)
(1.01165 -2.24483e-05 -1.74838e-20)
(2.61945 0.027996 0)
(1.39157 0.2265 0)
(0.453153 0.280971 -3.54812e-20)
(0.855881 0.733069 9.23602e-20)
(1.59791 0.170337 0)
(0.367453 0.329435 -9.53453e-21)
(0.896528 0.204211 1.52814e-19)
(1.03514 -0.00752947 1.36089e-20)
(1.34455 0.9188 1.6108e-20)
(1.09462 -0.963793 -4.03302e-21)
(0.952006 -0.0264423 1.36848e-20)
(0.856126 0.754872 9.26185e-20)
(1.30085 0.959307 0)
(1.06301 -0.0147185 -1.3875e-20)
(0.999533 0.0283626 0)
(1.06116 0.0368512 -1.52103e-20)
(1.77195 -0.996394 2.36939e-19)
(0.993863 0.0409326 0)
(0.955161 0.0170971 -3.64038e-20)
(0.917759 -0.233929 3.8437e-20)
(0.639196 -0.418401 0)
(0.672102 -0.390849 1.71581e-19)
(1.22839 0.536779 -2.25132e-20)
(0.494989 0.462225 2.23312e-19)
(0.268701 -0.261851 -4.46667e-21)
(1.29149 -0.866363 6.64295e-20)
(1.07192 0.0210376 0)
(1.43998 -0.916624 1.93402e-20)
(1.00236 0.0319001 3.50904e-19)
(2.00628 -0.603348 2.65393e-19)
(0.350166 0.312306 -9.33347e-21)
(0.805861 0.104118 0)
(1.10024 -0.168175 -8.36606e-20)
(-0.376933 -0.144104 -2.3175e-19)
(0.938929 0.102042 4.84212e-21)
(-0.502839 0.83451 8.43784e-21)
(-0.264293 0.642625 9.02147e-19)
(0.997649 -0.00213706 -4.20156e-21)
(1.29367 0.0813346 -2.10374e-20)
(1.19784 0.398645 -2.04376e-19)
(1.05981 0.0217242 0)
(1.23169 -0.0324737 -3.03252e-20)
(1.2932 0.0158212 5.76089e-21)
(0.954417 -0.777396 9.82495e-20)
(1.39154 -1.11095 2.61276e-20)
(0.505151 0.46324 1.48346e-19)
(0.998093 0.039061 0)
(1.89637 0.110613 9.61487e-20)
(-0.315777 0.00375513 -4.3247e-19)
(0.941765 0.792566 0)
(0.997623 0.0357854 0)
(0.320098 -0.314982 -3.75745e-21)
(0.328754 0.307051 0)
(0.860141 0.057102 6.01001e-20)
(0.459532 -0.40154 8.69261e-21)
(2.0885 0.562962 0)
(1.19658 0.0659683 8.81624e-20)
(0.812192 -0.138425 -2.97387e-20)
(0.58089 -0.544884 -3.63027e-19)
(1.15144 0.0700668 3.19503e-21)
(0.660641 -0.59064 0)
(1.25206 0.0351324 0)
(1.7808 0.911786 0)
(1.11973 0.194012 -1.75537e-19)
(1.12097 0.0326946 2.53138e-19)
(0.903984 0.030064 0)
(0.867072 -0.114328 0)
(1.07046 -0.0095562 3.91923e-22)
(0.310572 -0.591775 4.81556e-20)
(1.11362 -0.0346389 2.4336e-20)
(1.99432 -0.736724 4.74913e-19)
(1.00091 -0.00658583 3.52881e-20)
(0.759506 -0.103069 2.54686e-20)
(1.12447 -0.0935169 2.74047e-20)
(0.971317 -0.0345848 3.58299e-19)
(1.55458 0.390958 0)
(0.57038 -0.459157 -1.66507e-21)
(1.07619 -0.849375 1.07717e-19)
(0.789015 0.0524367 3.9601e-20)
(0.6448 -0.444245 0)
(1.94197 -0.272729 1.47306e-20)
(1.174 -0.0973533 1.00895e-19)
(0.966482 -0.0420317 0)
(0.677525 -0.625327 3.13131e-19)
(1.01385 -0.00671096 1.27193e-20)
(0.963979 -0.125262 -4.27019e-20)
(0.469047 -0.572551 -5.11545e-20)
(1.36013 0.521897 8.35147e-20)
(1.09899 0.322379 2.70677e-21)
(0.900925 0.340942 1.78978e-19)
(0.996863 0.100739 1.95776e-20)
(0.645601 0.693263 7.89576e-21)
(1.10528 0.245969 0)
(0.0990512 -0.49725 1.09618e-18)
(1.37699 -1.14333 0)
(1.08011 -0.618173 1.50696e-20)
(0.977558 0.142203 5.2352e-20)
(1.02155 0.0693907 -3.9832e-22)
(0.64272 0.219237 8.12355e-20)
(0.991552 0.461669 1.33273e-19)
(0.96466 0.0266832 -3.15601e-20)
(0.906878 -0.00259811 0)
(0.96153 -0.0394004 0)
(0.945135 0.0288662 3.42278e-21)
(0.954929 -0.0222055 0)
(1.3045 -0.204688 -1.03798e-19)
(0.770897 -0.044748 -8.18244e-20)
(1.81202 0.129512 4.6924e-20)
(1.02657 0.00415134 0)
(0.568721 -0.36041 8.40174e-20)
(0.995227 -0.015712 1.75881e-19)
(0.99425 0.0150479 2.31703e-20)
(0.749024 -0.269563 0)
(1.06451 -0.43435 3.60747e-19)
(1.02645 0.00161715 7.103e-23)
(1.10524 -0.470248 -1.57567e-19)
(1.45713 -0.240101 6.49997e-21)
(1.33701 0.768484 0)
(1.04614 0.0164722 0)
(0.413184 0.338041 3.5172e-20)
(-0.526039 0.0676668 2.52847e-19)
(0.946401 0.330011 -1.62554e-19)
(0.908428 0.391586 -1.00919e-21)
(0.65665 0.382757 1.98088e-19)
(1.0159 -0.013259 0)
(0.605706 -0.55614 0)
(0.988336 0.0077813 1.26342e-21)
(1.27247 -0.442813 -6.67663e-20)
(1.39954 0.852486 7.35097e-21)
(0.742744 -0.137899 9.64426e-20)
(0.0580351 -0.601501 -2.2143e-19)
(0.979674 -0.161323 -2.67171e-20)
(0.711534 0.648113 0)
(1.30204 0.595092 0)
(1.40307 0.193698 0)
(0.646715 0.327129 2.92446e-20)
(2.05574 0.650165 6.05786e-19)
(1.20632 0.101839 -3.12123e-21)
(1.05064 0.0439628 0)
(1.00709 0.0459806 0)
(1.24522 -0.145218 3.04852e-20)
(0.989153 0.030642 -2.7352e-20)
(1.00503 0.0126471 -1.74808e-19)
(1.42687 0.37103 0)
(0.739512 -0.32552 0)
(1.23216 0.261007 2.14612e-19)
(0.991713 0.490225 -9.7035e-20)
(1.00222 0.0182616 0)
(1.02456 0.0877914 0)
(2.55717 0.343389 -7.46414e-19)
(0.525438 -0.654648 9.8847e-21)
(1.0172 -0.0179068 0)
(0.708558 0.464279 -2.67478e-20)
(1.07103 -0.912882 0)
(1.00962 0.0168871 4.0912e-20)
(1.00126 -0.0338089 2.78756e-20)
(0.878956 -0.283376 2.37734e-19)
(0.963746 -0.00890626 -2.10169e-20)
(1.29845 0.0480528 -8.36106e-21)
(1.00134 0.0124366 -1.39813e-20)
(0.947843 -0.00646446 0)
(1.08763 -0.0336022 0)
(0.800276 0.179164 0)
(0.735974 0.691799 -1.39613e-19)
(0.0337903 -0.509121 1.29644e-19)
(1.14703 0.26445 -3.4844e-19)
(0.535055 -0.273011 0)
(0.833437 0.61234 1.30936e-19)
(0.99634 -0.365167 0)
(1.05859 0.0543949 1.06604e-19)
(1.00404 0.0528429 -3.93987e-21)
(1.0164 0.345075 1.9446e-19)
(1.02449 -0.192873 0)
(1.30052 -0.083149 6.05543e-21)
(0.73727 -0.070479 -2.98022e-19)
(0.832644 0.0551079 6.84571e-20)
(0.987316 0.0416986 0)
(0.865442 0.233674 1.39762e-19)
(1.15687 0.221643 0)
(0.770405 0.505614 2.877e-19)
(0.867448 -0.0365985 -2.66265e-20)
(0.299786 -0.504236 0)
(0.628147 0.584643 -5.55245e-20)
(1.05101 -0.651326 -1.05874e-19)
(0.487186 -0.261753 -1.01595e-19)
(0.927941 0.0263608 0)
(0.809645 -0.213627 2.75279e-20)
(0.665519 -0.5807 6.44063e-20)
(0.902874 0.289439 0)
(1.01612 0.0224002 -1.40454e-20)
(1.05554 0.862161 1.638e-20)
(1.04415 0.0647647 -2.45677e-20)
(1.12839 0.626185 -1.00392e-19)
(0.246898 -0.0633357 -4.64865e-19)
(0.207696 0.459412 2.96084e-21)
(0.787559 0.333063 1.9642e-19)
(0.560776 -0.482223 1.53559e-22)
(1.43618 -0.568606 -6.26492e-22)
(0.987224 0.0312967 -2.96816e-19)
(0.683742 0.255201 0)
(1.01859 0.0391285 -3.48844e-19)
(1.04061 0.110285 -1.62824e-20)
(0.895948 0.666895 2.13365e-19)
(0.951677 -0.06786 1.40273e-19)
(0.94563 -0.0634843 1.36624e-19)
(1.01566 -0.0779008 6.00622e-22)
(0.205704 0.186773 -1.65873e-21)
(2.19098 -0.835523 2.73562e-20)
(1.32101 -0.0047496 -5.4818e-20)
(1.12886 -0.000367187 6.28683e-20)
(0.881685 -0.257989 7.1737e-20)
(0.900228 -0.0248752 0)
(0.973904 0.714648 0)
(1.01291 0.045815 4.69418e-21)
(1.36044 -0.0970598 1.00402e-21)
(0.788781 0.0216193 -3.23129e-20)
(0.9872 -0.580791 -3.76578e-19)
(0.640679 -0.538523 3.12566e-19)
(1.09657 -0.373663 1.94313e-21)
(0.987845 0.502416 7.79769e-22)
(0.957009 0.0299786 0)
(0.70505 0.126591 -5.5051e-21)
(0.921977 -0.0334692 2.96016e-20)
(1.07038 0.729873 0)
(0.92305 0.0120944 0)
(0.949014 -0.120097 0)
(0.343516 0.393413 -4.27874e-21)
(2.31784 -0.965642 0)
(1.02249 0.033432 -3.05966e-20)
(1.1418 0.150362 5.00892e-21)
(0.968979 -0.0397608 -1.8758e-20)
(1.0235 0.00660633 -6.44757e-21)
(1.78406 -0.0607298 -8.94281e-20)
(1.5389 0.243128 -1.88903e-22)
(-0.477621 0.916898 -7.24907e-19)
(0.733713 0.411009 -4.48758e-22)
(1.03901 -0.0115994 0)
(0.916221 0.00315506 0)
(0.944465 0.0332999 1.00255e-21)
(0.642262 0.298616 0)
(1.20068 0.0480429 5.10844e-21)
(0.928585 0.00864595 0)
(1.07804 -0.0753039 1.10713e-19)
(0.998395 0.00497643 -3.98554e-20)
(1.02195 -0.124123 -1.45966e-20)
(1.00615 0.0277402 -7.96403e-22)
(0.907307 -0.167723 -4.3424e-20)
(0.969994 -0.0802356 3.1738e-19)
(0.700215 -0.620556 1.43999e-19)
(0.931572 0.00421572 2.43392e-20)
(1.00287 -0.0468759 -6.97697e-21)
(-0.434407 -0.257725 0)
(1.16923 0.764883 0)
(0.993637 0.0434731 0)
(1.03567 -0.749029 -6.99423e-20)
(1.2327 -1.0145 -2.81382e-20)
(1.05443 0.0381804 8.64679e-21)
(0.990023 0.117279 7.16112e-20)
(1.03224 -0.00658852 5.29418e-21)
(0.603251 -0.392718 -5.15487e-19)
(1.01838 0.0128298 1.37865e-20)
(0.976409 -0.00360495 -1.87442e-20)
(1.51948 0.267758 2.98772e-20)
(0.999437 0.0247978 1.27961e-20)
(0.384223 0.372021 5.81931e-21)
(1.12872 0.531804 1.4124e-19)
(1.38118 1.41339 0)
(0.878769 0.320385 -3.46842e-20)
(-0.216842 0.414951 -1.67651e-20)
(1.01661 -0.0124151 2.9295e-19)
(1.0086 -0.0419163 -7.35513e-21)
(0.997494 0.00301953 -8.04547e-20)
(1.00394 -0.0285401 1.32709e-20)
(1.432 0.128612 3.2127e-20)
(0.420753 -0.389953 -2.54562e-19)
(0.957923 -0.0628121 -1.33722e-20)
(0.978517 0.0317906 -2.08868e-19)
(1.05341 0.0211304 7.18058e-21)
(0.972217 0.0235023 0)
(1.12847 0.521266 -2.61987e-19)
(0.867947 -0.0192186 9.1836e-20)
(0.690357 0.599138 2.06252e-19)
(0.989952 0.000594249 -9.24175e-22)
(0.998458 0.044647 -2.57598e-20)
(1.02082 -0.00480774 7.35657e-22)
(1.19711 -0.104313 -1.6742e-21)
(0.927286 -0.0279297 0)
(1.04864 0.00733388 0)
(0.896722 0.0295069 5.30032e-19)
(1.02329 -0.0333445 0)
(-0.188689 0.281801 0)
(1.64004 -0.929103 0)
(1.0238 0.0336842 -5.13371e-19)
(1.20415 -0.60045 4.88342e-20)
(1.00963 0.00924661 1.0214e-20)
(1.49039 0.925858 1.07761e-20)
(1.73586 1.01482 -3.09038e-19)
(0.987529 -0.0339595 -9.77713e-21)
(0.999159 0.063152 -1.60461e-20)
(0.970096 -0.0507341 0)
(0.74991 -0.665751 0)
(1.06435 0.1301 -3.50345e-20)
(1.00768 0.0687298 0)
(0.984948 -0.03274 -1.59491e-19)
(0.940492 -0.00742662 3.09676e-19)
(1.14806 0.0668857 -5.22174e-20)
(0.202367 -0.269177 6.97556e-19)
(1.00675 -0.00473995 1.57831e-19)
(1.03135 0.00364467 -8.6211e-21)
(1.03221 0.00752467 9.0814e-21)
(1.02547 -0.0271461 -1.3944e-23)
(1.06382 0.0337464 -1.63731e-19)
(1.054 -0.0737892 1.91865e-19)
(1.03863 -0.000630244 1.16454e-20)
(0.866745 0.0698446 0)
(0.91586 -0.0321157 0)
(0.943671 0.0236395 1.68198e-21)
(0.919938 0.0296634 0)
(0.948018 -0.0183065 0)
(0.962395 -0.00894058 0)
(0.862447 0.0523379 -9.65582e-21)
(1.04549 -0.052109 7.96428e-21)
(1.00792 0.0159702 0)
(1.0059 -0.00558905 -1.79001e-21)
(0.987281 0.0021072 0)
(0.867977 -0.0626452 0)
(0.929965 0.0206096 0)
(0.898092 -3.59552e-05 -1.10208e-21)
(0.913591 -0.0151211 -2.4734e-20)
(0.859407 -0.0617039 0)
(0.936854 -9.85981e-05 0)
(1.01815 0.0186239 -2.00968e-19)
(0.90493 -0.0233306 3.8449e-19)
(1.00746 0.0159206 0)
(0.965241 0.00550908 3.6943e-19)
(0.968544 0.00381656 -2.14617e-21)
(0.906774 -0.0406345 3.19633e-19)
(0.985082 0.0158162 -1.82322e-19)
(1.0463 0.0148529 0)
(0.863712 0.0342995 -9.08878e-21)
(1.04143 0.00683804 -1.84803e-19)
(0.915309 -0.0214038 -3.20428e-19)
(1.01296 0.00215686 0)
(0.89967 0.0396825 0)
(0.901044 0.00309398 0)
(1.01754 -0.0400106 -5.70586e-21)
(1.02812 0.0179377 8.7779e-21)
(0.939613 0.00093487 0)
(0.317789 -0.264167 -4.93055e-20)
(0.976045 0.0211221 3.58507e-20)
(1.02331 0.0157436 -2.36901e-19)
(0.57329 0.459409 1.68818e-20)
(1.09024 0.025234 -1.87588e-19)
(1.2377 -0.208615 -6.3229e-20)
(0.790936 -0.462335 2.38755e-19)
(0.0781249 0.204137 -4.62997e-20)
(1.01618 0.0294478 0)
(1.0464 0.0154771 -4.98893e-20)
(1.00336 -0.05647 0)
(-0.384654 -0.468391 4.41844e-19)
(1.05048 -0.0374338 0)
(0.557711 0.342415 6.16111e-20)
(1.02687 0.0217738 9.11276e-21)
(1.82086 0.403439 1.59234e-19)
(-0.208978 0.166749 0)
(0.978444 -0.0647534 1.60259e-19)
(1.04943 -0.00659314 8.67298e-22)
(0.9207 -0.0482618 2.33879e-19)
(1.0184 0.0110664 -1.60615e-19)
(1.91066 0.653121 1.59709e-19)
(0.542322 0.500239 0)
(0.446648 0.399771 1.67533e-19)
(1.04719 -0.082617 1.60957e-21)
(1.16606 0.107503 1.45791e-19)
(1.14144 -0.661568 0)
(0.996526 -0.00400537 0)
(1.00243 -0.0639232 -3.65915e-19)
(1.00279 0.00456479 -3.62419e-19)
(0.286167 0.614312 0)
(1.29856 0.788058 -6.11154e-20)
(0.999858 0.0368534 9.8393e-22)
(0.96699 0.0243808 1.40027e-19)
(0.99352 0.0117041 -1.7621e-19)
(0.518864 0.268312 7.01118e-21)
(0.898262 -0.0190849 -1.80174e-20)
(0.930058 -0.0970268 5.86442e-19)
(0.989916 -0.0132683 0)
(2.09603 0.30853 -1.52496e-19)
(0.989058 -0.0317043 -1.8576e-19)
(1.13258 -0.0157257 7.55556e-21)
(1.00683 -0.00284698 -4.12728e-22)
(1.02869 0.0626701 3.74642e-20)
(1.23424 0.277906 -9.01882e-21)
(1.00691 0.0153766 1.79504e-19)
(1.01126 0.00983474 -1.89282e-22)
(0.962116 0.0464882 0)
(0.895999 0.128287 3.99952e-20)
(0.963724 0.111966 -5.52709e-22)
(1.02034 0.00673302 1.76619e-19)
(1.05287 0.0526081 -8.36793e-21)
(1.03829 -0.0291467 -3.47543e-21)
(1.18967 0.24297 3.0106e-19)
(1.01097 -0.0111046 1.22836e-19)
(1.00706 0.0224661 1.37955e-21)
(1.57153 0.0640148 -1.14105e-20)
(2.46243 0.957731 -2.71276e-19)
(0.856656 -0.752527 4.01421e-20)
(0.461653 -0.337116 -2.51904e-19)
(0.955537 -0.0450888 0)
(1.00068 0.0139171 4.48479e-20)
(1.0309 -0.0392266 9.23399e-20)
(1.07229 0.0112971 1.9407e-21)
(1.01695 0.0121992 -1.88908e-19)
(1.04473 -0.0490881 2.06785e-19)
(0.939352 -0.000555937 -1.74128e-19)
(1.0042 -0.00885436 -1.76708e-21)
(1.02124 0.0415321 1.57402e-21)
(0.996909 -0.00104105 1.79512e-19)
(0.854446 0.098489 4.19737e-19)
(1.04926 -0.0104036 0)
(0.964927 0.0744283 -2.19253e-20)
(0.989962 -0.00930418 0)
(1.00302 0.0119357 -5.13836e-20)
(1.5481 0.299858 -3.71358e-20)
(1.00174 0.0473949 0)
(1.00387 -0.0301576 1.82631e-20)
(0.99213 0.0260188 5.43269e-21)
(1.11739 -0.000959172 0)
(1.06839 0.137786 0)
(0.995704 0.0115177 2.65996e-20)
(1.01457 -0.0241881 -4.01577e-21)
(1.02151 -0.0199285 -1.86452e-19)
(1.13048 -0.555129 -4.3276e-20)
(0.908651 -0.0332643 -3.38822e-21)
(1.00579 0.0268303 0)
(1.05047 0.0583146 0)
(0.928574 0.0405399 0)
(0.996909 -0.570343 1.95824e-21)
(1.01038 0.00659434 1.56723e-20)
(0.988129 -0.00245916 0)
(0.833787 -0.343813 3.80764e-20)
(1.95137 0.943694 -2.34354e-19)
(0.999588 0.00205597 -3.68515e-19)
(1.01647 0.0033932 7.6146e-21)
(0.861796 0.0566076 2.40013e-19)
(0.920401 -0.0106623 0)
(0.151481 0.7678 -1.80887e-20)
(0.614456 0.411215 -2.78579e-19)
(1.00355 0.0402183 -1.90076e-20)
(0.840193 -0.442834 0)
(1.15155 -0.0393258 5.10525e-20)
(0.545892 0.513848 4.14544e-20)
(1.26539 0.872704 -1.25476e-20)
(-0.676944 -0.429532 2.90942e-19)
(0.979791 0.0725142 0)
(0.994027 8.8515e-06 1.04954e-20)
(1.00118 -0.00210042 1.376e-19)
(1.14842 -0.122861 0)
(1.00996 0.00347334 2.32069e-19)
(0.901641 0.383153 1.42208e-20)
(0.995453 0.0428058 -1.41836e-19)
(0.976444 0.0137176 0)
(0.991384 -0.0258929 -7.68358e-23)
(0.982244 0.00497724 -9.80732e-20)
(0.96879 -0.0220553 2.44814e-19)
(1.15192 0.107505 -3.15726e-21)
(0.994869 -0.0123669 -1.36784e-20)
(-0.276522 -0.445697 1.16897e-18)
(1.36905 -0.454362 1.70048e-20)
(0.99425 0.00714586 1.51561e-20)
(0.961687 -0.00322768 -3.44226e-19)
(1.01063 -0.0409012 0)
(1.01838 0.00646829 9.4664e-21)
(1.01418 -0.00492594 -2.69238e-20)
(0.943937 0.0113535 0)
(1.01405 -0.0313696 -1.74439e-19)
(1.00319 -0.0217638 -1.65387e-20)
(0.911083 0.0338495 -3.0871e-20)
(2.04429 0.0434994 0)
(0.906592 -0.0361819 6.83339e-20)
(1.43239 -0.20295 0)
(1.02248 -0.0047151 5.11075e-20)
(1.01396 0.00274405 -9.32527e-23)
(1.00455 -0.0146637 1.51076e-19)
(0.878748 -0.0418705 -5.42314e-20)
(1.01654 -0.00114742 0)
(0.94634 -0.0600383 -3.77899e-19)
(1.01555 0.000301011 1.90218e-19)
(0.998601 -0.0018558 0)
(1.00077 -0.00183264 1.19098e-21)
(0.872161 0.00987048 -1.66708e-19)
(0.594402 0.534277 -1.64489e-20)
(1.01408 -0.0129577 -1.87218e-19)
(0.975979 0.0114684 -4.20405e-19)
(1.65295 -0.314962 1.10154e-20)
(0.208227 0.224194 8.31948e-21)
(0.827184 0.683875 -1.34153e-19)