/*--------------------------------*- C++ -*----------------------------------*\
| =========                 |                                                 |
| \\      /  F ield         | OpenFOAM: The Open Source CFD Toolbox           |
|  \\    /   O peration     | Version:  2306                                  |
|   \\  /    A nd           | Website:  www.openfoam.com                      |
|    \\/     M anipulation  |                                                 |
\*---------------------------------------------------------------------------*/
FoamFile
{
    version     2.0;
    format      ascii;
    arch        "LSB;label=32;scalar=64";
    class       volScalarField;
    location    "42";
    object      p;
}
// * * * * * * * * * * * * * * * * * * * * * * * * * * * * * * * * * * * * * //

dimensions      [0 2 -2 0 0 0 0];

internalField   nonuniform List<scalar> 
2186
(
0.906342
-0.349549
-0.00834152
1.22652
-0.94196
0.333599
0.78041
-0.943743
-0.846048
1.51074
1.28658
-1.03962
-0.913373
1.20624
-0.584187
1.22894
1.24194
-1.01654
0.0673855
-0.596033
1.61502
-0.571124
1.21778
-1.14496
1.20963
1.19745
1.4354
1.03271
0.859053
1.20785
-0.575341
1.21005
-0.521808
0.207242
-1.07274
0.386748
0.180046
1.60439
-0.405144
0.422745
-0.917819
-0.540345
-0.733515
-0.700971
1.15883
1.49083
0.41392
0.600581
-0.836747
-0.796989
-0.582618
1.14312
-0.700524
1.54365
-0.561177
1.08878
-0.798855
1.1197
-0.493516
0.949026
-0.0432286
0.913901
0.82672
0.47312
0.85309
0.539173
0.933114
1.50635
1.40401
-0.779743
-0.951461
-0.278081
1.46884
1.14585
1.40601
1.32676
-0.492888
1.2376
-1.08977
-0.477698
-1.01162
0.545858
1.20372
0.896039
1.19317
1.20427
1.51881
0.11187
0.573029
-1.08567
1.08899
-0.645365
1.09138
1.35149
1.21956
0.695179
-0.145658
0.874157
-0.901609
1.13552
-1.46677
-1.34031
0.928304
1.10676
1.24342
-0.55848
1.44342
-0.385754
1.07043
-1.34374
-0.461141
-0.819512
0.629354
1.54021
-0.933496
-0.858763
-0.276527
-0.950582
-1.08533
1.46762
0.248147
-0.783198
1.10615
-1.21242
1.2332
-0.379567
-0.897809
1.3153
-1.0906
0.758588
1.59446
1.42554
0.28841
0.749194
-1.14702
-0.743657
1.05531
-0.601904
-0.224762
-1.02728
1.05225
-0.193695
-0.951019
0.80677
1.07221
1.11222
-0.436072
-0.950704
0.708427
-0.641323
-0.795239
0.67031
1.24055
1.36036
1.19875
0.61432
1.51673
0.739452
0.649057
0.496162
-1.03678
-0.995748
1.21721
1.13428
0.0903062
0.000645398
-1.02293
-1.07609
0.428832
0.135526
0.640051
1.14094
1.24307
1.27559
0.69594
0.0189278
-0.973502
1.2209
-1.03199
1.12026
-1.0381
1.22554
-0.599938
0.817496
0.793676
-0.973385
-0.898653
1.37183
-0.198045
-0.883814
-0.972938
1.47672
-1.16655
1.12606
-1.04114
-1.39948
0.349362
1.40273
1.31325
-0.56946
-1.0138
-0.989558
0.120505
1.23502
-1.05854
-0.871832
-1.10572
-0.762669
1.19166
-0.505236
0.606972
0.485614
1.52942
1.08071
1.17001
1.09063
1.41961
1.21446
1.03016
1.34689
0.475931
-0.850625
-0.5708
0.379372
0.239814
-0.97216
-0.916679
1.28465
1.31715
-1.18618
-0.973255
-2.03871
0.440913
0.755681
0.916694
1.03175
1.28881
-1.49957
1.01704
-0.998973
-0.855022
-0.86304
1.24792
0.987643
1.39065
1.38626
1.3544
1.33237
-0.983998
0.950409
1.3514
-0.952381
1.23501
1.03251
-2.07828
-1.07799
-1.14064
1.39098
1.2474
-0.896988
-0.21094
-0.00280862
1.09878
-1.23653
1.01859
1.31898
1.01754
-1.08162
-0.597074
1.17801
0.912992
-0.246827
-0.175965
1.56648
-0.86363
-0.970111
0.997615
1.36471
1.19389
-0.937233
-0.360367
-0.618534
1.17597
-0.934895
0.635792
1.17589
1.17699
-0.175322
-0.209508
1.20981
-1.10625
1.06958
1.37674
1.24189
1.23874
-0.237005
-0.691173
-1.16387
-0.129829
-1.34253
-1.16766
0.45077
-0.565165
0.871176
1.35033
1.43959
1.17993
-0.533216
1.37892
-1.07295
0.595919
-0.980642
-1.04292
-0.871225
0.420962
-0.787274
-0.709618
0.432096
1.18505
0.0606224
0.648664
-0.760339
0.293774
-0.862519
-0.833989
1.43663
0.253808
-0.873074
-0.625949
0.909845
0.848723
-0.092281
0.631534
-0.729631
-0.884868
0.921944
1.2354
1.32041
-1.35203
1.36927
1.02484
0.65234
1.43774
1.22683
1.12257
0.46639
-0.196002
-1.01793
1.1328
-0.675533
-1.15012
-1.02944
-0.865268
-1.09567
1.58276
-0.118832
-0.593943
-0.971609
1.22581
-0.981467
-1.55508
-0.629855
0.877471
0.0165915
-0.979305
1.48448
1.53934
1.29928
-0.943528
-0.933713
1.5948
1.22788
-0.996906
0.731622
-0.992602
0.217701
1.41546
1.24288
1.03298
1.50581
-0.454542
-0.141296
0.0599898
0.256799
-0.901755
-0.545832
0.535301
1.53153
-0.983888
-0.559722
1.22056
0.678674
-1.06994
-1.58343
-1.00982
-0.900343
-0.978733
-1.05199
-0.525966
-0.886272
1.39
0.171951
-0.84404
1.22816
-1.03256
1.45947
-1.04399
-1.84963
-0.5824
1.20936
-1.04246
1.24551
0.977752
-0.467328
1.20992
-0.736855
-1.06565
-1.00184
1.16784
1.12691
-1.07306
-0.997026
-0.96972
1.24155
-0.999075
-0.0797534
0.776168
1.20497
1.04823
0.837115
-1.05024
-0.362316
1.09777
-0.11683
0.954136
-0.260635
1.23452
0.247866
1.30558
-1.08297
0.983733
0.987039
1.253
-1.05697
1.22908
0.342716
-1.06756
1.21274
-1.89338
0.436742
-0.875352
0.177099
1.22981
0.213017
0.353979
1.23749
0.51693
0.0040922
-0.0461823
-0.590453
0.345491
-0.902198
0.981364
-0.376197
1.31868
1.30917
-0.987306
-1.04644
-0.320496
-0.561083
0.713554
-0.86243
1.0921
0.0881842
-0.904157
1.34408
0.0656793
0.641957
0.358752
-0.106694
1.05629
0.613577
-0.329228
0.139688
0.406355
-0.481462
1.23518
-0.368126
1.29223
1.41871
1.40334
0.925281
1.4051
-0.899652
-0.47001
1.06963
0.274611
1.22128
-0.56142
-0.878471
-1.06149
0.925133
-1.05722
-0.488688
-0.586922
-0.626894
-0.0194309
-0.224514
1.00945
0.987858
-0.257903
-0.215889
0.867991
0.113224
1.37893
0.338836
0.108295
-1.05488
1.02177
-0.546821
1.35489
1.60648
-1.22227
-0.891469
-0.907473
0.595745
-1.45252
1.19938
-0.176552
1.14777
1.03402
-1.13267
1.13698
1.09916
-1.89685
1.04151
-0.278052
-0.653138
-0.603571
-1.03332
-0.320247
-1.29216
-0.350102
1.21123
0.498999
-0.853301
0.688545
1.3613
1.40273
-0.334876
0.88353
0.317872
0.898419
0.117983
-0.884097
-0.703507
0.773211
1.08429
1.31521
0.081416
-1.04104
-0.867038
-1.08735
-0.0986972
0.846575
0.0708409
0.0902471
-0.944929
1.20435
-0.641173
1.19739
-0.00830684
0.374015
1.13836
0.785663
-1.45731
0.122172
1.20273
1.49612
1.23705
-0.0858828
-0.968901
0.923596
0.0142129
0.910706
-0.253334
0.72053
1.20094
-0.868179
-0.595738
1.27802
-1.0772
1.47701
0.031189
1.01255
-0.607118
0.731165
-1.12219
1.44074
-0.618767
-1.22534
1.21634
0.796814
0.794458
-0.936016
-0.573231
-0.138791
1.04959
0.497207
-0.390066
0.0888381
1.23517
0.682138
-0.862461
1.02523
1.15997
1.22054
0.102197
-0.490057
-0.674889
1.22856
1.41745
0.578694
1.22371
-0.396201
1.22146
-0.653252
-0.419717
0.282804
1.10126
1.16247
-0.986811
1.11108
-0.622086
1.08255
-0.95958
1.25605
1.10593
1.23691
-0.100931
1.18873
-1.09958
-0.376684
1.37019
-1.28203
0.496142
1.36251
-0.509677
1.35481
-1.61583
-0.657758
1.29544
0.903598
1.57357
1.21258
-1.09301
1.25312
1.33787
-0.0917829
0.90471
-0.345868
-1.09578
1.71329
-1.01839
1.38317
-0.821943
0.372832
1.21287
-0.947794
1.22545
0.275239
1.18516
1.13073
1.22299
0.0414773
-0.867025
-0.652971
0.695768
0.791124
1.23746
0.167179
1.09352
-0.156886
-0.0313418
-1.18798
0.96364
1.32572
-0.599384
-1.10399
0.37859
1.46572
0.435881
1.00419
0.225817
-1.66652
-0.969494
-0.586975
0.538928
1.07846
-1.857
-0.69184
-0.00995459
-0.439003
-0.605231
-1.00244
0.231986
1.20762
1.23662
-0.932076
-0.17254
1.21644
1.11623
1.23404
-1.38938
1.21649
1.23316
1.1996
1.22578
-1.78669
-0.00328092
-0.597555
0.892186
1.20556
0.820776
0.202846
-0.384114
-0.61811
-0.112491
1.45947
-0.0595919
-0.744029
-0.555313
0.0874165
-0.92827
1.06121
-1.16043
-1.03049
-1.06596
1.22838
1.2133
1.23744
0.0853549
0.634181
1.43213
-0.355667
1.20452
-0.000676127
0.066848
1.03615
1.23875
1.34084
0.116524
1.21781
1.2116
-0.621541
0.236257
1.23734
1.24733
1.24089
-1.0495
-1.13312
1.23963
0.713737
1.21563
0.48652
0.148441
-0.299621
0.524713
0.357646
-0.606329
-0.0580225
0.206082
1.24761
1.25242
1.03773
-1.10305
1.22857
0.154531
0.625229
0.0899276
1.20892
1.24172
1.24043
1.25733
1.23636
1.23151
1.22479
0.304663
0.665252
0.59008
0.620789
0.0728942
-0.010266
0.0158912
-0.219084
-0.215177
0.314361
0.0663678
1.20181
1.22679
1.22072
1.24648
1.24564
1.23975
1.24548
1.21424
1.2349
-0.395317
0.689483
1.24227
1.23877
0.0289621
1.24062
1.2414
0.333216
-0.558293
-0.105298
-0.976761
-0.423621
1.22552
-0.939426
1.21634
0.757965
1.24644
-1.02332
1.21478
1.18937
1.14371
-0.592282
0.0556892
-0.896388
0.266039
0.245221
-0.575612
1.24165
-0.326691
1.31103
1.23064
0.10312
1.42004
1.55167
0.619553
1.14676
0.776189
1.22405
1.24122
1.22643
-1.02295
0.762796
0.083468
1.22832
1.23234
-0.877623
-0.37582
1.23117
0.339382
-0.0529208
1.22828
0.00152945
1.22052
1.24269
-0.467058
1.22869
-0.90289
1.21999
1.32563
-1.40306
1.23242
1.24107
-0.0266146
0.979206
1.21851
1.232
0.458416
-0.484394
0.835777
1.566
1.23897
1.22179
1.23154
-0.546918
1.22373
1.19991
1.2349
1.22614
1.2305
1.22092
1.34606
0.126072
-0.289142
1.22481
1.22478
0.589405
0.089677
-0.273232
0.145405
1.13788
-0.304459
-0.217993
0.0927944
1.22242
0.846858
-0.168469
-1.15617
0.330727
0.247259
-0.478624
-0.581173
-0.730441
-0.854059
-0.0590658
1.22863
-0.285364
1.21612
1.17597
-1.04748
1.48712
-0.210458
-0.645877
0.896152
1.38502
0.73623
-1.07606
1.23119
-1.00026
1.22815
-0.626974
1.22729
-1.10327
1.2211
-0.818639
-0.313049
1.23105
1.24179
1.21465
-1.19764
-1.08631
-0.3997
-1.23932
1.23841
1.16349
-0.95773
1.22558
1.26348
1.22477
-0.937334
-1.51148
-0.676741
-2.07301
0.428091
1.23281
-0.0262317
1.22136
-1.77314
1.22621
1.26485
1.23118
0.0683203
-0.111545
1.25578
-0.97707
1.23289
1.23686
0.0620136
-0.931082
1.21239
1.39536
1.21841
1.22517
-1.20082
-0.987974
1.17695
0.496889
1.23273
0.980292
-0.977199
-0.961906
1.11821
1.45237
1.22948
0.419162
-0.116302
-1.1146
-1.94222
-0.507525
1.19424
-0.475641
1.22117
-1.18595
-1.03555
-0.912721
0.762306
-1.07025
-0.504199
-0.624284
1.22088
-1.07816
1.18698
-1.00363
-0.157565
-1.03611
0.0022665
-0.703755
1.21128
-0.984262
-1.04287
-0.657846
-0.632538
1.19887
-0.747971
-0.0298892
-1.78403
1.34654
-0.476297
-1.0106
1.29375
1.19783
1.18399
0.590703
-0.989986
1.23616
1.26765
0.64741
-0.78767
1.21961
0.925797
1.49604
1.24538
-0.52106
-0.734399
-0.764897
-0.954348
-0.97646
-1.06377
0.0490581
-1.16086
0.930235
0.0117818
1.22311
1.45409
1.22637
-1.08345
-1.02596
1.2234
-0.898399
-0.233019
1.18541
-0.0872668
-0.999571
-1.78303
-1.23551
1.20613
1.18238
0.665608
0.99603
0.974236
-1.48357
1.19054
-0.998542
1.09716
-0.486819
1.15043
-1.65086
0.511348
1.2233
1.35477
-1.715
-1.28605
1.10924
1.59604
1.24517
1.28892
-0.932886
1.4452
-1.10691
-0.24979
-0.89392
0.562515
-1.75742
1.3376
1.34459
-0.989925
0.612038
1.22571
-0.449034
0.991069
1.25546
1.22336
-1.48898
1.22575
0.0198801
1.24705
0.0991634
-0.923596
0.150417
1.22742
0.589944
-0.179237
-0.778374
1.1863
-0.812913
1.44327
0.331314
1.5568
1.25936
-0.522016
1.18335
-0.680725
1.22165
1.21305
-0.249184
-0.694578
1.38659
1.22443
1.47092
1.20276
0.141865
1.2127
1.19009
1.14832
1.23423
-1.11774
-0.933445
-1.12341
1.29359
0.412352
-0.433564
-0.633728
0.455261
-1.00478
-0.124195
1.15073
-1.12097
1.15076
1.19973
-0.809432
-0.737878
-0.558293
-0.342088
-0.608491
-0.690667
1.23875
-1.87831
1.24262
1.43305
1.27656
0.154932
1.25049
1.18797
0.184338
1.15047
1.22374
-0.95974
1.21986
1.22281
0.423285
-0.586941
1.68439
-1.41753
-1.05093
-0.923869
0.301352
1.18505
-1.09147
0.328646
-0.575713
1.37718
-0.490786
1.14265
1.25222
1.18233
-0.0912206
1.15255
-1.98789
1.24165
1.25535
-0.0708426
1.2437
0.80579
1.18888
0.835281
-1.87229
0.0748724
0.0397008
-0.115118
1.48504
-0.497198
1.27175
1.62082
0.434314
0.157969
1.28478
0.295139
1.28186
-0.0500771
-0.0928429
1.2897
1.29432
0.51347
-1.04186
1.05939
-0.450063
-0.723373
-0.398351
1.2523
1.19166
1.65239
-1.07809
-0.470591
0.866434
-0.890976
1.32242
1.26786
1.17925
1.22515
1.1554
-1.13115
-1.06177
-0.965109
1.11088
1.18703
-2.03027
-0.734216
-1.01225
1.23545
1.23397
0.461502
-1.45672
1.26521
-0.934545
0.555771
1.06714
1.20582
-0.123553
-0.920436
0.142741
-0.861353
-0.528801
-0.097924
-1.24062
1.59793
1.58894
-1.00062
-0.844705
1.23742
1.21185
-0.970992
-0.0089918
-0.368935
0.958565
1.33174
-0.690146
1.23603
-0.470542
-0.932629
-0.567672
-1.04811
-0.66456
1.17828
-0.852629
-0.515488
1.59256
-0.86681
1.23676
1.47767
-0.749571
1.21648
1.45691
-0.92466
1.48821
-0.883628
-0.959884
1.29499
-1.22733
1.18008
1.23581
-0.900818
1.25707
0.208019
-1.16809
1.2759
1.20201
-0.999426
-0.972804
1.2123
1.22983
-0.953203
-1.9238
1.52202
-0.918602
1.18
-0.777216
1.12698
-1.08269
-0.739843
-0.998054
-0.945192
1.35987
1.22967
1.50139
1.45793
1.25879
1.29349
1.33639
-1.01105
1.39551
1.33074
-0.848759
-0.935558
-0.96623
1.5568
-1.11424
-0.97111
-0.488807
1.22296
-0.878747
-1.04395
1.29792
1.18966
-0.984317
-0.756296
-0.963527
-0.192979
-2.02966
-0.902163
-1.02294
1.17993
1.04424
-0.671849
-0.12629
-0.95091
1.13506
-0.92306
-0.970884
-1.03374
1.10216
-0.970156
-0.787227
1.54839
1.07749
0.505225
1.39207
-0.671841
1.14406
1.2481
1.32564
1.40667
-0.631927
0.98834
1.28878
0.335592
-1.04352
1.64995
1.14238
1.07111
1.256
-0.819178
-0.73658
1.01318
1.10553
1.16654
-0.966081
-1.62558
1.20185
-1.03857
0.974853
-1.1029
1.63414
-1.05259
1.03872
0.870295
-0.61538
-1.06066
-0.760846
1.23533
-0.630891
-1.0776
0.82486
0.929008
-0.980412
1.30609
0.983144
-0.649464
-1.14386
1.22543
-0.7725
-1.06818
-1.00035
-0.574671
-0.337911
1.24736
1.21192
-1.38718
0.736433
1.22689
1.57646
0.3551
0.613961
0.369931
1.03276
-0.458091
-0.603838
-0.734272
-0.262427
-0.593868
1.2392
-0.617722
0.506316
-1.0738
0.864533
0.67836
-0.586567
0.754205
0.0271403
0.597008
-0.580546
0.792899
-0.604547
0.482065
-1.08314
0.712043
-0.576157
0.957853
-0.955934
-0.574927
-0.580342
-1.0719
1.24283
0.140854
-0.608587
-1.09469
0.375051
0.472839
-0.60085
-1.06423
-0.651876
-0.0868119
-1.11197
0.212901
-1.15136
0.00695863
-0.730284
-0.286907
1.17317
0.62539
-0.947076
1.24013
0.293355
0.516146
0.549307
1.17582
-1.12821
-1.43233
-1.08926
-1.08896
1.05677
1.64223
0.489045
-0.840923
0.0778699
-0.860506
0.0136136
-0.344401
1.23863
-0.990861
1.14888
-0.950393
1.69832
0.574576
1.65286
-0.726037
1.386
-0.220157
1.18006
-0.338537
-1.08692
1.25527
1.20032
-1.7136
-1.07438
-0.57805
1.25252
-0.451148
1.22543
-0.694099
-1.01352
-0.995001
1.5368
1.29902
1.29439
1.27612
1.23736
-1.00297
-0.339364
1.45816
-0.396103
-0.846361
1.63668
-0.712779
1.18366
1.12254
1.59674
1.65528
-0.660878
-0.98212
1.24835
0.305896
-0.472701
-0.526499
0.520482
-0.747328
-0.765722
0.680956
-1.10723
1.39806
0.103028
1.32116
1.39108
1.30606
-0.990166
-1.09356
-0.887308
1.30771
-0.873596
1.43129
-0.420464
-0.945793
1.48655
1.51954
-1.10075
0.418649
1.14292
-0.950801
-0.99705
0.786212
1.51568
1.42544
-0.885455
1.15705
1.14247
-1.08236
1.43832
0.611304
-0.697642
-0.375795
0.00836933
0.493069
1.38371
-0.896405
0.587994
-0.511289
0.0331154
-1.00117
-1.10225
1.24384
-1.51788
1.28966
0.255158
0.143608
0.82117
0.358037
-1.08704
-0.309343
-1.33946
-0.0967773
-0.204422
-0.859028
1.22184
-0.897622
-0.248991
1.28585
-0.910151
-0.864173
1.23823
-1.13767
1.25453
-0.0361734
-1.04333
-0.29358
0.928371
-0.918835
-0.75392
1.04178
-1.00581
1.27865
-0.631502
-0.901315
-0.845835
-1.08205
1.72281
-1.92697
1.31174
-0.429609
1.16695
1.4277
0.851145
1.21306
1.41817
0.219259
-1.38081
1.16605
1.27332
1.57958
-0.858476
1.29783
0.981434
-0.87362
0.920604
1.40891
-0.276253
1.57341
0.482549
-1.03269
0.973999
-0.891184
-0.578467
1.12825
-0.167018
1.26738
1.23129
1.23305
-0.989848
1.1963
1.50447
-0.981704
0.0323217
-2.01321
-0.911213
-0.884802
-1.06827
1.5747
0.877286
-0.936446
1.0625
-0.90954
-0.883605
1.48048
1.47391
-1.33768
-1.02088
-1.07991
-1.01761
1.15708
-0.915002
0.14229
-0.50101
-0.0553022
1.27969
-0.944785
1.61202
1.29217
1.03219
1.27847
1.53906
-0.944731
-0.925947
1.19767
1.33071
-1.06578
1.21336
-1.83152
-1.00323
-0.966531
1.35328
1.37725
-0.989739
-0.918789
0.65821
-0.0101949
-0.725119
1.23317
1.24316
-1.0875
1.27917
1.31771
-1.06512
-0.864487
-0.959461
-1.01644
-0.975162
1.52539
0.111128
1.20044
-0.890244
1.52473
1.1611
1.15559
1.23023
-0.885577
0.633391
-1.02818
0.840185
-0.771236
1.07157
0.369447
-0.206706
1.15999
1.16957
1.26832
1.25853
0.181224
1.26114
0.0312613
0.508111
1.10039
-0.261728
-0.834384
-0.672223
-0.402483
1.2364
1.12602
1.23498
-0.810033
-0.897147
-1.03849
-0.504796
1.24027
1.52847
1.25267
-0.803138
-0.946731
-0.992693
-0.248066
-1.07665
-1.08192
0.102684
1.2458
-1.07782
-0.659406
-0.0722345
-0.0596429
1.01787
-1.11148
-1.04847
-1.09815
1.22403
1.6554
-0.160296
1.31069
1.70728
0.960348
1.45605
-0.887909
-0.955785
1.62509
-1.05665
0.392346
-0.740466
-0.968959
-0.574226
-0.622308
1.1538
0.856648
1.4451
1.41175
-0.00329812
0.910823
0.376792
-0.0301557
-1.06444
1.32665
1.01932
1.24643
1.26341
-0.25463
0.473052
1.25209
-0.00870325
-1.08757
-0.638776
-0.584343
0.703341
-0.608154
1.16541
0.786579
-1.0573
1.43361
-0.829226
-0.0312206
1.19485
-0.937195
-0.863376
-0.557235
0.899004
-0.683435
-0.652517
1.19587
1.2547
0.489508
0.124483
-0.666495
-1.07119
-0.09361
-0.85144
-0.137497
0.709443
-0.924454
-0.598197
1.50642
0.565482
0.666073
-0.589711
-0.961576
1.2248
1.21564
0.830731
0.635939
-0.582831
-0.851517
-0.815368
0.75597
0.535755
-0.577918
1.12785
0.448721
-0.572579
1.66108
-0.574331
-0.508509
-0.976019
-0.516078
0.984259
-0.589464
-0.930058
-1.09951
0.0458703
-0.626677
0.303891
-0.995264
-0.285813
1.43458
-0.683822
-0.161807
-1.13271
0.123329
1.57074
1.62047
1.47696
1.2338
1.45665
-0.414032
1.22558
-0.838496
1.21137
-1.09101
-1.08057
1.46891
-0.468073
0.587409
-0.96943
1.62188
0.29226
1.55138
0.897043
1.07362
-0.710652
-0.774168
-1.08653
-0.577365
1.53389
1.44829
1.22842
0.750034
1.21824
1.01189
1.09804
-0.573715
-1.03453
0.569757
-0.281679
1.07415
1.23999
0.00645207
-0.724836
-0.569362
-1.0841
-1.08798
-0.971434
1.56268
1.25763
1.23498
-0.122751
0.380894
1.24846
0.589935
-1.07179
-0.286193
-0.875585
1.06517
-0.662561
-0.585717
-0.30205
1.25814
-0.921239
-0.980101
1.21972
0.718962
0.852734
1.22663
-1.07747
1.15149
1.38258
0.975694
-1.08095
1.20425
0.437122
0.755144
-0.909191
-0.623892
1.66567
0.344746
-0.665409
0.11903
1.18638
1.24138
-0.853761
-0.986427
-0.109838
-0.435917
-1.00955
-0.940144
-0.229778
1.2241
-0.923473
1.24708
1.48369
1.26795
1.2579
1.35073
1.40446
1.22845
-1.02502
-0.719377
-0.125355
-1.18499
-0.879616
-0.583215
1.40273
1.3189
-0.913886
1.13681
-1.01754
-0.648472
-0.577431
-0.138977
0.646088
-1.05197
1.22361
1.18054
-0.718125
-0.426977
1.56152
-0.997013
-0.289601
-1.07436
-0.954917
-0.54089
1.24719
1.06043
1.27217
-0.918768
0.479239
-1.04846
-0.0660301
-0.904152
-0.0286137
-1.0644
-0.78314
1.18878
-0.80646
1.6849
-0.820466
-0.570335
-1.11752
-0.579391
1.09633
-1.12032
-0.906313
-1.0834
-0.215672
1.44145
1.41699
-0.64114
0.548808
1.10614
-1.10957
-0.944631
1.2872
-0.811811
-1.40792
-0.582832
1.0382
-0.406334
-0.894533
1.22447
0.355488
-0.545099
1.24608
-0.981326
-1.18382
-0.962902
-0.651005
0.00997253
-0.892029
1.54829
-1.05025
0.242797
-1.08959
1.07641
-0.385906
-0.904152
0.93577
0.893627
1.27076
1.15165
1.4288
-0.58637
1.00264
0.662777
-1.02141
1.20865
-0.0901036
-0.398113
-0.804524
1.36918
1.35444
-0.420212
-0.926241
-0.923754
1.27955
-0.972977
0.415716
-1.00285
-0.59517
1.51921
1.28334
-0.74173
-0.971899
-0.754092
-0.684773
1.175
-0.880192
1.25188
0.531885
0.992626
1.11712
-0.559301
-0.937065
1.21633
-0.584683
-0.103331
1.50233
-1.02973
-0.678588
1.09729
-1.00891
-0.947134
-0.118483
-0.855071
1.57399
-0.634384
0.236508
-0.757968
1.51717
-0.806841
-0.993401
0.931209
-0.95514
-1.09027
1.55173
0.959776
1.17138
-0.943859
1.47242
-0.290615
-0.773955
-0.922072
-0.929928
-0.823989
1.50036
0.866204
-0.980514
-0.792084
-0.879116
1.38418
-1.04658
1.4883
-1.08821
1.01857
-0.640174
0.667168
0.830495
0.797241
0.71837
0.244131
-1.01344
1.27984
-0.911481
-0.412857
-0.971475
0.353897
1.53545
-0.223082
-0.952182
-0.856488
-0.65081
0.562219
-0.81727
-0.630804
0.982367
0.261437
-0.713618
1.61106
-0.888277
-1.25973
1.57771
-0.672214
0.448955
-1.01888
-0.579747
-0.616201
1.58086
-0.56401
1.48576
-0.60909
-0.956902
1.42537
-0.116559
-1.00151
0.856594
-0.85429
0.315868
-0.369274
-0.635064
0.943125
-1.04741
-0.642688
-0.583334
-0.580005
-1.09593
0.987271
0.142569
-0.318382
-0.726442
1.51798
-0.96369
-0.960633
-0.555493
-0.147833
-0.706153
-0.562812
-0.698266
-0.000770155
1.48573
-0.845078
-1.08052
-0.961476
-0.7047
0.0612365
-1.10272
1.61271
1.54308
0.709966
-0.937204
-1.09102
0.626238
-1.08921
1.6252
0.506948
1.24624
0.984842
1.49281
0.38951
-0.713354
-0.928035
0.237287
-0.914895
0.23683
-0.084956
-0.613367
1.51513
-0.150983
0.518594
-0.238706
-1.06083
-0.95537
)
;

boundaryField
{
    frontback
    {
        type            empty;
    }
    Top
    {
        type            zeroGradient;
    }
    outlet
    {
        type            fixedValue;
        value           uniform 0;
    }
    bottom
    {
        type            zeroGradient;
    }
    Inlet
    {
        type            zeroGradient;
    }
    rectangle
    {
        type            zeroGradient;
    }
}


// ************************************************************************* //
