/*--------------------------------*- C++ -*----------------------------------*\
| =========                 |                                                 |
| \\      /  F ield         | OpenFOAM: The Open Source CFD Toolbox           |
|  \\    /   O peration     | Version:  2306                                  |
|   \\  /    A nd           | Website:  www.openfoam.com                      |
|    \\/     M anipulation  |                                                 |
\*---------------------------------------------------------------------------*/
FoamFile
{
    version     2.0;
    format      ascii;
    arch        "LSB;label=32;scalar=64";
    class       surfaceScalarField;
    location    "42";
    object      phi;
}
// * * * * * * * * * * * * * * * * * * * * * * * * * * * * * * * * * * * * * //

dimensions      [0 3 -1 0 0 0 0];

oriented        oriented;

internalField   nonuniform List<scalar> 
3181
(
-1.00699
0.383257
0.62373
-0.393936
0.364592
0.0293442
0.517871
-0.35893
-0.158941
0.114668
-0.192273
0.0776045
-0.00896524
0.0384462
-0.029481
1.12731
-0.794597
-0.33271
0.147188
-0.140988
-0.00619985
-0.00555529
0.00381063
0.00174466
0.461987
-0.812403
0.350416
-0.0769186
0.131049
-0.0541299
-0.0104789
-0.0529417
0.0634206
0.180645
0.0203637
-0.201009
-0.0117545
0.0101419
0.00161251
-1.10064
0.155027
0.945615
-0.313149
0.698996
-0.385847
-1.12227
0.641371
0.480895
0.0848737
-0.930701
0.845827
-0.228193
0.33945
-0.111257
0.669239
-1.48213
0.0114453
0.040509
-0.0519543
0.049016
-0.0934932
0.0444771
-0.0800078
0.0740619
0.00594591
1.06531
-1.04309
-0.0222141
0.0451211
0.0202245
-0.0653456
-0.958771
0.332615
0.626156
-0.10734
0.222008
0.303291
-0.254509
-0.0487827
0.0291094
0.0618484
-0.0909578
-0.424195
0.350315
0.0738809
-0.0353341
-0.0210659
0.0205258
0.000540126
-0.0426957
-0.916076
0.0383141
-0.0660675
0.0277535
0.289959
0.888422
-1.17838
-0.0521512
0.0461974
0.00595386
0.183672
0.285654
-0.469326
1.34745
-1.05749
0.0758068
-0.0267907
1.61779
-0.8666
-0.751192
0.404159
0.723148
0.00193957
-0.013694
-0.076182
-0.00382579
-0.415415
0.102266
-0.149743
0.073561
-0.646656
0.125787
0.520869
-0.141494
0.0645751
-0.168762
0.17293
-0.00416778
-0.264055
-0.0785511
0.342606
-0.278237
1.67255
-1.39431
0.0738057
0.242911
-0.316717
-0.00962059
-0.102811
0.109011
-0.0061996
0.483815
0.215181
-0.0941144
0.150231
-0.056117
0.109234
-0.07092
-0.166518
0.191897
-0.0253797
0.159519
0.0649883
-0.224507
0.107066
-0.112977
0.00591064
1.30494
0.312852
-0.830123
-0.176864
0.346925
-1.25535
0.908426
0.567029
0.238932
-0.805961
-0.456997
-0.214896
0.671894
-0.899754
1.30391
-0.28214
0.849168
-0.314257
-0.107169
0.421427
-0.212536
-0.211659
-0.184624
0.171425
0.0131982
0.150936
0.278277
-0.429213
-0.3793
0.841288
-0.013617
0.00806168
-1.60423
1.95115
0.174899
0.128392
-0.169573
-0.111817
0.28139
-0.267635
0.365361
-0.0977261
-0.078249
0.0869514
-0.00870246
-1.88247
-0.919616
0.00969224
0.909924
-0.0345167
-0.0176346
-1.12557
0.82967
0.295898
0.593596
-0.284245
-0.309351
-1.15673
0.256981
1.10211
-0.947082
-0.739137
1.1475
-0.201884
1.05941
0.177064
-0.170686
-0.00637748
0.513249
-1.30785
0.895084
-0.895084
-0.00737352
-0.00281641
0.0101899
-0.203641
-0.054129
0.25777
0.0498533
-0.0644362
0.0145829
-0.457309
0.823458
-0.366149
-0.0317964
-0.221189
0.252986
-1.08519
0.0420952
0.358728
0.0562343
-0.414962
0.123935
-0.881153
1.12009
0.0421556
0.164785
-0.206941
-0.0183674
-0.14815
-0.630954
0.265746
0.365208
-0.281373
-0.349581
0.121092
-1.00224
0.316525
-0.773834
0.926355
-0.841481
0.0606367
0.114967
-0.175604
0.0902517
0.0537639
-0.144016
-1.19164
-0.183943
1.37558
-0.234222
0.399873
-0.165652
-0.236575
-0.136499
0.373074
-0.493535
-0.632033
0.14791
-0.074104
-0.151962
0.146217
0.00574475
-0.078641
-0.0184532
0.0970941
-0.658847
-0.153557
0.0506747
-0.00972664
-0.0409481
-1.32845
-0.752029
2.08048
1.86864
-0.196089
-0.0221965
0.0148229
0.0244877
0.150411
-0.207321
0.390993
0.00691344
0.303581
-0.310495
0.144013
0.0706057
-0.214619
-0.0364112
0.471637
-0.435226
-0.593042
-0.529224
-1.78303
0.454576
-0.0556145
0.0977701
-0.0982369
0.177155
-0.0789184
-0.264604
0.0240451
0.123143
-0.056845
0.0650966
-0.00825167
-0.0914158
-0.0197963
0.111212
0.0759363
-0.0759363
-0.181951
0.205996
0.312223
0.249824
0.100968
0.0909298
-1.16734
0.78804
-1.5786
0.0796532
1.49895
0.0177461
-0.0185394
0.000793235
-0.027482
-0.0525649
0.0800469
0.505847
-7.76543e-05
-0.50577
-0.00426357
0.00356462
0.000698952
-0.195398
0.0134469
0.168854
0.654604
-0.353726
0.52258
-0.0325957
-1.15905
-0.134401
0.125436
0.475305
-0.291315
-0.18399
0.0366729
-0.0382984
0.0016255
0.0489513
-0.313006
0.0237194
-0.943336
0.0488397
-0.147077
-0.276913
-0.392808
0.0829492
1.42299
-0.965753
-0.457233
1.11112
0.311867
0.0681341
0.274472
0.0124449
0.00530121
0.150675
-0.0368364
-0.113839
-0.247979
-0.59659
0.844569
-0.346039
1.18249
-0.218472
-1.26366
0.225766
-0.00215711
0.00567743
-0.00352032
-0.971588
0.016427
0.955161
0.203422
-1.17501
-0.313493
0.672221
-0.906981
-0.0151173
0.00579037
-0.27646
0.27067
1.49755
-1.6254
0.127857
-0.0577181
-0.0766828
0.579316
-0.827295
0.515536
-0.323413
-0.192123
-0.301747
-0.126248
0.427995
0.223609
-1.01165
-0.0735375
0.0093632
-0.0613175
-0.575748
0.360851
-0.254899
0.0190858
0.235813
0.126122
-0.18384
-0.0480218
0.0480218
-0.124823
0.137167
-0.0123441
-0.270183
-1.30842
-0.0239926
0.00659964
0.017393
0.0901564
-0.170629
0.0804725
-0.229494
0.0448705
1.75567
-0.411776
-1.3439
-0.17833
0.435581
-0.257251
0.0136602
-0.0140418
0.000381624
-0.567041
0.330466
-0.191104
-0.00498008
0.196084
-0.163252
0.314188
-0.104962
0.103234
0.00172784
0.0794938
0.00720941
-0.0867032
-0.033392
-0.00290999
0.036302
1.20194
-0.331286
-0.870655
-0.219125
-0.0493446
0.268469
-0.684119
0.663307
0.0208118
-0.00946968
0.0296942
-0.0206553
0.0231939
-0.00253865
-0.028981
-0.0363647
0.722501
1.14613
0.170692
-0.896287
0.725595
-0.119276
2.04775
-1.92847
0.368136
-0.0326481
0.927732
0.0715904
0.211714
-0.0677008
-0.0733218
-0.0294894
0.227261
0.165456
-0.0752039
0.735241
-0.402626
0.0601078
0.197662
0.0568259
-0.174388
0.117562
-0.734816
-0.11965
0.854466
0.0276963
-0.0276963
-0.00543084
-0.27363
0.559284
0.009157
-0.228282
0.314835
0.0246152
-0.00266749
-0.052947
0.142083
-0.152561
-0.348509
0.316712
-0.0183113
0.0895729
-0.0712617
0.382391
-0.362027
-0.503418
0.586389
-0.082971
-0.20254
0.270674
0.186053
-0.477368
-0.202261
0.585518
0.161075
-0.0335774
0.0335774
0.346254
0.159996
-0.506249
0.370329
0.0295442
-0.0123225
0.0110725
0.00124997
-0.151931
0.0741464
-0.0234717
-0.0506857
0.192768
-0.187244
0.250082
-0.062838
0.137388
0.0280672
-0.383111
0.128603
0.199959
-0.0625709
-0.0474444
-0.0575172
-0.0010145
0.016628
-0.0156135
0.145463
-0.10309
-0.0423722
-0.0296284
0.409493
-0.379865
-0.00964046
-0.00397651
0.107668
-0.112094
0.00442602
0.0244692
-0.211292
-0.292126
-0.068201
0.0293508
0.0388502
-0.0379451
0.0500461
-0.0121009
-0.0967562
0.0974386
-0.720364
0.622926
-0.0220531
-1.23532
-0.2101
1.44542
0.757392
0.866823
-1.62422
0.0816867
0.0646654
0.406972
0.290425
0.256204
-0.546629
-0.210374
0.2672
0.135317
-0.863715
0.728398
-0.0593473
0.0214021
-0.00885958
0.0182228
-0.980788
0.443287
0.537501
0.965753
-0.844662
-1.44721
1.26326
-1.49755
1.5772
0.0372053
-0.0933223
0.000503722
-0.021159
0.00704718
0.771895
-0.636578
0.117007
-0.0681671
0.410936
0.736564
-0.0815052
-1.65882
1.53954
-0.697975
-0.469366
-0.24284
-0.403816
-0.0233345
-0.162029
0.210981
-0.569852
-0.360187
0.181857
0.759846
-0.253998
-0.773025
-0.674182
0.750008
-0.0332079
-0.0261394
0.26993
0.0376484
-0.0376484
0.670296
0.14898
-0.819277
-0.225472
0.895768
0.204738
-1.20564
1.0009
0.254559
-0.00473442
0.00129545
0.015152
-0.0164474
-1.25535
-1.53569
1.3396
0.951961
0.80371
-0.0350331
-0.133729
-0.268723
0.752538
-0.204806
-0.050093
-0.00276618
-0.0754828
-0.0570246
0.110788
0.385411
-0.259624
-0.73057
-0.297264
-0.0137344
0.0776007
-0.0638663
-0.662778
0.63013
-0.0265063
-0.0231183
0.0496246
0.0313896
-0.0189447
0.0370728
-0.0475316
0.0104587
0.0140211
0.407405
0.0251709
0.011502
-0.0112989
-0.00480472
0.0161036
-0.0164469
-0.174657
-0.739676
0.383442
0.356234
1.36738
-1.9127
0.545319
0.142711
-0.164529
0.0218184
0.0206025
0.127307
-0.427559
-0.467525
0.0044413
0.0326315
-0.0974906
0.0233866
0.147691
-0.355012
-2.22509
0.946068
1.27902
0.0444224
0.0911956
0.054267
-0.734816
1.05292
0.149023
-0.00426293
-0.0432686
0.0452764
-0.640962
-0.0431567
0.0628383
0.137121
-0.898328
0.0262405
-0.455454
0.120039
0.358228
-0.301994
-0.109836
0.01842
0.218306
0.842041
-1.06035
0.106659
-0.701648
0.594989
-0.90295
0.7833
-0.423561
0.159459
0.264103
-0.00879021
0.00836262
0.000427591
0.178916
-0.480663
0.212226
-0.123393
-0.0888324
0.0442964
0.00574965
-0.0832775
0.069543
-0.0203255
0.0104332
-0.0394142
0.0195601
0.0875296
-0.10709
0.96213
-0.00146172
0.00135882
0.000102902
0.0211072
-0.0250838
0.859677
0.00621089
-0.0828937
-0.316919
-1.21877
0.173139
0.0814198
0.00705319
0.0841424
-0.264103
0.467525
-0.100392
-0.19892
0.299313
-0.261333
0.0906466
0.120113
-0.126491
-0.00130481
0.0882563
-0.000452939
-1.70162
-0.523467
-0.0497649
0.069325
0.74107
-0.260175
-0.142269
0.232426
0.3584
-0.00746416
-0.00485834
-0.00822433
0.0841606
0.142295
0.223067
0.156996
-0.343181
0.186184
0.101725
0.552879
-0.0308905
-0.110603
0.851677
-0.191006
-0.660671
-0.423561
-0.135449
1.50283
1.34745
-0.427004
0.38068
0.0463239
0.375479
-0.0812568
-0.294222
-0.615328
-0.541407
-0.0777
0.0789364
-0.00123631
-0.281144
-0.00765984
0.288804
0.198588
-0.894405
0.695817
0.0383478
0.66627
-0.704618
-0.0439665
-0.107995
-0.055085
-0.013116
0.365747
-0.0194935
-0.0055886
-0.00320162
0.276804
-0.0818856
-0.194918
0.0912118
0.0594637
0.010446
0.0209436
-0.0399439
0.154911
0.0212204
0.0019735
0.202962
-0.424151
-0.23857
1.10539
-0.0114154
-0.0162809
-0.992785
-0.018867
-0.120114
-0.0694398
-0.040396
0.269532
0.246004
0.151828
-0.109792
-0.0420361
0.179139
-0.00599963
-0.937793
-0.0092893
-0.0126338
-0.648565
0.746003
-0.0169488
0.178024
0.251337
-1.45698
0.188858
-0.432506
0.243649
0.0313754
0.272206
0.0112579
-0.0120099
0.000751964
-0.0464247
0.0130327
-0.0198244
-0.128326
0.734504
-0.627844
-0.0336829
0.00916385
0.0647055
0.322191
-0.165195
-0.214231
0.863156
-0.0163032
-0.846852
-0.124594
0.14368
-0.510079
-0.229597
-0.54719
0.58204
-0.569634
-0.0124059
-0.0567962
0.0231133
-1.65882
0.56504
-0.56504
-1.33692
1.33692
0.771895
-0.504099
0.18304
0.321059
-0.900826
-0.0919586
0.650494
-0.38123
-0.269264
0.152528
-0.231447
-0.0141672
-0.00802927
-0.915204
-0.0870414
-0.932859
0.212494
0.0420192
0.0355815
0.696451
-0.099173
-0.597278
1.29203
0.055423
-0.00249764
0.0137556
-0.960007
0.24629
0.340099
-0.0803584
-0.629506
0.709865
0.0538209
-0.899609
-0.725794
0.221704
-0.814747
-0.854466
1.25517
-0.400704
-0.144327
0.277602
-0.133275
-0.0353366
0.731788
-0.111098
-0.900431
0.900431
-1.39786
0.662348
0.735509
-0.00167703
0.000215316
-0.026316
-0.448712
0.871738
-0.0420675
-0.0897231
-0.0348823
0.00549373
0.00453697
0.00912318
1.41358
-1.25412
-0.341307
0.420801
-0.662852
1.05339
-0.390538
-0.0583612
0.0628025
0.12816
-0.057554
0.354739
0.00249767
0.00764427
0.358493
0.0510004
0.0439912
-0.255878
0.211887
0.138449
0.0344807
0.100678
0.186702
1.22396
0.727193
0.0371704
-0.24848
0.21131
-0.713113
0.72954
0.214465
-0.140904
0.0756112
-0.766729
0.691117
-0.466929
0.115987
-0.464496
-0.07536
0.128657
-0.0532967
0.121496
-0.196856
-0.462976
-0.112772
-0.0745575
0.0777791
-0.00322163
0.0095858
0.0116346
-0.0666266
-0.00429338
0.636578
-0.594989
-0.041589
-0.288493
0.29765
0.880389
0.634439
-0.25896
0.0108958
-0.00429611
0.234023
-0.557436
0.15739
-0.55983
0.402439
-0.0113363
-0.000673622
-0.556384
0.236671
0.319713
0.00504544
-0.0114729
0.00642743
-0.0250678
0.0167902
0.00827753
-0.307563
-1.00028
-0.162921
-1.0724
-0.206772
-0.844662
1.5772
1.26326
-0.188345
-0.172617
0.123272
-0.065435
0.0712022
-0.00576719
0.301242
-0.0239683
-0.277273
0.573855
0.0766386
-0.0013786
-0.00995768
0.125147
-0.836958
0.0348823
-0.0539177
0.00415279
-0.403454
0.637477
-0.00308585
0.000418358
-0.272692
0.655082
1.11112
0.430412
-0.0601583
0.00110411
0.0590542
1.49984
-0.23658
-0.0596224
-0.0533547
-1.00617
0.161508
0.499988
-0.276379
-0.483749
-0.140602
0.624351
0.84101
-0.378538
-0.462472
0.0498838
0.101944
-1.53954
0.284194
0.0118618
-0.0189735
0.00711169
0.449473
1.59827
-0.184174
0.18547
-0.27523
2.18206
-0.604865
-0.670918
0.0436294
0.627289
0.398591
0.000279464
-0.356871
0.491123
0.78112
0.39228
0.0755346
-0.0212676
-1.65995
0.00533317
1.65462
1.40143
0.00439054
-0.0156894
-0.054111
-0.367713
0.114861
-0.325235
0.604892
0.258263
-0.00824481
-0.0485514
0.043571
-0.470575
-0.0232323
0.0137626
0.110614
-0.14889
0.0382754
-0.292599
0.304088
-0.0114891
0.298869
-0.315173
-1.46676
0.663655
0.803103
-0.0878356
-0.0164761
0.104312
0.283308
0.0388833
0.916456
0.136463
-0.673097
0.673097
0.908426
1.29203
-0.701648
0.308311
0.472808
-0.424857
-0.0813922
0.95118
-0.377325
0.0113328
-0.883661
0.872328
0.122736
0.00831205
0.0255288
0.829206
0.0872495
0.0336913
-0.169206
-0.112867
0.282074
0.484865
-0.49923
0.330024
-1.13678
-0.296204
-0.661764
0.0278518
0.000332049
0.00102677
-0.228319
-0.0408707
-0.0229955
0.0319416
-0.153765
0.121824
-1.0057
-0.392156
-0.00572602
0.0675744
-0.231596
-0.376776
0.608372
-0.553064
0.369074
-0.22133
0.310903
0.22745
0.00911052
-0.0179701
-1.06031
0.64853
0.0357063
0.0719618
0.00258533
0.0621202
0.205156
0.00707013
-0.44113
0.527603
0.523243
0.580726
0.866115
-0.790504
0.817031
-0.45863
-0.632779
0.184067
0.15706
-0.794503
0.774303
0.0201998
0.501845
0.103048
-0.202995
-0.138312
-0.0360472
-0.028389
0.950669
-0.838663
-0.112006
-0.192465
0.117262
0.026592
0.119625
0.877132
-0.294573
-0.338409
0.632982
-0.318287
-0.0418995
-0.274017
0.0424208
0.254493
1.12109
1.7954
-0.503377
0.164147
0.550735
-0.714882
-0.391044
0.0514567
0.00632334
0.00278718
-0.5236
-0.109179
0.222468
-0.0963462
-0.195578
0.144892
-0.518086
0.260835
-0.992201
0.484282
-0.294479
-0.748083
1.56297
-0.0640238
-0.295549
0.189477
-0.592931
0.187341
0.312067
0.0464255
1.05323
-0.854646
-0.199266
0.136695
-0.493504
0.304112
0.189392
0.0111254
0.000736367
0.050292
-0.0621672
-0.230431
-0.110975
0.697997
-0.427662
-0.270335
0.399312
0.129064
-0.093187
-0.0358771
0.245074
0.0669937
-0.454704
-1.16951
-0.099185
0.144461
0.0888616
-0.383434
-0.13329
0.121189
-0.025696
0.0147429
0.0109531
-0.0106685
-0.00787092
-0.251484
0.0770962
-0.0149117
-0.545034
0.400708
0.0270786
0.0797814
-0.167617
-0.695763
1.04894
-0.790679
0.0156334
-0.200982
0.185349
-0.145725
-0.52918
0.674905
0.0647494
-0.705712
-0.730307
-0.73645
0.0127256
0.00223488
-0.0149605
-0.255896
-0.58204
-0.152776
-0.12943
-1.65995
-0.240188
0.172487
-0.0721018
-1.18056
-0.402012
0.0173019
0.38471
0.257462
0.108304
0.523646
0.221203
-0.744849
0.0147161
-0.047924
0.179862
0.00122373
-0.181086
-0.216462
0.427483
0.302057
-0.250695
0.187857
0.069763
0.35772
0.650693
-0.384947
-0.000439716
0.0074869
-0.00719488
0.326343
0.254383
0.753695
0.0873149
-1.85468
0.153058
0.250327
0.700853
0.892984
-0.0413078
-0.0200223
-1.7954
-0.661764
-0.713226
0.722918
0.0823668
-0.773025
0.66627
0.588779
-0.930622
1.01374
0.000216988
-0.79472
-0.316519
0.639675
-0.764127
0.124452
0.0783427
0.0507214
-0.558229
-0.235354
2.20253
-1.96717
-0.00273127
0.00306332
-0.272737
0.222644
0.704424
0.215673
-0.202227
-0.180841
1.21235
-1.96438
0.416013
-0.0949537
0.404514
-0.297723
-0.106792
-1.80878
1.81412
0.688285
-1.06506
0.162414
1.41927
-1.65462
0.00335718
0.221223
-0.0269653
-0.0417383
-0.0783756
0.01027
-0.0387232
0.0284532
-1.02645
-0.0338922
0.307579
-0.80475
-0.828454
1.07389
-0.245441
0.385895
0.667496
-0.0477812
0.0511559
-0.00337467
-0.499437
1.71179
-0.720497
1.36557
0.39859
-1.22704
0.325308
-0.104085
-0.585105
-0.407096
0.248717
0.155797
-0.0529922
-0.883444
-1.92221
-0.006258
1.41927
0.0514623
-0.856212
0.830226
-0.645448
-0.184778
-0.981827
0.396722
0.0149829
0.119186
0.00261197
-0.121798
-0.971511
0.564415
-0.206755
0.91412
-0.923409
0.198298
-0.214745
-0.099016
0.246707
0.31065
0.224571
-0.0941838
-1.09106
0.244207
0.846518
-0.454237
-0.553267
-0.517853
1.07112
0.446733
0.0243478
-0.00919583
-0.73851
0.704618
0.321019
-0.820456
-0.927732
1.15018
-0.22245
0.487609
0.586286
0.771736
-0.80707
-0.493224
-0.450111
-0.471191
-0.50032
0.8037
-0.8037
0.687048
-0.687048
-0.73851
-1.40716
1.40716
-1.15018
0.337528
-0.709516
-0.135335
-0.30854
0.30854
0.321019
-0.820456
0.771736
0.764975
-0.764975
0.80707
0.758313
-0.758313
0.506776
0.528809
0.482147
0.012479
-0.49968
-0.549889
1.0787
-0.334135
-0.165658
0.414376
1.13153
-0.443243
-0.59881
-0.0159921
0.022203
-0.883748
0.0882749
0.795473
-0.012306
-0.0110285
-0.994316
0.59169
0.881423
-0.573112
-0.124385
0.00915586
-0.00195603
-0.819336
-0.0769505
-0.537501
0.00324979
0.014973
0.916281
0.00692809
-0.0501967
0.178054
0.000782603
-0.00962836
0.00884576
-0.811637
0.0681257
0.743511
-0.508506
0.819156
-0.526776
0.423185
0.103591
0.914966
-0.744633
-0.170333
0.0813484
0.309644
-0.0140322
-0.0605252
-0.0643479
-0.0133522
-0.0142041
-0.648574
-0.862287
0.0973328
-0.746902
0.79443
-0.0475278
0.121243
-0.900147
0.778903
-0.804173
0.903328
-0.0991549
-0.026747
0.0160785
0.0200647
-0.296525
0.667389
-0.511592
-0.0905364
-0.793211
0.916178
-0.0910495
-0.825129
-0.0806377
0.0222764
0.623023
0.824429
0.334679
0.473331
-0.396693
0.0984913
-0.891703
1.05749
0.279433
-0.792026
-0.00269375
1.01623
-0.894984
1.04253
1.08431
-1.41274
0.328432
-0.884598
-0.109718
-0.424102
0.0442373
-0.399618
0.357582
-0.783842
0.783842
-0.621894
-0.0828755
-0.86316
0.118527
-0.979363
0.899004
0.0801207
-0.203514
-0.0568457
0.0529678
0.0121288
0.186715
0.829512
0.820452
0.773176
0.137265
-0.910441
-1.49368
1.05044
-0.784768
-0.101786
0.886554
0.163557
-0.884054
-0.676445
0.886244
-0.787753
-0.102957
0.460515
-0.0106625
-0.449853
-0.926247
1.16925
-0.243004
-0.329815
0.25193
0.0778856
-0.887725
-0.828231
0.0813288
0.547367
0.269664
-1.70883
-0.599904
-0.595056
0.595056
-0.843134
-0.247925
1.10462
-1.01737
-0.14323
0.806885
0.784458
-0.195295
0.0892919
-1.08958
1.11383
-1.25755
0.143727
-0.812031
-1.10067
0.139195
-0.409372
1.20245
-1.05343
0.320179
0.311174
-0.229826
0.782356
-0.881511
1.78415
-0.733709
-0.142825
0.734514
0.596146
-0.596146
-0.0418901
0.0229455
0.116144
-0.0842029
0.235516
0.933736
0.266206
0.00411899
0.00956883
-0.0136878
-0.67509
0.691909
-0.0168197
-0.201892
-1.21085
0.105368
-0.893121
-1.1236
1.39897
-0.275367
-0.082609
0.872733
-1.87733
1.67543
-0.755856
0.609571
-0.652727
-0.67309
0.163011
-0.0970256
0.0252561
0.120546
-0.74997
0.652944
0.00109029
-0.736629
0.0621325
0.732297
0.688037
-0.0784665
0.0691012
0.790576
0.277214
0.357702
-0.634916
-0.304027
0.479847
-0.161409
-0.917882
0.694448
0.223433
-0.684791
-0.129955
1.06094
-0.363786
0.344292
-0.0327579
0.486125
0.513875
-0.771252
-0.110259
-1.06068
-0.529929
-0.726803
-0.263613
0.400205
0.599795
-0.0249302
-0.000153503
-0.862302
-0.0570433
-0.595684
-0.168612
-0.233607
0.402219
-0.00108174
0.000628803
0.117799
0.0749691
-0.12834
-0.123145
0.763015
-0.648879
0.71798
-0.545652
-0.204318
0.268438
-0.933298
0.66486
-0.745142
-0.184071
0.929213
-0.237573
0.224036
-0.026374
-0.0933256
-0.0905143
0.0031249
0.733422
-0.138365
0.113121
0.114328
-0.734082
0.0589923
0.504718
-0.0836848
0.793377
-0.876348
0.185077
-0.280174
1.01674
-0.00145007
0.150612
-0.425843
-0.00874057
0.00649995
0.0158799
1.02209
-0.517371
0.921417
0.129262
-1.05068
0.844344
-0.034407
-0.00145055
0.0358576
0.133432
-0.00626413
0.000675535
0.220143
-0.109528
1.17437
-1.3176
-0.155327
1.07674
0.00450565
0.278658
-0.804036
-1.07542
1.36678
-0.29136
-0.77924
0.828921
-0.0496813
-1.20875
0.373242
0.277452
-0.0801612
1.2576
-0.464558
-0.0622178
0.271595
0.444742
0.174303
-0.619044
0.378703
0.0300695
0.66184
-0.572448
0.573257
-0.000809263
0.399986
-0.212644
0.0111434
-0.0152629
0.00411948
0.701519
-0.0103203
-0.0821748
0.0185894
1.44969
-0.323552
-0.885202
0.0457734
0.16996
-0.186436
0.228671
-0.147228
-0.0814425
0.0238744
-0.0136043
-0.0244905
0.0257143
-0.00827939
0.213716
-0.0256174
-0.0784228
0.232941
0.0921907
0.00202382
0.0326715
0.763652
0.674635
0.655182
-1.32982
0.228098
0.777321
-1.00542
0.64485
0.127406
-0.00816616
-0.0573829
0.0655491
-0.0596735
-0.435209
-0.822344
-0.0117977
0.761805
0.726685
0.654369
-1.0778
0.519572
0.808407
-0.0738305
-0.140401
-0.903602
0.0882842
-0.274437
-0.284424
-0.176898
0.698551
0.0651008
0.013685
0.979048
-0.605807
0.235465
0.168382
0.0166588
-0.110152
0.422555
-0.0584571
-1.19421
-0.0675775
0.177612
-0.577872
0.80597
-0.146846
0.662129
-0.0322691
-0.109951
0.00501416
0.000585041
-0.0055992
-0.752179
0.539535
-0.00178463
0.958105
-0.229301
-0.621167
0.653442
-0.0322747
0.407931
0.757544
-0.167441
0.832301
0.0806779
-0.179694
0.639795
0.117749
0.763857
-0.133727
-0.279306
0.752637
-1.09438
0.57701
-0.588858
0.352647
0.236211
0.909303
-0.0706418
0.042392
0.0690764
-0.0486736
1.24092
0.73657
0.0718366
0.632965
0.211605
-0.878939
-0.0820046
-0.680529
0.677835
-0.0278711
-0.574356
0.405744
0.861022
0.669864
0.0732654
0.140963
-0.142274
-0.322222
0.527608
0.521334
-0.273358
-0.0108584
-0.192774
0.769783
0.648296
1.43218
-0.0811861
0.639527
-0.731359
0.92394
-0.192582
-0.414709
-0.174149
0.0127689
-0.0531171
-0.165497
0.836498
-0.0101042
0.00529948
0.626503
0.053971
-0.930319
0.612821
-0.132281
0.223479
0.784505
0.250782
-1.03529
0.277221
-0.92267
0.144736
-0.935415
-0.167428
0.756035
-0.588607
-0.675563
-0.00844646
-0.0848791
-0.05609
-0.280649
0.0112815
-0.0369775
1.39357
0.347368
-0.209789
-0.137579
-0.038622
-0.569852
-0.205098
0.355711
-1.05504
-0.00300894
0.00379154
-1.15856
-0.0548392
-0.602061
0.0296129
0.568247
0.292776
0.754212
0.691208
-0.231279
-0.389886
0.621165
-0.268189
-0.618922
0.618922
-0.238549
-0.951635
1.19018
0.0312046
-0.155798
0.67313
-0.104884
-0.22304
0.301041
0.0432509
0.0973694
0.667768
-0.131282
0.185162
-0.102213
-0.993222
0.482492
0.0907648
0.0698844
0.00592237
-1.60405
-1.4308
-0.750342
0.692874
0.307126
-1.4308
0.692874
-0.312247
-0.468189
-0.312247
-0.696302
0.696302
0.303698
-0.014104
-0.152206
-0.0782077
0.210172
0.122573
-0.482301
0.637264
-0.0244426
0.645988
-0.505702
-0.140286
-0.0503785
0.0470125
0.00336599
-0.0199262
0.0240452
-0.503379
0.0186889
-0.0737096
-0.434765
-0.366234
0.137915
0.0374516
0.820426
-0.269691
-0.446141
-0.14679
-0.0177796
-0.108153
-0.00273083
0.688913
0.0728921
-0.560315
0.0154977
0.000605928
-0.0175831
0.0847951
0.552846
-0.480066
-0.0727802
1.40976
0.558797
-1.07848
0.933262
0.0115648
-0.0641297
0.110675
-0.305951
0.0119235
1.16923
-0.384721
0.00468277
0.023169
-0.0309459
-1.3629
0.0207269
-0.0207269
0.0215074
-0.0215074
0.00503375
-0.00503375
-0.0114154
0.365472
0.464179
0.132325
-0.70271
0.448712
0.188256
0.0318866
-0.0848802
-0.482122
0.739388
0.112701
-0.797493
-1.1768
-0.280183
-0.0266986
0.0211672
-0.00437699
0.00516209
-0.00516209
0.491462
0.00292721
-0.00292721
0.699557
0.102987
0.00972412
0.00577355
0.00658852
-0.0667468
-0.022305
0.022305
0.00800124
-0.00800124
-0.0224782
0.0224782
0.00099753
-0.00099753
0.022926
-0.29924
-0.0794468
0.219324
-0.000179319
0.000179319
-0.378697
0.501602
-0.122904
0.490452
-0.212851
0.0474062
-0.493547
0.557988
0.191159
0.084371
0.569071
0.564255
-0.00245705
0.00245705
-0.282864
0.0252483
-0.0252483
-0.00112929
0.00112929
0.773284
-1.42275
0.0335636
-0.294515
0.531186
0.00319636
-0.00319636
-0.0071379
0.0071379
0.0183903
-0.0183903
0.0228524
-0.0228524
-0.0236349
0.0236349
0.0354216
-0.0354216
0.49577
-0.0320753
0.0320753
-0.00387189
0.00387189
0.0241575
-0.0241575
0.0102725
-0.0102725
0.0017581
-0.0017581
-0.155675
-0.0264846
0.0264846
0.0306631
0.0359587
-0.0398476
0.0398476
-0.00773385
0.00773385
-0.00172764
0.00172764
0.0338032
-0.0338032
0.0257983
-0.0257983
0.00261132
-0.00261132
0.0095887
-0.0095887
0.466553
0.0181775
0.00970736
-0.00970736
-0.00429948
0.00429948
-0.0384877
0.0384877
-0.0281374
0.0281374
-0.00637109
0.00637109
-0.431962
0.682289
0.287736
-0.0322881
0.0322881
0.00227543
0.00613632
-0.00613632
-0.00471477
0.00471477
0.0374084
-0.0374084
0.125269
-0.26567
-0.01059
0.01059
-0.022307
0.022307
-0.47314
0.043045
-0.0019339
-0.0314978
0.0314978
-0.437823
0.0324378
0.0187181
-0.681577
-1.1731
-0.0372021
0.0372021
-0.208572
0.150115
-0.0414556
-0.0050964
0.0050964
-0.00991965
0.0543968
0.267439
-0.324892
-0.265341
0.590233
0.17938
0.0108655
-0.0108655
-0.129816
-0.169618
0.299434
0.753083
-0.377068
-0.376015
-0.476893
-0.659522
-0.533334
0.386544
-0.404988
0.100961
-0.576475
-0.0258116
0.193253
-1.34581
0.0173546
-0.0173546
-0.00426189
0.00426189
0.03118
-0.03118
0.026346
-0.026346
0.00307372
-0.00307372
-0.00358827
0.00358827
0.00277956
-0.287025
0.164182
-0.288567
-0.00415487
0.00415487
-0.0450349
0.0450349
-0.0408846
0.0408846
-0.0472232
0.25247
-0.205247
0.0136479
0.300521
-0.529822
0.00531513
-0.00531513
-0.00968736
0.00968736
-0.104019
-0.0980964
-0.435237
-0.00434024
0.00434024
0.0361485
0.0167
0.884511
-0.487555
-0.0908953
0.57845
-0.620352
-0.121498
-0.27812
-0.0388351
0.0388351
-0.674107
0.27413
0.050421
-0.050421
-0.668255
0.398991
0.256805
0.108695
0.0021244
-0.0021244
-0.870582
0.00109763
-0.00109763
0.324039
0.407749
0.033564
-0.0545053
0.0545053
-0.004408
0.004408
-0.0429933
0.0429933
-0.0539827
0.0539827
0.00099473
-0.00099473
-0.0597275
0.0597275
0.000559148
-0.000559148
-0.0464044
0.0464044
0.000518517
-0.0456234
0.0456234
0.00594757
-0.00594757
0.0490135
-0.0490135
-0.000200942
0.000200942
0.0476136
-0.0476136
-0.265774
-0.00215548
0.00215548
-0.00423508
0.00423508
-0.0522963
0.0841606
-0.0106625
0.0106625
0.00511201
-0.00511201
-0.0604435
0.0604435
0.303755
-0.01894
0.01894
-0.0585432
0.0585432
-0.00792112
0.00792112
-0.0684389
0.0684389
-0.0138355
0.0138355
-0.0817865
0.0817865
-0.0224829
0.0224829
-0.0968185
0.0968185
-0.699276
-0.170892
-0.54157
0.509296
-0.899609
-0.120971
-0.553207
0.376308
0.260864
0.138448
0.00389758
-0.00389758
0.286834
-0.70196
0.0472187
-0.0412963
-1.11909
1.17451
0.576028
0.256846
0.0174084
-0.0113331
-0.385925
-0.591574
-0.0986804
0.39476
-1.35015
-0.0240536
0.0240536
-0.728647
0.0181089
-0.0181089
0.00860146
-0.00860146
0.320675
-0.187887
-0.00313116
0.00313116
0.0192098
0.0143677
0.59954
-0.341696
-0.0213767
-0.0106459
-0.00937648
-0.105614
0.50767
-0.402056
0.109246
0.0299488
0.00227163
1.09141
0.0279037
0.0449348
-0.410402
0.454639
-0.501297
-0.894431
-0.264614
-0.0755133
0.0184888
-0.10868
0.36061
-0.0260076
-0.006699
0.00972618
0.799578
-0.539779
-0.0439746
0.0606334
-0.039097
-0.143739
-0.00846674
0.416912
0.246396
-0.173649
0.2176
0.00746669
-0.000257287
-0.400667
-0.00553877
-0.332314
0.122525
-0.0189303
-1.03364
-0.071877
0.269492
-0.353854
0.404855
0.258741
-1.00682
0.0445999
0.0986816
-0.0764052
-0.354824
0.458415
-0.0472922
0.0866231
-0.0393308
-0.0273792
0.0273792
0.188293
-0.447253
-0.199368
0.0287388
-0.0854815
0.0576105
-0.0612799
-0.00463395
0.0659138
-0.039885
-0.156714
0.122737
0.150983
-0.289009
-0.342291
0.631301
0.0168661
0.0620702
0.150497
-0.0373754
-0.233817
0.0740086
-0.163375
0.320435
0.00632142
0.0295362
-0.0193089
0.169806
0.00285782
0.267812
-0.00762916
0.00762916
-0.718565
1.36686
0.096012
-0.178017
-0.0232407
0.0770615
1.66271
0.0127222
0.0593992
-0.0113774
-0.535644
-0.00592677
0.0887161
0.100785
-0.702746
0.325422
-0.0612795
0.36312
-0.652129
0.190074
0.504374
-0.0910016
0.0910016
0.00261196
-1.25334
-0.210677
1.46402
-0.220024
0.163934
-0.436666
0.278298
-0.593471
0.00865719
0.0110603
-0.0105565
0.929887
0.36158
-0.288315
-0.0699086
-0.974705
-0.252338
-0.0389277
-0.28957
0.780692
0.565332
-0.26481
-0.351199
0.629857
0.278671
0.102009
-0.268987
0.0333974
-0.459182
0.336278
0.128705
-0.128705
-0.0513894
-0.0748244
0.126214
-0.00625327
0.00987798
0.0147429
0.143231
-0.202905
0.219405
-0.187282
-0.0321229
0.532027
-1.11051
-0.00712542
-1.21164
0.687536
-0.111061
-0.177506
-0.0306404
-0.0803345
-0.49614
0.0613755
-0.296539
-0.00192969
-0.0189303
0.391295
-0.00497718
0.00330611
-0.00117685
0.0135525
-0.0114893
-0.00206321
-0.0989285
-0.0168813
-0.171156
0.188038
-0.115051
-0.344131
0.0192098
0.348853
0.00110257
-0.385961
0.0914814
0.00277007
0.263157
-0.130832
-0.0133072
0.0133072
-0.00158011
0.000863337
-0.00927106
-0.000949973
0.0633824
0.000547437
-0.00115671
-0.00472312
0.250727
-0.00358729
0.00358729
0.0158143
0.50365
0.00170612
-0.296966
0.50607
1.17885
-0.469875
0.321246
-0.439921
-0.114892
-0.0844761
0.215508
-0.221012
0.0497118
0.00380924
-0.00068434
-0.0145008
-0.184133
-0.385972
0.834684
0.461686
-0.458906
-0.0454803
-0.00161842
0.0974155
-0.180025
0.00100158
0.000838608
0.00297064
0.507893
0.00135991
-0.000545358
0.735221
-0.661212
-0.248046
0.0376385
0.290671
-0.000415291
-0.00100126
-0.0414556
-0.00569951
0.817572
-0.431435
0.5222
-1.28027
0.906921
-0.731802
0.56722
-0.190912
0.711666
0.000593007
0.00354286
0.0176244
-0.126579
0.139384
0.148855
0.00690699
0.000271815
0.0686154
-0.0557242
-0.0128912
-0.000275555
-0.0656841
0.0987951
-0.033111
-0.0910059
0.0103895
-0.000820719
0.00236028
0.487699
-0.437362
0.011415
-0.00105595
0.981891
-1.19257
0.38078
-0.00602213
0.000834501
0.218313
-0.226592
-0.0468972
-0.101545
-0.0131005
-0.00368244
0.130728
0.0114786
-0.00261804
0.393571
-0.000987241
-0.00177271
0.00177271
0.0026435
-0.0132894
-0.00108114
-0.324271
-0.00374426
0.0740248
-0.107397
-0.00370702
-0.0236421
-0.0654398
-0.00116026
0.0020796
0.447168
-0.000949325
-0.000941284
0.0137102
-0.00210869
-0.00125807
0.128458
0.137749
-0.710175
0.438441
-0.824412
0.262513
-6.77638e-05
-0.497526
0.170903
0.149276
0.545114
-0.0151476
-0.159301
-0.00408421
-0.00140757
-0.556358
-0.00341113
-0.000435583
0.0111551
0.951399
-0.572696
-0.00260909
-0.000760087
-0.00593826
-0.00195454
0.0668438
-0.0224114
0.0224114
0.012106
-0.0112426
-0.00280912
-0.00799542
0.0149627
-0.0116566
-0.171562
0.10092
-0.00591436
-0.0133476
0.0387609
-0.0179029
0.0642695
-0.0457807
-0.623687
0.57616
-0.020566
-0.00121442
0.441871
-0.264259
-0.0670301
-0.664052
-0.0697375
-0.111225
-0.0963043
0.0941956
0.708935
-0.0009723
-0.0186646