/*--------------------------------*- C++ -*----------------------------------*\
| =========                 |                                                 |
| \\      /  F ield         | OpenFOAM: The Open Source CFD Toolbox           |
|  \\    /   O peration     | Version:  2306                                  |
|   \\  /    A nd           | Website:  www.openfoam.com                      |
|    \\/     M anipulation  |                                                 |
\*---------------------------------------------------------------------------*/
FoamFile
{
    version     2.0;
    format      ascii;
    arch        "LSB;label=32;scalar=64";
    class       volVectorField;
    location    "42";
    object      U;
}
// * * * * * * * * * * * * * * * * * * * * * * * * * * * * * * * * * * * * * //

dimensions      [0 1 -1 0 0 0 0];

internalField   nonuniform List<vector> 
2186
(
(1.28333 -0.0598707 2.18479e-19)
(1.64894 -0.922793 -9.77257e-20)
(1.47665 -0.901379 1.61457e-21)
(0.728246 -0.564852 -1.45916e-19)
(-0.0965029 0.470348 -1.9137e-19)
(0.283646 0.947613 0)
(0.728308 -0.671323 0)
(-0.0301116 0.0180495 1.13144e-19)
(1.73824 0.135274 1.74448e-19)
(0.542844 -0.283523 -2.6626e-21)
(0.694722 0.628715 0)
(1.07055 -0.244737 -1.54398e-19)
(-0.0205446 0.0683263 -4.38744e-20)
(1.20526 0.0271055 -3.83437e-19)
(1.8419 -0.631361 -1.01661e-19)
(1.01447 0.00122477 1.8352e-19)
(0.979273 0.0116402 0)
(-0.142696 1.03564 0)
(0.796493 0.823804 0)
(-0.128078 0.214456 -4.76029e-20)
(0.489657 0.128946 -1.17647e-19)
(-0.219865 0.223888 6.40518e-20)
(1.19483 0.0298952 3.17202e-19)
(-0.162498 -0.109877 5.46778e-21)
(1.03021 0.0135374 -2.49518e-19)
(0.779234 -0.53863 0)
(0.760636 -0.0094022 1.4863e-19)
(0.614202 -0.59341 -1.66209e-19)
(1.23909 0.73639 0)
(0.964282 0.0262166 -3.40653e-19)
(-0.0501871 0.0733961 0)
(1.02543 -0.00614326 1.18078e-20)
(-0.205195 0.106784 0)
(1.7644 -0.0788045 -6.88126e-20)
(-0.155442 -0.154577 -4.55838e-22)
(1.57023 0.800494 1.24779e-19)
(1.54933 -0.0697309 -3.30439e-20)
(0.518646 0.176768 -3.5168e-19)
(1.97738 0.27317 -1.67044e-19)
(0.797523 0.690112 -5.99212e-20)
(-0.0435849 0.0678409 0)
(-0.176559 0.172727 0)
(1.95083 -0.826458 1.02181e-19)
(-0.477975 0.158361 0)
(1.12781 0.29821 1.71796e-19)
(0.588914 -0.266371 2.86887e-19)
(0.934815 -0.790407 0)
(1.18177 -0.771698 1.01208e-19)
(2.32727 -0.593822 0)
(-0.275935 0.825214 1.47944e-19)
(-0.0472276 0.116847 7.03533e-20)
(0.639991 0.591384 9.08847e-20)
(2.10879 -0.660995 1.1624e-19)
(0.607785 0.30579 -2.85206e-19)
(-0.374641 -0.0897821 2.5152e-20)
(0.75756 -0.640529 0)
(1.75139 -0.953752 2.17125e-20)
(0.583586 -0.542587 0)
(2.40771 0.182257 6.11459e-20)
(1.11877 -0.158443 -3.5382e-19)
(1.23293 -0.250361 1.4524e-20)
(1.37966 0.311535 -2.15069e-19)
(1.38107 0.559437 0)
(1.3599 0.601772 6.56991e-20)
(1.40325 0.402918 -1.38031e-19)
(1.24802 -0.715394 -1.38359e-19)
(1.19845 0.684278 6.24051e-20)
(0.686474 0.0976899 -5.73324e-19)
(0.820587 0.0777928 0)
(2.17763 0.0994637 -4.88025e-20)
(-0.0560853 0.0165236 -1.34936e-19)
(1.93064 -0.583847 -4.99455e-20)
(0.726003 -0.0115569 -2.51599e-19)
(0.864587 -0.500619 0)
(0.835966 0.201316 -9.47065e-20)
(0.54332 -0.50067 -2.98157e-19)
(2.17794 -0.523708 0)
(1.00666 0.00905601 3.74761e-19)
(-0.152061 -0.173873 0)
(2.06713 0.420778 0)
(0.875727 0.497201 7.94448e-20)
(0.996987 0.432337 8.03581e-20)
(1.02158 0.00932404 4.14275e-20)
(1.344 0.430981 3.39156e-20)
(0.969911 0.0255332 4.33677e-19)
(1.03828 0.0321991 -1.03157e-20)
(0.675775 0.206051 -3.44634e-19)
(0.600604 1.03356 3.23909e-21)
(0.600537 0.129268 0)
(-0.0741936 -0.0798786 1.14641e-19)
(0.8514 -0.607236 -1.602e-19)
(-0.198225 0.126166 -4.49635e-21)
(1.10453 -0.0662017 2.47719e-19)
(0.810683 -0.164142 0)
(0.973304 0.0241006 4.15722e-20)
(1.39774 0.665644 0)
(1.63924 -0.924584 0)
(1.32885 0.234336 0)
(-0.272465 0.81846 0)
(0.780758 -0.651872 2.86671e-19)
(0.97373 0.152793 -3.03546e-19)
(1.01845 0.47229 1.83569e-19)
(1.59811 0.195338 0)
(1.1397 -0.0918877 -2.26458e-19)
(1.12675 0.0240186 1.85191e-19)
(-0.243142 0.37986 8.1421e-20)
(0.659251 0.5337 0)
(1.91105 -0.020555 -5.90085e-20)
(0.958109 -0.462594 8.00411e-20)
(-0.627696 -0.359823 1.6298e-19)
(1.80612 0.306464 8.08863e-20)
(-0.258539 0.596631 -2.43669e-19)
(0.824076 -0.74656 0)
(0.584858 0.382912 1.72997e-19)
(1.82957 0.0301224 -5.35199e-19)
(0.0821164 0.338282 -4.27166e-19)
(1.95104 1.01434 1.08954e-19)
(2.06961 -0.815099 0)
(-0.0972142 -0.112332 -3.42352e-19)
(0.708429 -0.0498936 7.92371e-20)
(1.59283 0.905969 0)
(-0.137228 0.851018 -1.91389e-19)
(0.908918 0.782322 -3.03594e-19)
(-0.178844 1.03836 3.58254e-19)
(1.02927 -0.0225441 0)
(2.0637 1.02704 -1.3733e-19)
(-0.163958 0.536192 0)
(0.685291 -0.473901 -1.06541e-19)
(-0.164003 1.06788 -1.88416e-19)
(0.793104 -0.72288 0)
(0.421594 -0.240687 4.19594e-19)
(0.531232 -0.43733 2.80634e-19)
(0.426982 -0.386045 0)
(0.983057 -0.773371 -1.17804e-19)
(0.883567 0.282392 0)
(-0.248321 0.852511 -1.16125e-19)
(0.805029 -0.688409 1.35908e-19)
(2.07069 0.0398567 1.76969e-19)
(2.25545 0.113902 0)
(-0.102507 -0.0652879 0)
(0.69784 0.647442 -3.85138e-19)
(1.78201 -0.559657 1.38361e-20)
(-0.0270906 -0.00806442 0)
(0.978858 -0.796969 -1.29352e-20)
(1.13308 -0.0882116 0)
(1.07249 -0.110574 3.91268e-19)
(1.94645 -0.0288695 -7.44619e-20)
(-0.178077 0.718538 0)
(1.21318 -0.534712 -5.11435e-20)
(-0.29766 0.263081 -3.13776e-20)
(-0.0970209 0.115814 0)
(1.09395 -0.803719 1.36156e-20)
(1.00724 0.00396333 -6.26008e-19)
(0.640449 -0.46035 -1.05138e-20)
(0.808753 -0.49896 0)
(1.19712 -0.714562 -8.58836e-20)
(0.667943 0.265475 2.67508e-19)
(1.24052 0.111874 0)
(1.54004 0.0957911 -3.62378e-19)
(1.20082 -0.845614 -1.73747e-19)
(-0.109004 -0.0781441 -1.19786e-19)
(-0.301653 0.326084 -1.61351e-19)
(1.07983 0.0092476 2.40179e-19)
(0.910223 -0.446652 -1.00658e-19)
(0.500079 1.06313 -2.99962e-21)
(0.68996 1.31609 3.72942e-21)
(0.943692 -0.122204 1.41287e-19)
(0.0370952 -0.0303621 -3.17824e-19)
(0.948657 0.004354 0)
(1.43493 0.0466439 -1.6001e-20)
(1.47912 0.671789 1.82748e-19)
(0.798647 -0.598814 -2.09085e-19)
(0.995273 0.00861896 1.28216e-20)
(0.710546 -0.512335 2.92875e-19)
(1.33451 0.824068 1.59745e-19)
(1.90956 0.0431049 5.96546e-22)
(-0.174237 0.776886 0)
(1.09069 0.0643897 -2.51033e-19)
(-0.568757 0.922395 -1.99158e-19)
(1.09621 0.508357 8.87133e-20)
(0.404389 -0.111316 1.91867e-19)
(1.16474 0.0296633 -4.43451e-20)
(-0.244623 0.0810398 -1.17907e-19)
(1.32273 0.599796 -9.5952e-20)
(1.16404 0.908328 0)
(-0.218537 0.935098 -1.04102e-19)
(0.166697 0.30951 0)
(0.671636 0.582992 -2.93398e-19)
(2.1357 0.229985 -8.84117e-21)
(-0.00133838 0.136127 1.4315e-19)
(-0.32619 0.911883 -5.88963e-19)
(0.729628 0.0986106 2.52039e-19)
(2.28539 -0.101706 -4.39356e-20)
(0.972027 -0.329422 -2.96768e-20)
(-0.0814652 -0.0721196 0)
(-0.17338 -1.11188 3.36359e-19)
(1.3524 0.994464 -4.8639e-20)
(0.842452 0.0951075 -1.39609e-19)
(0.564646 0.531018 2.0559e-19)
(0.401941 0.196517 0)
(-0.204606 0.0354031 -2.18606e-19)
(-0.041561 -1.52722 2.04172e-19)
(1.31289 -0.954762 2.75535e-22)
(0.988135 -0.0198771 -1.93763e-19)
(-0.0928946 -0.160347 4.41807e-21)
(0.139967 -0.142886 1.54729e-19)
(-0.184831 -0.235322 -2.23877e-19)
(2.05561 -0.808026 0)
(1.1422 0.050813 -3.39832e-19)
(2.29326 -0.100149 1.09412e-19)
(1.26904 -0.594988 8.96213e-20)
(1.06022 0.14461 -3.43457e-20)
(0.607781 0.35992 0)
(0.967187 0.771276 -1.81472e-20)
(0.695485 0.640983 2.01434e-19)
(0.889419 -0.547873 1.44844e-19)
(0.706568 0.527875 0)
(1.02193 0.00625369 8.33293e-21)
(0.874664 -0.650258 2.06204e-19)
(0.858509 0.445035 -4.82622e-19)
(1.1747 -0.0993266 0)
(0.0908859 0.169283 -3.0969e-19)
(-0.178091 0.171559 -7.41827e-20)
(1.62279 0.74748 0)
(1.36068 -0.924013 -2.3582e-22)
(-0.118208 0.967753 0)
(-0.0544849 0.288047 1.18476e-19)
(0.756448 0.672619 -1.05165e-19)
(0.843056 -0.195677 0)
(-0.0999752 -0.144525 0)
(1.80016 -0.381833 0)
(0.674578 -0.679969 6.68245e-19)
(1.21666 -0.872388 1.14059e-19)
(1.17207 -0.585819 5.68029e-20)
(1.02809 -0.160549 -1.59095e-19)
(0.869043 -0.679144 -1.6229e-19)
(0.191566 -0.194658 0)
(-0.367328 1.06465 0)
(0.99367 -0.492427 1.68017e-19)
(-0.0725955 -0.0371688 0)
(-0.216441 0.876168 0)
(0.0442367 0.41036 3.70873e-19)
(0.814721 0.691374 9.12602e-20)
(1.03702 0.814427 0)
(0.719198 0.579271 -8.93199e-20)
(0.83065 -0.0216451 -2.26842e-19)
(0.767167 0.585434 -2.40201e-19)
(0.602486 0.561698 -1.76995e-19)
(-0.0952022 -0.0171727 -8.57417e-22)
(0.720537 -0.643273 0)
(0.91065 0.193576 -3.36922e-19)
(-0.0847772 0.017932 5.97492e-20)
(0.611411 0.568259 4.04306e-19)
(0.981008 0.818229 0)
(0.517148 0.000187901 4.96688e-19)
(-0.251093 -0.0939454 3.81307e-19)
(-0.135454 0.0720399 -2.04806e-19)
(0.684933 0.593526 -1.54825e-20)
(0.969197 -0.0078883 6.09436e-20)
(-0.0555545 0.115998 0)
(1.79759 0.123616 -6.19762e-20)
(1.4288 -0.754347 6.66191e-21)
(0.652991 -0.602776 -7.34168e-20)
(0.107659 1.02813 1.25494e-20)
(1.21821 0.475702 2.07343e-19)
(0.906072 0.436059 0)
(1.03699 -0.158519 1.90368e-19)
(-0.225925 -0.0667622 6.75142e-21)
(-0.131714 0.0405823 2.75207e-19)
(0.91366 0.0221625 -5.34456e-20)
(1.13223 0.143202 0)
(1.57589 0.0686666 -1.02772e-19)
(1.97457 0.0783805 0)
(0.559235 0.285096 -4.6574e-19)
(0.138993 -0.142244 0)
(-0.0632386 -0.0066551 2.6512e-19)
(0.685308 0.0900164 0)
(0.608241 -0.494601 -1.80693e-19)
(1.13715 0.021739 2.12345e-19)
(-0.199177 0.842641 4.13916e-20)
(1.90895 -0.163233 -3.74527e-21)
(2.01687 -0.0339873 -1.15284e-19)
(1.12963 0.240026 -2.37914e-19)
(-0.0849625 0.0455804 -1.11295e-19)
(1.07425 -0.842235 0)
(0.807582 0.0162393 -1.54591e-19)
(0.918796 -0.359661 -2.84482e-19)
(1.71839 -0.524349 -7.36458e-21)
(1.55331 -0.0120018 1.05304e-19)
(1.087 -0.00519551 4.04334e-19)
(-0.136014 0.0314532 -1.7537e-19)
(0.985409 -0.420383 -1.21787e-19)
(0.20014 -0.192485 2.55605e-19)
(1.00787 -0.00778336 0)
(1.00488 -0.00621334 0)
(1.11466 -1.10819 3.18711e-20)
(-0.190604 0.710111 -7.67196e-20)
(0.268665 -0.101862 -1.67458e-19)
(1.52664 -0.218099 1.95099e-20)
(1.76777 -0.567216 0)
(2.30099 -0.206613 -8.06773e-20)
(0.956337 -0.825641 -6.95186e-20)
(1.82421 -0.491942 -8.77373e-20)
(1.12976 0.857241 0)
(0.469095 -0.448514 0)
(0.624969 0.542348 -1.83671e-19)
(1.11934 0.293645 -4.42177e-19)
(2.05909 -0.0558859 3.08064e-22)
(0.873912 0.176921 1.44104e-19)
(-0.23056 0.108939 -4.5833e-19)
(0.914617 0.269908 8.39891e-20)
(-0.219581 0.158746 0)
(-0.137671 -0.086176 0)
(-0.0661287 0.222596 0)
(1.34098 -0.699747 -6.97062e-20)
(-0.1189 0.119955 -1.97679e-19)
(0.00716402 -0.0859749 0)
(1.31264 0.995425 -4.99347e-20)
(1.12416 0.162434 -4.55965e-19)
(2.2692 -0.204981 -5.33902e-21)
(1.10025 0.939235 1.08587e-19)
(-0.276721 0.510425 1.21852e-19)
(0.898682 0.260908 0)
(-0.0591115 0.292084 -2.97913e-19)
(-0.205416 0.431309 2.42824e-19)
(0.783592 0.0521304 1.86128e-19)
(1.56066 0.970924 -4.3639e-20)
(2.00488 0.521684 -1.60581e-19)
(-0.219179 0.0885223 -5.81111e-21)
(0.748888 -0.680587 -3.50951e-20)
(1.18046 -0.00912876 0)
(1.72311 0.00039112 0)
(0.975589 0.0455024 0)
(0.208237 -1.31315 -1.43273e-19)
(-0.12052 0.203638 1.02967e-19)
(1.07064 0.864487 0)
(0.995904 0.00575863 5.19683e-19)
(0.789445 0.628575 -2.41514e-19)
(0.236502 -1.16477 -1.5059e-19)
(0.868382 0.0356593 -4.18387e-20)
(0.712544 -0.648487 -2.10539e-19)
(1.41469 0.731259 -4.42503e-20)
(0.550623 -0.428033 -2.92508e-19)
(1.12845 0.00529736 -4.76306e-19)
(0.80195 0.0399561 4.50093e-20)
(1.47535 -0.148368 5.97806e-20)
(0.588213 0.00968261 -2.38754e-20)
(-0.0617013 -0.0532036 -6.2451e-22)
(1.09925 0.487988 -2.93999e-19)
(1.32839 0.636006 4.96299e-20)
(-0.153909 -0.00895552 0)
(-0.239122 0.136358 1.67347e-19)
(0.147835 0.391176 1.32245e-19)
(-0.138016 -0.190826 -1.5934e-19)
(0.49524 0.353568 0)
(1.31988 -0.764036 0)
(0.000939337 -0.0107289 -9.90903e-20)
(-0.120606 -0.000614866 -5.84701e-20)
(1.04827 -0.0282303 1.88764e-19)
(-0.115034 0.58928 -5.08953e-20)
(2.16164 -0.67306 -4.73178e-19)
(-0.25588 0.698744 0)
(0.832513 -0.73498 -2.83443e-19)
(0.65907 0.27318 1.35533e-20)
(-0.42476 0.617911 1.29003e-19)
(0.726668 0.184945 3.36133e-19)
(0.631797 0.168107 1.07889e-19)
(0.499266 -0.469918 2.00215e-19)
(-0.027125 0.00603145 -1.37663e-19)
(2.18856 0.44452 0)
(0.41174 0.377837 -1.96631e-19)
(1.03044 -0.0121304 -2.99527e-19)
(-0.332026 0.972353 2.33597e-19)
(1.44726 0.500222 -1.56371e-19)
(-0.0724504 -0.0304662 -5.54358e-20)
(0.71037 -0.644728 -3.29675e-20)
(0.826571 0.208757 -2.13999e-19)
(0.996962 0.445101 2.47843e-20)
(1.14073 -0.130724 3.39966e-20)
(0.601286 -0.202461 -3.00975e-19)
(1.96565 -0.197847 -1.52324e-19)
(0.345885 -0.0868226 0)
(2.11165 -0.207847 -3.93872e-21)
(1.42247 -0.0303372 -1.26667e-20)
(1.0084 0.362606 9.94871e-20)
(0.910738 0.384245 -1.30136e-19)
(0.9315 0.477149 -1.34967e-19)
(0.432698 0.408752 -2.57266e-19)
(0.087381 0.893498 1.76758e-19)
(1.95112 0.257545 0)
(0.945895 0.00921072 0)
(0.878202 -0.773904 5.34656e-20)
(-0.244902 -0.074675 -4.18614e-19)
(0.00732757 0.934437 -2.68232e-19)
(-0.063834 -0.0501149 -2.46922e-19)
(-0.215435 0.961733 -1.39632e-19)
(-0.268941 0.31166 0)
(-0.138379 -0.101333 4.64844e-20)
(-0.0339633 0.363179 -6.30109e-20)
(0.152243 -0.135599 -3.5329e-19)
(0.801698 -0.0878009 0)
(1.32455 -0.340332 -1.23382e-20)
(0.102823 0.212236 0)
(0.994497 0.0239529 3.76318e-19)
(-0.232151 0.25057 1.74922e-20)
(0.527554 -0.400333 3.92072e-19)
(-0.62406 0.931923 3.31207e-19)
(-0.319407 0.0851162 0)
(0.040089 0.583454 6.50667e-20)
(1.0023 0.0268326 -1.13178e-20)
(0.0941876 -0.0970007 0)
(1.00391 -0.00921026 -5.89542e-20)
(0.852515 -0.716913 -2.73811e-19)
(1.44527 -1.04502 0)
(0.927774 -0.25415 2.03666e-19)
(0.0371123 0.722177 1.5994e-19)
(-0.0797837 -0.0804375 0)
(-0.204765 0.0565867 -5.93119e-21)
(0.716955 -0.622217 -4.14676e-19)
(0.942104 -0.0196389 -2.6623e-19)
(-0.247484 -0.0572814 5.00767e-19)
(-0.0955196 -0.0347339 1.68861e-19)
(-0.253822 0.232752 0)
(0.980535 0.495669 0)
(-0.321675 0.442768 1.59475e-19)
(1.45213 0.110976 -2.30153e-20)
(1.09767 0.916053 2.25209e-20)
(1.08904 0.223882 -1.32322e-19)
(1.11872 0.0061393 -2.18527e-19)
(1.01868 -0.0610037 -7.56975e-20)
(-0.234852 -0.0512579 -4.43747e-19)
(1.91032 0.00907076 1.81393e-19)
(0.690099 0.0433683 2.28535e-19)
(1.39979 0.0537275 7.82259e-21)
(1.01682 -0.138908 0)
(-0.588412 0.029654 1.27378e-19)
(1.14652 0.0268885 -5.09962e-19)
(1.78996 0.644547 4.15468e-20)
(0.730131 -0.433949 -1.59228e-19)
(-0.103046 -0.113611 2.55978e-19)
(0.794375 -0.693123 3.61123e-19)
(1.25528 0.205799 8.56332e-20)
(1.00666 -0.00870904 2.61132e-19)
(-0.211879 0.101751 -1.81778e-19)
(1.03001 0.0238707 0)
(1.62783 -0.137059 8.98503e-20)
(-0.0992558 -0.0953367 0)
(1.0138 0.0154448 -1.53018e-19)
(0.342808 -0.463158 -7.38232e-19)
(1.79341 0.34245 6.07551e-20)
(0.112297 0.464826 1.74661e-19)
(1.63732 0.0451391 2.57849e-20)
(1.01539 -0.0161607 5.43447e-20)
(1.23346 -0.0919149 0)
(1.44054 -0.576745 -1.13466e-19)
(1.02831 0.044552 -1.62164e-19)
(1.47121 0.812841 -9.66643e-20)
(1.20862 -0.0501686 0)
(1.32129 0.033667 -1.49484e-20)
(-0.0106435 -0.0073492 0)
(1.26375 0.0635853 0)
(-0.0991571 0.126322 0)
(1.27128 0.465719 0)
(1.92618 0.281353 2.53728e-20)
(0.762881 0.638309 4.23714e-19)
(0.296066 -0.297592 -2.37025e-19)
(-0.125719 -0.0218328 -3.91112e-19)
(-0.0916378 -0.081116 0)
(1.75898 -0.398644 4.89824e-20)
(1.33837 0.545807 0)
(1.50324 0.304936 0)
(-0.106742 0.358028 1.29963e-19)
(0.825359 0.729846 1.43002e-19)
(1.56901 0.0257035 0)
(0.00151824 0.067219 8.47843e-20)
(0.92125 0.240375 1.97705e-19)
(1.27916 -0.279584 1.38283e-20)
(1.26806 0.949173 5.76341e-20)
(0.935985 -0.838292 -2.75932e-20)
(0.0211458 -0.0872236 9.1639e-21)
(0.810274 0.732069 1.48227e-19)
(1.20268 0.945887 0)
(1.92652 -0.688352 5.54808e-20)
(-0.321841 -0.14813 0)
(0.858967 -0.144066 -7.17215e-20)
(1.03298 0.109999 1.29993e-19)
(1.00586 -0.00467504 0)
(-0.757679 -0.320351 1.03634e-19)
(0.887117 -0.152086 4.74836e-20)
(0.61654 -0.383037 0)
(0.659226 -0.356945 2.11135e-19)
(1.26572 0.576492 -3.89448e-20)
(0.483509 0.457999 2.88426e-19)
(0.156863 -0.100787 4.29537e-20)
(0.0172849 -0.0452026 6.16241e-20)
(0.74495 0.0532114 0)
(1.3319 -0.887197 -5.16027e-20)
(1.03836 -0.0436939 4.20043e-19)
(1.53548 0.352218 1.031e-19)
(0.0134121 0.125985 7.15629e-20)
(-0.728771 1.06856 0)
(1.21041 -0.220533 -1.07705e-19)
(-0.0811917 -0.0762981 -2.1378e-19)
(-0.762127 0.54354 -1.79031e-20)
(-0.134499 0.0450878 -5.12375e-22)
(-0.211982 0.0945454 2.21161e-19)
(0.397633 1.06792 1.26684e-20)
(1.83959 0.0441875 8.30525e-20)
(1.219 0.478935 -3.34374e-19)
(0.923734 -0.055997 0)
(1.84454 -0.0515899 1.03813e-19)
(1.52061 0.0630661 3.89701e-20)
(0.905885 -0.757232 1.32592e-19)
(1.17863 -0.980221 -2.35953e-20)
(0.486929 0.453435 1.9552e-19)
(0.159047 0.292042 0)
(1.7962 0.600467 -1.3871e-21)
(-0.0908366 -0.0860959 -4.34582e-19)
(0.904399 0.789324 0)
(2.12968 0.659186 0)
(0.296507 -0.294833 -4.23584e-21)
(0.341087 0.33375 0)
(-0.63346 0.898276 -3.43015e-19)
(0.0334296 0.0516057 -1.21362e-19)
(1.81792 -0.347353 0)
(1.29925 0.0403181 2.72738e-19)
(0.191216 0.769305 2.22411e-19)
(0.53304 -0.505537 -4.54006e-19)
(1.48195 0.0450152 -9.33806e-21)
(0.611204 -0.551979 0)
(1.04433 0.134871 0)
(1.49981 -0.19833 0)
(1.1383 0.240768 -2.56847e-19)
(1.38025 0.113895 3.66808e-19)
(-0.149167 0.052519 0)
(0.85441 -0.0455751 0)
(1.69044 -0.188121 1.57445e-20)
(-0.0820572 -0.0167349 8.09665e-20)
(2.34856 -0.323006 -1.52409e-19)
(1.18725 -0.517427 2.26447e-19)
(1.81566 -0.0707758 -1.04638e-19)
(-0.210537 1.07611 -1.56373e-19)
(2.01663 0.0916523 -8.10043e-20)
(1.01607 -0.014798 4.23801e-19)
(1.54961 0.622557 0)
(-0.164614 0.434881 3.33769e-20)
(1.00205 -0.82202 1.59024e-19)
(0.856148 0.00375259 4.89031e-20)
(0.621683 -0.406801 0)
(1.89032 -0.435854 7.86421e-21)
(1.1899 -0.182807 1.40813e-19)
(1.05453 -0.480206 0)
(0.611047 -0.566847 4.18568e-19)
(1.98516 0.0862029 1.68924e-20)
(2.38522 -0.303437 3.80827e-19)
(-0.0723979 -0.0199068 -1.81638e-19)
(1.36257 0.64077 1.84122e-19)
(1.17265 0.42472 4.09669e-21)
(0.922978 0.395283 2.38115e-19)
(1.38056 0.186477 2.75327e-20)
(-0.225531 -0.0293891 2.82566e-22)
(0.999299 0.32379 0)
(-0.111867 -0.0956515 4.17927e-19)
(1.12324 -0.966631 0)
(1.05711 -0.635395 2.03307e-20)
(0.417449 0.291455 -3.27915e-21)
(1.13657 0.741535 -1.52386e-20)
(-0.344019 0.536178 -3.24964e-19)
(1.0099 0.507206 1.90377e-19)
(-0.0321241 -1.45147 1.581e-19)
(0.707431 -0.042748 0)
(1.07139 -0.308886 0)
(1.51538 -0.133834 -4.79881e-21)
(0.764481 -0.00818577 0)
(1.32965 -0.190662 -1.44896e-19)
(-0.425227 1.00806 5.06852e-19)
(1.9837 0.518775 -4.04855e-20)
(1.05456 -0.0327055 0)
(0.540753 -0.319553 1.03932e-19)
(1.00883 0.0257739 2.01955e-19)
(0.0839861 -1.04181 4.9392e-21)
(-0.0810872 0.985099 0)
(1.09331 -0.451205 4.59944e-19)
(0.727465 -0.219871 -9.81931e-23)
(1.08885 -0.478942 -2.00387e-19)
(2.42845 0.175972 8.54494e-20)
(1.31845 0.81401 0)
(0.882973 0.0248117 0)
(-0.00860887 0.190372 -1.77529e-19)
(0.00173115 -0.0166719 1.11479e-19)
(0.970706 0.386753 -2.22649e-19)
(-0.174135 0.0794005 -1.72123e-19)
(0.666445 0.437896 2.49402e-19)
(1.27142 0.130617 0)
(0.541952 -0.503279 0)
(0.310202 0.675102 -1.35416e-20)
(1.22021 -0.483595 -9.16938e-20)
(1.04061 -0.018974 1.85932e-20)
(0.727366 -0.126932 1.18772e-19)
(-0.0851072 -0.00156452 -2.05352e-19)
(1.56028 0.04036 2.38371e-19)
(0.6731 0.627611 0)
(1.30045 0.717524 0)
(1.65545 0.259159 0)
(-0.23894 0.256256 -1.4913e-19)
(1.26839 0.584521 1.45108e-19)
(1.56944 0.101005 9.11752e-21)
(0.968697 -0.0150854 0)
(1.0658 0.202684 0)
(2.04889 -0.118164 -1.43241e-19)
(-0.390666 -1.00754 -7.31325e-22)
(1.00524 0.00400428 -2.02722e-19)
(1.54016 0.500537 0)
(-0.0933023 0.898224 0)
(1.26696 0.331619 3.2765e-19)
(1.04795 0.549233 -1.4377e-19)
(1.07483 0.0330454 0)
(1.02184 0.236687 0)
(2.03653 0.706997 -2.02225e-19)
(-0.212558 0.196244 -1.51014e-21)
(0.994829 0.0146061 0)
(0.72892 0.501074 -3.48853e-20)
(0.942144 -0.825871 0)
(1.00145 0.0174189 4.68892e-20)
(0.0711794 -0.81083 -1.49752e-19)
(0.895568 -0.30302 2.98896e-19)
(0.19394 0.132918 2.71609e-19)
(1.89539 0.0410165 1.87729e-19)
(1.85136 -0.083934 -5.04982e-20)
(0.768194 -0.0155978 0)
(1.00575 0.0130263 0)
(-0.541321 0.757177 0)
(0.675975 0.646908 -2.07859e-19)
(-0.0428551 -0.0316628 1.3985e-19)
(1.19407 0.367268 -5.22977e-19)
(-0.229406 0.93777 0)
(0.853037 0.6676 1.79913e-19)
(0.996688 -0.314181 0)
(1.00526 -0.0012834 1.18757e-19)
(-0.790734 0.198931 4.76478e-21)
(1.05762 0.42241 2.83037e-19)
(1.57892 0.214192 0)
(2.23599 0.174134 -4.434e-20)
(0.821242 -0.0904967 -3.65179e-19)
(-0.794818 0.982217 -4.66747e-19)
(-0.219756 -0.140416 0)
(0.894202 0.264355 1.83013e-19)
(1.81797 0.175394 0)
(0.797661 0.54746 3.82537e-19)
(-0.522834 0.828381 2.13754e-19)
(-0.0236529 -0.0603777 0)
(0.60156 0.572077 -7.54337e-20)
(1.01835 -0.623527 -1.42487e-19)
(0.467126 -0.21032 -1.23295e-19)
(1.01839 -0.00736443 0)
(0.12352 0.804176 -1.73354e-19)
(0.629275 -0.556304 8.00075e-20)
(0.92194 0.311598 0)
(1.67684 -0.525261 7.92906e-21)
(1.00589 0.856888 2.78228e-20)
(-0.042645 -0.386432 1.30905e-19)
(0.494797 0.107677 -3.38155e-19)
(0.219243 0.0201328 -5.57333e-19)
(-0.100899 -0.0547382 1.06885e-20)
(0.835041 0.383929 2.59824e-19)
(-0.0993588 0.180684 -5.12548e-21)
(1.40691 -0.620653 3.03638e-21)
(1.0223 0.0183345 -3.50185e-19)
(-0.35124 0.433157 0)
(1.03468 0.0436821 -4.23698e-19)
(1.41481 -0.00780874 -2.28966e-20)
(0.912569 0.713086 3.07336e-19)
(1.12236 -0.0576672 1.58863e-19)
(1.00295 -0.01687 1.61986e-19)
(1.08568 0.906654 1.31077e-20)
(0.0511046 0.116634 2.44226e-22)
(1.78723 -0.839027 1.75933e-20)
(1.09817 -0.119665 -7.15377e-20)
(0.763765 0.0422946 8.20039e-20)
(0.897703 -0.270627 8.84967e-20)
(2.028 0.0188369 0)
(0.987039 0.757243 0)
(-0.580267 0.105131 -5.68816e-21)
(2.0735 0.195173 -9.06692e-22)
(-0.657974 0.944689 1.69776e-19)
(1.02158 -0.523051 -4.89935e-19)
(0.605479 -0.517051 3.86045e-19)
(1.43748 0.202761 -9.35044e-20)
(0.0342432 0.0953477 2.01284e-20)
(-0.0274187 -0.02905 0)
(0.758602 0.141164 -6.88153e-21)
(0.604253 -0.408981 1.62878e-19)
(1.06542 0.784187 0)
(0.137588 -0.595926 0)
(1.00168 0.287204 0)
(-0.0480549 -0.0114675 -6.52075e-20)
(-0.191942 0.194185 0)
(0.155861 -0.719009 -1.60011e-19)
(1.24303 0.188495 7.13119e-21)
(0.063629 -0.45785 2.77062e-19)
(2.0894 0.275346 3.50304e-20)
(1.8633 0.484376 -1.28801e-20)
(1.99673 -0.177189 -2.66816e-20)
(-0.179236 0.0104699 -1.53135e-19)
(-0.213647 0.106217 4.42401e-21)
(1.97469 0.0405665 0)
(0.684504 -0.0366155 0)
(1.001 -0.000417757 2.40109e-22)
(-0.298658 0.352169 0)
(1.26418 0.048087 -4.86897e-20)
(0.68202 -0.0325559 0)
(1.04555 0.00792667 1.28031e-19)
(0.989028 0.0155203 -4.59208e-20)
(1.55152 0.133333 1.58373e-19)
(1.06781 -0.0139698 -9.67141e-22)
(0.939826 -0.174596 -5.36448e-20)
(1.02111 -0.0219828 3.73818e-19)
(0.662176 -0.597538 1.79951e-19)
(0.393171 -1.30407 -2.99593e-19)
(1.92992 0.4672 2.81686e-22)
(-0.00169556 -0.0199742 0)
(1.15167 0.816717 0)
(1.02488 0.00363003 0)
(0.994925 -0.760221 -9.73253e-20)
(1.05612 -0.897446 2.5405e-20)
(1.9991 0.736123 -6.61188e-20)
(-0.679301 0.0907954 -2.44607e-19)
(0.0967742 0.374762 -2.81198e-20)
(0.573766 -0.355086 -6.31681e-19)
(2.13953 0.0258014 -1.81542e-20)
(0.772162 0.747548 2.91876e-19)
(2.00548 -0.118779 9.91009e-20)
(1.76908 0.0797233 1.25354e-20)
(-0.0242609 0.0369542 -1.30372e-19)
(1.13793 0.573332 2.2371e-19)
(-0.192547 -0.188327 0)
(-0.215206 0.242487 3.36797e-19)
(-0.158779 -0.130251 -1.11619e-22)
(1.02927 -0.0443638 3.43176e-19)
(1.02207 0.00944982 -8.69355e-21)
(1.10754 -0.00772788 -9.46196e-20)
(0.973869 0.429035 5.32694e-21)
(1.67829 0.321962 8.4605e-20)
(0.394396 -0.366694 -3.12571e-19)
(1.65148 0.806499 1.16082e-19)
(1.03081 0.0103697 -2.46666e-19)
(2.29906 0.481517 -2.90223e-22)
(1.18704 0.445378 0)
(1.13575 0.611663 -4.20786e-19)
(1.00281 -0.00431576 9.68304e-20)
(0.694296 0.624336 2.72336e-19)
(0.179392 0.345007 -1.89047e-21)
(1.07286 -0.00622164 -3.16917e-20)
(1.13144 0.0203686 8.93377e-22)
(2.38425 -0.160262 1.29002e-20)
(1.74718 0.225622 0)
(1.04351 -0.0400354 0)
(1.04814 -0.0348985 5.97879e-19)
(1.00253 -0.0032259 0)
(-0.116675 -0.0931249 0)
(1.05336 -0.614468 0)
(1.00071 -0.00123125 -5.63168e-19)
(1.1501 -0.664522 7.58767e-20)
(1.02395 0.000561103 1.17614e-20)
(1.37237 0.979933 -4.16694e-20)
(1.55699 1.02899 1.00574e-19)
(0.272483 0.493969 4.2759e-20)
(0.493795 0.162557 -7.17372e-20)
(1.88391 -0.159528 0)
(-0.214873 0.427426 0)
(1.59636 0.32317 2.23415e-20)
(0.714745 -0.559745 0)
(0.999334 -0.00547398 -1.74731e-19)
(1.01069 -0.00149278 3.39452e-19)
(1.48225 0.146688 -8.03026e-20)
(0.0535574 -0.104932 3.2625e-19)
(0.982086 0.0029985 1.85841e-19)
(0.68888 0.172912 -3.94499e-20)
(1.27735 0.155504 1.05295e-19)
(0.928917 0.0544172 3.90983e-22)
(0.925777 0.0182454 -1.84129e-19)
(1.00348 0.00367525 2.18359e-19)
(1.00025 -0.00100573 1.2926e-20)
(0.789113 -0.0136507 0)
(0.728002 -0.0269421 0)
(0.723912 -0.0274826 5.15599e-22)
(0.700965 -0.0302813 0)
(0.236157 0.00802905 0)
(0.85544 0.174707 0)
(1.54485 0.151443 -1.82778e-19)
(1.59043 0.150026 1.01311e-19)
(0.825134 0.663276 0)
(0.504085 0.348243 -1.93689e-21)
(0.634236 -0.0448421 0)
(0.0110017 0.217768 0)
(0.13059 0.0719867 0)
(0.941526 0.406743 -9.36405e-21)
(2.00798 0.161281 -2.78194e-20)
(0.773691 0.0247231 0)
(0.78615 0.0200725 0)
(0.964743 0.021487 -2.27206e-19)
(0.814354 0.00740665 4.25009e-19)
(1.00835 -0.00138311 0)
(1.00017 -0.000884248 4.04036e-19)
(1.00038 -0.000865008 -4.19488e-22)
(0.784192 0.0228672 3.60471e-19)
(0.998975 -0.00423719 -2.13114e-19)
(0.6686 -0.134347 0)
(1.22104 0.192878 -1.05407e-19)
(1.00076 -0.00173107 -2.04654e-19)
(0.99983 0.000685288 -3.50453e-19)
(0.927098 -0.291439 0)
(0.999022 0.00117856 0)
(0.999642 -4.63049e-05 0)
(0.132968 0.279312 -6.44292e-20)
(0.750893 1.04656 -6.99491e-20)
(1.72375 0.908882 0)
(-0.0529417 0.334298 2.35896e-19)
(-0.342093 -0.260538 -1.03275e-19)
(1.0203 -0.00976727 -2.7312e-19)
(-0.125001 0.055091 -1.08424e-19)
(1.01871 0.00999798 -2.18779e-19)
(1.14241 -0.203486 -9.38212e-20)
(0.786833 -0.451595 2.97201e-19)
(-0.0741447 -0.0613498 -1.01708e-19)
(1.02846 0.0164182 0)
(1.06952 -0.00938652 -6.14231e-20)
(0.846433 0.0240639 0)
(-0.0911141 0.0245951 1.96416e-19)
(0.554031 -0.829127 0)
(-0.162374 0.237892 -2.65561e-19)
(1.3142 0.280835 4.75812e-20)
(1.69289 0.707691 -8.58007e-20)
(-0.0629285 -0.0103011 0)
(1.05206 -0.0378642 1.85042e-19)
(0.400973 0.896704 -6.86254e-21)
(0.930176 0.0073381 2.88395e-19)
(1.01301 -0.00564556 -1.8644e-19)
(1.70826 0.890128 -1.27551e-21)
(0.535339 0.505139 0)
(0.464966 0.430721 2.06145e-19)
(0.592222 0.0463062 1.339e-20)
(1.16361 0.132166 2.13389e-19)
(1.07966 -0.696017 0)
(1.02406 0.0077661 0)
(1.0003 -0.017656 -4.29072e-19)
(1.01826 0.0179794 -4.15212e-19)
(-0.128598 -0.0617943 0)
(1.24922 0.844836 -1.6306e-19)
(0.183543 0.712878 2.01238e-21)
(1.01546 0.00737132 1.6078e-19)
(1.0117 0.0147483 -2.00552e-19)
(-0.167744 0.379965 -2.62482e-20)
(0.74515 0.917922 1.82485e-19)
(1.01909 -0.00978117 6.86997e-19)
(0.396427 0.518063 0)
(1.90278 0.678895 2.20008e-21)
(1.01625 -0.00765376 -2.13501e-19)
(1.52355 0.0268248 -9.53187e-21)
(1.06475 0.0146595 -4.98473e-22)
(1.00807 -0.00938388 4.27682e-20)
(1.8505 0.0999406 -1.6297e-19)
(1.01709 0.00764666 2.06077e-19)
(1.37581 1.01446 4.17917e-21)
(1.01808 0.00938978 0)
(0.944806 0.169003 5.19896e-20)
(-0.545267 0.293085 4.73041e-21)
(0.998126 0.023055 2.04332e-19)
(1.03974 0.0218093 -6.73521e-22)
(0.445691 0.679976 1.93251e-21)
(1.28774 0.329577 4.82155e-19)
(0.995118 0.0186132 1.40352e-19)
(1.01708 -0.0109894 3.67497e-22)
(1.81093 0.252653 -4.01916e-20)
(1.79931 0.97106 -8.09557e-20)
(0.775955 -0.693797 5.47039e-20)
(0.434796 -0.288393 -3.07293e-19)
(1.00791 -0.00833178 0)
(1.02137 0.00517813 5.11932e-20)
(1.01154 -0.00686455 1.08568e-19)
(1.26674 1.21071 -8.01706e-21)
(1.01486 0.0101225 -2.14664e-19)
(1.02676 -0.0150852 2.43964e-19)
(1.00847 -0.00662828 -2.03028e-19)
(1.01407 0.00905786 -5.0209e-22)
(1.01238 0.00513404 -2.89776e-22)
(1.02416 0.0175245 2.05291e-19)
(0.907973 0.10537 5.26337e-19)
(1.094 -0.827941 0)
(-0.183272 0.642713 4.84557e-20)
(1.01056 0.000691723 0)
(1.02226 -0.0103355 -5.98855e-20)
(1.57033 0.460824 -1.20109e-19)
(1.24696 0.015458 0)
(1.58411 -0.672964 -5.11626e-20)
(0.436962 -0.859935 1.88172e-20)
(0.791152 -0.0222136 0)
(1.64397 0.205569 0)
(-0.0411455 -1.36864 -4.08695e-20)
(0.774089 0.847063 -8.21407e-21)
(1.01814 0.000291164 -2.16812e-19)
(1.10776 -0.545602 -5.64945e-20)
(0.687918 1.1928 4.00089e-20)
(1.33288 0.424538 0)
(0.292732 0.253307 0)
(1.75328 -0.423387 0)
(-0.137824 0.403145 4.61967e-20)
(1.19245 1.13296 -2.00121e-19)
(-0.0985518 -1.50858 0)
(0.135004 0.759356 -2.07759e-19)
(1.73326 0.9949 1.87385e-21)
(1.00766 -0.000946029 -4.23063e-19)
(1.18117 1.2313 -3.03927e-20)
(1.02062 0.0159024 2.79944e-19)
(0.712402 -0.0472445 0)
(-0.175415 -0.0911562 -3.23942e-20)
(0.636734 0.465986 -3.52531e-19)
(1.41981 -0.455866 7.31281e-20)
(0.0696596 0.64282 0)
(0.76658 0.0785066 7.42035e-20)
(0.530102 0.50865 5.42256e-20)
(1.2142 0.906995 -4.49028e-20)
(-0.0956502 -0.101213 1.60869e-19)
(1.02486 0.0195175 0)
(1.33131 0.874051 -1.79598e-19)
(1.01175 0.00140356 1.59114e-19)
(2.44159 -0.00267394 0)
(1.01234 0.0102052 2.66381e-19)
(-0.051602 0.240186 -1.63396e-19)
(1.01904 0.0160834 -1.65188e-19)
(2.01837 1.26865 0)
(1.80381 -0.69401 1.06209e-22)
(1.00932 0.00544982 -1.1068e-19)
(0.997006 -0.0158341 2.91732e-19)
(1.10478 0.107078 -1.95497e-21)
(1.48415 0.604595 2.32139e-19)
(-0.0993085 -0.145135 4.27717e-19)
(2.08391 0.284911 1.0483e-19)
(0.84969 0.289859 -2.56994e-19)
(0.799647 0.0143498 -3.98388e-19)
(0.81749 0.032333 0)
(0.742987 0.863308 -1.33749e-19)
(1.02302 -0.00638002 -3.22111e-20)
(0.970455 0.0417746 0)
(1.05247 0.00745691 -2.0578e-19)
(0.35408 -0.600254 1.43506e-19)
(-0.532161 0.726633 1.83341e-19)
(2.15236 -0.440797 0)
(0.257051 0.10224 -8.9576e-19)
(1.48369 -0.316298 0)
(1.04027 -0.0159772 6.00987e-20)
(1.19907 0.123458 -7.91839e-22)
(1.01303 0.00436369 1.71675e-19)
(0.0313279 0.648246 4.9566e-19)
(1.01933 0.00618057 0)
(0.994174 0.00354906 -4.15178e-19)
(1.00901 0.00888803 2.18454e-19)
(1.57916 0.387278 0)
(1.02927 -0.401659 -5.12879e-21)
(0.955979 -0.00148674 -1.86576e-19)
(-0.153355 0.00874243 4.02604e-19)
(1.00424 -0.00130386 -2.13114e-19)