/*--------------------------------*- C++ -*----------------------------------*\
| =========                 |                                                 |
| \\      /  F ield         | OpenFOAM: The Open Source CFD Toolbox           |
|  \\    /   O peration     | Version:  2306                                  |
|   \\  /    A nd           | Website:  www.openfoam.com                      |
|    \\/     M anipulation  |                                                 |
\*---------------------------------------------------------------------------*/
FoamFile
{
    version     2.0;
    format      ascii;
    arch        "LSB;label=32;scalar=64";
    class       volVectorField;
    location    "2.4";
    object      U;
}
// * * * * * * * * * * * * * * * * * * * * * * * * * * * * * * * * * * * * * //

dimensions      [0 1 -1 0 0 0 0];

internalField   nonuniform List<vector> 
2186
(
(1.2393 -0.0242395 1.79381e-19)
(1.76289 -0.924807 -1.60864e-19)
(1.5592 -0.906998 -3.15303e-21)
(0.748368 -0.58063 -1.13713e-19)
(-0.079032 -0.093411 -6.50815e-20)
(1.02892 -0.0197834 0)
(0.753116 -0.689055 0)
(-0.401984 -0.0951414 6.88387e-20)
(1.65489 0.725334 1.24801e-19)
(0.548582 -0.313485 -2.18977e-21)
(0.668293 0.594386 0)
(1.53519 -0.201544 -1.92378e-19)
(-0.268297 0.0598634 -1.89677e-20)
(1.08606 -0.0383205 -2.85912e-19)
(1.98971 -0.589231 -1.54552e-19)
(1.0514 -0.01529 1.34338e-19)
(1.01263 0.0424353 0)
(0.391483 -0.334558 0)
(1.01162 -0.0129058 0)
(-0.207629 0.522167 -1.74864e-19)
(0.493015 0.0680907 -9.3157e-20)
(0.880108 0.397111 1.96047e-19)
(1.05275 0.0165101 2.36098e-19)
(-0.00974119 -0.532791 2.33223e-20)
(1.02125 -0.0330419 -1.84215e-19)
(0.795304 -0.551807 0)
(0.738948 -0.0377087 1.15146e-19)
(0.629872 -0.606103 -1.26465e-19)
(1.20371 0.685975 0)
(0.961347 -0.00636978 -2.53577e-19)
(-0.203773 0.774387 0)
(1.00284 0.0296878 8.74196e-21)
(0.425408 -0.0704555 0)
(1.13894 0.082503 -3.12658e-21)
(0.179085 -0.715211 -1.18189e-20)
(1.58933 0.717743 -5.29028e-21)
(1.10865 0.0242014 -2.5442e-22)
(0.524541 0.118961 -2.76396e-19)
(1.61449 -0.437808 -2.08459e-19)
(1.01932 -0.00302038 -2.53056e-22)
(-0.227547 0.153035 0)
(0.763832 0.611845 0)
(2.11852 -0.816256 1.35856e-19)
(0.658109 0.281916 0)
(1.06936 0.290045 1.12606e-19)
(0.589653 -0.298449 2.26173e-19)
(0.977667 -0.820093 0)
(1.20544 -0.775835 6.69787e-20)
(1.05346 -0.104354 0)
(-0.120787 -0.554426 9.17218e-20)
(-0.328526 0.724812 2.58155e-19)
(0.631963 0.575712 5.74695e-20)
(2.25086 -0.587468 1.57303e-19)
(0.58164 0.260616 -2.20055e-19)
(0.402076 -0.155938 1.03795e-19)
(0.776992 -0.659399 0)
(1.93249 -0.988321 2.62268e-20)
(0.596303 -0.554605 0)
(1.61349 -0.435491 3.97993e-20)
(1.15018 -0.157882 -2.88804e-19)
(1.05034 0.010419 -2.08334e-21)
(1.32494 0.247036 -1.1584e-19)
(1.34269 0.572355 0)
(1.04114 0.026127 2.77255e-22)
(1.3325 0.331197 -6.5389e-20)
(1.2814 -0.722519 -8.62539e-20)
(1.16303 0.628688 3.5007e-20)
(0.68045 0.0496831 -4.44483e-19)
(0.803985 0.0433795 0)
(1.61689 0.515595 -3.28794e-20)
(-0.479727 0.00265635 -1.11956e-19)
(1.06333 -0.0556167 5.08993e-21)
(0.699905 -0.0447623 -1.95704e-19)
(0.875353 -0.506209 0)
(0.810401 0.162696 -7.14492e-20)
(0.559697 -0.516282 -2.34286e-19)
(1.12212 -0.0594321 0)
(1.05028 -0.0335677 2.76018e-19)
(-0.00292503 -0.546151 0)
(2.24726 -0.182996 0)
(0.94311 -0.477288 2.81867e-21)
(1.0204 0.0256683 -4.42814e-22)
(1.05662 -0.00626577 3.05274e-20)
(1.31205 0.322465 1.77595e-20)
(0.9739 0.0606011 3.23849e-19)
(0.996009 -0.00683841 -7.63735e-21)
(0.65857 0.147262 -2.65349e-19)
(1.02423 6.86546e-05 -2.45138e-22)
(0.896623 -0.00118946 0)
(-0.11769 -0.204704 1.69269e-19)
(0.865303 -0.620163 -1.2264e-19)
(-0.650662 0.122782 3.80468e-20)
(1.0439 -0.0301361 1.83517e-19)
(0.787076 -0.189574 0)
(0.987101 -0.0122974 3.10937e-20)
(1.38617 0.574631 0)
(1.72148 -0.904747 0)
(1.28576 0.214855 0)
(-0.0567083 -0.343131 0)
(0.804368 -0.67397 2.21532e-19)
(0.909373 -0.290521 7.39087e-21)
(0.910989 -0.328538 -5.25181e-21)
(1.36756 0.110547 0)
(1.00657 -0.141188 -1.67796e-19)
(1.00249 0.0266005 1.37385e-19)
(0.704942 -1.13925 2.96261e-19)
(0.610698 0.4978 0)
(1.62655 0.199444 -1.84064e-20)
(0.967084 -0.467341 6.17292e-20)
(0.924292 0.0311362 -1.01851e-20)
(2.10074 -0.308659 2.23459e-19)
(-0.372793 -0.357814 -2.23774e-19)
(0.855611 -0.771265 0)
(0.548278 0.344817 1.33002e-19)
(1.83817 0.699957 -4.45054e-19)
(-0.0164604 0.0503317 -6.79765e-20)
(1.03302 0.0380526 -3.86964e-21)
(1.00308 -0.0770293 0)
(-0.197682 -0.480638 -5.13436e-19)
(0.684581 -0.0805288 6.19822e-20)
(1.61931 0.851817 0)
(0.335843 -0.798903 -7.37614e-20)
(0.889417 0.746629 -1.96698e-19)
(0.527234 -0.273105 -2.11561e-20)
(0.977526 -0.00990399 0)
(0.99538 0.0316295 4.87544e-21)
(-0.180173 -0.204855 0)
(0.704625 -0.486678 -8.34971e-20)
(0.428943 -0.281632 8.16512e-21)
(0.822344 -0.742057 0)
(0.431654 -0.283927 3.32346e-19)
(0.547747 -0.454915 2.21267e-19)
(0.44862 -0.403647 0)
(1.01904 -0.793167 -8.02278e-20)
(0.936683 -0.405604 0)
(-0.0286975 -0.678288 -7.1579e-20)
(0.826869 -0.708365 1.03573e-19)
(1.65627 0.382514 9.25583e-20)
(1.57551 -0.189 0)
(-0.947716 -0.611596 0)
(0.695229 0.639097 -2.36341e-19)
(1.83755 -0.481232 3.40515e-20)
(-0.487569 -0.258573 0)
(1.01448 -0.813981 -9.11366e-21)
(1.0637 -0.209873 0)
(1.04104 -0.174266 2.93181e-19)
(1.67685 0.186826 -4.11343e-20)
(-0.0159622 -0.177797 0)
(1.22684 -0.53147 -3.62497e-20)
(0.711416 0.306596 -1.29573e-19)
(-0.501583 0.024696 0)
(1.12604 -0.827202 1.2948e-20)
(1.03515 -0.0151737 -4.61729e-19)
(0.660066 -0.474154 -8.26488e-21)
(0.815867 -0.50465 0)
(1.21907 -0.727704 -5.78757e-20)
(0.630286 0.211041 2.06155e-19)
(1.23077 0.0718005 0)
(1.51269 0.0307942 -1.11153e-19)
(1.23175 -0.868739 -9.33699e-20)
(-0.979808 -0.841287 -2.16247e-19)
(0.418696 0.656892 -2.3146e-20)
(1.01764 0.00440098 1.73688e-19)
(0.920456 -0.450761 -7.76271e-20)
(1.05922 0.00239065 2.26947e-22)
(0.992625 -0.024618 3.00537e-22)
(1.14369 -0.332328 1.83603e-19)
(0.909983 -0.304268 -5.65978e-19)
(0.996965 -0.0313577 0)
(1.03972 0.0296786 -3.95611e-21)
(1.46172 0.630954 5.92514e-20)
(0.815344 -0.615556 -1.61592e-19)
(1.02122 0.0383176 9.50316e-21)
(0.729446 -0.528336 2.29611e-19)
(1.32347 0.759902 6.30651e-20)
(1.49721 -0.0656961 8.53841e-21)
(0.00395573 -0.112676 0)
(1.01693 0.0323898 -1.82947e-19)
(0.623703 0.214128 1.40601e-20)
(1.04778 0.469653 5.74212e-20)
(1.24262 -0.252429 3.41844e-19)
(1.00597 0.0136127 -3.32091e-20)
(-0.45103 0.486895 -4.22718e-19)
(1.32389 0.503631 -4.14947e-20)
(1.14913 0.878395 0)
(0.0732472 -0.142729 -1.21211e-20)
(-0.0227808 -0.0039869 0)
(0.633858 0.547118 -2.11462e-19)
(1.62026 -0.175027 -1.12592e-20)
(-0.0871489 0.111876 4.0221e-20)
(0.168076 -0.0407359 1.15052e-20)
(0.730254 0.0485304 1.94975e-19)
(1.13343 -0.202164 2.9411e-22)
(0.9765 -0.326695 -2.30164e-20)
(-0.865428 -0.899523 0)
(0.941828 0.0136921 -1.53021e-20)
(1.38937 0.976201 3.96521e-20)
(0.838067 0.0574284 -1.0594e-19)
(0.54289 0.507101 1.45971e-19)
(0.77941 0.293304 0)
(0.0244986 0.919617 -1.93218e-19)
(0.973915 0.00128877 -1.00436e-20)
(1.37742 -0.975307 -7.87339e-23)
(1.01176 -0.0227412 -1.41681e-19)
(0.0290314 -0.364986 -6.07652e-21)
(-0.301248 0.235337 9.53657e-20)
(0.282108 -0.786494 -3.0902e-19)
(1.01889 -0.0376234 0)
(1.01232 0.0122584 -2.41238e-19)
(1.16102 -0.1337 -2.33995e-22)
(1.31545 -0.593103 5.70905e-20)
(1.0417 0.0376832 -1.49162e-21)
(0.573683 0.31883 0)
(0.944043 0.729698 -1.14327e-20)
(0.684263 0.619258 1.3335e-19)
(0.8962 -0.556352 1.1108e-19)
(0.654088 0.486248 0)
(1.01308 0.00743698 6.19857e-21)
(0.890079 -0.664835 1.57873e-19)
(0.828015 0.409783 -3.49644e-19)
(1.30738 -0.0560139 0)
(-0.0391004 -0.0280615 -5.07403e-20)
(-0.0653957 -0.170043 -2.79648e-19)
(1.62827 0.657142 0)
(1.42053 -0.933083 6.73985e-23)
(0.379487 -0.394452 0)
(-0.14455 -0.107087 5.04414e-20)
(0.722614 0.631816 -7.30096e-20)
(0.832839 -0.203729 0)
(0.918716 0.0134211 0)
(2.16095 -0.40162 0)
(0.921435 -0.0556851 -2.22746e-20)
(1.26296 -0.887463 6.10621e-20)
(1.18933 -0.583435 4.0258e-20)
(1.23341 -0.159448 -1.29613e-19)
(0.892573 -0.697488 -1.23368e-19)
(0.190567 -0.194419 0)
(0.619568 -0.135921 0)
(1.01404 -0.496172 1.27094e-19)
(-0.870628 -0.363187 0)
(-0.0144794 -0.405484 0)
(-0.00524217 0.0532389 5.83559e-20)
(0.783653 0.646954 6.33381e-20)
(1.015 0.776693 0)
(0.66836 0.536024 -6.48893e-20)
(0.779242 -0.0541678 -1.75227e-19)
(0.722425 0.53861 -1.72921e-19)
(0.576817 0.534254 -1.25723e-19)
(-0.673289 0.0658228 -1.84795e-20)
(0.740739 -0.659 0)
(0.876125 0.153386 -2.48034e-19)
(-0.440401 0.179386 4.52406e-20)
(0.59541 0.545867 2.78304e-19)
(0.961872 0.784767 0)
(0.919082 -0.0699346 -1.95681e-20)
(0.0527614 0.140207 9.04809e-19)
(0.910773 0.856218 -4.20542e-19)
(0.642615 0.55485 -1.12658e-20)
(0.951204 0.00980975 4.53305e-20)
(-0.12599 0.184708 0)
(1.27195 0.151606 -1.13555e-20)
(0.997499 -0.0417286 1.18533e-20)
(0.669545 -0.617465 -5.61585e-20)
(0.649572 -0.366147 -7.39527e-22)
(1.20529 0.429916 1.21725e-19)
(0.881244 0.396357 0)
(1.11956 -0.181204 1.3822e-19)
(0.565882 0.959797 1.21316e-20)
(-0.613606 0.734198 9.62183e-19)
(1.06466 -0.00912945 -3.95175e-20)
(1.14448 0.128568 0)
(1.37813 0.0541317 -6.52097e-20)
(1.39395 -0.0341463 0)
(0.557225 0.240358 -3.6449e-19)
(-0.349922 0.215715 0)
(-0.636231 -0.137055 2.30205e-19)
(0.996431 0.0427962 0)
(0.630647 -0.512967 -1.42093e-19)
(1.06624 -0.0471931 1.56888e-19)
(0.0035154 -0.230716 8.98921e-21)
(1.16678 -0.0636903 -4.86543e-21)
(1.78709 0.367908 -9.63661e-20)
(1.10382 0.221972 -1.61822e-19)
(-0.300098 0.238407 -5.58356e-20)
(1.11477 -0.864567 0)
(0.853104 0.0160241 -1.14185e-19)
(0.923601 -0.376816 -2.21833e-19)
(1.79018 -0.444809 -1.14338e-20)
(1.43527 0.0841657 7.55796e-20)
(1.01455 -0.00629738 2.93852e-19)
(0.388054 1.32169 -2.19397e-19)
(1.00846 -0.428732 -9.3257e-20)
(0.199322 -0.191126 2.01448e-19)
(1.07632 0.00411101 0)
(1.03244 0.0142715 0)
(1.01931 -0.0188754 -4.54001e-21)
(0.108305 -0.83713 -1.00613e-19)
(0.343226 -0.0973996 -2.29113e-19)
(0.905322 -0.0102793 5.8468e-22)
(1.04864 -0.106284 0)
(1.09717 -0.154484 1.19135e-21)
(0.997849 -0.855985 -3.62542e-20)
(1.96425 -0.42911 -1.18662e-19)
(1.1094 0.819202 0)
(0.480662 -0.45943 0)
(0.584923 0.510335 -1.36273e-19)
(1.05934 0.234077 -2.90253e-19)
(1.79056 0.217732 2.30637e-22)
(0.847951 0.141858 1.06784e-19)
(0.477804 1.20125 -2.83719e-19)
(1.04486 -0.0539787 4.42062e-21)
(0.150782 0.726527 0)
(-0.799001 -0.735899 0)
(0.0368956 0.206654 0)
(1.38989 -0.698143 -2.94956e-20)
(-0.5199 -0.0650374 -2.69952e-19)
(-0.725703 0.524795 0)
(1.33713 0.973904 -7.9862e-22)
(1.0808 0.0979393 -3.06561e-19)
(0.992345 -0.0136455 2.98663e-21)
(1.10812 0.931092 3.01092e-20)
(-0.330208 -0.564183 1.28335e-19)
(1.02939 -0.00136405 0)
(0.0557526 0.171774 -5.08789e-20)
(-0.325426 -0.349448 1.89466e-19)
(0.76749 0.00680939 1.4337e-19)
(1.60671 0.897795 7.78763e-20)
(1.01114 0.00854018 3.27576e-21)
(-0.291669 0.0904011 3.09621e-20)
(0.768815 -0.695535 -2.58632e-20)
(1.32721 -0.0361434 0)
(1.45053 -0.021187 0)
(1.31196 0.0230646 0)
(0.988408 0.0175084 1.04117e-20)
(0.0208747 0.279316 2.14014e-20)
(1.05275 0.833726 0)
(0.972867 -0.0345691 3.84704e-19)
(0.748206 0.580817 -1.71961e-19)
(0.951592 0.000865568 8.3363e-21)
(0.855623 0.0367028 -3.19135e-20)
(0.731412 -0.664644 -1.59446e-19)
(1.4104 0.654676 -9.24211e-21)
(0.567569 -0.44703 -2.30696e-19)
(1.03794 -0.00825168 -3.47346e-19)
(1.06299 -0.0167322 3.434e-20)
(1.42152 -0.111103 3.64626e-20)
(1.01427 -0.00442213 3.23766e-21)
(-0.858063 -0.751455 -7.54162e-21)
(1.05614 0.474366 -1.92003e-19)
(1.60595 0.660868 1.38207e-19)
(0.698324 0.351584 0)
(0.26704 0.969544 9.10789e-20)
(-0.0430386 -0.0122021 2.08539e-20)
(-0.167659 -0.859114 -2.3229e-19)
(0.482921 0.311054 0)
(0.979135 0.00601705 0)
(-0.559498 0.680665 -3.02913e-19)
(-0.498553 0.340393 -1.14012e-20)
(1.02613 -0.00142735 1.37575e-19)
(-0.0467013 -0.04257 -1.07162e-20)
(1.00659 -0.105947 1.26594e-20)
(0.310489 -0.989633 0)
(0.861161 -0.753271 -2.07282e-19)
(1.00406 -0.0142892 -6.47938e-21)
(0.566448 0.377536 -5.69136e-21)
(0.701615 0.126422 2.5822e-19)
(0.637311 0.110603 8.4328e-20)
(0.51174 -0.482184 1.57198e-19)
(-0.479133 -0.185641 -8.892e-20)
(1.01848 -0.0143341 0)
(0.396386 0.344277 -1.54616e-19)
(1.02551 0.0133039 -2.19441e-19)
(0.226954 -0.0868847 -3.08105e-21)
(1.43618 0.347451 -5.06886e-20)
(-0.807518 -0.339525 -6.371e-20)
(0.757272 -0.680112 9.73897e-21)
(0.804502 0.173314 -1.59794e-19)
(0.982578 0.399299 1.67793e-20)
(1.04445 -0.209069 2.61052e-20)
(0.592596 -0.24005 -2.37281e-19)
(1.92397 0.0651475 -1.61599e-19)
(0.894305 -0.00953308 0)
(0.997865 0.0325542 3.25548e-21)
(0.920311 0.0520618 -2.97926e-21)
(1.03007 0.544179 9.58346e-21)
(1.73485 0.309768 -3.43827e-19)
(1.00136 -0.0326289 -6.01211e-22)
(0.417453 0.390991 -1.98011e-19)
(0.60696 -0.599748 1.52159e-20)
(1.26564 0.496063 0)
(1.01882 0.00426059 0)
(0.912727 -0.797239 3.62961e-20)
(-0.320396 0.189468 -9.97293e-19)
(0.712087 -0.188134 1.58126e-20)
(-0.845458 -0.696283 -3.5986e-19)
(0.248911 -0.57246 -1.48149e-20)
(0.387342 0.555804 0)
(-0.882468 -0.850068 9.94272e-20)
(1.36635 -1.09813 -2.35082e-19)
(-0.292206 0.192692 -2.08389e-19)
(0.765511 -0.119824 0)
(1.06963 0.0197495 -5.6073e-21)
(-0.0526996 -0.0382125 0)
(0.989043 -0.00368368 2.81693e-19)
(0.378137 0.830181 -1.49015e-21)
(0.541656 -0.419466 3.09198e-19)
(0.554662 0.180316 -2.32672e-20)
(0.893315 -0.0110877 0)
(0.868342 -1.25734 1.20802e-19)
(1.01311 0.0237956 -8.37218e-21)
(1.17726 -0.3849 0)
(1.02533 -0.0135127 -4.37469e-20)
(0.877227 -0.733805 -2.05214e-19)
(1.00378 -0.016489 0)
(0.93676 -0.257724 1.5693e-19)
(0.624588 -0.996289 6.13307e-20)
(-0.642753 -0.819569 0)
(-0.125505 0.792302 -3.01646e-21)
(0.738939 -0.641337 -3.21857e-19)
(1.02036 0.0243545 -2.0525e-19)
(0.19182 0.881657 1.00742e-18)
(-0.807161 -0.195792 1.98921e-19)
(0.182841 0.61984 0)
(0.963581 0.450066 0)
(0.555126 0.527175 3.55649e-21)
(1.07815 0.212794 1.84141e-21)
(1.09357 0.898114 1.00502e-20)
(1.01809 0.188948 -9.49412e-20)
(1.15107 0.0714541 -1.58667e-19)
(1.13332 -0.114602 -6.06656e-20)
(-0.0672413 0.64499 -7.63512e-19)
(1.07786 -0.0545385 2.4675e-20)
(0.998461 -0.0208619 1.55782e-19)
(1.07808 0.0875487 5.60787e-21)
(1.17286 0.132514 0)
(0.9613 0.0662062 -1.49692e-20)
(0.976815 -0.0220424 -3.8133e-19)
(1.77406 0.559442 -4.39763e-20)
(0.741823 -0.44144 -1.24957e-19)
(-0.193654 -0.602777 3.83022e-19)
(0.817693 -0.710853 2.7223e-19)
(1.2267 0.187338 5.1985e-20)
(1.00984 -0.0456964 1.9279e-19)
(0.164352 1.053 -1.95673e-19)
(1.02838 0.0194498 0)
(1.05715 -0.0178424 7.6003e-21)
(-0.620727 -0.986675 0)
(1.02872 -0.0119844 -1.135e-19)
(0.96499 -0.0145217 2.51514e-20)
(1.61045 0.156428 4.21356e-21)
(-0.0140481 0.0322318 2.0551e-20)
(1.47452 -0.0437244 -1.20843e-20)
(1.06418 -0.00153198 3.9542e-20)
(1.34638 -0.00526679 0)
(1.48945 -0.547122 -5.68907e-20)
(1.02854 0.0512598 -1.18391e-19)
(1.46959 0.751084 1.55184e-20)
(1.27899 -0.059055 0)
(1.0381 -0.00676904 1.48733e-22)
(-0.580657 0.815844 0)
(1.44633 0.0434555 0)
(-0.0639452 0.301152 0)
(1.17903 0.433464 0)
(1.92341 -0.398731 4.85023e-20)
(0.724268 0.593266 3.01115e-19)
(0.297547 -0.298558 -1.86074e-19)
(-0.638104 0.136025 -3.8975e-19)
(-0.92916 -1.04463 0)
(1.0056 -0.0262544 -5.55154e-21)
(1.78455 0.49383 0)
(1.40724 0.21698 0)
(0.0953577 0.196957 2.08257e-20)
(0.813131 0.704419 8.90262e-20)
(1.57707 -0.00175248 0)
(-0.218288 -0.0290886 3.64889e-20)
(0.886485 0.197112 1.45579e-19)
(1.03259 -0.021017 3.37592e-21)
(1.2641 0.914296 1.93199e-20)
(0.979689 -0.872559 -9.41872e-21)
(0.883091 -0.0119635 3.5181e-21)
(0.802482 0.714162 8.95904e-20)
(1.20946 0.922971 0)
(1.07987 -0.0346488 -5.65046e-21)
(0.987624 0.0491309 0)
(1.04339 -0.0309095 -4.60871e-21)
(1.89013 -0.0835676 4.71775e-19)
(1.00318 0.00121336 0)
(0.97672 0.0585835 -1.43609e-20)
(0.878679 -0.175226 3.66331e-20)
(0.633674 -0.400153 0)
(0.670976 -0.372263 1.66178e-19)
(1.23723 0.538356 -2.14525e-20)
(0.4625 0.439739 2.12286e-19)
(-0.278195 0.134388 2.05973e-20)
(1.79487 -0.622262 2.89911e-19)
(1.05622 0.138238 0)
(1.38623 -0.898785 1.68989e-21)
(1.01435 -0.00198759 3.05884e-19)
(1.96198 0.231509 2.71102e-19)
(-0.138782 0.037452 2.91699e-20)
(0.673516 0.188765 0)
(1.16869 -0.127369 -8.40501e-20)
(-0.695306 -0.919755 -3.89303e-19)
(0.929858 0.129137 2.07378e-21)
(-0.148305 0.179956 2.37765e-22)
(-0.196197 0.109065 5.10654e-19)
(1.04217 -0.00265525 -5.57921e-22)
(1.37057 0.124736 1.52281e-20)
(1.19423 0.39009 -1.96308e-19)
(1.14816 -0.048713 0)
(1.32533 -0.0424477 3.01131e-20)
(1.29392 0.0316911 2.28687e-20)
(0.936788 -0.773948 9.7168e-20)
(1.24601 -1.01742 1.07382e-20)
(0.46673 0.433819 1.41012e-19)
(1.00111 0.0976193 0)
(1.81134 0.424436 7.56658e-20)
(-0.771548 -1.01381 -8.11003e-19)
(0.894064 0.767264 0)
(1.01414 -0.0173083 0)
(0.297696 -0.296479 -3.66339e-21)
(0.329052 0.302904 0)
(0.689809 0.0882238 2.81714e-20)
(-0.243841 0.0293869 -7.10481e-20)
(2.08569 -0.283467 0)
(1.26405 0.0609249 8.32191e-20)
(0.717201 -0.273567 -1.3029e-20)
(0.546417 -0.517136 -3.52877e-19)
(1.19925 0.117112 -5.03434e-21)
(0.625711 -0.566344 0)
(1.12616 0.0615683 0)
(2.03951 -0.00661031 0)
(1.06688 0.187242 -1.71205e-19)
(1.19241 0.0706856 2.43753e-19)
(0.864751 -0.0337088 0)
(0.909977 -0.0790498 0)
(1.08067 -0.0326539 7.68427e-22)
(-0.782223 0.571826 2.44128e-19)
(1.18545 -0.117216 6.97668e-22)
(1.36003 -0.573382 3.09451e-19)
(0.958313 -0.0576853 -4.66229e-22)
(0.544793 -0.196258 8.88167e-21)
(1.20558 -0.132692 -2.52114e-20)
(0.941085 -0.0331908 3.1577e-19)
(1.54311 0.492965 0)
(-0.295017 -0.234995 1.99356e-20)
(1.0394 -0.842756 1.0876e-19)
(0.832849 -0.0466195 3.73023e-20)
(0.638618 -0.422611 0)
(1.92908 -0.324318 1.22087e-20)
(1.15683 -0.158668 1.1175e-19)
(0.945364 -0.030552 0)
(0.628845 -0.580001 3.08077e-19)
(1.00668 0.0310103 3.79459e-21)
(1.12252 -0.111874 -5.25352e-21)
(-0.841383 0.381944 -3.99853e-19)
(1.33206 0.575019 7.96214e-20)
(1.13552 0.388148 2.57626e-21)
(0.888959 0.359688 1.70998e-19)
(1.03492 0.160304 4.11354e-21)
(-0.294519 0.735578 4.44797e-20)
(1.10426 0.593354 0)
(-0.0996089 -0.28825 5.58321e-19)
(1.20213 -1.01795 0)
(1.0885 -0.636624 1.49618e-20)
(1.0132 0.273181 9.80722e-21)
(1.0395 -0.0549264 1.61232e-21)
(0.352276 0.311347 -3.18388e-21)
(0.993675 0.466102 1.28206e-19)
(0.976346 0.0297487 -1.14947e-20)
(0.872816 -0.00866951 0)
(0.887792 -0.039684 0)
(0.88535 -0.0142904 -1.36958e-21)
(0.87282 -0.022658 0)
(1.24231 -0.135646 -1.14988e-19)
(0.629083 -0.080591 -3.87442e-20)
(1.89613 0.428954 6.95655e-20)
(1.05534 0.0150929 0)
(0.548798 -0.347097 8.17688e-20)
(0.973423 0.00112584 1.50474e-19)
(0.989484 0.0163108 8.69332e-21)
(0.410214 -0.504553 0)
(1.12887 -0.458009 3.46272e-19)
(1.01647 -0.00866997 2.15287e-23)
(1.12784 -0.494335 -1.51023e-19)
(1.75726 -0.214091 9.79933e-20)
(1.29932 0.764735 0)
(1.03515 0.00977312 0)
(-0.0470318 0.107054 -4.97608e-20)
(-0.592569 0.749657 3.4281e-19)
(0.957825 0.333054 -1.55759e-19)
(0.924513 1.25598 -1.00782e-19)
(0.609917 0.400051 1.89251e-19)
(0.996964 -0.00384235 0)
(0.554182 -0.513196 0)
(1.02557 0.022041 3.80288e-22)
(1.2684 -0.4873 -6.68662e-20)
(2.08048 0.487025 3.3742e-20)
(0.700707 -0.152904 9.28934e-20)
(-0.703961 0.648975 -6.6096e-19)
(1.06743 -0.312722 -2.62304e-21)
(0.656468 0.602892 0)
(1.2776 0.652341 0)
(1.46635 0.196305 0)
(0.226775 0.500967 -2.8448e-20)
(1.52764 0.605323 3.59862e-19)
(1.24356 0.0277218 4.91729e-21)
(1.06264 -0.0424907 0)
(1.04137 -0.0147909 0)
(1.25139 -0.0493784 -2.27649e-20)
(0.99209 0.0387626 -1.02694e-20)
(1.03886 -0.0193388 -1.4983e-19)
(1.45086 0.477877 0)
(0.292555 -0.607014 0)
(1.21178 0.244577 2.05928e-19)
(1.0229 0.510211 -9.30931e-20)
(1.02651 -0.0131985 0)
(1.02307 0.128783 0)
(2.24003 0.54754 -5.03742e-19)
(-0.567754 -0.43981 4.03372e-20)
(1.02551 -0.0157261 0)
(0.671053 0.458619 -2.56466e-20)
(0.981128 -0.853026 0)
(1.0212 -0.00330806 3.51134e-20)
(0.987479 0.00377382 8.8348e-21)
(0.897155 -0.312482 2.32702e-19)
(1.00879 -0.0167315 -6.3498e-21)
(1.5107 0.189498 8.21204e-20)
(1.04465 0.0310549 -3.87866e-21)
(0.817963 -0.108748 0)
(1.10263 -0.0221759 0)
(0.626009 0.317917 0)
(0.670749 0.634389 -1.34036e-19)
(-0.720621 0.806114 4.34539e-19)
(1.11581 0.294196 -3.31068e-19)
(0.119584 -0.216122 0)
(0.822723 0.618264 1.25176e-19)
(0.999557 -0.328728 0)
(0.99882 -0.0436491 8.67675e-20)
(0.961385 0.103488 -2.20484e-21)
(1.02822 0.385061 1.84501e-19)
(1.08604 -0.360948 0)
(1.50312 -0.148518 -1.6893e-20)
(0.802598 -0.123099 -2.81923e-19)
(0.758941 0.0938823 3.42449e-20)
(0.983326 0.0881057 0)
(0.849366 0.231425 1.3538e-19)
(1.37087 0.329653 0)
(0.755133 0.498759 2.75641e-19)
(0.714943 -0.0372115 -1.43909e-20)
(-0.742454 0.711762 0)
(0.579185 0.546983 -5.27606e-20)
(1.04805 -0.626169 -1.05886e-19)
(0.4714 -0.254075 -9.78109e-20)
(0.997853 -0.0265023 0)
(0.632401 -0.445441 4.28828e-21)
(0.649113 -0.574135 6.26354e-20)
(0.875824 0.285992 0)
(1.02402 -0.0302859 -5.51064e-21)
(0.997198 0.837038 1.58827e-20)
(1.01384 -0.0471278 -7.78949e-21)
(1.84932 0.995154 -5.938e-19)
(0.232352 -0.0514059 -4.47085e-19)
(-0.887282 -0.570756 1.66198e-20)
(0.797858 0.354668 1.88943e-19)
(-0.493877 -0.0706022 -4.48605e-21)
(1.4499 -0.609475 2.59389e-21)
(0.999138 0.0325657 -2.61329e-19)
(0.370908 0.399268 0)
(1.02159 0.0161911 -3.06938e-19)
(1.10443 0.124255 -3.42101e-21)
(0.887651 0.66553 2.04264e-19)
(1.0615 -0.081205 1.20331e-19)
(0.952438 -0.0215768 1.20827e-19)
(1.02292 0.0100278 -1.48589e-21)
(-0.111703 -0.0484575 -1.28949e-21)
(1.93904 -0.832642 1.93661e-20)
(1.28658 -0.0595225 -5.24094e-20)
(1.00413 -0.0410543 5.91883e-20)
(0.91127 -0.277568 6.88445e-20)
(0.83121 -0.0193403 0)
(0.963696 0.712114 0)
(0.952068 0.126533 2.62719e-21)
(1.70441 -0.0264456 -1.29793e-20)
(0.576235 0.0642678 -1.42248e-20)
(1.0393 -0.515777 -3.72625e-19)
(0.626261 -0.53442 3.03698e-19)
(1.4489 -0.796495 -3.70205e-20)
(1.44724 1.28662 1.90248e-20)
(0.991154 -0.0107495 0)
(0.751871 0.0953847 -5.2802e-21)
(0.988605 0.0265163 8.91009e-21)
(1.03866 0.740436 0)
(1.02968 -0.00742026 0)
(0.911161 -0.213977 0)
(-0.660322 -0.207 -6.35849e-20)
(0.867455 0.268913 0)
(1.02255 0.0301298 -1.16186e-20)
(1.18416 0.146319 4.59635e-21)
(0.900906 -0.00600949 -9.98622e-21)
(1.05558 -0.0131975 -1.22458e-21)
(1.90323 0.149565 -1.48209e-19)
(1.89252 0.0932601 -1.7959e-20)
(-0.196377 0.159942 -3.72979e-19)
(0.140995 0.898708 2.24784e-21)
(1.04267 -0.0206009 0)
(0.829575 -0.00524296 0)
(0.972713 0.00946591 -1.72049e-21)
(0.263632 0.437488 0)
(1.22646 0.0349192 -3.69234e-20)
(0.827792 -0.000473078 0)
(1.00252 -0.0191301 1.00949e-19)
(1.04585 0.00540054 -3.4138e-20)
(1.02272 -0.248727 -6.51649e-21)
(1.00916 0.0256443 -7.04512e-22)
(0.967316 -0.185921 -4.13873e-20)
(1.00586 -0.0456347 2.79316e-19)
(0.683736 -0.617035 1.40216e-19)
(0.958354 -0.0336751 1.11395e-20)
(0.981701 -0.0138569 -1.22699e-21)
(-0.650706 0.820294 0)
(1.12291 0.774758 0)
(0.975744 -0.0171118 0)
(1.02969 -0.774925 -6.97896e-20)
(1.11076 -0.93021 -1.15622e-20)
(1.02402 0.0213627 3.59297e-21)
(0.928413 0.0451278 2.92157e-20)
(1.03964 0.0203174 6.07758e-22)
(0.582938 -0.376325 -4.98681e-19)
(0.983856 0.000964329 5.57309e-21)
(0.982991 -0.0096102 -4.00107e-21)
(1.90274 0.178126 9.19861e-20)
(1.00838 0.0238363 3.59687e-21)
(-0.355406 -0.0709097 -7.94855e-20)
(1.08337 0.546364 1.35174e-19)
(1.10411 0.21814 0)
(0.670247 0.858554 6.96019e-20)
(-0.64222 -0.916993 1.90035e-20)
(1.02396 0.0068807 2.50439e-19)
(1.05443 -0.0350381 -6.46667e-21)
(1.03051 0.00819249 -6.98066e-20)
(1.00515 0.0273246 -1.79334e-21)
(1.56358 0.215657 2.53809e-20)
(0.402757 -0.3753 -2.46808e-19)
(0.989827 0.0494006 -7.86e-21)
(1.03345 0.0286094 -1.84202e-19)
(1.0839 0.00102981 1.26279e-21)
(1.01667 -0.0136534 0)
(1.09356 0.569915 -2.50776e-19)
(0.983473 0.00606212 7.09289e-20)
(0.657409 0.587862 1.96458e-19)
(1.05462 -0.0199552 -1.06455e-22)
(0.997562 0.0674386 -2.30903e-20)
(1.00822 -0.00790033 6.50775e-22)
(1.21236 -0.106302 2.50349e-22)
(0.822832 0.0062743 0)
(1.00725 -0.0137379 0)
(1.05178 -0.0131248 4.38076e-19)
(1.04283 0.0225232 0)
(-0.832078 -1.00818 0)
(1.18967 -0.694115 0)
(1.05317 0.00443332 -4.11549e-19)
(1.1712 -0.67088 5.11348e-20)
(0.995166 -0.0326599 8.70046e-21)
(1.38696 0.933452 2.47534e-21)
(1.59289 0.980934 -2.016e-19)
(0.988124 0.00533341 -1.22332e-21)
(0.994533 0.131918 -5.96294e-21)
(0.883177 0.00249505 0)
(0.162091 -0.630999 0)
(1.09917 0.251136 -4.86906e-21)
(0.971702 -0.0157832 0)
(0.991785 -0.00717342 -1.28979e-19)
(1.02478 -0.00752631 2.51159e-19)
(1.26621 0.0986981 -4.87497e-20)
(0.0698898 -0.0619665 4.42162e-19)
(1.0129 -0.00525801 1.36631e-19)
(1.02477 -0.00806651 -7.26495e-22)
(1.05107 -0.0365026 3.88258e-21)
(1.01227 -0.00605577 -2.43472e-24)
(1.02709 -0.00791657 -1.36987e-19)
(1.01876 -0.000672006 1.6147e-19)
(0.966885 -0.0129032 9.51183e-21)
(0.834455 0.00657166 0)
(0.877006 0.00769287 0)
(0.852376 0.00183937 -1.55085e-22)
(0.839122 0.0170165 0)
(0.898663 0.00146932 0)
(0.819753 0.0347921 0)
(0.844264 -0.0594837 -1.8726e-21)
(1.04006 -0.017694 3.66049e-22)
(1.01359 0.00365222 0)
(1.01329 0.0088907 8.07896e-22)
(1.01074 -0.00934429 0)
(0.8619 0.0306462 0)
(0.826943 -0.0038727 0)
(0.850297 0.00363603 -1.58259e-21)
(0.84227 -0.0227288 -7.19797e-21)
(0.905634 0.0608698 0)
(0.853068 -0.0232974 0)
(1.05028 0.0446895 -1.70501e-19)
(0.870704 -0.0245018 3.17322e-19)
(1.00704 0.00403637 0)
(1.03032 0.0162697 3.0247e-19)
(1.01667 0.00279445 3.38411e-22)
(0.840473 -0.00882212 2.69461e-19)
(1.01271 -0.0398755 -1.56109e-19)
(1.03266 -0.00756205 0)
(0.807124 0.0370372 -3.88582e-21)
(0.956754 0.000495436 -1.52445e-19)
(0.961298 -0.00897892 -2.62354e-19)
(1.01869 0.00206723 0)
(1.00491 0.00651172 0)
(1.01099 0.0034763 0)
(1.03138 0.00971228 -3.58562e-21)
(1.01254 0.00244405 2.69413e-21)
(0.997471 -0.0400542 0)
(-0.0931309 0.0126089 5.41337e-20)
(0.97322 0.0305271 1.41246e-20)
(0.99381 0.000628692 -2.02438e-19)
(-0.229066 0.417242 -3.76104e-20)
(1.05608 -0.0144924 -1.62923e-19)
(1.22055 -0.120356 -6.7435e-20)
(0.798153 -0.45634 2.3189e-19)
(-0.903603 -0.839682 -1.69334e-19)
(1.04643 0.0156034 0)
(1.08825 0.0399924 -4.34447e-20)
(1.02213 0.00669872 0)
(-0.607328 0.797341 6.59359e-19)
(1.06316 0.0211525 0)
(0.106165 0.364155 -4.59364e-20)
(1.02199 -0.0172125 2.24381e-21)
(1.69829 0.599828 1.25837e-19)
(-0.299199 0.859235 0)
(0.992947 -0.00431067 1.37671e-19)
(1.02818 0.00843311 1.1534e-22)
(0.91728 -0.0187002 2.15029e-19)
(1.04378 0.0069505 -1.36946e-19)
(1.75891 0.793043 1.14065e-19)
(0.509814 0.483429 0)
(0.446142 0.406195 1.61001e-19)
(1.02723 -0.0309803 8.56895e-22)
(1.11181 0.113212 1.42214e-19)
(1.11196 -0.706204 0)
(1.0214 0.026508 0)
(1.01816 -0.0103314 -3.13435e-19)
(1.01024 0.0205279 -3.11071e-19)
(-0.892551 -0.352072 0)
(1.22637 0.798264 -6.43732e-20)
(1.02723 -0.00421567 1.13336e-22)
(0.998206 -0.00489104 1.19247e-19)
(1.02572 0.0198788 -1.4922e-19)
(0.167955 0.256497 -3.08046e-21)
(0.989219 -0.0172272 -4.8761e-21)
(0.987447 0.0360559 5.07101e-19)
(1.03251 0.0346398 0)
(1.98686 0.477396 -1.20022e-19)
(1.03523 -0.00523595 -1.58713e-19)
(1.15787 0.0574764 -6.35899e-21)
(1.02125 -0.00193388 -3.65938e-22)
(1.00982 0.0141948 3.11481e-20)
(1.5082 0.356917 -8.00279e-20)
(1.01013 0.0268115 1.54653e-19)
(1.02965 -0.00734322 -1.57407e-22)
(0.944069 0.0273471 0)
(0.918857 0.148917 3.77437e-20)
(0.863651 0.0276169 -3.00333e-22)
(1.03573 0.0256076 1.52615e-19)
(1.04762 0.00213945 -1.47854e-21)
(1.01923 -0.00294803 -8.73883e-22)
(1.24736 0.296185 2.68936e-19)
(1.02433 0.00951094 1.04197e-19)
(0.957919 -0.0268135 1.11578e-22)
(1.66269 0.122535 -2.78641e-21)
(2.03594 0.968756 -1.74806e-19)
(0.80189 -0.711115 3.97963e-20)
(0.444409 -0.323447 -2.431e-19)
(1.00845 0.0580115 0)
(1.00837 0.00350407 3.88882e-20)
(1.01514 -0.0246144 8.03239e-20)
(1.00044 -0.0110697 4.94608e-22)
(0.969027 0.0245459 -1.57384e-19)
(1.02971 -0.066234 1.80524e-19)
(1.04605 -0.0172559 -1.50881e-19)
(0.997522 0.0198674 -2.86259e-22)
(1.00555 0.0107674 3.27762e-22)
(1.02315 0.0186433 1.52609e-19)
(0.903784 0.081664 3.91295e-19)
(1.0458 0.0149789 0)
(0.934571 0.225058 -9.22971e-21)
(1.01902 -0.00654886 0)
(1.03344 0.00275478 -4.39471e-20)
(1.50599 0.332174 -3.79346e-20)
(0.986118 0.0140836 0)
(1.04458 -0.0348446 5.79896e-21)
(1.01346 0.0386 2.11588e-21)
(1.02414 -0.031036 0)
(1.20084 0.287219 0)
(0.993436 0.0201432 1.00231e-20)
(1.04827 0.0353798 1.30483e-21)
(1.02342 -0.0426577 -1.59336e-19)
(1.1263 -0.541155 -4.21994e-20)
(0.971928 0.00258211 -7.00816e-23)
(1.03049 0.000466851 0)
(0.99748 -0.0161166 0)
(1.00052 0.00451349 0)
(0.832406 -1.09732 9.6297e-20)
(1.02982 0.0115973 2.49419e-21)
(0.972934 0.0075538 0)
(0.673575 -0.757957 -1.78516e-20)
(1.78953 0.929194 -1.67521e-19)
(1.01851 -0.0150216 -3.12188e-19)
(1.05405 0.0271451 -5.87785e-24)
(0.98862 -0.0215167 2.08463e-19)
(0.953503 -0.00853699 0)
(-0.797185 -0.440918 -7.44277e-20)
(0.586237 0.42937 -2.66116e-19)
(1.05488 0.00907425 -5.55726e-21)
(0.615002 -1.04 0)
(0.943577 0.096109 5.95443e-20)
(0.507367 0.486946 3.94608e-20)
(1.20001 0.868519 -1.5053e-20)
(-0.428079 -0.77702 2.72972e-19)
(0.990344 0.0150946 0)
(1.02502 0.00502291 1.47656e-21)
(1.01035 0.0130543 1.16919e-19)
(1.37834 -0.225534 0)
(1.01342 0.0229375 1.95814e-19)
(0.727624 1.00731 -3.8934e-20)
(1.0064 0.00929672 -1.22452e-19)
(1.00935 -0.00808493 0)
(1.04545 0.00181939 -2.32883e-23)
(0.986475 0.0121024 -8.38804e-20)
(1.00196 -0.0503683 2.13747e-19)
(1.02077 0.0936596 -4.15463e-21)
(1.02514 0.0125503 -2.94488e-21)
(-0.0680598 -0.584422 6.15159e-19)
(1.93762 -0.523268 1.23358e-19)
(1.01029 -0.00281576 3.39671e-21)
(0.892647 0.000180427 -2.95676e-19)
(0.941388 -0.00629686 0)
(1.03431 0.00574952 2.83114e-21)
(1.01818 -0.00486404 -2.36928e-20)
(0.931737 0.0300283 0)
(1.01439 -0.00191556 -1.49976e-19)
(0.999096 0.00604161 -3.80752e-21)
(0.751888 0.0164783 -1.45395e-20)
(2.27679 -0.259336 0)
(0.87909 -0.0565571 3.41587e-20)
(1.47231 -0.275514 0)
(1.03022 0.0142362 4.49467e-20)
(1.01418 -0.000926478 -8.34134e-23)
(1.07522 -0.00840779 1.25866e-19)
(0.740029 -0.127641 -2.87051e-20)
(1.01106 -0.0122816 0)
(1.0291 0.000769539 -3.11637e-19)
(1.00479 -0.0107526 1.61742e-19)
(1.01569 0.00786526 0)
(1.01771 0.00360532 2.02061e-21)
(1.00663 0.0059993 -1.40422e-19)
(-0.39489 0.57657 3.09141e-19)