# Force and moment coefficients
# dragDir     : (1.000000e+00 0.000000e+00 0.000000e+00)
# sideDir     : (0.000000e+00 0.000000e+00 -1.000000e+00)
# liftDir     : (0.000000e+00 1.000000e+00 0.000000e+00)
# rollAxis    : (1.000000e+00 0.000000e+00 0.000000e+00)
# pitchAxis   : (0.000000e+00 0.000000e+00 -1.000000e+00)
# yawAxis     : (0.000000e+00 1.000000e+00 0.000000e+00)
# magUInf     : 1.000000e+00
# lRef        : 1.000000e+00
# Aref        : 2.000000e+00
# CofR        : (0.000000e+00 0.000000e+00 0.000000e+00)
#
# Time        	Cd            	Cd(f)         	Cd(r)         	Cl            	Cl(f)         	Cl(r)         	CmPitch       	CmRoll        	CmYaw         	Cs            	Cs(f)         	Cs(r)         
0.05          	7.528399e+00	3.832994e+00	3.695405e+00	-1.375885e-01	2.429490e-01	-3.805375e-01	3.117433e-01	6.879423e-02	3.764200e+00	9.000393e-18	3.764200e+00	-3.764200e+00
0.1           	8.648538e+00	4.323808e+00	4.324730e+00	9.215875e-04	-4.634571e-02	4.726729e-02	-4.680650e-02	-4.607937e-04	4.324269e+00	3.400999e-18	4.324269e+00	-4.324269e+00
0.15          	7.972812e+00	3.949308e+00	4.023503e+00	7.419484e-02	-5.076491e-04	7.470249e-02	-3.760507e-02	-3.709742e-02	3.986406e+00	1.881965e-18	3.986406e+00	-3.986406e+00
0.2           	7.478413e+00	3.683773e+00	3.794640e+00	1.108667e-01	9.144124e-02	1.942547e-02	3.600788e-02	-5.543335e-02	3.739207e+00	1.270998e-18	3.739207e+00	-3.739207e+00
0.25          	7.199105e+00	3.522250e+00	3.676856e+00	1.546060e-01	1.213570e-01	3.324902e-02	4.405397e-02	-7.730299e-02	3.599553e+00	1.059919e-18	3.599553e+00	-3.599553e+00
0.3           	7.021213e+00	3.435376e+00	3.585837e+00	1.504610e-01	1.072797e-01	4.318125e-02	3.204924e-02	-7.523048e-02	3.510607e+00	9.554526e-19	3.510607e+00	-3.510607e+00
0.35          	6.848891e+00	3.350880e+00	3.498011e+00	1.471311e-01	1.274020e-01	1.972906e-02	5.383646e-02	-7.356553e-02	3.424446e+00	9.284333e-19	3.424446e+00	-3.424446e+00
0.4           	6.690397e+00	3.303664e+00	3.386733e+00	8.306813e-02	6.505587e-02	1.801226e-02	2.352180e-02	-4.153406e-02	3.345198e+00	9.453921e-19	3.345198e+00	-3.345198e+00
0.45          	6.634586e+00	3.280807e+00	3.353779e+00	7.297239e-02	5.430005e-02	1.867234e-02	1.781385e-02	-3.648619e-02	3.317293e+00	9.879313e-19	3.317293e+00	-3.317293e+00
0.5           	6.618929e+00	3.277730e+00	3.341199e+00	6.346982e-02	3.617022e-02	2.729959e-02	4.435315e-03	-3.173491e-02	3.309465e+00	9.841742e-19	3.309465e+00	-3.309465e+00
0.55          	6.633883e+00	3.293116e+00	3.340768e+00	4.765179e-02	2.079626e-02	2.685553e-02	-3.029636e-03	-2.382590e-02	3.316942e+00	9.829076e-19	3.316942e+00	-3.316942e+00
0.6           	6.607135e+00	3.280397e+00	3.326738e+00	4.634035e-02	2.653502e-02	1.980533e-02	3.364846e-03	-2.317018e-02	3.303568e+00	9.820624e-19	3.303568e+00	-3.303568e+00
0.65          	6.603602e+00	3.296591e+00	3.307011e+00	1.041987e-02	2.668519e-03	7.751347e-03	-2.541414e-03	-5.209933e-03	3.301801e+00	9.663474e-19	3.301801e+00	-3.301801e+00
0.7           	6.581874e+00	3.295224e+00	3.286650e+00	-8.573785e-03	-1.280687e-03	-7.293098e-03	3.006206e-03	4.286893e-03	3.290937e+00	9.611414e-19	3.290937e+00	-3.290937e+00
0.75          	6.569185e+00	3.305834e+00	3.263351e+00	-4.248352e-02	-2.860077e-02	-1.388275e-02	-7.359009e-03	2.124176e-02	3.284592e+00	9.680078e-19	3.284592e+00	-3.284592e+00
0.8           	6.532412e+00	3.300405e+00	3.232007e+00	-6.839864e-02	-4.942939e-02	-1.896925e-02	-1.523007e-02	3.419932e-02	3.266206e+00	9.853999e-19	3.266206e+00	-3.266206e+00
0.85          	6.521642e+00	3.303287e+00	3.218355e+00	-8.493160e-02	-6.384574e-02	-2.108586e-02	-2.137994e-02	4.246580e-02	3.260821e+00	1.023430e-18	3.260821e+00	-3.260821e+00
0.9           	6.498281e+00	3.289908e+00	3.208373e+00	-8.153543e-02	-6.073851e-02	-2.079692e-02	-1.997080e-02	4.076771e-02	3.249140e+00	1.034033e-18	3.249140e+00	-3.249140e+00
0.95          	6.499703e+00	3.288299e+00	3.211404e+00	-7.689438e-02	-6.331150e-02	-1.358287e-02	-2.486431e-02	3.844719e-02	3.249852e+00	1.061990e-18	3.249852e+00	-3.249852e+00
1             	6.487747e+00	3.281337e+00	3.206410e+00	-7.492765e-02	-6.838439e-02	-6.543266e-03	-3.092056e-02	3.746383e-02	3.243873e+00	1.074601e-18	3.243873e+00	-3.243873e+00
1.05          	6.532784e+00	3.297236e+00	3.235548e+00	-6.168810e-02	-5.783381e-02	-3.854286e-03	-2.698976e-02	3.084405e-02	3.266392e+00	1.091770e-18	3.266392e+00	-3.266392e+00
1.1           	6.561980e+00	3.309248e+00	3.252733e+00	-5.651500e-02	-4.621004e-02	-1.030496e-02	-1.795254e-02	2.825750e-02	3.280990e+00	1.082292e-18	3.280990e+00	-3.280990e+00
1.15          	6.579602e+00	3.321370e+00	3.258232e+00	-6.313862e-02	-4.785244e-02	-1.528617e-02	-1.628314e-02	3.156931e-02	3.289801e+00	1.090106e-18	3.289801e+00	-3.289801e+00
1.2           	6.607512e+00	3.337009e+00	3.270503e+00	-6.650580e-02	-4.916643e-02	-1.733937e-02	-1.591353e-02	3.325290e-02	3.303756e+00	1.093684e-18	3.303756e+00	-3.303756e+00
1.25          	6.636842e+00	3.349172e+00	3.287670e+00	-6.150200e-02	-4.429135e-02	-1.721065e-02	-1.354035e-02	3.075100e-02	3.318421e+00	1.088982e-18	3.318421e+00	-3.318421e+00
1.3           	6.640765e+00	3.352053e+00	3.288712e+00	-6.334178e-02	-4.434986e-02	-1.899192e-02	-1.267897e-02	3.167089e-02	3.320383e+00	1.090021e-18	3.320383e+00	-3.320383e+00
1.35          	6.655734e+00	3.355792e+00	3.299942e+00	-5.584988e-02	-3.793695e-02	-1.791293e-02	-1.001201e-02	2.792494e-02	3.327867e+00	1.080898e-18	3.327867e+00	-3.327867e+00
1.4           	6.687789e+00	3.377146e+00	3.310643e+00	-6.650263e-02	-5.139158e-02	-1.511106e-02	-1.814026e-02	3.325132e-02	3.343895e+00	1.063298e-18	3.343895e+00	-3.343895e+00
1.45          	6.699693e+00	3.374638e+00	3.325054e+00	-4.958407e-02	-3.324003e-02	-1.634404e-02	-8.447995e-03	2.479204e-02	3.349846e+00	1.057575e-18	3.349846e+00	-3.349846e+00
1.5           	6.704301e+00	3.383329e+00	3.320972e+00	-6.235628e-02	-5.266093e-02	-9.695350e-03	-2.148279e-02	3.117814e-02	3.352150e+00	1.051018e-18	3.352150e+00	-3.352150e+00
1.55          	6.743358e+00	3.409256e+00	3.334102e+00	-7.515370e-02	-6.495636e-02	-1.019734e-02	-2.737951e-02	3.757685e-02	3.371679e+00	1.026338e-18	3.371679e+00	-3.371679e+00
1.6           	6.765731e+00	3.417241e+00	3.348490e+00	-6.875100e-02	-5.651385e-02	-1.223715e-02	-2.213835e-02	3.437550e-02	3.382865e+00	1.015726e-18	3.382865e+00	-3.382865e+00
1.65          	6.778812e+00	3.427515e+00	3.351297e+00	-7.621841e-02	-7.910135e-02	2.882943e-03	-4.099215e-02	3.810920e-02	3.389406e+00	9.978408e-19	3.389406e+00	-3.389406e+00
1.7           	6.823522e+00	3.446555e+00	3.376967e+00	-6.958837e-02	-7.519207e-02	5.603696e-03	-4.039788e-02	3.479419e-02	3.411761e+00	9.910693e-19	3.411761e+00	-3.411761e+00
1.75          	6.840213e+00	3.447747e+00	3.392467e+00	-5.528016e-02	-7.255068e-02	1.727053e-02	-4.491060e-02	2.764008e-02	3.420107e+00	9.780172e-19	3.420107e+00	-3.420107e+00
1.8           	6.861560e+00	3.455797e+00	3.405763e+00	-5.003415e-02	-7.155118e-02	2.151703e-02	-4.653410e-02	2.501708e-02	3.430780e+00	9.533759e-19	3.430780e+00	-3.430780e+00
1.85          	6.886081e+00	3.465377e+00	3.420705e+00	-4.467203e-02	-7.499399e-02	3.032196e-02	-5.265798e-02	2.233601e-02	3.443041e+00	9.413637e-19	3.443041e+00	-3.443041e+00
1.9           	6.941718e+00	3.485481e+00	3.456236e+00	-2.924513e-02	-7.373132e-02	4.448619e-02	-5.910875e-02	1.462257e-02	3.470859e+00	9.179983e-19	3.470859e+00	-3.470859e+00
1.95          	6.975798e+00	3.507067e+00	3.468731e+00	-3.833641e-02	-8.519740e-02	4.686099e-02	-6.602919e-02	1.916821e-02	3.487899e+00	9.021818e-19	3.487899e+00	-3.487899e+00
2             	7.028311e+00	3.529067e+00	3.499244e+00	-2.982336e-02	-9.011887e-02	6.029551e-02	-7.520719e-02	1.491168e-02	3.514155e+00	8.801646e-19	3.514155e+00	-3.514155e+00
2.05          	7.088753e+00	3.554889e+00	3.533864e+00	-2.102440e-02	-7.984172e-02	5.881732e-02	-6.932952e-02	1.051220e-02	3.544376e+00	8.708580e-19	3.544376e+00	-3.544376e+00
2.1           	7.137912e+00	3.580161e+00	3.557750e+00	-2.241126e-02	-8.563603e-02	6.322477e-02	-7.443040e-02	1.120563e-02	3.568956e+00	8.539989e-19	3.568956e+00	-3.568956e+00
2.15          	7.187156e+00	3.593703e+00	3.593453e+00	-2.505341e-04	-7.436041e-02	7.410987e-02	-7.423514e-02	1.252670e-04	3.593578e+00	8.460797e-19	3.593578e+00	-3.593578e+00
2.2           	7.243450e+00	3.621186e+00	3.622264e+00	1.077971e-03	-6.928994e-02	7.036791e-02	-6.982892e-02	-5.389857e-04	3.621725e+00	8.294087e-19	3.621725e+00	-3.621725e+00
2.25          	7.291763e+00	3.645057e+00	3.646706e+00	1.648380e-03	-6.861609e-02	7.026447e-02	-6.944028e-02	-8.241900e-04	3.645882e+00	8.192414e-19	3.645882e+00	-3.645882e+00
2.3           	7.336070e+00	3.663971e+00	3.672100e+00	8.129047e-03	-6.202307e-02	7.015211e-02	-6.608759e-02	-4.064523e-03	3.668035e+00	8.050355e-19	3.668035e+00	-3.668035e+00
2.35          	7.375974e+00	3.681336e+00	3.694637e+00	1.330076e-02	-5.856748e-02	7.186824e-02	-6.521786e-02	-6.650381e-03	3.687987e+00	7.884461e-19	3.687987e+00	-3.687987e+00
2.4           	7.420571e+00	3.708543e+00	3.712028e+00	3.485137e-03	-6.773430e-02	7.121944e-02	-6.947687e-02	-1.742569e-03	3.710286e+00	7.903990e-19	3.710286e+00	-3.710286e+00
2.45          	7.452623e+00	3.715321e+00	3.737302e+00	2.198126e-02	-5.608546e-02	7.806672e-02	-6.707609e-02	-1.099063e-02	3.726311e+00	7.783466e-19	3.726311e+00	-3.726311e+00
2.5           	7.487337e+00	3.738229e+00	3.749107e+00	1.087783e-02	-5.987172e-02	7.074954e-02	-6.531063e-02	-5.438913e-03	3.743668e+00	7.828129e-19	3.743668e+00	-3.743668e+00
2.55          	7.528196e+00	3.756885e+00	3.771311e+00	1.442545e-02	-5.904471e-02	7.347016e-02	-6.625743e-02	-7.212724e-03	3.764098e+00	7.832795e-19	3.764098e+00	-3.764098e+00
2.6           	7.563470e+00	3.777610e+00	3.785860e+00	8.250470e-03	-6.153061e-02	6.978108e-02	-6.565585e-02	-4.125235e-03	3.781735e+00	7.871538e-19	3.781735e+00	-3.781735e+00
2.65          	7.614098e+00	3.801066e+00	3.813032e+00	1.196553e-02	-6.640500e-02	7.837053e-02	-7.238777e-02	-5.982764e-03	3.807049e+00	7.910991e-19	3.807049e+00	-3.807049e+00
2.7           	7.645561e+00	3.819172e+00	3.826390e+00	7.217811e-03	-7.078233e-02	7.800014e-02	-7.439123e-02	-3.608906e-03	3.822781e+00	7.927610e-19	3.822781e+00	-3.822781e+00
2.75          	7.680236e+00	3.836870e+00	3.843366e+00	6.496590e-03	-7.562689e-02	8.212348e-02	-7.887518e-02	-3.248295e-03	3.840118e+00	7.978431e-19	3.840118e+00	-3.840118e+00
2.8           	7.714539e+00	3.855553e+00	3.858986e+00	3.432598e-03	-7.687337e-02	8.030597e-02	-7.858967e-02	-1.716299e-03	3.857270e+00	7.981086e-19	3.857270e+00	-3.857270e+00
2.85          	7.745719e+00	3.868813e+00	3.876906e+00	8.093477e-03	-7.621058e-02	8.430406e-02	-8.025732e-02	-4.046739e-03	3.872860e+00	8.071586e-19	3.872860e+00	-3.872860e+00
2.9           	7.781853e+00	3.894472e+00	3.887380e+00	-7.092350e-03	-9.255030e-02	8.545795e-02	-8.900413e-02	3.546175e-03	3.890926e+00	8.000861e-19	3.890926e+00	-3.890926e+00
2.95          	7.815780e+00	3.913000e+00	3.902779e+00	-1.022091e-02	-1.009884e-01	9.076751e-02	-9.587796e-02	5.110453e-03	3.907890e+00	8.008123e-19	3.907890e+00	-3.907890e+00
3             	7.860469e+00	3.939308e+00	3.921161e+00	-1.814761e-02	-1.076893e-01	8.954171e-02	-9.861552e-02	9.073807e-03	3.930234e+00	8.084329e-19	3.930234e+00	-3.930234e+00
3.05          	7.890964e+00	3.951451e+00	3.939513e+00	-1.193823e-02	-1.072297e-01	9.529147e-02	-1.012606e-01	5.969117e-03	3.945482e+00	7.969878e-19	3.945482e+00	-3.945482e+00
3.1           	7.947955e+00	3.978909e+00	3.969046e+00	-9.862375e-03	-1.064080e-01	9.654565e-02	-1.014768e-01	4.931187e-03	3.973978e+00	7.895895e-19	3.973978e+00	-3.973978e+00
3.15          	7.970892e+00	3.994570e+00	3.976322e+00	-1.824734e-02	-1.183702e-01	1.001228e-01	-1.092465e-01	9.123668e-03	3.985446e+00	7.889966e-19	3.985446e+00	-3.985446e+00
3.2           	7.994601e+00	4.005389e+00	3.989212e+00	-1.617638e-02	-1.205029e-01	1.043265e-01	-1.124147e-01	8.088188e-03	3.997300e+00	7.939717e-19	3.997300e+00	-3.997300e+00
3.25          	8.041972e+00	4.028530e+00	4.013442e+00	-1.508870e-02	-1.219132e-01	1.068245e-01	-1.143688e-01	7.544352e-03	4.020986e+00	7.857304e-19	4.020986e+00	-4.020986e+00
3.3           	8.048691e+00	4.028241e+00	4.020450e+00	-7.790812e-03	-1.161626e-01	1.083718e-01	-1.122672e-01	3.895406e-03	4.024346e+00	7.747227e-19	4.024346e+00	-4.024346e+00
3.35          	8.068911e+00	4.044715e+00	4.024196e+00	-2.051814e-02	-1.231345e-01	1.026163e-01	-1.128754e-01	1.025907e-02	4.034456e+00	7.670395e-19	4.034456e+00	-4.034456e+00
3.4           	8.092717e+00	4.059472e+00	4.033245e+00	-2.622755e-02	-1.294993e-01	1.032718e-01	-1.163856e-01	1.311378e-02	4.046359e+00	7.636915e-19	4.046359e+00	-4.046359e+00
3.45          	8.112355e+00	4.061757e+00	4.050599e+00	-1.115812e-02	-1.192272e-01	1.080691e-01	-1.136482e-01	5.579058e-03	4.056178e+00	7.680392e-19	4.056178e+00	-4.056178e+00
3.5           	8.124376e+00	4.076638e+00	4.047739e+00	-2.889891e-02	-1.272376e-01	9.833872e-02	-1.127882e-01	1.444946e-02	4.062188e+00	7.667984e-19	4.062188e+00	-4.062188e+00
3.55          	8.144469e+00	4.087033e+00	4.057435e+00	-2.959788e-02	-1.273564e-01	9.775853e-02	-1.125575e-01	1.479894e-02	4.072234e+00	7.649367e-19	4.072234e+00	-4.072234e+00
3.6           	8.154872e+00	4.088782e+00	4.066090e+00	-2.269184e-02	-1.245586e-01	1.018668e-01	-1.132127e-01	1.134592e-02	4.077436e+00	7.570032e-19	4.077436e+00	-4.077436e+00
3.65          	8.169504e+00	4.093838e+00	4.075666e+00	-1.817253e-02	-1.247165e-01	1.065439e-01	-1.156302e-01	9.086267e-03	4.084752e+00	7.754640e-19	4.084752e+00	-4.084752e+00
3.7           	8.173462e+00	4.096573e+00	4.076889e+00	-1.968399e-02	-1.267515e-01	1.070675e-01	-1.169095e-01	9.841994e-03	4.086731e+00	7.700415e-19	4.086731e+00	-4.086731e+00
3.75          	8.184010e+00	4.096445e+00	4.087565e+00	-8.880252e-03	-1.230956e-01	1.142154e-01	-1.186555e-01	4.440126e-03	4.092005e+00	7.729216e-19	4.092005e+00	-4.092005e+00
3.8           	8.191309e+00	4.097987e+00	4.093321e+00	-4.665867e-03	-1.203895e-01	1.157236e-01	-1.180565e-01	2.332933e-03	4.095654e+00	7.749501e-19	4.095654e+00	-4.095654e+00
3.85          	8.201745e+00	4.100928e+00	4.100817e+00	-1.113990e-04	-1.172048e-01	1.170934e-01	-1.171491e-01	5.569950e-05	4.100873e+00	7.801176e-19	4.100873e+00	-4.100873e+00
3.9           	8.200949e+00	4.094812e+00	4.106137e+00	1.132528e-02	-1.095973e-01	1.209225e-01	-1.152599e-01	-5.662640e-03	4.100474e+00	7.818313e-19	4.100474e+00	-4.100474e+00
3.95          	8.212788e+00	4.105009e+00	4.107779e+00	2.770640e-03	-1.109311e-01	1.137017e-01	-1.123164e-01	-1.385320e-03	4.106394e+00	7.910644e-19	4.106394e+00	-4.106394e+00
4             	8.219947e+00	4.100222e+00	4.119725e+00	1.950333e-02	-1.055659e-01	1.250692e-01	-1.153175e-01	-9.751667e-03	4.109974e+00	8.123016e-19	4.109974e+00	-4.109974e+00
4.05          	8.218767e+00	4.094120e+00	4.124647e+00	3.052670e-02	-9.449560e-02	1.250223e-01	-1.097590e-01	-1.526335e-02	4.109384e+00	8.101596e-19	4.109384e+00	-4.109384e+00
4.1           	8.221996e+00	4.096099e+00	4.125896e+00	2.979746e-02	-9.407710e-02	1.238746e-01	-1.089758e-01	-1.489873e-02	4.110998e+00	8.161455e-19	4.110998e+00	-4.110998e+00
4.15          	8.228865e+00	4.100164e+00	4.128701e+00	2.853716e-02	-9.115022e-02	1.196874e-01	-1.054188e-01	-1.426858e-02	4.114432e+00	8.215619e-19	4.114432e+00	-4.114432e+00
4.2           	8.229743e+00	4.093137e+00	4.136606e+00	4.346844e-02	-8.153568e-02	1.250041e-01	-1.032699e-01	-2.173422e-02	4.114871e+00	8.334576e-19	4.114871e+00	-4.114871e+00
4.25          	8.231297e+00	4.089613e+00	4.141683e+00	5.207025e-02	-7.341550e-02	1.254858e-01	-9.945063e-02	-2.603513e-02	4.115648e+00	8.351472e-19	4.115648e+00	-4.115648e+00
4.3           	8.228039e+00	4.083955e+00	4.144083e+00	6.012837e-02	-6.732770e-02	1.274561e-01	-9.739189e-02	-3.006419e-02	4.114019e+00	8.351505e-19	4.114019e+00	-4.114019e+00
4.35          	8.229548e+00	4.076101e+00	4.153447e+00	7.734644e-02	-5.371899e-02	1.310654e-01	-9.239221e-02	-3.867322e-02	4.114774e+00	8.291387e-19	4.114774e+00	-4.114774e+00
4.4           	8.236106e+00	4.076795e+00	4.159311e+00	8.251548e-02	-5.380376e-02	1.363192e-01	-9.506151e-02	-4.125774e-02	4.118053e+00	8.450652e-19	4.118053e+00	-4.118053e+00
4.45          	8.227377e+00	4.067752e+00	4.159625e+00	9.187307e-02	-4.576771e-02	1.376408e-01	-9.170424e-02	-4.593653e-02	4.113689e+00	8.374801e-19	4.113689e+00	-4.113689e+00
4.5           	8.236642e+00	4.068733e+00	4.167909e+00	9.917634e-02	-3.551919e-02	1.346955e-01	-8.510736e-02	-4.958817e-02	4.118321e+00	8.391171e-19	4.118321e+00	-4.118321e+00
4.55          	8.231146e+00	4.059282e+00	4.171863e+00	1.125808e-01	-2.691167e-02	1.394925e-01	-8.320208e-02	-5.629041e-02	4.115573e+00	8.388002e-19	4.115573e+00	-4.115573e+00
4.6           	8.234276e+00	4.059249e+00	4.175027e+00	1.157782e-01	-1.975655e-02	1.355347e-01	-7.764563e-02	-5.788908e-02	4.117138e+00	8.511338e-19	4.117138e+00	-4.117138e+00
4.65          	8.239982e+00	4.055592e+00	4.184391e+00	1.287993e-01	-1.286398e-02	1.416633e-01	-7.726363e-02	-6.439965e-02	4.119991e+00	8.521245e-19	4.119991e+00	-4.119991e+00
4.7           	8.233239e+00	4.048347e+00	4.184892e+00	1.365442e-01	-4.055052e-03	1.405993e-01	-7.232717e-02	-6.827212e-02	4.116620e+00	8.446740e-19	4.116620e+00	-4.116620e+00
4.75          	8.235983e+00	4.039351e+00	4.196632e+00	1.572810e-01	1.064969e-02	1.466314e-01	-6.799083e-02	-7.864052e-02	4.117992e+00	8.496615e-19	4.117992e+00	-4.117992e+00
4.8           	8.232230e+00	4.037062e+00	4.195168e+00	1.581052e-01	1.401501e-02	1.440902e-01	-6.503760e-02	-7.905261e-02	4.116115e+00	8.458394e-19	4.116115e+00	-4.116115e+00
4.85          	8.223525e+00	4.024787e+00	4.198738e+00	1.739516e-01	3.149730e-02	1.424543e-01	-5.547849e-02	-8.697579e-02	4.111762e+00	8.435258e-19	4.111762e+00	-4.111762e+00
4.9           	8.229217e+00	4.025655e+00	4.203562e+00	1.779074e-01	3.748995e-02	1.404175e-01	-5.146377e-02	-8.895372e-02	4.114608e+00	8.508617e-19	4.114608e+00	-4.114608e+00
4.95          	8.220228e+00	4.018910e+00	4.201317e+00	1.824068e-01	4.425091e-02	1.381559e-01	-4.695249e-02	-9.120340e-02	4.110114e+00	8.420992e-19	4.110114e+00	-4.110114e+00
5             	8.214016e+00	4.013979e+00	4.200037e+00	1.860572e-01	5.114855e-02	1.349087e-01	-4.188007e-02	-9.302862e-02	4.107008e+00	8.384989e-19	4.107008e+00	-4.107008e+00
5.05          	8.203603e+00	4.006309e+00	4.197294e+00	1.909847e-01	5.796622e-02	1.330185e-01	-3.752612e-02	-9.549234e-02	4.101802e+00	8.322881e-19	4.101802e+00	-4.101802e+00
5.1           	8.199169e+00	4.000654e+00	4.198515e+00	1.978603e-01	6.613965e-02	1.317206e-01	-3.279050e-02	-9.893015e-02	4.099584e+00	8.278901e-19	4.099584e+00	-4.099584e+00
5.15          	8.188516e+00	3.994420e+00	4.194096e+00	1.996765e-01	7.238439e-02	1.272921e-01	-2.745385e-02	-9.983825e-02	4.094258e+00	8.248685e-19	4.094258e+00	-4.094258e+00
5.2           	8.181189e+00	3.980300e+00	4.200889e+00	2.205886e-01	8.741802e-02	1.331706e-01	-2.287629e-02	-1.102943e-01	4.090595e+00	8.123025e-19	4.090595e+00	-4.090595e+00
5.25          	8.172121e+00	3.974436e+00	4.197686e+00	2.232503e-01	9.564623e-02	1.276040e-01	-1.597891e-02	-1.116251e-01	4.086061e+00	8.013759e-19	4.086061e+00	-4.086061e+00
5.3           	8.159412e+00	3.974747e+00	4.184666e+00	2.099191e-01	9.288060e-02	1.170385e-01	-1.207893e-02	-1.049595e-01	4.079706e+00	8.041799e-19	4.079706e+00	-4.079706e+00
5.35          	8.156695e+00	3.969317e+00	4.187378e+00	2.180616e-01	1.024305e-01	1.156311e-01	-6.600303e-03	-1.090308e-01	4.078347e+00	8.178382e-19	4.078347e+00	-4.078347e+00
5.4           	8.145090e+00	3.965062e+00	4.180028e+00	2.149655e-01	1.066701e-01	1.082954e-01	-8.126492e-04	-1.074827e-01	4.072545e+00	8.196687e-19	4.072545e+00	-4.072545e+00
5.45          	8.126461e+00	3.958108e+00	4.168353e+00	2.102453e-01	1.092241e-01	1.010212e-01	4.101457e-03	-1.051227e-01	4.063230e+00	8.046969e-19	4.063230e+00	-4.063230e+00
5.5           	8.115728e+00	3.945873e+00	4.169854e+00	2.239814e-01	1.200258e-01	1.039556e-01	8.035107e-03	-1.119907e-01	4.057864e+00	7.923865e-19	4.057864e+00	-4.057864e+00
5.55          	8.104109e+00	3.940270e+00	4.163838e+00	2.235683e-01	1.232280e-01	1.003403e-01	1.144388e-02	-1.117841e-01	4.052054e+00	7.956580e-19	4.052054e+00	-4.052054e+00
5.6           	8.089353e+00	3.932174e+00	4.157179e+00	2.250052e-01	1.276378e-01	9.736741e-02	1.513517e-02	-1.125026e-01	4.044676e+00	7.926071e-19	4.044676e+00	-4.044676e+00
5.65          	8.072908e+00	3.923881e+00	4.149027e+00	2.251465e-01	1.303750e-01	9.477153e-02	1.780174e-02	-1.125733e-01	4.036454e+00	7.834873e-19	4.036454e+00	-4.036454e+00
5.7           	8.060254e+00	3.914995e+00	4.145258e+00	2.302633e-01	1.352387e-01	9.502455e-02	2.010709e-02	-1.151316e-01	4.030127e+00	7.902706e-19	4.030127e+00	-4.030127e+00
5.75          	8.050871e+00	3.909634e+00	4.141237e+00	2.316032e-01	1.386899e-01	9.291331e-02	2.288831e-02	-1.158016e-01	4.025436e+00	7.917007e-19	4.025436e+00	-4.025436e+00
5.8           	8.028614e+00	3.896912e+00	4.131702e+00	2.347899e-01	1.381553e-01	9.663462e-02	2.076032e-02	-1.173949e-01	4.014307e+00	7.786239e-19	4.014307e+00	-4.014307e+00
5.85          	8.015044e+00	3.889163e+00	4.125881e+00	2.367184e-01	1.398099e-01	9.690849e-02	2.145069e-02	-1.183592e-01	4.007522e+00	7.740393e-19	4.007522e+00	-4.007522e+00
5.9           	7.997611e+00	3.880559e+00	4.117052e+00	2.364932e-01	1.389542e-01	9.753901e-02	2.070758e-02	-1.182466e-01	3.998806e+00	7.631374e-19	3.998806e+00	-3.998806e+00
5.95          	7.983743e+00	3.869674e+00	4.114069e+00	2.443944e-01	1.419258e-01	1.024686e-01	1.972859e-02	-1.221972e-01	3.991872e+00	7.753900e-19	3.991872e+00	-3.991872e+00
6             	7.970129e+00	3.859712e+00	4.110417e+00	2.507054e-01	1.434004e-01	1.073050e-01	1.804772e-02	-1.253527e-01	3.985065e+00	7.795279e-19	3.985065e+00	-3.985065e+00
6.05          	7.953950e+00	3.848912e+00	4.105037e+00	2.561251e-01	1.441794e-01	1.119457e-01	1.611684e-02	-1.280626e-01	3.976975e+00	7.777038e-19	3.976975e+00	-3.976975e+00
6.1           	7.932887e+00	3.837114e+00	4.095773e+00	2.586587e-01	1.430700e-01	1.155886e-01	1.374071e-02	-1.293293e-01	3.966444e+00	7.585214e-19	3.966444e+00	-3.966444e+00
6.15          	7.920448e+00	3.829207e+00	4.091241e+00	2.620340e-01	1.429724e-01	1.190616e-01	1.195542e-02	-1.310170e-01	3.960224e+00	7.789004e-19	3.960224e+00	-3.960224e+00
6.2           	7.903281e+00	3.819079e+00	4.084202e+00	2.651234e-01	1.425736e-01	1.225498e-01	1.001190e-02	-1.325617e-01	3.951641e+00	7.742693e-19	3.951641e+00	-3.951641e+00
6.25          	7.887671e+00	3.803003e+00	4.084669e+00	2.816663e-01	1.479101e-01	1.337563e-01	7.076893e-03	-1.408332e-01	3.943836e+00	7.677249e-19	3.943836e+00	-3.943836e+00
6.3           	7.871261e+00	3.800066e+00	4.071195e+00	2.711286e-01	1.422485e-01	1.288801e-01	6.684182e-03	-1.355643e-01	3.935630e+00	7.594440e-19	3.935630e+00	-3.935630e+00
6.35          	7.857410e+00	3.789407e+00	4.068003e+00	2.785961e-01	1.435927e-01	1.350034e-01	4.294638e-03	-1.392980e-01	3.928705e+00	7.672583e-19	3.928705e+00	-3.928705e+00
6.4           	7.839156e+00	3.776542e+00	4.062614e+00	2.860716e-01	1.464292e-01	1.396425e-01	3.393338e-03	-1.430358e-01	3.919578e+00	7.691844e-19	3.919578e+00	-3.919578e+00
6.45          	7.823652e+00	3.774570e+00	4.049082e+00	2.745122e-01	1.376843e-01	1.368279e-01	4.281716e-04	-1.372561e-01	3.911826e+00	7.671788e-19	3.911826e+00	-3.911826e+00
6.5           	7.805100e+00	3.762146e+00	4.042954e+00	2.808075e-01	1.399516e-01	1.408559e-01	-4.521350e-04	-1.404038e-01	3.902550e+00	7.637539e-19	3.902550e+00	-3.902550e+00
6.55          	7.791102e+00	3.754681e+00	4.036421e+00	2.817406e-01	1.394771e-01	1.422635e-01	-1.393184e-03	-1.408703e-01	3.895551e+00	7.550207e-19	3.895551e+00	-3.895551e+00
6.6           	7.773661e+00	3.743197e+00	4.030464e+00	2.872669e-01	1.402425e-01	1.470244e-01	-3.390962e-03	-1.436334e-01	3.886831e+00	7.544904e-19	3.886831e+00	-3.886831e+00
6.65          	7.761710e+00	3.736619e+00	4.025091e+00	2.884729e-01	1.385359e-01	1.499370e-01	-5.700540e-03	-1.442365e-01	3.880855e+00	7.555415e-19	3.880855e+00	-3.880855e+00
6.7           	7.743749e+00	3.726624e+00	4.017125e+00	2.905008e-01	1.377581e-01	1.527427e-01	-7.492283e-03	-1.452504e-01	3.871875e+00	7.527370e-19	3.871875e+00	-3.871875e+00
6.75          	7.730971e+00	3.719000e+00	4.011971e+00	2.929705e-01	1.369409e-01	1.560297e-01	-9.544413e-03	-1.464853e-01	3.865486e+00	7.565684e-19	3.865486e+00	-3.865486e+00
6.8           	7.717262e+00	3.713875e+00	4.003387e+00	2.895125e-01	1.334772e-01	1.560354e-01	-1.127912e-02	-1.447563e-01	3.858631e+00	7.499984e-19	3.858631e+00	-3.858631e+00
6.85          	7.703522e+00	3.703516e+00	4.000006e+00	2.964904e-01	1.354947e-01	1.609957e-01	-1.275053e-02	-1.482452e-01	3.851761e+00	7.472434e-19	3.851761e+00	-3.851761e+00
6.9           	7.695193e+00	3.700374e+00	3.994819e+00	2.944454e-01	1.332715e-01	1.611738e-01	-1.395115e-02	-1.472227e-01	3.847597e+00	7.593782e-19	3.847597e+00	-3.847597e+00
6.95          	7.682658e+00	3.695262e+00	3.987395e+00	2.921329e-01	1.311481e-01	1.609848e-01	-1.491831e-02	-1.460665e-01	3.841329e+00	7.462420e-19	3.841329e+00	-3.841329e+00
7             	7.675263e+00	3.693350e+00	3.981913e+00	2.885635e-01	1.291851e-01	1.593783e-01	-1.509659e-02	-1.442817e-01	3.837632e+00	7.783448e-19	3.837632e+00	-3.837632e+00
7.05          	7.664233e+00	3.689755e+00	3.974478e+00	2.847228e-01	1.276569e-01	1.570659e-01	-1.470450e-02	-1.423614e-01	3.832116e+00	7.739346e-19	3.832116e+00	-3.832116e+00
7.1           	7.652172e+00	3.684895e+00	3.967277e+00	2.823820e-01	1.274597e-01	1.549224e-01	-1.373136e-02	-1.411910e-01	3.826086e+00	7.687638e-19	3.826086e+00	-3.826086e+00
7.15          	7.643313e+00	3.683744e+00	3.959569e+00	2.758249e-01	1.251655e-01	1.506594e-01	-1.274698e-02	-1.379124e-01	3.821656e+00	7.684039e-19	3.821656e+00	-3.821656e+00
7.2           	7.630028e+00	3.680570e+00	3.949458e+00	2.688877e-01	1.229195e-01	1.459682e-01	-1.152432e-02	-1.344438e-01	3.815014e+00	7.607195e-19	3.815014e+00	-3.815014e+00
7.25          	7.620431e+00	3.678293e+00	3.942138e+00	2.638443e-01	1.227903e-01	1.410540e-01	-9.131857e-03	-1.319222e-01	3.810216e+00	7.570980e-19	3.810216e+00	-3.810216e+00
7.3           	7.610039e+00	3.675712e+00	3.934327e+00	2.586150e-01	1.226813e-01	1.359337e-01	-6.626184e-03	-1.293075e-01	3.805019e+00	7.525445e-19	3.805019e+00	-3.805019e+00
7.35          	7.599725e+00	3.672682e+00	3.927044e+00	2.543619e-01	1.229121e-01	1.314498e-01	-4.268877e-03	-1.271810e-01	3.799863e+00	7.451744e-19	3.799863e+00	-3.799863e+00
7.4           	7.590837e+00	3.671064e+00	3.919773e+00	2.487089e-01	1.226115e-01	1.260974e-01	-1.742943e-03	-1.243544e-01	3.795419e+00	7.451297e-19	3.795419e+00	-3.795419e+00
7.45          	7.581425e+00	3.668422e+00	3.913003e+00	2.445805e-01	1.228238e-01	1.217567e-01	5.335147e-04	-1.222903e-01	3.790713e+00	7.423876e-19	3.790713e+00	-3.790713e+00
7.5           	7.570486e+00	3.663045e+00	3.907441e+00	2.443960e-01	1.249830e-01	1.194130e-01	2.785039e-03	-1.221980e-01	3.785243e+00	7.221358e-19	3.785243e+00	-3.785243e+00
7.55          	7.564612e+00	3.658499e+00	3.906113e+00	2.476136e-01	1.279028e-01	1.197109e-01	4.095964e-03	-1.238068e-01	3.782306e+00	7.448343e-19	3.782306e+00	-3.782306e+00
7.6           	7.553299e+00	3.654728e+00	3.898571e+00	2.438432e-01	1.272497e-01	1.165935e-01	5.328104e-03	-1.219216e-01	3.776650e+00	7.272308e-19	3.776650e+00	-3.776650e+00
7.65          	7.545735e+00	3.650721e+00	3.895014e+00	2.442939e-01	1.278700e-01	1.164239e-01	5.723073e-03	-1.221470e-01	3.772867e+00	7.286120e-19	3.772867e+00	-3.772867e+00
7.7           	7.537419e+00	3.645346e+00	3.892072e+00	2.467259e-01	1.291110e-01	1.176149e-01	5.748025e-03	-1.233630e-01	3.768709e+00	7.283261e-19	3.768709e+00	-3.768709e+00
7.75          	7.525979e+00	3.637450e+00	3.888529e+00	2.510791e-01	1.309768e-01	1.201023e-01	5.437211e-03	-1.255395e-01	3.762989e+00	7.193527e-19	3.762989e+00	-3.762989e+00
7.8           	7.519660e+00	3.632918e+00	3.886742e+00	2.538235e-01	1.313972e-01	1.224263e-01	4.485418e-03	-1.269117e-01	3.759830e+00	7.328279e-19	3.759830e+00	-3.759830e+00
7.85          	7.511740e+00	3.627014e+00	3.884726e+00	2.577125e-01	1.319409e-01	1.257717e-01	3.084595e-03	-1.288563e-01	3.755870e+00	7.432915e-19	3.755870e+00	-3.755870e+00
7.9           	7.503903e+00	3.621402e+00	3.882501e+00	2.610986e-01	1.317871e-01	1.293115e-01	1.237775e-03	-1.305493e-01	3.751952e+00	7.419625e-19	3.751952e+00	-3.751952e+00
7.95          	7.497145e+00	3.612463e+00	3.884682e+00	2.722190e-01	1.349923e-01	1.372267e-01	-1.117184e-03	-1.361095e-01	3.748573e+00	7.597343e-19	3.748573e+00	-3.748573e+00
8             	7.490270e+00	3.606798e+00	3.883472e+00	2.766744e-01	1.351833e-01	1.414911e-01	-3.153922e-03	-1.383372e-01	3.745135e+00	7.565243e-19	3.745135e+00	-3.745135e+00
8.05          	7.481378e+00	3.600389e+00	3.880990e+00	2.806013e-01	1.350585e-01	1.455428e-01	-5.242129e-03	-1.403006e-01	3.740689e+00	7.566524e-19	3.740689e+00	-3.740689e+00
8.1           	7.474120e+00	3.594516e+00	3.879604e+00	2.850882e-01	1.352384e-01	1.498498e-01	-7.305724e-03	-1.425441e-01	3.737060e+00	7.590446e-19	3.737060e+00	-3.737060e+00
8.15          	7.464653e+00	3.588182e+00	3.876471e+00	2.882882e-01	1.350436e-01	1.532446e-01	-9.100468e-03	-1.441441e-01	3.732327e+00	7.624127e-19	3.732327e+00	-3.732327e+00
8.2           	7.455685e+00	3.582357e+00	3.873328e+00	2.909707e-01	1.356435e-01	1.553272e-01	-9.841874e-03	-1.454853e-01	3.727842e+00	7.659597e-19	3.727842e+00	-3.727842e+00
8.25          	7.448121e+00	3.577058e+00	3.871062e+00	2.940042e-01	1.360443e-01	1.579599e-01	-1.095776e-02	-1.470021e-01	3.724060e+00	7.665850e-19	3.724060e+00	-3.724060e+00
8.3           	7.441090e+00	3.572389e+00	3.868701e+00	2.963122e-01	1.366716e-01	1.596407e-01	-1.148454e-02	-1.481561e-01	3.720545e+00	7.685076e-19	3.720545e+00	-3.720545e+00
8.35          	7.434409e+00	3.568433e+00	3.865975e+00	2.975422e-01	1.373204e-01	1.602218e-01	-1.145072e-02	-1.487711e-01	3.717204e+00	7.691450e-19	3.717204e+00	-3.717204e+00