/*--------------------------------*- C++ -*----------------------------------*\
| =========                 |                                                 |
| \\      /  F ield         | OpenFOAM: The Open Source CFD Toolbox           |
|  \\    /   O peration     | Version:  2306                                  |
|   \\  /    A nd           | Website:  www.openfoam.com                      |
|    \\/     M anipulation  |                                                 |
\*---------------------------------------------------------------------------*/
FoamFile
{
    version     2.0;
    format      ascii;
    arch        "LSB;label=32;scalar=64";
    class       surfaceScalarField;
    location    "34.8";
    object      phi;
}
// * * * * * * * * * * * * * * * * * * * * * * * * * * * * * * * * * * * * * //

dimensions      [0 3 -1 0 0 0 0];

oriented        oriented;

internalField   nonuniform List<scalar> 
3181
(
-1.05715
0.413725
0.643422
-0.396267
0.373175
0.0230914
0.532957
-0.36592
-0.167037
0.125479
-0.206701
0.0812222
-0.00751523
0.000307812
0.00720742
0.693796
1.33535
-2.02915
0.151821
-0.145358
-0.0064637
0.0338961
0.00284187
-0.036738
0.585135
-0.774733
0.189598
-0.0745964
0.140808
-0.0662113
-0.0103855
-0.0501259
0.0605114
0.123085
0.0511128
-0.174198
-0.00613065
-0.0285289
0.0346596
-1.10296
0.149377
0.953586
-0.334703
0.711983
-0.37728
-1.12138
0.63575
0.485626
0.0848925
-0.930583
0.84569
-0.11811
0.0464847
0.0716249
-1.16138
-0.0762578
0.0200076
0.0200514
-0.0400591
0.0312123
-0.0824991
0.0512869
-0.0395739
0.0436978
-0.00412393
1.06996
-1.04301
-0.0269448
0.0273109
0.0358742
-0.0631851
-0.957455
0.32446
0.632994
-0.109873
0.235352
0.309893
-0.240583
-0.0693099
0.0303337
0.0636775
-0.0940113
-0.404869
0.332289
0.0725802
-0.0330041
-0.0303624
0.0280683
0.00229411
-0.0344965
-0.922958
-0.000157222
-0.0425172
0.0426744
0.149417
1.48225
-1.63167
-0.0522683
0.0520334
0.000234933
0.179954
0.268796
-0.448749
1.63212
-1.4827
0.0698289
-0.0386167
1.48872
-0.817861
-0.670859
-0.869856
1.56365
-0.0747759
0.0686453
-0.0292923
-0.0102816
-0.417013
0.0823101
-0.107842
0.0785499
-0.627288
0.130398
0.49689
-0.152822
0.0782258
-0.172109
0.176468
-0.00435873
-0.276652
-0.0780048
0.354657
0.379623
0.905553
-1.28518
0.0275783
0.0162166
-0.0437949
-0.0103547
-0.0985812
0.104573
-0.005992
0.52633
0.185652
-0.0965747
0.136331
-0.0397563
0.0877907
-0.087948
-0.175158
0.202133
-0.0269755
0.167151
0.0570783
-0.224229
0.111475
-0.117521
0.00604629
1.12687
0.361845
-0.865282
-0.191864
-0.144387
-1.60111
1.7455
0.545525
0.225311
-0.770836
-0.441686
-0.199722
0.641409
-1.57412
0.704263
-0.264156
0.809681
-0.33027
-0.10391
0.434181
-0.205277
-0.199592
-0.194003
0.164811
0.0291926
0.125969
0.287896
-0.413865
-0.193232
0.778367
-0.0158123
0.0497084
-2.06375
1.91936
0.193835
0.116058
-0.1839
-0.112176
0.296077
-0.270603
0.351773
-0.0811704
-0.0833033
0.0914189
-0.00811561
-1.68413
-0.919829
0.00966607
0.910163
-0.0457197
-0.00654863
-1.07742
0.760712
0.31671
0.124298
-0.151807
0.0275083
-1.26119
-0.312926
1.10158
-0.9522
-0.705843
1.15429
-0.200704
1.06708
0.163101
-0.176063
0.0129627
1.56946
-0.234101
1.92066
-1.92066
-0.00748733
-0.00143127
0.0089186
-0.217842
-0.0533553
0.271197
0.0225904
-0.0283294
0.00573903
-0.452005
0.840493
-0.388489
-0.0124691
-0.244173
0.256642
-1.08707
0.0440553
0.338703
0.0577789
-0.396482
0.13669
-0.848558
1.07387
0.0161636
-0.00534249
-0.0108211
-0.0175099
-0.157648
0.00888063
-0.137341
0.12846
-0.0608012
0.0696818
0.113956
-0.962514
0.33463
-0.786635
0.925495
-0.840602
0.0453941
0.0313838
-0.0767779
0.079974
0.0512
-0.131174
-1.40111
-0.107763
1.50887
-0.251921
0.41736
-0.165439
-0.723485
0.561539
0.161946
-0.457307
-0.620115
0.0336374
-0.00605914
-0.156096
0.150372
0.00572468
-0.077115
-0.0114044
0.0885193
-0.556893
-0.21784
-0.0798162
0.0233277
0.0564885
-1.43255
0.300781
1.13177
1.35627
-0.450715
-0.01726
0.00977268
0.04444
0.149395
-0.19666
0.376614
0.0475744
0.00971662
-0.057291
0.135828
0.0673883
-0.203216
0.187458
-0.16408
-0.0233778
-0.595969
-0.525407
-0.777135
-0.655413
0.00301431
0.0131493
-0.109627
0.188174
-0.0785473
0.0693482
0.0253722
0.126449
-0.0574211
0.0732389
-0.0158178
-0.098151
-0.0226745
0.120826
0.0761895
-0.0761895
-0.188713
0.214085
0.0634971
0.063791
0.10741
0.0947235
-1.28142
1.08819
-1.44974
0.0652973
1.38445
0.0267924
-0.0250442
-0.00174818
-0.0263131
-0.0507169
0.07703
0.547911
-0.0231081
-0.524803
-0.0191014
0.0192382
-0.000136734
-0.204279
0.0155664
0.159703
0.680791
-0.371854
0.531557
-0.156846
-1.24426
0.00849768
-0.0160129
0.494449
-0.310797
-0.183652
0.00741101
-0.00678449
-0.000626517
0.0488324
-0.325485
0.0236231
-0.943452
0.0498867
-0.159514
-0.293773
-0.408275
0.066526
1.34726
-0.907328
-0.439936
1.04091
0.306352
0.0677056
0.286952
0.0240091
0.00278328
-0.128219
0.14562
-0.0174006
-0.25755
-0.581548
0.839098
-0.364097
0.408076
0.0445387
-0.120797
0.150396
0.0379102
-0.0465506
0.00864038
-2.12125
0.0747354
2.04652
-0.0299128
-2.09134
-0.305724
0.644427
-0.90696
-0.0185271
0.00327786
-0.263049
0.259771
1.37263
-1.5028
0.130168
-0.0124623
0.0209599
0.565568
-0.823118
-0.106653
-0.129669
0.236322
-0.292629
-0.114641
0.407271
0.188306
-1.01057
-0.0765032
0.0169039
-0.056963
-0.548111
0.348389
-0.24341
0.0187833
0.224626
-0.0446461
0.0321838
0.0309378
-0.0309378
-0.117076
0.128237
-0.0111609
-0.23023
-1.21951
0.057608
0.0145619
-0.0721699
-0.106272
0.077632
0.0286396
-0.218586
0.0245823
1.30629
-0.328571
-0.977716
-0.198275
0.456437
-0.258162
0.0115072
-0.011486
-2.12477e-05
-0.180485
-0.543
-0.184883
-0.00430416
0.189187
-0.179061
0.305031
-0.0999695
0.098286
0.00168345
0.0754315
0.0192363
-0.0946679
-0.109486
0.123539
-0.0140537
-1.16508
0.920939
0.244141
-0.223302
-0.0519408
0.275242
-0.699352
0.66187
0.0374813
-0.00625832
0.0421325
-0.00355204
0.00370177
-0.000149733
-0.0157177
-0.0474674
1.04982
0.306444
0.176225
-0.88169
0.705465
0.0325874
1.80215
-1.83474
0.390538
0.691571
1.22909
0.059216
0.201033
-0.0652053
-0.0703169
-0.0282642
0.242721
0.153677
-0.0737034
0.736805
-0.412345
0.0616356
0.209562
0.0460299
-0.161032
0.115002
-0.793253
-0.140262
0.933516
-0.019691
0.019691
0.00287685
-0.268495
0.537291
0.0129946
-0.236296
-0.017653
0.0641376
0.00113463
0.00187968
0.133006
-0.143391
-0.346102
0.333633
0.0299074
0.0609332
-0.0908406
0.391958
-0.340845
1.03223
-0.741818
-0.290411
-0.210583
0.278288
0.188911
-0.499708
-0.208655
0.62238
0.169045
-0.0341077
0.0341077
-0.417517
0.225167
0.19235
0.391636
0.025724
-0.0229738
0.0243944
-0.00142063
-0.0491374
-0.0717527
-0.00806349
-0.0488317
0.181838
-0.177397
0.238102
-0.0607055
0.125711
0.0279665
-0.395146
0.154563
0.186961
-0.0612502
-0.0451669
-0.0548026
-0.0373733
0.0441916
-0.00681826
0.150535
-0.106817
-0.0437182
-0.0105884
0.389428
-0.37884
-0.0776676
0.0618553
0.102788
-0.107082
0.00429329
0.0236365
0.556839
0.47539
-0.0728449
0.00775589
0.065089
-0.0583299
0.0323003
0.0260296
-0.0891097
0.0980009
-0.720494
0.622493
-0.017168
-1.52555
-0.463098
1.98864
-0.166455
1.544
-1.37754
0.0844991
-0.230435
0.066355
0.271244
0.250599
-0.521843
-0.205938
0.251968
0.145895
-0.898052
0.752156
-0.0120508
-0.0462791
-0.00602128
0.0229252
-0.994783
0.445461
0.549322
0.907328
-0.793372
-1.70615
1.59838
-1.37263
1.43793
0.0410468
-0.0808031
-0.000443431
-0.00310861
0.0123351
0.81285
-0.666955
0.125369
-0.0754823
0.417356
0.736934
-0.026834
-1.53784
1.57042
-0.684821
-0.596601
-0.240063
-0.387225
-0.00902228
-0.169036
0.217869
-0.577427
-0.38207
0.183795
0.785749
-0.237838
-0.897986
-0.808159
0.741793
0.0907532
-0.102804
0.290998
0.0387768
-0.0387768
0.671002
0.148425
-0.819427
-0.225022
0.896024
0.824334
-0.60638
-0.217954
0.0502354
0.0135556
0.00757128
0.00514139
-0.0127127
-1.60111
-0.694178
0.243464
0.933472
0.372814
-0.0352791
-0.13683
-0.243172
0.769503
-0.194544
-0.0488653
-0.00316279
-0.0801405
-0.0516245
0.102824
0.373336
-0.242938
-0.841667
-0.281191
-0.109206
-0.0175929
0.126799
-1.21575
1.90733
-0.132401
0.134977
-0.00257575
0.0358616
-0.0118525
-0.0996087
0.0698274
0.0297813
0.00912989
0.425051
0.0058668
0.00154421
-0.00173539
-0.00186879
0.00360418
-0.0171676
-0.167715
-0.7181
0.36623
0.35187
0.75591
-1.6591
0.903186
0.13657
-0.15775
0.0211803
0.00827788
0.0253595
-0.130927
-1.78973
-0.077944
-0.0216646
-0.0110994
0.00504025
0.144768
-0.341428
-0.840723
0.961408
-0.120685
0.0254672
0.0946504
0.0558847
-0.793253
-0.885771
-0.279309
0.0984294
-0.028602
0.0435582
-0.638132
-0.0612194
0.0603212
0.12664
0.740454
0.0498667
-0.463732
0.125057
0.345253
-0.287474
-0.121067
0.0229156
0.224449
0.834922
-1.05937
0.103339
-0.720598
0.617259
-0.961636
0.821374
-1.76901
-0.0506355
1.81964
-0.0102602
0.0103772
-0.000117034
0.164743
-0.457372
0.21448
-0.126602
-0.0878783
0.0520926
-0.0197924
0.00259687
-0.111803
0.0112468
0.0179277
-0.0336454
0.0212862
0.0736537
-0.0949399
0.657879
0.00627965
-0.00691913
0.00063948
0.0678204
-0.00596509
0.860199
0.000620022
0.0203399
-0.260899
-0.433279
-0.00395024
0.0541856
0.00786113
0.0867893
-1.81964
1.78973
0.15656
-0.0865337
-0.0700266
-0.248443
0.0723794
0.11942
-0.106457
-0.00150639
0.0929253
-0.0162596
-0.620401
-0.220322
-0.0397784
0.0610646
0.739734
-0.254108
-0.0745805
-0.0316912
0.335685
-0.00087143
-0.0221023
-0.00788677
0.0840763
0.148231
0.203542
0.15585
-0.326245
0.170394
0.113126
0.567665
-0.0440843
-0.108738
0.944496
-0.260371
-0.684125
-1.76901
-0.391063
1.14697
1.63212
-0.0765406
0.257167
-0.180627
0.383107
-0.0751361
-0.30797
0.0643765
-1.32557
-0.070496
0.0711144
-0.000618488
0.0862822
-0.148685
0.0624028
0.480016
-0.959138
0.479122
0.0414606
0.656582
-0.698043
-0.0450486
-0.111048
-0.0288496
-0.0439953
-0.056091
-0.361426
-0.00867177
-0.00158841
-0.0113382
0.0418683
-0.0305301
0.0141067
-0.142326
0.00716215
0.0286994
-0.0719898
0.103374
0.00317418
0.000527593
0.193094
-0.437267
0.0965604
1.44744
0.0093595
0.0103315
-0.992793
-0.0177737
0.148216
-0.0742652
-0.0468014
-0.18867
0.0820166
0.511429
-0.657209
0.14578
0.0287573
-0.0327075
-0.936034
-0.0161665
-0.0166432
-0.648778
0.746779
-0.0182403
0.187286
-0.381204
-0.225176
0.182503
-0.449467
0.266965
-0.0713257
0.0810423
0.00654318
-0.00697643
0.000433253
-0.023174
-0.0863118
-0.0215748
-0.136073
0.750751
-0.647412
-0.0751287
0.0433201
-0.118294
0.307272
-0.151422
0.13916
1.2013
-0.347958
-0.853343
-0.119078
0.137861
-0.504982
-0.213118
-0.563421
0.623392
-0.604196
-0.0191963
-0.0704349
-0.00469385
-1.53784
0.535314
-0.535314
-1.8293
1.8293
0.81285
0.402354
-0.298682
-0.103673
-0.899508
-0.0932849
0.626421
-0.35952
-0.266901
0.168118
-0.246665
-0.0125352
-0.00472477
-0.883397
-0.0791166
-0.93317
0.212676
0.0410043
-0.0585973
0.697915
-0.113261
-0.584654
1.13481
0.497307
-0.00198529
0.00852847
-0.962978
0.0956705
-0.837489
-0.0970355
-0.587741
0.684776
-0.060506
-0.833632
-0.66917
0.216934
-0.812902
-0.933516
1.38216
-0.448645
-0.140071
0.283544
-0.143474
-0.0220914
0.720007
-0.103497
-1.02113
1.02113
-1.95713
1.22747
0.729661
-0.00118853
0.00746818
0.0812615
-0.434598
0.836624
-0.0759122
-0.0830702
-0.035614
0.0610021
0.0053088
0.00619844
1.99478
-2.04541
-0.342124
0.417556
-0.633933
1.0013
-0.367367
-0.000500839
-0.0774432
0.122434
-0.0550458
0.36103
0.00332549
-0.0318544
0.353195
0.036233
0.0429072
-0.245228
0.202321
0.141753
0.0347149
0.0961211
0.179477
1.87649
0.0428715
0.272825
0.732629
-1.00545
-1.58122
1.65595
0.275057
-0.196507
0.0769338
-0.76701
0.690076
0.67518
0.13589
-0.481992
-0.0744154
0.136598
-0.0621827
0.136475
-0.21089
-0.443988
-0.104123
-0.0705286
0.0735642
-0.00303567
0.000147436
0.00302674
-0.0381182
-0.0498298
0.666955
-0.617259
-0.0496965
-0.296082
0.309076
0.876383
0.653814
-0.270708
-0.0155037
0.0300656
-0.372008
0.242339
0.176998
-0.588371
0.411373
-0.00673022
-0.000246209
0.451223
-0.0880665
-0.363157
0.0104151
-0.0160318
0.00561669
-0.0264015
0.0191314
0.00727013
-1.43851
1.2044
-0.142022
-1.38352
-0.19339
-0.793372
1.43793
1.59838
-0.196418
-0.175858
0.123918
-0.0624034
0.0680418
-0.00563848
-0.365794
1.13602
-0.77023
0.539494
0.0869273
-4.286e-05
-0.00668736
0.119758
0.184273
0.035614
-0.0445718
0.0047934
-0.193025
-0.178983
0.00377293
-0.00263829
-0.233359
0.625316
1.04091
-0.286526
-0.0625263
0.0014322
0.0610941
1.97132
-0.372938
-0.0621708
-0.0553502
-0.955137
0.161765
0.399118
-0.210813
-0.475404
-0.126167
0.60157
0.810991
-0.359069
-0.451922
0.0458865
0.465542
-1.57042
-0.0306866
0.00481327
-0.00757764
0.00276436
0.0873343
1.71481
-0.172745
0.180317
0.201789
1.98603
-0.548099
-0.681828
0.058292
0.623536
0.375932
0.00204989
-0.345279
0.542577
0.820419
-0.133781
0.0776254
-0.0217407
-0.683311
-0.0489475
0.732259
1.02081
0.00183861
-0.003574
-0.0480927
-0.3571
0.101486
-0.307423
0.734422
0.466879
-0.0672923
-0.00314252
0.271325
-0.347866
-0.0237243
0.017466
0.112712
-0.15011
0.037398
-0.304003
0.31857
-0.0145679
0.34571
-0.693668
-0.309246
0.0100652
0.299181
0.111052
-0.142032
0.0309798
0.266805
0.040467
-0.753591
-0.132179
-0.654443
0.654443
1.7455
1.13481
-0.720598
0.33356
0.486859
-0.0563375
0.248688
0.913326
-0.373832
0.00656964
-0.869183
0.862613
0.136448
0.00435981
0.0259869
-1.05694
0.303351
0.0686292
-0.16848
-0.123886
0.292366
-0.0235101
-0.520239
0.351759
-1.04809
-0.284196
-0.647874
-0.0423886
-0.00716928
0.000250146
-0.224759
0.0576672
0.0691317
0.0349092
-0.14252
0.107611
-1.32904
-0.628085
-0.00577323
0.0694508
-0.4127
0.494022
-0.0813224
-0.574797
0.391145
-0.106597
0.167531
0.237534
0.00792173
-0.013943
-0.673485
0.344914
0.0337571
0.0690311
-0.13483
0.0165356
0.204677
0.00980318
-0.419823
1.91559
0.448193
-0.324313
0.867135
-0.790201
0.777999
-0.442314
-0.604413
0.169814
0.152164
-0.79225
0.762432
0.0298176
1.2011
-0.466675
-0.210616
-0.131508
-0.0120065
-0.0163229
0.952432
-0.838068
-0.114364
-0.178893
0.10519
0.0279931
0.122379
0.875929
0.343575
-0.600938
0.257363
-0.328861
-0.0532095
0.434837
-0.847537
0.130924
1.37795
1.07437
0.0604381
0.171276
0.554153
-0.725429
0.149789
0.0495274
0.00188119
0.00604054
-0.507681
-0.0967316
-0.00632231
-0.0383238
-0.183759
0.134928
-0.540182
0.28202
-0.992032
-0.664476
-0.286978
-0.609988
1.40469
-0.0202399
-0.282704
-0.431946
0.238922
0.130569
0.295102
0.0580933
1.32061
-0.840597
-0.186187
0.124937
0.125882
-0.496172
0.37029
0.00314099
0.00167228
0.0481601
-0.060408
-0.243595
-0.123632
0.697423
-0.416869
-0.280554
-0.08233
0.137164
-0.0987263
-0.038438
0.241187
0.0539145
0.192432
-1.56997
-0.0947286
0.138287
0.671718
-0.328143
-0.00830144
0.0343311
-0.020058
0.0213308
-0.00127283
-0.00223823
-0.022806
-0.238867
0.0778346
-0.00174424
-0.564421
0.42435
0.0155954
0.0546114
0.0564406
-0.694809
1.74314
-1.27626
0.0158859
-0.189783
0.173897
-0.137633
-0.541586
0.679219
0.0802791
-0.718411
-0.122278
-0.186968
-0.0295477
9.15102e-07
0.0295468
-0.249862
-0.623392
-0.169862
-0.146358
-0.683311
-0.227506
0.1623
-0.213253
-1.08935
-0.134969
0.248691
-0.113722
0.26775
0.117253
0.396031
0.304104
-0.700135
0.0324937
0.0582595
1.15533
0.222357
-1.37768
-0.22386
0.15805
1.4979
-0.238163
0.177458
-0.846079
1.00413
-0.340695
0.203354
-0.0124765
0.0248116
-0.0314383
1.15018
-1.47449
0.721632
0.0893592
-0.962927
0.342526
0.255927
0.657399
0.929611
0.014885
-0.0159864
-1.07437
-0.647874
-0.712843
0.722509
-0.0802185
-0.897986
0.656582
0.613118
-0.931353
0.473374
-0.00789286
-0.784357
-0.313577
0.636534
-0.77568
0.139146
0.0823134
0.0548509
-0.0970348
0.185416
1.35524
-1.54065
-0.00559766
-0.00157161
-0.259936
0.211071
0.716813
0.226279
-0.210712
-0.183745
1.64706
-1.34628
-0.152885
0.0492123
0.354511
0.368012
-0.722524
-1.24708
1.19813
-0.163892
0.657914
0.0879442
0.917675
-0.732259
-0.00207838
0.213881
-0.038748
0.0882573
0.0599591
0.00654186
-0.0371368
0.030595
-1.02277
-0.0366035
0.319936
-0.805835
-0.866954
1.22885
-0.361892
0.37069
0.63061
-0.0507168
0.0542602
-0.0035434
0.0384102
1.60865
-0.717388
1.53951
0.450315
-1.31727
0.309401
-0.0955195
-0.58486
-0.407172
-1.25251
1.60702
-0.0606861
-0.877076
-1.71368
-0.121051
0.917675
0.0494489
-0.855283
0.83093
-0.645548
-0.185382
-0.981877
0.397017
0.0124709
0.115667
-0.000605099
-0.115062
-0.971483
0.564311
-0.219364
0.911018
-0.927185
0.189259
-0.206426
-0.093915
0.238683
0.28669
0.430867
-0.0225923
-1.42603
0.572685
0.999012
-1.13279
-0.552991
-0.518197
1.07119
0.447009
0.0161866
-0.0110452
-0.734647
0.698043
1.14932
-1.11091
-1.22909
0.860071
0.369016
1.14477
0.0840778
0.77813
-0.811134
-0.493572
-0.44988
-0.471557
-0.499926
0.803598
-0.803598
0.685198
-0.685198
-0.734647
-0.547145
0.547145
-0.860071
-1.01735
-0.426296
0.287513
-1.23906
1.23906
1.14932
-1.11091
0.77813
0.767079
-0.767079
0.811134
0.758866
-0.758866
0.506428
0.528443
0.481803
-0.0897385
-0.500074
-0.55012
1.07856
-1.3907
-1.97538
0.72287
-0.35908
0.195188
0.193233
0.00826261
-0.00764259
-0.886565
0.0965001
0.790065
-0.0932991
0.0842768
-0.996471
0.584126
0.936744
-0.603184
-0.125655
0.00862903
-0.0119397
-0.801927
-0.0797626
-0.549322
0.00155121
0.021374
0.152933
-0.120885
0.0922827
0.177771
-0.00838897
-0.00632798
0.0147169
-0.811106
0.0669815
0.744125
0.164073
0.122617
-0.5345
0.409571
0.124929
0.917334
-0.741468
-0.175867
0.0833425
0.293271
-0.0137148
-0.0568138
-0.0557614
-0.0147346
0.820052
-2.03581
-0.834472
0.0992063
-0.739579
0.796565
-0.0569865
0.122697
-0.899862
0.777165
-0.802634
0.90534
-0.102706
-0.0494227
0.0471845
0.0206019
-0.283651
0.291131
1.31589
-0.0964089
-0.790156
0.916998
-0.0924979
-0.824501
0.0984006
-0.0989015
-0.195007
0.820925
-1.73802
0.462609
-0.375681
0.103761
-0.893918
1.4827
0.346595
-0.79041
0.00605332
1.0179
-0.895204
1.21911
-0.0777381
0.738231
-0.660493
-0.877817
-0.118654
-0.406799
0.0279595
-0.137239
0.283019
-0.784853
0.784853
-0.601022
-0.0870498
-0.864269
0.122801
-0.936962
0.839927
0.0717288
-0.19833
-0.0585684
0.0622213
0.0110176
0.189555
0.828346
0.81829
0.771116
0.14027
-0.911386
0.612658
-0.417469
-0.781328
-0.108429
0.889757
0.175557
-0.892946
-0.674714
0.888079
-0.784318
-0.108895
0.460253
-0.0290626
-0.43119
0.1309
1.08008
-1.21098
0.334218
-0.415486
0.0812678
-0.890222
-0.831056
0.0914767
0.51343
0.26457
-1.85298
1.28108
-0.568437
0.568437
-0.857514
-0.568513
-0.780266
1.08362
-0.310096
0.320161
0.77965
-0.207342
0.794222
0.410183
-0.294965
-0.292521
0.587485
-0.0397953
-1.6193
-0.0432325
0.53492
-1.04208
0.762773
-0.00892288
0.303218
-0.219875
0.780091
-0.882796
-0.578505
0.161036
-0.153868
0.737995
0.574681
-0.574681
-0.0582537
0.0464012
0.108151
-0.0732414
1.06018
0.0198991
0.0483348
0.00180295
0.0064483
-0.00825124
-0.665451
0.695188
-0.029737
0.787515
-0.0492838
0.110132
-0.894449
-1.00096
1.26549
-0.264532
0.145925
0.87615
0.188612
0.598904
-0.75418
0.599667
-0.660886
-0.652616
0.147635
-0.344248
0.0277004
0.165765
0.129085
-0.473333
0.00624406
-0.00257921
0.0729251
0.72364
0.695818
-0.0961511
0.0778047
0.782395
0.283064
0.0410754
-0.324139
-0.306065
0.536144
0.602725
-0.964848
0.740237
0.224611
-0.68583
-0.127073
1.67778
0.0543732
-0.415799
-0.0409904
0.486161
0.513839
-0.769842
-0.112955
-0.546305
-0.834749
-0.287078
-1.12802
0.400532
0.599468
-0.0921699
0.0862048
-0.86234
-0.0726249
-0.588261
-0.15691
-0.251617
0.408527
-0.0150015
-0.00125812
0.110591
0.0712464
-0.128789
-0.110077
0.757497
-0.640829
0.718634
0.0221138
0.106971
-0.305177
0.340433
-0.0352559
-0.746779
-0.195514
0.942293
-0.245862
0.234412
-0.0248507
0.00145429
0.0307296
0.00676165
0.697865
-0.129429
0.127678
0.109855
-0.73669
0.0712388
0.500812
-0.475913
-0.584063
0.293652
0.0415361
-0.289814
1.02675
-0.00801567
0.141263
0.0605262
-0.00870271
0.00392036
-0.0617996
-0.107178
0.60799
-0.637017
-0.14888
0.785897
0.848973
-0.0308299
-0.00116506
0.031995
0.126477
-0.00879586
0.000124092
0.220918
-0.108206
-0.673425
0.363329
0.38444
-1.02146
0.00870871
0.292521
0.191553
-0.962262
1.17267
-0.210411
-0.777266
0.837251
-0.0599847
1.14721
0.0729924
-0.413687
-0.066236
0.953004
-0.453231
-0.081269
0.279969
0.460557
0.194753
-0.65531
0.414504
0.0447541
0.650434
-0.574179
0.558151
0.0160283
1.46871
-1.33814
0.0030978
-0.0034034
0.000305596
0.695105
-0.00913224
-0.0833041
0.0198236
1.09269
0.667455
0.479758
0.0141447
-0.124394
-0.0176377
-0.0189809
0.0718878
-0.0529069
0.0189699
-0.0124281
0.898343
-0.675986
0.101625
0.22528
-0.0261923
-0.0948758
0.22061
0.0989054
0.00397606
0.0649422
0.76803
-0.18109
-0.24956
0.43065
0.323228
-0.437114
0.113886
0.641737
0.123145
-0.00846897
0.0220652
-0.0135963
-0.441798
0.0893738
-0.381895
-0.000332573
0.742126
0.711709
-0.00578049
0.633471
-0.730505
0.817295
0.1141
0.02506
-0.871745
0.0652554
-0.273218
0.0494078
-0.173882
0.689759
0.0782713
0.0132393
0.221533
-0.148541
-0.313953
0.162551
0.0306331
-0.113132
0.42241
-0.0571196
0.911596
-0.0733913
0.159229
0.448005
-0.124778
-0.155192
-0.0393664
-0.054161
-0.11019
0.0102165
0.000113759
-0.0103302
-1.60138
0.263237
-0.0130497
0.856587
-0.229242
-0.61646
0.63514
-0.01868
0.324833
0.760998
0.28177
-0.317026
0.0790288
-0.172944
0.629167
0.13183
0.956553
0.950773
-0.259691
0.7223
0.698152
-0.0901624
-0.60679
0.349698
0.257092
-0.739688
-0.0712825
0.0419922
0.0622493
-0.0465701
1.10663
0.73516
0.0821346
0.616792
0.222306
-0.868367
-0.0809972
-0.672514
0.678567
-0.0230234
-0.591831
0.434921
0.874306
0.673921
0.0925905
-0.0331563
-0.166768
-0.315224
1.17051
0.572624
0.348783
-0.0111786
0.120681
-0.210843
1.07413
0.0576356
-0.0767394
-0.196345
-0.743391
0.931169
-0.187779
-0.412373
-0.194417
0.00247128
-0.180771
-0.144372
0.757876
-0.00277906
0.000910262
0.628343
0.0536927
0.23996
0.601296
-0.132664
0.242587
0.722188
0.258735
-0.980923
0.277369
-0.922916
0.202485
-1.47874
-0.1821
0.772129
-0.590029
-0.664992
-0.0421684
0.0436227
-0.0548551
-1.67364
0.0251572
-0.0452151
0.297156
-0.058935
-0.10079
0.159724
-0.0120377
-0.577427
0.133515
0.00774735
-1.25078
-0.0124971
0.00410816
0.828541
-0.0536087
-0.588009
0.01383
0.566445
0.307861
1.08259
0.906057
-0.250235
-0.38364
0.633874
0.200593
-0.618216
0.618216
-0.19699
-0.916134
1.11312
0.030013
-0.149091
0.686428
-0.119983
-0.223037
-0.51596
0.100161
-0.106135
0.586694
0.175819
0.172329
-0.105803
-1.41878
0.484692
0.0734589
0.0538931
0.0159359
-1.55886
-0.252077
-0.164581
0.693298
0.306702
-0.252077
0.693298
-0.716467
-0.124231
-0.716467
-0.696323
0.696323
0.303677
-0.0144515
0.174059
-0.0758629
0.225228
0.0389151
-0.470307
0.64163
-0.0403336
0.662608
-0.504328
-0.15828
-0.0599383
0.0599828
-4.4483e-05
-0.0158196
0.0176225
0.578981
0.0190569
-0.022484
-0.435862
-0.348275
0.123516
0.0461196
0.83519
-0.281037
-0.0661547
0.305076
-0.00843741
-0.0858851
-0.0107911
0.67824
0.0638854
0.675983
0.00392359
-0.000319413
-0.00610261
0.0856624
0.567448
-0.476032
-0.0914163
2.05488
0.545479
0.0494463
0.88412
0.0111708
-0.0618877
0.105004
-0.100102
0.108818
1.10022
-0.378036
0.00482957
-0.0472182
0.679928
0.0988541
0.0227049
-0.0227049
0.0196508
-0.0196508
0.00504285
-0.00504285
0.0093595
0.365721
0.45744
-0.0573047
-0.728757
0.490919
0.191567
0.0293508
-0.0824784
-0.485351
0.750447
0.111159
-0.796989
-0.702455
0.477279
0.0967806
0.0194194
-0.000288069
-0.00590624
0.00590624
0.181934
-0.00590715
0.00590715
0.701274
0.0890247
0.00329505
0.000628541
0.00675309
-0.0692794
-0.0228574
0.0228574
0.00168088
-0.00168088
-0.0219319
0.0219319
-0.00460118
0.00460118
0.0942048
-0.294361
-0.0837456
0.22131
-0.0045392
0.0045392
-0.373031
0.516249
-0.143218
0.508278
-0.224733
-0.349761
0.283606
0.561507
-0.155912
0.0716254
0.563514
0.566817
-0.00301225
0.00301225
0.262297
0.0243355
-0.0243355
-0.00440711
0.00440711
0.749866
-0.466801
0.0353901
0.0789651
-0.167032
0.00226665
-0.00226665
-0.00230966
0.00230966
0.0181067
-0.0181067
0.023704
-0.023704
-0.023121
0.023121
0.0346195
-0.0346195
0.480238
-0.031346
0.031346
-0.00239074
0.00239074
0.0237452
-0.0237452
0.00103
-0.00103
0.00314899
-0.00314899
0.0297193
-0.024954
0.024954
0.39601
0.00789301
-0.0389128
0.0389128
-0.00088027
0.00088027
-0.00828885
0.00828885
0.0330295
-0.0330295
0.0260687
-0.0260687
0.00215289
-0.00215289
0.00107428
-0.00107428
-0.215176
-0.253664
0.00140786
-0.00140786
-0.00227371
0.00227371
-0.0376269
0.0376269
-0.0283468
0.0283468
-0.00086231
0.00086231
-0.400479
0.656406
0.262627
-0.0316349
0.0316349
-0.0170798
0.00314038
-0.00314038
-0.00220003
0.00220003
0.0378589
-0.0378589
-0.152853
0.177913
-0.0010779
0.0010779
-0.0235453
0.0235453
-0.504291
0.0453432
-0.0667759
-0.0318126
0.0318126
-0.449472
0.0347973
0.0194629
-0.139945
-0.822983
-0.0362575
0.0362575
-0.195984
0.138865
-0.0414746
-0.00217879
0.00217879
0.00652077
0.0447661
0.26202
-0.324769
-0.286417
0.611187
0.201025
0.00105603
-0.00105603
-0.136227
0.351567
-0.215339
0.779212
-0.403412
-0.375801
-0.453832
-0.661256
0.311191
-0.00611495
0.0667411
-0.372806
-0.57301
-0.0110692
0.190842
-0.602216
0.0148574
-0.0148574
-0.00168987
0.00168987
0.0304454
-0.0304454
0.0265654
-0.0265654
-0.000478986
0.000478986
-0.00144366
0.00144366
-0.140224
-0.0115827
0.180302
-0.305957
-9.80129e-05
9.80129e-05
-0.0456223
0.0456223
-0.0398282
0.0398282
0.141519
-0.0783278
-0.0631913
-0.00511285
0.321773
-0.551015
0.00059641
-0.00059641
0.0142805
-0.0142805
-0.089102
0.145876
0.165315
-0.00187692
0.00187692
0.0721511
0.0177867
1.00501
-0.483966
-0.0749508
0.558917
-0.634312
0.0739198
-0.211159
-0.0391586
0.0391586
-0.683137
0.281577
0.0490884
-0.0490884
-0.640501
0.3736
0.268445
0.123313
-0.00141945
0.00141945
-0.817105
-0.0016696
0.0016696
0.309686
0.410321
0.0142886
-0.0531007
0.0531007
-0.00215415
0.00215415
-0.0418592
0.0418592
-0.0545601
0.0545601
-0.00230908
0.00230908
-0.0602848
0.0602848
-0.00280406
0.00280406
-0.0451616
0.0451616
-0.00404645
-0.0458333
0.0458333
0.00387767
-0.00387767
0.0476869
-0.0476869
-0.00329385
0.00329385
0.0483061
-0.0483061
-0.00306477
-0.00441949
0.00441949
-0.00536837
0.00536837
-0.0541571
0.0840763
-0.0109851
0.0109851
0.00476833
-0.00476833
-0.0589497
0.0589497
0.296379
-0.0182552
0.0182552
-0.057884
0.057884
-0.0072882
0.0072882
-0.0668935
0.0668935
-0.0133178
0.0133178
-0.080243
0.080243
-0.0214708
0.0214708
-0.095282
0.095282
-0.686838
0.236224
-0.524698
0.506018
-0.833632
-0.120218
-0.572927
0.399045
-0.0866704
0.00434044
0.00351019
-0.00351019
0.0600218
-0.728181
0.0415355
-0.0255996
-1.06388
1.56119
0.813059
0.256661
-0.0247182
0.010878
-0.400388
-0.573068
0.0222606
0.389583
-1.09877
-0.0178937
0.0178937
-0.766883
0.0212863
-0.0212863
0.00107265
-0.00107265
0.321821
-0.378517
-0.00244639
0.00244639
0.0193156
0.0147921
0.59683
0.303515
-0.0169847
-0.0127146
-0.00327181
-0.0914769
0.486895
-0.395419
0.0295904
-0.072823
0.0135755
0.908141
0.00485877
0.0583537
-0.40662
0.43458
-0.481571
-1.02067
-0.223589
-0.069322
0.0176975
-0.15907
-0.256416
0.0336593
-0.00303631
0.00213814
0.775594
-0.559635
-0.0344924
0.0651255
-0.0347811
0.0609549
0.113104
0.428169
0.233702
-0.167481
0.214658
0.0299882
-0.0107519
-1.25656
-0.000108348
0.0947023
-0.195492
-0.019314
-1.42918
-0.0710474
0.261635
-0.349605
0.385838
0.190626
-0.800613
0.0452966
-0.0726239
-0.0262776
-0.343619
0.468549
-0.0171768
-0.0683298
0.0855067
-0.0267809
0.0267809
0.160699
-0.431406
0.0285567
0.0490752
-0.0765718
0.0535483
-0.0665811
-0.00700869
0.0735898
-0.038827
-0.152169
0.0171249
-0.084598
-0.291422
-0.363716
0.655138
0.0137791
0.0573354
0.1529
-0.0252216
-0.00726905
0.063028
-0.15291
0.305074
0.00343688
0.0285581
-0.0304257
0.183326
0.00410544
0.255666
-0.00104057
0.00104057
-0.189867
1.264
0.0859199
-0.166917
-0.00384411
-0.0566619
-0.240991
0.839895
-0.0391803
0.00824247
-0.531992
0.00729435
0.0169886
0.084975
-0.669979
0.296147
-0.0568439
0.388004
-0.679427
0.22061
0.519627
-0.0901099
0.0901099
-0.000605099
-0.293928
0.332687
-0.0387582
-0.207724
0.152869
0.233159
-0.192497
-0.501171
-0.102703
0.00206398
-0.00250742
0.930031
0.21116
-0.11857
-0.0688594
-0.635912
-0.681357
-0.0550644
-0.268989
0.811565
0.586753
-0.26498
-0.276222
0.568743
-0.0620697
0.319237
-0.268995
0.0658609
-0.469422
0.326203
0.124633
-0.124633
0.0898007
-0.029078
-0.0607227
0.00345326
0.00508731
0.0213308
-0.349062
-0.0927368
0.233782
-0.187275
-0.0465068
0.550724
-1.04721
0.264369
-0.697648
0.697444
-0.125385
-0.180572
-0.0445293
-0.0791032
-0.479579
0.0437171
-0.28207
0.00130597
-0.019314
0.374947
-0.00530318
-0.003246
6.19753e-05
0.0169807
-0.00788701
-0.00909364
-0.107415
-0.0188078
-0.165624
0.184432
-0.132669
-0.336752
0.0193156
0.345799
-0.00190246
-0.367474
0.0804964
0.00240355
0.00681783
-0.0641225
-0.0116667
0.0116667
-0.000840416
-0.000628772
-0.00951211
0.000132093
-0.0721739
0.000846676
-0.00118912
0.173549
-0.0915327
-0.00195189
0.00195189
0.0597583
0.519113
-0.000273017
-0.293836
0.541937
1.124
-0.476289
0.342192
-0.437854
-0.0813967
0.109953
0.237147
-0.235575
-0.0248997
0.00826152
-0.00149987
0.00218749
-0.181782
-0.384631
0.87555
0.253148
-0.393372
0.154724
-0.00159001
0.119672
0.0262527
-0.000830722
0.000640511
0.007621
-0.474914
0.00128584
-0.000158746
0.709194
-0.646166
-0.243958
0.116574
0.990997
7.36804e-05
-3.62945e-06
-0.0414746
-0.0057439
0.817516
-0.431445
0.504904
-0.99933
0.90617
-1.25225
0.587663
-0.188619
0.690929
2.60248e-05
0.00321561
0.0162038
-0.109585
0.139831
-0.198297
0.00957074
-0.00145011
0.0627927
-0.0475147
-0.015278
2.1869e-05
0.0484194
-0.0452414
-0.00317797
-0.0953606
0.00665055
-0.000202252
0.00192577
0.471042
-0.424151
-0.00599168
-0.000265903
0.54886
-0.216173
0.393351
-0.00581214
0.000488919
0.133709
-0.0320833
-0.0386944
-0.123269
-0.0191665
-0.00357062
0.114808
-0.00057431
-0.00141856
0.420182
-1.62744e-06
-0.00151238
0.00151238
-0.00682994
-0.00588466
-0.000576999
-0.322488
-0.00365985
0.0712178
-0.107276
0.52259
0.295067
-0.0655677
-0.000498395
0.000948879
0.473356
-0.000940465
-0.000304793
0.00277607
-0.00203104
-0.00017826
0.0596779
-0.0113431
-0.71024
0.485952
-0.870584
-0.11054
-0.000277227
-0.361027
-0.0318487
0.0229258
0.606562
-0.0154014
0.0808754
-0.00401235
-0.0014015
-0.551307
-0.00330235
-0.000494975
-0.0212649
0.950209
-0.535705
-0.00252532
-0.000489797
-0.00584897
-0.00112564
0.0731685
-0.0225735
0.0225735
0.00383731
-0.00446608
-0.00251987
-0.00794375
-0.0133271
0.0100811
-0.160365
0.0890825
-0.00602956
-0.0133495
0.044165
-0.0157737
0.0604736
-0.0427761
-0.624732
0.567746
-0.00308258
-0.00125814