/*--------------------------------*- C++ -*----------------------------------*\
| =========                 |                                                 |
| \\      /  F ield         | OpenFOAM: The Open Source CFD Toolbox           |
|  \\    /   O peration     | Version:  2306                                  |
|   \\  /    A nd           | Website:  www.openfoam.com                      |
|    \\/     M anipulation  |                                                 |
\*---------------------------------------------------------------------------*/
FoamFile
{
    version     2.0;
    format      ascii;
    arch        "LSB;label=32;scalar=64";
    class       volScalarField;
    location    "32.8";
    object      p;
}
// * * * * * * * * * * * * * * * * * * * * * * * * * * * * * * * * * * * * * //

dimensions      [0 2 -2 0 0 0 0];

internalField   nonuniform List<scalar> 
2186
(
0.759267
-0.440085
-0.118543
1.05848
-0.803066
0.0314525
0.639138
-1.09364
-1.09694
1.32228
1.10083
-1.06274
-1.0859
1.03215
-0.676945
1.04543
1.06383
-0.860256
0.144046
-0.757479
1.44205
-0.758485
1.04239
-1.14497
1.03421
1.03228
1.25709
0.87632
0.651124
1.03312
-0.740781
1.03426
-0.704071
-1.05218
-1.07844
0.182066
-1.00643
1.43421
-0.515783
-0.0520531
-1.08986
-0.723808
-0.79624
-0.879811
0.947973
1.30627
0.290035
0.471188
-1.11204
-0.7747
-0.743894
0.950237
-0.791582
1.37368
-0.775777
0.9293
-0.85015
0.957907
-0.550257
0.800763
-1.03988
0.691574
0.612614
-0.0867436
0.631569
0.410343
0.725065
1.32886
1.2247
-1.1399
-1.09742
-1.08175
1.29067
0.986948
1.22077
1.14878
-1.07176
1.05903
-1.0872
-0.632223
-0.773392
-0.246075
1.02889
0.677744
1.02035
1.02942
1.34212
0.196268
-0.478364
-1.0954
0.932389
-0.755093
0.931465
1.18001
1.04325
0.481893
-0.249519
0.643138
-0.793127
0.973256
-0.973022
-0.908967
0.694444
0.956923
1.06572
-0.727317
1.27207
-0.822108
0.918729
-1.82301
-0.632126
-0.773281
0.49679
1.3757
-1.08173
-1.01087
-0.68056
-1.19713
-1.09578
1.29001
0.0482459
-0.769234
0.910831
-0.927185
1.04979
-0.65507
-0.786538
1.14108
-0.893349
0.618529
1.39703
1.23824
0.175108
0.61014
-0.820053
-0.756705
0.898624
-1.15743
-0.472328
-1.09356
0.85571
-0.301082
-1.08794
0.665349
0.91782
0.960941
-0.781819
-0.810429
0.573385
-0.811471
-0.774666
0.537034
1.06198
1.18185
1.03491
0.482363
1.3424
0.503759
0.41453
0.370139
-1.09511
-1.25937
1.02482
0.977173
0.235659
0.0864798
-0.998536
-1.06061
-0.894582
-0.881031
0.424146
0.979838
1.06478
1.10378
0.488885
-0.184021
-0.822468
1.02576
-1.35979
0.914081
-1.05463
1.04904
-0.754701
0.605026
0.590796
-0.835177
-0.962393
1.194
-0.403451
-1.06944
-0.939275
1.29861
-0.880298
0.971604
-1.09335
-1.88759
0.152771
1.2194
1.12973
-0.754634
-1.14988
-1.44802
0.00966544
1.06208
-1.08404
-0.788769
-1.09686
-1.2148
0.994274
-0.869108
0.476832
-0.34168
1.36114
0.883499
0.978402
0.934944
1.2442
1.03863
0.87671
1.1578
0.322699
-0.9928
-0.741479
0.170601
0.122839
-0.842085
-0.79714
1.09851
1.14952
-1.12157
-1.01337
-1.34416
0.315882
0.619344
0.772892
0.877568
1.11434
-1.0708
0.868621
-1.0937
-0.786429
-1.00008
1.05927
0.78691
1.21256
1.2102
1.17214
1.15128
-1.09961
0.80009
1.16216
-1.10148
1.04637
0.833538
-1.19908
-1.08599
-1.07864
1.2145
1.06571
-1.08327
-1.30382
-1.37407
0.938171
-0.916345
0.805398
1.12733
0.866341
-1.09357
-0.738878
1.00774
0.683513
-0.791394
-0.369843
1.39705
-0.787284
-1.09702
0.848511
1.1851
1.02207
-0.804464
-0.830167
-1.0099
0.965919
-1.10037
0.502524
1.00462
1.01933
-0.296492
-0.631305
1.01118
-1.13247
0.919908
1.1956
1.06078
1.05774
-1.48301
-0.740713
-1.16004
-0.977799
-1.21927
-0.941979
0.324322
-0.677401
0.668349
1.16995
1.26931
0.971947
-0.853481
1.19109
-1.1883
-0.414658
-1.16826
-1.09538
-1.06305
0.297514
-0.774859
-0.763962
0.232893
0.978969
-0.222667
0.446444
-0.768086
-0.51053
-1.04473
-0.779281
1.25845
0.0556466
-0.414717
-0.757221
0.762186
0.618205
-0.274561
0.487512
-0.971954
-1.08271
0.720453
1.05982
1.13616
-1.41728
1.19102
0.869341
0.441083
1.25009
1.04185
0.959581
0.317567
-0.938216
-1.09593
0.926446
-0.840697
-1.09458
-1.20198
-0.971674
-1.0981
1.42579
-1.43779
-0.744849
-1.10832
1.04088
-0.830289
-1.18989
-0.721698
0.731888
-0.747765
-1.3155
1.30457
1.36516
1.12369
-1.0892
-0.262663
1.44211
1.04462
-0.934451
0.514184
-1.09608
0.106763
1.23111
1.04246
0.880594
1.32261
-0.639682
-0.978991
-0.270765
-0.898605
-1.42785
-0.744288
-0.238962
1.37381
-0.808641
-1.26755
1.03398
0.544001
-1.08967
-1.06847
-1.09615
-0.804766
-1.2271
-1.09215
-0.727931
-0.791294
1.21645
-1.33135
-1.00511
1.05099
-1.24786
1.26963
-1.28564
-1.48232
-0.673449
1.03369
-1.04556
1.06398
0.82664
-1.48221
1.05184
-0.739889
-1.09582
-1.15416
1.00301
0.964886
-1.1026
-1.09787
-1.17949
1.04261
-1.3404
-1.73072
0.574094
1.0002
0.890731
0.697052
-1.10833
-0.773364
0.881817
-0.98971
0.806014
-2.11045
1.05735
0.0336039
1.13359
-1.09551
0.831715
0.75768
1.07128
-1.1728
1.04106
-0.818872
-1.09481
1.03704
-1.29782
0.219245
-0.980082
-0.0443332
1.04681
0.0214818
0.233848
1.04883
0.309612
-0.260497
-0.103002
-0.744256
0.173049
-1.09095
0.764422
-0.531916
1.13517
1.13257
-1.10561
-1.09468
-1.01892
-0.74299
0.49635
-1.03988
0.897273
-0.137816
-1.08099
1.15278
-1.06532
0.438655
0.238298
-0.827047
0.859986
0.411262
-1.17204
-1.3765
-0.91422
-0.731957
1.05506
-2.12728
1.12747
1.23597
1.22376
0.712657
1.23203
-0.795065
-0.677278
0.912953
0.156234
1.03461
-0.765436
-1.06743
-1.43215
0.78401
-1.09255
-2.00782
-0.766204
-0.800994
0.0350182
-1.15881
0.796585
0.76528
-0.474191
-0.956866
0.723068
0.0043502
1.20177
-1.97966
-0.10542
-1.09378
0.823408
-0.462082
1.17436
1.45653
-1.39148
-0.789554
-0.983987
0.372088
-1.01667
1.03074
-0.984767
0.983799
0.81574
-1.13888
0.925621
0.887219
-1.40132
0.888714
-0.926487
-0.755085
-0.95254
-1.0532
-0.858675
-0.994667
-0.573051
1.03675
0.283158
-0.780106
0.552775
1.18452
1.22068
-0.458118
0.743796
-1.29184
0.751541
-0.244468
-0.976874
-0.764552
0.561835
0.873099
1.12155
-1.72084
-1.11597
-1.43189
-1.09617
-0.196108
0.70431
-1.94896
-0.2062
-1.14274
1.00473
-1.03593
1.0014
-1.03568
-0.737241
0.972447
0.642924
-1.14307
-0.101458
1.01077
1.30619
1.05937
-0.91524
-0.834344
0.781821
-1.02529
0.768983
-0.428282
0.511283
1.00843
-1.06036
-0.741555
1.08023
-1.2073
1.30384
-0.20567
0.858293
-0.424386
0.594617
-1.01062
1.26412
-0.748853
-0.86883
1.02693
0.58736
0.562051
-1.15156
-0.749732
-1.00536
0.831973
-0.745683
-0.689432
-0.702129
1.05532
0.461263
-0.792498
0.807287
0.957225
1.0294
-1.97979
-0.671492
-0.761205
1.05118
1.23981
0.447343
1.04695
-0.931021
1.06188
-0.558732
-0.939953
-0.643627
0.943544
0.996314
-1.4109
0.917288
-0.74574
0.868146
-0.830432
1.06671
0.952304
1.05645
-2.0665
0.985135
-0.799991
-0.547432
1.19772
-1.46375
-1.35092
1.1728
-1.2844
1.17084
-1.27607
-0.753389
1.11068
0.758844
1.37937
1.03656
-0.877825
1.08105
1.14421
-1.31231
0.703876
-0.69913
-1.04472
1.52894
-1.097
1.19697
-0.774749
0.248988
1.03704
-1.18008
1.03491
-1.55779
0.990949
0.973139
1.04844
-0.383587
-1.05044
-0.71954
0.553724
0.655243
1.07781
-0.317509
0.89544
-2.04038
-0.263638
-1.22086
0.818414
1.14856
-0.628285
-1.13449
-0.57235
1.28523
-0.811413
0.8023
-0.914226
-1.07877
-1.09587
-0.773196
-0.736268
0.859912
-1.38218
-0.0240555
-0.234367
-0.676659
-0.782379
-1.18076
-0.373539
1.01636
1.05764
-1.1503
-0.540875
1.02849
0.957667
1.0564
-0.960578
1.02732
1.0724
1.02914
1.05589
-1.28646
-0.218708
-0.739767
0.687658
1.03533
0.679889
0.0905415
-0.383286
-2.06162
-0.280664
1.27158
-0.255449
-0.651872
-0.81011
-0.170345
-1.08734
0.852604
-1.10948
-1.28756
-1.09043
1.04378
1.03809
1.0536
-0.334846
0.421154
1.24414
-0.24572
1.03147
-0.281486
-0.333734
0.828862
1.05836
1.15984
-0.379739
1.02378
1.02136
-0.800192
-0.203913
1.05387
1.06506
1.06024
-1.09422
-1.13659
1.05961
0.577482
1.03889
0.284472
-0.0448122
-0.322938
-1.76098
-0.465565
-0.741019
-1.52355
-1.38765
1.06657
1.0713
0.813795
-1.10312
1.04386
-0.114215
-0.285921
-0.190351
1.03395
1.06307
1.06046
1.07536
1.05349
1.04745
1.03922
-0.575286
-0.308163
-0.206289
-0.259831
0.0268081
0.0124031
-0.10618
-0.0470706
-0.0363534
-0.166347
-0.195331
1.02787
1.05008
1.04437
1.06863
1.06738
1.06015
1.06459
1.03873
1.05143
0.0328548
-0.28177
1.06166
1.05946
-0.0525311
1.06154
1.06119
-0.299364
-0.561361
-0.274579
-0.821225
-1.31926
1.04432
-1.11088
1.03953
0.614558
1.07942
-1.0965
1.03814
0.993963
0.977046
-0.740862
-1.27557
-1.09644
-0.195765
0.0381295
-0.74652
1.05896
-0.432484
1.13186
1.04845
-0.0936516
1.24868
1.39487
-0.442601
0.935343
0.637313
1.04185
1.05955
1.04849
-1.09531
0.557073
-0.308393
1.04684
1.05409
-1.05919
-0.402073
1.04899
-0.0744225
-0.247845
1.04754
-1.06041
1.03279
1.0608
-1.10041
1.05088
-0.990037
1.04245
1.13453
-1.62441
1.05522
1.06338
-0.333236
0.757869
1.04192
1.05058
0.245946
-0.658062
0.692106
1.36874
1.05709
1.04434
1.05118
-0.759983
1.04554
1.02739
1.05354
1.04674
1.04959
1.04341
1.15963
-0.116793
-2.02621
1.04656
1.04322
0.370496
-1.07409
-1.1354
-0.303855
0.931784
-1.49311
-0.787237
-0.159893
1.04366
0.708046
0.0124828
-0.584966
-0.472812
-0.346668
-0.661656
-0.961406
-0.928246
-0.77995
-0.250799
1.05008
-0.5289
1.03788
0.975395
-1.09126
1.31724
-0.0313846
-0.720319
0.752633
1.20949
0.532497
-1.09471
1.04587
-0.988098
1.04902
-0.640583
1.04864
-1.26089
1.04164
-1.03895
-1.06124
1.05146
1.06555
1.00916
-0.846871
-1.09487
-0.538664
-0.683873
1.06098
0.960838
-0.794069
1.04374
1.08525
1.03881
-0.847961
-1.37936
-0.787836
-1.31418
0.279697
1.05039
-0.151868
1.04403
-1.14219
1.04445
1.083
1.05235
-0.0275328
0.00556474
1.07717
-1.12127
1.05411
1.05868
-0.057677
-1.08973
1.02212
1.20869
1.03903
1.03979
-0.619459
-0.834391
1.00645
0.369119
1.05333
0.830253
-0.853024
-1.09308
0.910576
1.27565
1.04611
0.296709
-0.305815
-0.739284
-1.28234
-0.875529
1.02169
-0.935293
1.034
-1.00348
-1.09434
-0.796976
0.542427
-1.13866
0.352308
-1.42183
1.04047
-1.09126
0.993989
-1.09662
-0.251661
-1.00681
-0.15173
-1.32955
1.02216
-0.774977
-1.0029
-1.34411
-0.653966
1.02653
-1.34758
0.0583009
-1.12281
1.15458
0.0296362
-1.09637
1.11339
1.0243
1.01254
0.451014
-1.05104
1.05129
1.08117
-0.939425
-0.774145
1.0394
0.777793
1.32293
1.06272
-1.25806
-1.45082
-0.772361
-1.15634
-0.873623
-1.09349
-0.499526
-1.16949
0.782738
-0.0916481
1.04723
1.27239
1.04211
-1.09548
-1.15673
1.04244
-1.46186
-1.61738
1.01474
-0.396326
-0.847058
-1.22949
-0.125987
1.00661
0.979677
-0.814581
0.844742
0.764984
-1.1625
1.02051
-1.39078
0.883818
-0.735673
0.994463
-1.26773
0.384225
1.04296
1.17536
-1.09212
-1.27425
0.899138
1.41947
1.06406
1.10144
-1.23225
1.25544
-1.08059
-1.5302
-0.944457
0.432083
-1.15451
1.15743
1.17084
-1.09686
-0.976858
1.04238
-0.578496
0.846241
1.07386
1.02499
-1.04282
1.04461
0.0285486
1.06868
-0.0348279
-0.931211
-0.0418976
1.04717
-0.344727
-0.372191
-0.0970894
1.0248
-0.694559
1.2664
0.210872
1.39627
1.07223
-0.570684
1.01586
-0.761869
1.02779
1.02393
-1.36049
-0.664221
1.20455
1.03696
1.30207
1.00926
0.0218645
1.01572
1.02275
0.939699
1.05257
-1.12689
-0.813771
-1.36093
1.12712
-1.3168
-1.70996
-0.751185
-1.24322
-0.338833
-0.689651
0.957221
-0.369549
0.985686
1.03608
-0.777516
-1.24625
-0.60233
-1.37336
-0.624354
-0.760717
1.0523
-1.28336
1.06171
1.25296
1.09948
-0.074144
1.06847
0.990884
-1.46226
0.987082
1.03344
-0.867573
1.03205
1.03034
-0.164526
-0.676187
1.49571
-1.27656
-1.02685
-1.10888
0.183551
1.01298
-0.957765
-0.255983
-0.74471
1.19081
-1.5785
0.945873
1.06561
1.0171
-1.33773
0.994742
-1.24181
1.05902
1.07318
-0.31004
1.06213
0.604182
1.02259
0.694803
-1.15198
-0.0570179
-0.210357
-0.395232
1.30826
-0.122096
1.08312
1.4564
-0.560114
-0.102475
1.10709
-0.14918
1.10384
-0.00266553
0.00170856
1.10789
1.11248
0.384151
-1.36414
0.858765
-0.658572
-0.763435
-0.584731
1.06974
1.02725
1.44726
-1.09449
-1.58182
0.721376
-1.08995
1.1331
1.06876
1.01747
1.03934
0.990304
-1.57726
-1.09149
-1.21734
0.897102
0.985088
-1.17049
-0.767284
-1.09831
1.05721
1.06674
-1.09099
-1.22132
1.0832
-1.3703
0.335683
0.871478
1.01577
-0.199473
-1.12288
-0.0907398
-1.04767
-0.750695
-2.02935
-1.29713
1.39131
1.44131
-0.830983
-1.01926
1.05803
1.03412
-0.846943
-0.138986
-0.448359
0.754343
1.1481
-1.43325
1.05368
-1.36958
-1.12285
-0.61025
-0.973714
-0.836318
1.01391
-1.04085
-1.54779
1.42981
-1.05595
1.05428
1.3012
-0.769787
1.04644
1.26467
-0.803969
1.32702
-1.06947
-1.14248
1.09735
-0.511296
1.01454
1.05471
-1.07871
1.09048
0.0909598
-1.70955
1.0921
1.03354
-1.02766
-1.27118
1.01153
1.04702
-1.09191
-1.10981
1.3653
-1.08533
0.977188
-0.962346
0.966016
-1.07382
-1.84973
-1.09826
-0.811519
1.18277
1.06376
1.30426
1.29193
1.07189
1.11074
1.15448
-1.09813
1.22177
1.15221
-0.785739
-1.09104
-0.880457
1.40414
-1.27591
-1.13899
-0.644976
1.03321
-0.791883
-0.84425
1.11343
1.02206
-1.09788
-0.77075
-1.12414
-0.211836
-1.25283
-0.797352
-1.09734
0.988254
0.887108
-0.755125
-0.337303
-0.990845
0.941596
-1.08613
-0.821072
-1.09678
0.942499
-1.49054
-0.775643
1.34643
0.919975
0.36083
1.20872
-1.03141
0.979975
1.06322
1.15598
1.2218
0.0970639
0.788992
1.09988
0.217454
-1.0957
1.47753
0.98765
0.921131
1.09147
-0.780752
-1.73721
0.864471
0.893605
0.998637
-1.62289
-1.45062
1.02804
-1.09379
0.830309
0.00100682
1.48907
-1.09526
0.841132
0.722938
-0.743519
-1.09512
-0.667047
1.07024
-0.746622
-1.09118
0.683318
0.728604
-1.10336
1.12133
0.838406
-0.75034
-0.850871
1.02324
-1.80365
-1.09493
-1.12799
-0.744218
-1.00057
1.04832
1.04463
-1.77909
0.59683
1.04919
1.40483
0.234341
0.413199
0.150837
0.881073
-0.543329
-0.742366
-1.3413
-0.438384
-0.741306
1.04844
-0.751909
0.306674
-1.09455
0.663278
0.544344
-0.742977
0.617557
-1.95691
0.466971
-0.744414
0.591158
-0.743375
0.354088
-1.09549
0.510264
-0.746243
0.810305
-1.49088
-0.7506
-0.760155
-1.09063
1.06191
0.0338452
-0.787103
-1.10104
0.177365
0.255221
-0.749381
-1.09196
-0.827082
-0.187367
-1.11428
0.0185025
-1.14759
-0.18322
-0.901981
-0.368073
0.962541
-0.330451
-1.57443
1.04353
0.0776602
-0.691354
0.421192
1.0065
-0.873403
-1.6212
-1.09761
-1.2306
0.90519
1.48344
-0.879103
0.032347
-0.0388958
-1.0455
-0.213268
-0.450999
1.03923
-0.85161
0.985916
-0.81557
1.55128
0.429757
1.44314
-0.765589
1.20293
-0.416863
1.02026
-1.07288
-1.09621
1.08131
1.0322
-1.09301
-1.09285
-0.752722
1.05042
-0.602274
1.03736
-0.665788
-1.11736
-1.09744
1.36114
1.10541
1.12045
1.08227
1.05933
0.124206
-0.659049
1.29069
-1.9477
-1.01369
1.48719
-0.766413
0.978093
0.968454
1.41704
1.45991
-0.753496
-1.42339
1.07659
0.180331
-0.549971
-0.718993
-0.646087
-1.96071
-0.772245
0.536666
-1.07138
1.21429
-1.18842
1.13367
1.20483
1.10982
-0.747258
-1.07917
-1.04669
1.13147
-0.996507
1.26062
-0.60765
-0.966615
1.32103
1.32397
-1.0912
0.216303
0.979175
-1.11462
-0.897769
0.65035
1.35525
1.25166
-0.794017
0.950831
0.941541
-1.08921
1.26165
0.406053
-0.760291
-1.32262
-0.50009
-0.274293
1.19948
-0.955718
0.384189
-0.993362
-0.804518
-0.915586
-1.09385
1.04967
-0.985622
1.09316
0.034516
0.0286786
0.682648
0.210331
-1.0851
-0.492263
-1.31827
-0.254671
-0.79021
-0.733171
1.02819
-1.61117
-1.85378
1.08696
-1.11318
-0.785555
1.05835
-1.11379
1.06259
-0.502284
-1.09487
-0.432875
0.787157
-0.980393
-1.5697
0.893056
-1.10883
1.10961
-0.680678
-0.997641
-1.03155
-1.09424
1.51492
-1.28701
1.14453
-0.973643
0.997595
1.24501
0.712553
1.05121
1.24583
-0.00229063
-1.10847
1.00315
1.10649
1.38843
-1.04827
1.10793
0.775796
-1.06401
0.777212
1.22107
-0.462123
1.42302
0.263798
-0.837363
0.824943
-1.07412
-0.753938
0.972633
-0.352266
1.09692
1.05872
1.03179
-0.826575
0.992006
1.34578
-0.843675
-0.202025
-1.27959
-1.08215
-1.01293
-1.09311
1.37039
0.73342
-0.808236
0.904102
-1.08234
-0.96657
1.28552
1.31032
-0.92112
-1.23889
-1.09543
-1.10365
0.999128
-0.800945
0.0123242
-0.717799
-0.305263
1.10636
-1.09189
1.46574
1.10389
0.885355
1.0867
1.3847
-1.00317
-1.08976
1.03786
1.1598
-0.886867
1.04435
-1.39297
-1.09836
-1.09276
1.17323
1.20203
-1.09847
-0.798823
0.525194
-0.155259
-0.613671
1.04041
1.05484
-1.14549
1.09351
1.13464
-1.28897
-0.788992
-0.816695
-1.09829
-1.09657
1.33145
-1.43062
1.00988
-0.794759
1.32522
0.94961
0.963046
1.02821
-1.85774
-1.0029
-1.09754
0.633944
-0.773268
0.912946
0.246098
-0.416364
0.951071
1.00354
1.08667
1.06737
-0.0863832
1.08305
0.044347
0.379515
0.883827
-0.45269
-0.783357
-0.840339
-0.589579
1.0566
0.964195
1.05586
-1.61805
-0.922735
-1.0965
-0.699218
1.05737
1.36505
1.07035
-0.77834
-0.909587
-1.04037
-0.4387
-1.0939
-1.09603
-0.0964542
1.05341
-0.850355
-0.752321
-0.691714
-0.169897
0.819382
-2.02359
-1.09654
-1.15726
1.02014
1.47415
-0.632724
1.13962
1.54043
0.760429
1.27575
-0.787701
-0.711009
1.41693
-1.09554
0.265785
-0.768173
-1.09688
-0.750814
-0.744316
0.997423
0.712491
1.27657
1.23971
-0.0529799
0.763073
0.156216
-0.46659
-1.0949
1.15206
0.820971
1.06471
1.08143
-0.0223752
-0.188271
1.07428
-1.15658
-1.0962
-0.747693
-0.760635
0.56887
-0.741453
0.996783
0.645661
-1.09442
1.24345
-0.779506
-0.220759
1.02152
-0.925814
-1.01083
-1.81093
0.698062
-0.75735
-0.691491
1.00558
1.07292
-0.668343
-0.0349904
-1.84653
-1.09459
-1.74411
-0.770813
-0.29234
0.572887
-1.02725
-0.741024
1.34338
0.365061
0.464709
-0.741947
-1.09749
1.04604
1.04581
0.629165
0.503846
-0.743314
-1.03668
-0.913591
0.55404
0.40649
-0.745162
0.914374
0.249748
-0.746846
1.51352
-0.752927
-1.71323
-1.09594
-0.696888
0.83018
-0.769547
-0.804949
-1.10451
-0.0592322
-0.803775
0.107473
-0.83453
-0.332585
1.25479
-0.857592
-0.254432
-1.13075
-0.0690622
1.41727
1.4188
1.31166
1.05326
1.28939
-0.621637
1.042
-0.782578
1.04362
-1.09857
-1.1061
1.27644
-1.16658
0.44839
-0.797195
1.43116
0.0683305
1.36497
0.696195
0.855448
-0.762831
-0.772974
-1.0969
-0.669295
1.3544
1.26879
1.04255
0.612331
1.0403
0.856401
0.904639
-0.744404
-1.10299
0.361651
-0.274581
0.880233
1.05791
-0.0996758
-0.767408
-0.744889
-1.3739
-1.09655
-1.07901
1.36103
1.07591
1.05238
-0.0287026
-0.183161
1.07072
-0.78579
-1.09429
-1.9805
-1.0597
0.869014
-0.754205
-0.742376
-0.404368
1.06524
-1.55592
-1.0967
1.04085
0.581881
0.712502
1.04295
-1.09528
0.953642
1.21118
0.825374
-1.09443
1.03104
0.311158
0.553148
-0.967567
-0.746909
1.50189
0.195164
-0.65947
-0.0541277
0.98866
1.04005
-1.02779
-1.23125
-0.42553
-0.601478
-1.02654
-0.807906
-0.811796
1.03921
-0.811195
1.05036
1.30324
1.09457
1.05827
1.16281
1.22112
1.04601
-1.15781
-0.774438
-0.311892
-1.17373
-1.03249
-0.744417
1.21726
1.12941
-1.08225
0.981274
-0.873477
-1.34809
-0.749959
-0.140249
0.509955
-1.26189
1.03769
0.988683
-0.692695
-0.496698
1.38458
-1.52198
-1.69073
-1.17828
-0.813526
-0.722748
1.07838
0.856081
1.1074
-1.10714
-0.722593
-1.06122
-0.259213
-1.07884
-1.44093
-0.919938
-1.71324
0.992455
-0.904411
1.47725
-0.989387
-0.70397
-1.12592
-0.74419
0.943696
-1.14308
-1.06977
-1.09221
-0.460448
1.27235
1.23995
-1.88961
-0.987009
0.904737
-1.11335
-1.04124
1.12252
-0.711008
-1.04978
-0.597941
0.833999
-0.550608
-1.07427
1.03977
0.143015
-0.667242
1.0567
-0.885941
-1.06209
-0.828429
-0.820422
-0.183335
-1.07249
1.38872
-1.09469
0.0934822
-1.09841
0.874723
-0.647855
-0.95083
0.735579
0.754491
1.09679
0.989581
1.24612
-0.762571
0.852708
0.523738
-0.893838
1.00307
-0.277733
-0.641162
-1.68598
1.19658
1.18415
-0.603367
-0.921869
-1.0633
1.09399
-0.872495
0.196674
-1.29915
-0.748547
1.3534
1.09075
-0.768262
-0.823922
-0.77069
-0.75817
0.965294
-0.784382
1.0582
0.326594
0.793496
0.916859
-0.735559
-0.907902
1.0196
-0.745665
-0.682204
1.32364
-1.09587
-0.757734
0.902841
-0.865349
-0.813211
-0.303026
-1.03005
1.39267
-0.769032
0.0707568
-0.770691
1.31893
-0.77758
-0.830442
0.730913
-1.26277
-1.09846
1.3676
0.76
1.00489
-0.810257
1.30792
0.0771644
-0.973818
-0.802529
-0.801887
-0.780219
1.33919
0.665063
-1.09539
-0.775814
-1.06474
1.19549
-0.847506
1.29395
-1.09785
0.795918
-0.749197
0.465686
0.629021
0.595468
0.516405
0.126163
-0.839751
1.08526
-0.799176
-0.589125
-1.20792
0.221907
1.33702
-0.432025
-0.817398
-0.781731
-0.751819
0.361775
-0.985174
-0.747198
0.830842
0.124137
-0.763515
1.40601
-1.06948
-1.12838
1.39401
-0.755771
0.250264
-0.866662
-0.746637
-0.745142
1.37949
-0.745316
1.30607
-0.743985
-0.882467
1.24254
-0.353163
-0.840077
0.655359
-1.03631
0.118903
-0.541205
-0.749324
0.802528
-1.13008
-0.751735
-0.746032
-0.748945
-1.10231
0.844146
-0.0506023
-0.59444
-0.765792
1.3368
-0.995833
-0.817158
-0.732284
-0.255272
-0.873421
-0.740164
-0.760842
-0.214066
1.32219
-0.780991
-1.09095
-0.8226
-0.889796
-0.130342
-1.10742
1.42593
1.3628
0.507839
-0.919835
-1.09973
0.424848
-1.09684
1.44243
0.307211
1.07409
0.785492
1.29972
0.192026
-0.884762
-0.95363
0.0416529
-0.796501
0.0425045
-0.196951
-0.746317
1.33556
-0.420925
0.318128
-0.548062
-1.07913
-0.911702
)
;

boundaryField
{
    frontback
    {
        type            empty;
    }
    Top
    {
        type            zeroGradient;
    }
    outlet
    {
        type            fixedValue;
        value           uniform 0;
    }
    bottom
    {
        type            zeroGradient;
    }
    Inlet
    {
        type            zeroGradient;
    }
    rectangle
    {
        type            zeroGradient;
    }
}


// ************************************************************************* //
