/*--------------------------------*- C++ -*----------------------------------*\
| =========                 |                                                 |
| \\      /  F ield         | OpenFOAM: The Open Source CFD Toolbox           |
|  \\    /   O peration     | Version:  2306                                  |
|   \\  /    A nd           | Website:  www.openfoam.com                      |
|    \\/     M anipulation  |                                                 |
\*---------------------------------------------------------------------------*/
FoamFile
{
    version     2.0;
    format      ascii;
    arch        "LSB;label=32;scalar=64";
    class       surfaceScalarField;
    location    "37.4";
    object      phi;
}
// * * * * * * * * * * * * * * * * * * * * * * * * * * * * * * * * * * * * * //

dimensions      [0 3 -1 0 0 0 0];

oriented        oriented;

internalField   nonuniform List<scalar> 
3181
(
-1.02217
0.396562
0.625609
-0.377009
0.355161
0.0218479
0.507154
-0.348444
-0.15871
0.114785
-0.191327
0.0765415
-0.0385958
0.0452003
-0.00660449
0.571481
1.47391
-2.04539
0.142306
-0.136278
-0.00602861
0.00754256
-0.000552454
-0.00699011
0.540109
-0.722134
0.182024
-0.0759259
0.129539
-0.0536135
-0.0107435
-0.0541785
0.064922
0.110897
0.0513722
-0.162269
0.000453879
-0.00685857
0.00640469
-1.09853
0.153
0.945532
-0.318541
0.677632
-0.359091
-1.12436
0.641455
0.482904
0.0836309
-0.92938
0.845749
-0.136676
0.0450781
0.0915981
-1.91571
0.269625
0.00720608
0.0553642
-0.0625703
0.0498282
-0.0939718
0.0441436
-0.0418536
0.045319
-0.00346546
1.06415
-1.04072
-0.0234275
0.0274247
0.0328296
-0.0602544
-0.956574
0.329317
0.627256
-0.105827
0.220612
0.302786
-0.254412
-0.0483749
0.0281763
0.0591831
-0.0873594
-0.425786
0.350352
0.0754346
-0.0343853
-0.0280211
0.0297597
-0.00173859
-0.0404172
-0.916157
0.0537226
-0.0583041
0.00458149
0.25348
1.45842
-1.7119
-0.0581134
0.0459328
0.0121806
0.189253
0.282375
-0.471628
1.80002
-1.54654
0.0764573
-0.0266291
1.60353
-0.898846
-0.704687
-1.11787
1.68935
-0.0322508
0.0327047
-0.0279432
-0.0139104
-0.395283
0.0767429
-0.134915
0.106971
-0.648051
0.12779
0.520261
-0.140224
0.0642985
-0.161866
0.165793
-0.00392732
-0.262093
-0.0749816
0.337074
0.0496347
1.0049
-1.05454
0.0429579
0.0628201
-0.105778
-0.020815
-0.1057
0.112214
-0.00651478
0.502824
0.174808
-0.0948132
0.151147
-0.0563343
0.0795503
-0.0258276
-0.164264
0.189194
-0.0249308
0.158007
0.0536645
-0.211671
0.103537
-0.109201
0.00566409
1.18761
0.41592
-0.842582
-0.179589
-0.0636436
-1.1797
1.24334
0.567033
0.237767
-0.8048
-0.459926
-0.212236
0.672161
-1.84851
0.730632
-0.278415
0.845448
-0.312992
-0.100919
0.413911
-0.214228
-0.211558
-0.184023
0.170996
0.0130276
0.150213
0.277861
-0.428075
-0.173611
0.713721
-0.00721408
0.0147566
-1.61666
1.55302
0.174217
0.128569
-0.169267
-0.110253
0.27952
-0.267567
0.36574
-0.0981728
-0.0759854
0.0842256
-0.00824018
-1.56703
-0.92053
0.0114452
0.909085
-0.0261226
-0.0319908
-1.14849
0.810605
0.337882
0.214113
-0.293948
0.0798348
-1.53022
-0.31829
1.09984
-0.946842
-0.738341
1.14671
-0.201174
1.05942
0.17789
-0.171331
-0.00655896
1.87981
-0.405898
2.34471
-2.34471
-0.00747111
-0.00152094
0.00899205
-0.202903
-0.0526344
0.255537
0.0658623
-0.0549258
-0.0109364
-0.453205
0.821227
-0.368022
-0.0304633
-0.220904
0.251367
-1.08317
0.042447
0.356287
0.0599503
-0.416237
0.130145
-0.877696
1.11546
0.0449654
0.0291534
-0.0741188
-0.0177092
-0.146554
-0.146271
0.156263
-0.0099928
-0.193173
0.0469022
0.119552
-0.997247
0.320188
-0.773393
0.924637
-0.841006
0.0282372
0.0687537
-0.096991
0.089925
0.0544116
-0.144337
-1.34631
-0.0877513
1.43406
-0.233826
0.397134
-0.163307
-0.154426
-0.161425
0.315851
-0.487136
-0.661351
0.0758658
-0.0329079
-0.146724
0.141348
0.0053755
-0.0794185
-0.0180986
0.0975171
-0.525061
-0.197073
-0.0273793
0.00712837
0.0202509
-1.07332
0.185136
0.888188
1.22519
-0.220283
-0.0170668
0.00959572
0.024328
0.149889
-0.206815
0.396068
0.0311755
0.0537918
-0.0849672
0.144817
0.071587
-0.216404
0.212225
-0.146033
-0.0661923
-0.594515
-0.529844
-0.906384
-0.16694
-0.0231861
0.0681515
-0.0981898
0.175777
-0.0775869
0.0755488
0.0237389
0.118567
-0.0559807
0.0641764
-0.00819568
-0.0900925
-0.0194997
0.109592
0.0709799
-0.0709799
-0.178437
0.202176
0.0209398
0.0939956
0.100209
0.0889858
-1.21303
1.03942
-1.44828
0.0228039
1.42548
0.00845693
-0.00977929
0.00132236
-0.0280512
-0.0545219
0.0825731
0.523611
-0.0226803
-0.50093
0.00168804
-0.00162331
-6.47293e-05
-0.192527
0.0140903
0.164949
0.656277
-0.356751
0.5217
-0.157677
-1.18864
-0.0504454
0.0118496
0.471693
-0.29362
-0.178073
0.0644676
-0.0587124
-0.00575519
0.046729
-0.308822
0.0225157
-0.943046
0.0478966
-0.146086
-0.275094
-0.387974
0.0830764
1.40078
-0.947746
-0.453033
1.07694
0.323835
0.0645812
0.272493
0.00552753
0.0029294
-0.141641
0.134686
0.00695449
-0.250591
-0.595893
0.846484
-0.344079
-0.0359008
0.935107
-0.665482
0.138321
0.0406472
-0.0474086
0.00676146
-1.49412
-0.455131
1.94925
0.284854
-1.77897
-0.319258
0.675545
-0.906864
-0.01555
0.00417268
-0.277297
0.273125
1.41812
-1.56024
0.14212
-0.0556212
0.00517583
0.579109
-0.8297
-0.134497
-0.158551
0.293049
-0.303072
-0.12506
0.428131
0.178969
-1.0095
-0.0736644
-0.00686719
-0.0557031
-0.576627
0.364391
-0.257084
0.0196443
0.23744
-0.0275006
-0.0281206
0.000344723
-0.000344722
-0.126163
0.138699
-0.0125365
-0.189881
-1.2584
0.0263201
0.00134835
-0.0276685
-0.119591
0.0692754
0.0503156
-0.229486
0.0454629
1.42661
-0.210058
-1.21655
-0.179988
0.434662
-0.254674
0.00350493
-0.00404018
0.000535255
-0.304622
0.150196
-0.195481
-0.00456486
0.200046
-0.165091
0.315305
-0.107911
0.10614
0.00177132
0.0794373
0.0230604
-0.102498
-0.0878222
0.0878699
-4.76996e-05
-0.24556
0.487664
-0.242104
-0.211875
-0.0491331
0.261008
-0.684947
0.661784
0.0231623
-0.00616839
0.038998
0.0242115
-0.025341
0.00112955
-0.0151097
-0.0451447
0.720651
0.504535
0.171784
-0.893158
0.721374
-0.0816151
1.76518
-1.68357
0.370774
0.538782
1.80593
0.0717289
0.213171
-0.0683541
-0.0756205
-0.0300791
0.226885
0.165947
-0.0760219
0.734
-0.404683
0.0589136
0.196624
0.0561424
-0.174257
0.118115
-0.756345
-0.135188
0.891532
-0.000960317
0.000960317
-0.0300669
-0.28179
0.564165
0.0122613
-0.224136
-0.021576
0.0666541
0.0228639
-0.04605
0.143023
-0.153767
-0.346539
0.316076
0.0405016
0.0299913
-0.0704929
0.373221
-0.321848
0.645267
0.118464
-0.763731
-0.199338
0.263919
0.181411
-0.475032
-0.202172
0.598735
0.159122
-0.0312232
0.0312232
-0.362508
0.2559
0.106608
0.369702
0.0274323
-0.00544177
0.00445944
0.00098233
-0.0766246
-0.0184139
-0.00896534
-0.0510683
0.194091
-0.188388
0.251907
-0.063519
0.13743
0.0285165
-0.383648
0.129236
0.200578
-0.063148
-0.0483794
-0.0595319
-0.0112253
0.0183661
-0.00714079
0.141041
-0.100357
-0.040684
-0.0289159
0.409756
-0.38084
-0.0377023
0.0304883
0.110617
-0.115213
0.00459602
0.0247829
0.94606
-0.300793
-0.0584597
0.0219979
0.0364618
-0.0512357
0.0660219
-0.0147862
-0.0976461
0.0964206
-0.720125
0.623704
-0.00593068
-1.41724
-0.473836
1.89108
-0.436973
1.15323
-0.716254
0.0786057
-0.170829
0.0247968
0.288257
0.259423
-0.54768
-0.211245
0.267388
0.134414
-0.871914
0.7375
-0.0326069
-0.0186288
-0.0278563
0.0209892
-0.983936
0.441946
0.54199
0.947746
-0.828194
-1.6385
1.55075
-1.41812
1.44093
0.0374649
-0.0937992
0.00396046
0.020251
0.00353136
0.779739
-0.645325
0.115546
-0.067649
0.412451
0.734255
-0.0622692
-1.38841
1.3068
-0.648215
-0.564816
-0.243055
-0.404996
-0.00499763
-0.159626
0.206355
-0.571484
-0.359865
0.179877
0.750596
-0.226985
-0.863177
-0.775327
0.750893
0.0502837
-0.0828906
0.271355
0.0352084
-0.0352084
0.669066
0.150728
-0.819795
-0.227109
0.896175
0.350668
0.0531313
-0.403799
0.0953864
-0.0013908
0.00712308
0.00516568
-0.0122888
-1.1797
-0.787605
0.567323
0.759054
0.667553
-0.0333407
-0.128525
-0.22997
0.732793
-0.205997
-0.0510866
-0.00274324
-0.0732422
-0.0576067
0.112018
0.38584
-0.258051
-0.805893
-0.296483
-0.0938157
0.0109473
0.0828684
-1.48699
2.02577
-0.105114
0.103893
0.00122063
0.0202104
-0.0146829
-0.0514778
0.040175
0.0113028
0.00909621
0.404815
0.0388134
0.0256543
0.00838892
0.0157749
-0.0241638
-0.0181091
-0.177372
-0.740386
0.382416
0.35797
0.674697
-1.94972
1.27502
0.144647
-0.167169
0.0225226
0.00976976
0.066096
-0.419578
-1.92513
-0.0426357
-0.00884209
-0.0580327
0.0251248
0.152681
-0.359496
-1.42296
0.654476
0.768484
0.0357954
0.0887606
0.0522805
-0.756345
-0.296668
0.0511077
0.0572905
-0.0171155
0.0459097
-0.640479
-0.0444681
0.0634469
0.137132
0.183042
0.0273044
-0.455379
0.117162
0.362628
-0.302678
-0.108684
0.0185915
0.221389
0.841535
-1.06292
0.105729
-0.70675
0.601021
-0.922306
0.787118
-1.33739
-0.302888
1.64028
-0.000658271
0.000278622
0.000379649
0.17818
-0.481251
0.23001
-0.135391
-0.094619
0.0570474
0.00897453
-0.017806
-0.0760097
-0.000615595
0.0174697
-0.0325794
0.0201221
0.0877276
-0.10785
-0.0863054
0.0100168
-0.0103095
0.000292664
0.0387955
-0.00830724
0.862844
0.0311308
-0.025955
0.0640868
-0.851692
0.0582632
0.0371232
0.00716845
0.0815921
-1.64028
1.92513
0.187229
-0.0322235
-0.155005
-0.262595
0.0912642
0.120428
-0.126987
-0.00124193
0.0854675
0.00113559
-1.50997
0.0870103
-0.0507063
0.0708284
0.741837
-0.258933
-0.106219
-0.0133721
0.352903
-0.00287626
-0.00256551
-0.00738229
0.0783622
0.14265
0.22309
0.157913
-0.343515
0.185602
0.105082
0.551196
-0.0306182
-0.109606
0.905875
-0.249242
-0.656633
-1.33739
-0.612598
1.28729
1.80002
-0.0348322
0.17772
-0.142888
0.409431
-0.0767894
-0.332641
0.0474084
-1.57762
-0.0793277
0.0805812
-0.00125353
0.0844423
-0.1336
0.0491575
0.462199
-0.878996
0.416797
0.039656
0.663647
-0.703303
-0.04255
-0.104174
-0.0362903
-0.0221694
0.0133822
-0.37589
0.000569125
-0.0012274
0.022101
0.024826
-0.0469269
0.00416439
-0.145805
0.00764787
0.0125625
-0.0179584
0.0867121
-0.0223601
-0.00298091
0.202483
-0.423387
0.448785
0.704442
-0.000269969
0.00123029
-0.990616
-0.0188861
0.11688
-0.0684915
-0.0401925
-0.22767
0.0931729
0.0618335
-0.62773
0.565897
0.0731015
-0.0148383
-0.935524
-0.0113179
-0.00690702
-0.649814
0.746235
-0.016805
0.175927
0.330533
-0.277402
0.18678
-0.431372
0.244592
-0.0457147
0.0995065
0.00412672
-0.00474073
0.000614004
-0.0278832
-0.059939
-0.0196991
-0.126855
0.739739
-0.63401
-0.0549191
0.0154898
-0.100949
0.322625
-0.164712
0.194183
1.0711
-0.381831
-0.689267
-0.126367
0.146011
-0.511725
-0.22866
-0.551726
0.593632
-0.577567
-0.016065
-0.0605857
0.00566662
-1.38841
0.556287
-0.556287
-1.83723
1.83723
0.779739
0.630684
-0.0931929
-0.537491
-0.89941
-0.0912053
0.656292
-0.376312
-0.279979
0.152296
-0.229883
-0.0124945
-0.0045723
-0.911098
-0.086149
-0.933437
0.213312
0.0442076
-0.0332603
0.697326
-0.102301
-0.595025
1.40665
0.393375
-0.00352999
0.00765672
-0.958952
0.789155
-0.670691
-0.106636
-0.611963
0.718598
-0.0190295
-0.86491
-0.695332
0.220717
-0.815232
-0.891532
1.3261
-0.434569
-0.134375
0.270829
-0.136454
-0.0333111
0.730637
-0.109
-0.983071
0.983071
-1.42556
0.356373
1.06919
0.00169127
0.00832553
0.0513598
-0.450084
0.906409
-0.0958034
-0.0903197
-0.0324652
0.0316547
0.000386171
0.00311876
1.33019
-1.63308
-0.365572
0.44501
-0.66243
1.04751
-0.385075
-0.00518257
-0.0374532
0.13056
-0.0589732
0.34303
-0.000787051
-0.00607152
0.358787
0.0509695
0.0452464
-0.258727
0.213481
0.133363
0.0324299
0.102509
0.189893
1.44788
0.105135
-0.379345
0.998504
-0.619159
-1.42453
0.969402
0.317239
-0.210268
0.0736824
-0.765452
0.69177
0.251339
0.116622
-0.463162
-0.0742519
0.127495
-0.053243
0.121181
-0.195433
-0.464906
-0.111721
-0.0768467
0.0802593
-0.00341258
-0.00384346
-0.0185166
0.0358738
-0.0617014
0.645325
-0.601021
-0.0443045
-0.281589
0.293851
0.881191
0.697404
-0.287973
-0.00387481
0.00522316
-0.405526
0.246975
0.163864
-0.563547
0.399683
-0.00499308
0.000252353
0.684754
-0.258794
-0.42596
0.0110383
-0.0173114
0.00627312
-0.0291906
0.0214003
0.00779031
-1.32443
0.918531
-0.0966264
-1.32061
-0.205483
-0.828194
1.44093
1.55075
-0.185359
-0.165763
0.11663
-0.0677228
0.0739589
-0.00623615
-0.657473
1.12791
-0.470438
0.562683
0.0936086
-0.00223271
-0.00276036
0.127292
-0.251908
0.0324652
-0.055257
0.00455069
-0.300995
-0.104531
-0.0279821
0.0508461
-0.22011
0.593331
1.07694
-0.157447
-0.0576052
0.00103377
0.0565714
1.93386
-0.383105
-0.0579765
-0.0512241
-0.993168
0.164974
0.377385
-0.198417
-0.486576
-0.139361
0.625937
0.834144
-0.373652
-0.460492
-0.518751
0.580585
-1.3068
0.127101
-0.00603561
-0.0333001
0.0393357
0.325253
1.43993
-0.161579
0.168702
0.189707
1.91671
-0.475785
-0.673262
0.0467825
0.626479
0.393755
0.0101189
-0.356343
0.520626
0.789472
-0.720091
0.0723773
-0.0200968
-0.824866
0.361939
0.462927
1.08431
0.0442365
-0.0358476
-0.0518464
-0.3695
0.114423
-0.325669
0.503966
0.567132
-0.044659
-0.0159267
0.230197
-0.265029
-0.0231636
0.0169952
0.106232
-0.141141
0.0349084
-0.288893
0.301545
-0.0126527
0.219188
-0.601019
0.78916
-0.764567
-0.0245933
0.122506
-0.142045
0.0195388
0.28293
0.039695
0.104867
-0.401535
-0.666791
0.666791
1.24334
1.40665
-0.70675
0.317784
0.471688
-0.172498
0.279106
0.955696
-0.393013
0.00950133
-0.88062
0.871119
0.121734
0.00780484
0.0252269
-0.719238
0.824105
0.0628663
-0.165114
-0.114893
0.280008
-0.0940509
-0.496289
0.331175
-1.08873
-0.298505
-0.657289
-0.0163656
-0.00949196
-0.000817504
-0.229092
0.0189965
0.0638719
0.0326617
-0.154614
0.121953
-0.557991
-0.867573
-0.00529191
0.064475
-0.143844
0.0306306
0.113214
-0.548687
0.370614
-0.103158
0.13315
0.226811
-0.0038469
-0.0240094
-0.96515
0.755091
0.0364259
0.0741906
-0.111109
0.0101603
0.21985
0.0101603
-0.436881
1.52967
0.528299
0.279266
0.865428
-0.791745
0.813276
-0.460373
-0.631757
0.181674
0.15787
-0.797297
0.77435
0.022947
1.10131
-0.597342
-0.224833
-0.140739
-0.0500884
-0.00483741
0.949371
-0.838082
-0.111288
-0.193196
0.117175
0.0263236
0.115024
0.875706
0.462956
0.403437
-0.866393
-0.317278
-0.0425875
-0.417519
0.273675
0.111193
1.32287
1.43746
-0.0308185
0.16476
0.550251
-0.715011
0.260825
0.0532411
-0.0153065
0.0114596
-0.524942
-0.106815
0.052908
-0.0804086
-0.196115
0.145046
-0.516682
0.262007
-0.992561
-0.750666
-0.295649
-0.94421
1.40666
0.0188219
-0.294151
-0.49648
0.195485
0.508752
0.312289
0.0464972
1.23197
-0.769767
-0.199734
0.136586
0.0872911
-0.641857
0.554566
-0.0183588
0.0123232
0.0519616
-0.0597841
-0.229109
-0.109594
0.69747
-0.424207
-0.273264
-0.108803
0.126956
-0.0917554
-0.0352002
0.245966
0.0663233
0.279242
-0.995496
-0.100757
0.146666
0.0207128
0.442243
-0.00163785
-0.0131484
-0.0259398
0.0132781
0.0126617
-0.00654725
-0.00323204
-0.251831
0.0775737
-0.0335877
-0.538364
0.403989
0.0242082
0.0400193
0.0824867
-0.698194
1.64593
-1.0788
0.0159658
-0.201671
0.185705
-0.143708
-0.529736
0.673444
0.0676278
-0.708107
0.153904
0.635256
-0.00399713
-0.000385188
0.00438232
-0.237277
-0.593632
-0.162713
-0.130498
-0.824866
-0.241128
0.172774
-0.0659118
-1.11628
-0.277538
0.339948
-0.0624102
0.254808
0.107305
0.435532
0.387188
-0.82272
-0.0106936
0.0609773
1.26082
-0.253986
-1.00683
-0.217132
-0.501252
1.47065
-0.251752
0.188233
-0.793757
0.292506
-0.0252456
0.181509
0.000310015
0.00322134
-0.0314704
1.41256
-1.13329
0.746125
0.0880193
-1.41277
-0.0971985
0.273919
0.681777
0.889179
0.0166959
-0.0181523
-1.43746
-0.657289
-0.711788
0.723233
-0.0710902
-0.863177
0.663647
0.596031
-0.929288
0.745099
-0.00277574
-0.794521
-0.31475
0.637904
-0.765249
0.127344
0.0766418
0.0503138
-0.487649
-0.0682094
1.33458
-1.26638
-0.00274048
-0.00675148
-0.274236
0.22315
0.705532
0.213839
-0.199748
-0.173146
1.0588
-0.873664
-0.295751
-0.24174
0.470145
0.305006
-0.77515
-1.00163
1.36357
0.274897
-0.244267
0.0832861
0.394718
-0.462927
-0.000585415
0.222648
-0.0134455
0.086765
0.0301153
0.0101249
-0.0293331
0.0192082
-1.02798
-0.0349441
0.309794
-0.807262
0.0626824
0.464743
-0.527426
0.385764
0.661742
-0.0459341
0.0489988
-0.00306466
0.236229
0.82257
-0.718466
1.08268
0.836339
-0.773656
0.325949
-0.1033
-0.583451
-0.40911
-0.826326
1.29647
-0.0553504
-0.883396
-1.72739
0.0438239
0.394718
0.0507564
-0.858019
0.831368
-0.646702
-0.184666
-0.981988
0.398537
0.00803404
0.107915
-0.000448095
-0.107467
-0.971411
0.562301
-0.206562
0.911814
-0.923132
0.199404
-0.217513
-0.0991008
0.251782
0.418219
0.63087
-0.0598678
-1.2982
0.608934
-0.0176597
-0.702431
-0.552439
-0.518632
1.07107
0.447561
0.0162114
-0.0110457
-0.738247
0.703303
0.83996
-0.603731
-1.80593
1.48861
0.317322
0.00260171
0.462142
0.772658
-0.807043
-0.493874
-0.449172
-0.472032
-0.49938
0.804214
-0.804214
0.687491
-0.687491
-0.738247
-1.17032
1.17032
-1.48861
-1.54772
0.14447
-0.0508085
-1.24125
1.24125
0.83996
-0.603731
0.772658
0.764596
-0.764596
0.807043
0.758256
-0.758256
0.506126
0.527968
0.481368
-0.401286
-0.50062
-0.550828
1.0788
-0.39995
-1.76732
0.940996
0.429464
-0.154567
0.209013
-0.00486334
0.0359942
-0.88528
0.0907396
0.79454
-0.0588058
0.0538081
-0.993914
0.589231
0.900454
-0.58267
-0.122797
0.00160098
-0.00434267
-0.815769
-0.0773896
-0.54199
-0.0113333
0.0323225
-0.811417
-0.0838091
0.0666936
0.187853
-0.00839194
-0.00685026
0.0152422
-0.812919
0.0679428
0.744976
0.0987462
0.319473
-0.52806
0.422667
0.105393
0.916589
-0.745171
-0.171418
0.0879172
0.30815
-0.0143722
-0.0624745
-0.0655526
-0.0137751
0.506502
-1.99349
-0.860228
0.0949832
-0.745265
0.795545
-0.0502799
0.120311
-0.900224
0.779913
-0.80384
0.902506
-0.0986656
-0.0251006
0.0185533
0.0212871
-0.298584
0.291514
1.00496
-0.0917138
-0.793566
0.915128
-0.0895818
-0.825546
0.0669226
-0.0721051
0.52821
0.824875
-1.75387
0.488211
-0.394602
0.098963
-0.892529
1.54654
0.29069
-0.794481
-4.02505e-05
1.01727
-0.896963
1.15061
0.0692168
-0.284651
0.215434
-0.881802
-0.112112
-0.424277
0.0434363
0.254717
0.31118
-0.783482
0.783482
-0.623127
-0.0832454
-0.863825
0.118653
-0.985577
0.878941
0.0757132
-0.211105
-0.0546855
0.0524832
0.0116932
0.1861
0.831174
0.81926
0.773876
0.136345
-0.910221
0.00935209
-0.163919
-0.78331
-0.102835
0.886145
0.165882
-0.884348
-0.677725
0.886103
-0.78714
-0.103872
0.461574
-0.0113531
-0.450221
-0.0372392
1.56076
-1.52352
0.444065
-0.471943
0.0278779
-0.887182
-0.829678
0.0844135
0.536362
0.276914
-1.35383
1.37532
-0.587432
0.587432
-0.75813
-0.540071
-0.119421
0.943526
-0.685676
-0.0788909
0.783269
-0.195024
1.13801
-0.21948
1.00302
-0.866729
-0.136289
-0.18247
-1.76725
0.0551432
0.0785689
-0.421909
0.473017
0.00344278
0.3195
-0.231583
0.781786
-0.880452
-0.0955825
-0.0683361
-0.146101
0.735333
0.589401
-0.589401
-0.0355782
0.0208953
0.116758
-0.0840959
1.53471
0.0260484
0.0846682
0.000646266
0.0064877
-0.00713396
-0.673742
0.693301
-0.0195588
0.152525
-0.437177
0.105396
-0.892536
-1.0256
1.19909
-0.173494
0.105761
0.874008
-0.465255
0.617781
-0.756191
0.609119
-0.653587
-0.672376
0.16065
0.565841
0.0270654
0.201722
-0.0631128
0.628954
0.00196921
-0.0288322
0.0648646
0.73068
0.68981
-0.0806916
0.0725156
0.790328
-0.858599
-0.182602
1.0412
-0.409189
0.512684
0.427309
-0.926906
0.711401
0.215505
-0.68532
-0.129912
1.19271
0.0946016
-0.470492
-0.035138
0.485876
0.514124
-0.771215
-0.109237
-0.141633
-1.13894
-0.792761
-0.807228
0.400738
0.599262
-0.0644977
0.0561905
-0.860797
-0.0593455
-0.594241
-0.150075
-0.239792
0.389867
0.00100132
0.000134274
0.118304
0.0757872
-0.128643
-0.123188
0.761896
-0.64757
0.720086
0.891993
-0.955105
-0.0333934
0.822454
-0.78906
-0.744497
-0.187621
0.932118
-0.232678
0.221833
-0.0252091
-0.0356331
0.00751246
-0.0013133
0.722747
-0.135315
0.113126
0.113685
-0.735686
0.0619437
1.2559
0.600121
-0.575351
-0.18838
0.521616
-0.283307
1.01756
-0.0041522
0.177509
0.0121983
-0.00111078
-0.0318256
-0.038683
-0.192795
1.4487
-0.765503
-0.22625
0.991752
0.84631
-0.0313889
0.00323047
0.0281584
0.13427
0.000316764
0.000252361
0.20853
-0.102298
-0.472528
-0.213148
0.196796
-0.962299
0.00635783
0.274227
0.596204
-1.11171
1.27264
-0.160933
-0.776117
0.828819
-0.0527021
0.669813
-0.273979
0.248734
-0.0797025
1.34191
-0.464292
-0.0637677
0.273066
0.44326
0.184565
-0.627825
0.394914
0.0330654
0.660236
-0.572797
0.571655
0.00114186
1.48018
-0.971424
-0.0260796
0.0309122
-0.00483255
0.700208
-0.00943156
-0.0828853
0.0184488
0.825786
0.473641
0.196172
0.0485831
-0.152162
0.0101167
0.0244453
0.0558603
-0.0803057
0.0159262
-0.00580133
0.480763
-0.734749
0.0531783
0.212401
-0.0245105
-0.081627
0.233914
0.0942666
0.00390184
0.0546097
0.765073
0.164056
-0.358421
0.194365
-0.363032
-0.555151
0.918184
0.641198
0.119894
-0.0330144
0.000729162
0.0322852
-0.547255
0.329167
-1.1959
-0.00910997
0.760003
0.723344
0.346882
-0.0920562
-0.395593
0.80708
0.125485
0.0686981
-0.897373
0.122586
-0.272089
-0.667407
-0.167591
0.696276
0.0687971
0.014427
0.31675
-0.590729
-0.382068
0.16646
0.0158227
-0.109795
0.421257
-0.0589832
0.231537
-0.0654338
0.131512
0.40798
-0.771013
-0.14704
0.380836
-0.0327123
-0.108702
-0.00129909
0.000193822
0.00110527
-1.52634
0.554913
-0.00500594
0.930873
-0.224934
-0.623281
0.652886
-0.0296055
0.15437
0.758219
-0.17024
-0.61882
0.0836947
-0.182795
0.637426
0.120794
1.2603
0.765469
-0.271782
0.759993
0.610922
0.837774
-0.590203
0.351206
0.238997
-1.13254
-0.0712439
0.0397825
0.0696291
-0.0502905
1.20643
0.734126
0.0729536
0.632391
0.214093
-0.877038
-0.0825596
-0.68033
0.68029
-0.027579
-0.564907
0.414832
0.86147
0.670491
0.0478289
-0.00936121
-0.142875
-0.320287
0.895468
0.750465
0.436601
0.0153262
1.24476
-0.406985
0.970825
-0.0826368
-0.082134
0.625939
-0.7304
0.921313
-0.190913
-0.413487
-0.176716
-0.0318348
-0.165275
-0.0947239
0.851452
0.0196513
-0.00387646
0.626925
-0.482237
0.293857
0.611146
-0.131134
0.225518
0.75238
0.274059
-1.02644
0.27652
-0.923222
0.304561
-1.38336
-0.169004
0.755402
-0.586398
-0.675247
-0.0586066
0.0229735
-0.0566246
-1.70647
0.0103243
-0.0362641
0.0850856
-0.0473635
-0.146991
0.194355
-0.00744599
-0.571484
0.153582
0.0239269
-1.70599
-0.0126999
0.00430799
0.632773
-0.0554228
-0.600226
0.0274283
0.5667
0.29477
1.11665
0.774428
-0.234065
-0.38738
0.621445
0.674693
-0.619548
0.619548
-0.196956
-0.955835
1.15279
0.0318795
-0.158246
0.673766
-0.107066
-0.217512
-0.424261
-0.0462312
0.0655787
-0.0754018
-0.294388
0.18607
-0.102993
-0.959277
0.483546
0.0881093
0.0703848
0.00607254
-1.79806
-0.731419
-0.0305866
0.693057
0.306943
-0.731419
0.693057
-1.02822
-0.474987
-1.02822
-0.696472
0.696472
0.303528
-0.0135005
0.1556
-0.078978
0.255537
0.0647052
-0.496615
0.637845
-0.026699
0.647552
-0.504762
-0.14279
-0.049136
0.045776
0.00335995
-0.0156267
0.016273
0.274352
0.0176917
-0.0168866
-0.43563
-0.3665
0.137408
0.0397557
0.824923
-0.274671
-0.140967
0.336452
-0.0167706
-0.0633184
-0.00468058
0.68927
0.0707328
0.3739
-0.0246187
0.000454885
-0.00961077
0.0835388
0.55393
-0.478839
-0.0750916
2.20888
0.557153
0.524898
0.922126
0.0121037
-0.0666256
0.112213
0.28566
0.0768539
1.14802
-0.395643
-0.000619463
-0.0157462
0.663253
-0.142509
0.0191662
-0.0191662
0.023133
-0.023133
-0.0125239
0.0125239
-0.000269969
0.367008
0.462069
-0.0559633
-0.695977
0.468992
0.181003
0.0275275
-0.0860034
-0.482933
0.646994
0.113042
-0.798362
-0.447112
0.16971
0.0694079
0.0217488
-0.000348526
0.000865284
-0.000865284
0.106923
0.00125047
-0.00125047
0.701262
0.103184
-0.0192135
-0.00540514
0.00618304
-0.0637882
-0.0205733
0.0205733
-0.0102558
0.0102558
-0.0242367
0.0242367
0.00144331
-0.00144331
0.0706285
-0.300176
-0.0776756
0.218451
0.00172764
-0.00172764
-0.377214
0.501449
-0.124235
0.484597
-0.213768
-0.561003
0.420035
0.558295
-0.218323
0.0824587
0.570427
0.565942
0.00189293
-0.00189293
0.622634
0.0271553
-0.0271553
0.00196247
-0.00196247
0.771729
-0.632195
0.0390258
-0.0330769
-0.225717
-0.0012513
0.0012513
0.0115767
-0.0115767
0.0197027
-0.0197027
0.0210886
-0.0210886
-0.0254242
0.0254242
0.0375721
-0.0375721
0.494527
-0.0341298
0.0341298
0.000998943
-0.000998943
0.0259389
-0.0259389
-0.00786233
0.00786233
-0.0018282
0.0018282
-0.00274626
-0.0284088
0.0284088
-0.0574233
0.0106895
-0.0421681
0.0421681
0.00673278
-0.00673278
0.0124947
-0.0124947
0.0359011
-0.0359011
0.0238854
-0.0238854
-0.00144512
0.00144512
-0.00602334
0.00602334
-0.30873
0.198374
-0.00971369
0.00971369
0.000619297
-0.000619297
-0.0407382
0.0407382
-0.0261431
0.0261431
0.0042553
-0.0042553
-0.417211
0.69113
0.245445
-0.0342234
0.0342234
0.0004159
-0.011747
0.011747
0.000129099
-0.000129099
0.0348967
-0.0348967
-0.178183
0.246881
0.00685292
-0.00685292
-0.0205973
0.0205973
-0.483647
0.0419432
0.174809
-0.0292327
0.0292327
-0.437026
0.031299
0.0176997
0.173955
-1.58673
-0.0392064
0.0392064
-0.209136
0.150153
-0.0385499
-0.000406153
0.000406153
-0.0109615
0.0551051
0.264694
-0.321848
-0.267134
0.588982
0.181162
-0.00745502
0.00745502
-0.0966925
0.358721
-0.262029
0.753546
-0.38194
-0.371606
-0.476316
-0.657447
0.329475
0.00697693
0.249823
-0.659012
-0.574554
-0.0170248
0.189999
-1.10888
0.0185823
-0.0185823
-0.000764544
0.000764544
0.0329427
-0.0329427
0.0245454
-0.0245454
-0.00305631
0.00305631
-0.0010169
0.0010169
-0.218176
-0.0757712
0.164202
-0.286999
0.00352867
-0.00352867
-0.0422372
0.0422372
-0.0430109
0.0430109
0.168414
-0.0892676
-0.0791462
0.011594
0.302577
-0.527511
-0.00391005
0.00391005
-0.0113558
0.0113558
-0.101948
0.125711
0.203764
-0.0016309
0.0016309
0.0561428
0.0158493
0.939767
-0.488588
-0.0893242
0.577913
-0.621629
0.328828
-0.0741109
-0.0362085
0.0362085
-0.675868
0.268361
0.0529042
-0.0529042
-0.670669
0.39069
0.254318
0.117885
-0.00290048
0.00290048
-0.858307
-0.00208298
0.00208298
0.321408
0.409228
0.0511216
-0.0572299
0.0572299
-0.00215367
0.00215367
-0.0451774
0.0451774
-0.0506023
0.0506023
-0.00237564
0.00237564
-0.0559778
0.0559778
-0.00266813
0.00266813
-0.0486986
0.0486986
-0.0140738
-0.0424773
0.0424773
0.00406907
-0.00406907
0.0514051
-0.0514051
-0.00315244
0.00315244
0.0446422
-0.0446422
0.0826422
-0.00454351
0.00454351
-0.00581253
0.00581253
-0.0428932
0.0783622
-0.0120857
0.0120857
0.00478259
-0.00478259
-0.0635367
0.0635367
0.310163
-0.019876
0.019876
-0.0538516
0.0538516
-0.00711491
0.00711491
-0.0720257
0.0720257
-0.0127368
0.0127368
-0.0863199
0.0863199
-0.0232648
0.0232648
-0.08876
0.08876
-0.699577
0.253952
-0.539649
0.510043
-0.86491
-0.46382
-0.546888
0.379297
-0.0247328
-0.0840702
0.00360047
-0.00360047
0.112277
-0.703787
0.0483767
-0.0423042
-1.27941
1.67278
1.51587
0.244805
-0.00461659
0.0317388
-0.381771
-0.590537
-0.0255019
0.391578
-1.17273
-0.0254626
0.0254626
-0.737741
0.0166381
-0.0166381
-0.00530553
0.00530553
0.342781
-0.380846
-0.00254814
0.00254814
0.0177023
0.0135209
0.598466
0.135278
-0.0123962
-0.0136204
-0.00453191
-0.104853
0.506767
-0.401914
0.150151
-0.0950081
0.00504296
1.09915
0.0114837
0.0440085
-0.410312
0.453748
-0.499636
-0.977611
-0.211025
-0.0766243
0.0190176
-0.133117
-0.338826
0.00835865
-0.0068803
-0.0015053
0.794076
-0.539223
-0.0442877
0.0601105
-0.0388117
0.0764677
0.0791325
0.417449
0.244335
-0.160917
0.202851
0.0336696
-0.0106092
-1.35911
0.0116986
0.0819025
-0.228894
-0.0175087
-1.40734
-0.0725499
0.269587
-0.35406
0.405029
0.0735762
-1.01779
0.0454364
-0.045303
-0.0268021
-0.353555
0.458948
-0.0235098
-0.0229087
0.0464185
-0.0293515
0.0293515
0.167177
-0.45515
0.0121677
0.0571077
-0.0860552
0.0584762
-0.060288
-0.00471287
0.0650009
-0.0383832
-0.160092
0.0162522
-0.0936778
-0.283759
-0.34508
0.628839
0.01678
0.0638012
0.149652
-0.0365252
-0.0517986
0.072152
-0.163435
0.321306
-0.000642576
0.028801
-0.019352
0.169003
0.00403297
0.269092
0.00484971
-0.00484971
0.136707
0.834119
0.0959291
-0.178489
-0.0149102
-0.00411931
-0.023718
0.641499
0.00997144
-0.0103162
-0.535502
-0.00414705
-0.0221694
0.0996883
-0.700853
0.30784
-0.0545931
0.369385
-0.653145
0.212945
0.498457
-0.0969043
0.0969043
-0.000448095
-0.0548509
0.140419
-0.085568
-0.22068
0.164055
0.336594
-0.225604
-0.375416
-0.0879768
-0.0245022
0.0284626
0.929309
0.15576
-0.107932
-0.0705271
0.0334543
-0.807111
-0.0391943
-0.257322
0.777948
0.562593
-0.260015
-0.265023
0.53925
-0.0907721
0.268492
-0.265504
0.0431384
-0.458656
0.334421
0.116288
-0.116288
0.0688128
-0.0382671
-0.0305458
0.000595316
0.00377843
0.0132781
-0.625683
0.0784273
0.218361
-0.185578
-0.0327823
0.532368
-1.09097
-0.0297692
-0.821923
0.686348
-0.111226
-0.175773
-0.0298486
-0.0797455
-0.49514
0.0595106
-0.297562
0.000192842
-0.0175087
0.395214
-0.00527583
-2.9248e-05
0.000284329
0.0185804
-0.00935462
-0.00922583
-0.0999493
-0.0201988
-0.175712
0.195911
-0.116298
-0.342358
0.0177023
0.349252
0.0007769
-0.386124
0.090475
0.00291856
0.0414326
-0.0973959
-0.0129084
0.0129084
-0.00143108
0.00132088
-0.00875369
0.000234829
-0.0378189
0.000515258
-0.00118742
0.208207
-0.115034
-0.00206227
0.00206227
0.0335277
0.503692
0.000542084
-0.281146
0.593419
1.18453
-0.469853
0.323478
-0.440125
-0.105087
0.117255
0.217618
-0.219929
-0.00138438
-0.00201371
0.000700414
-0.000849694
-0.176273
-0.3678
0.836792
0.327267
-0.545443
0.19418
-0.00167103
0.0664204
0.0393411
0.000170347
-0.000252612
-0.0017611
-0.788737
0.0014299
-0.000491296
0.730914
-0.658762
-0.248716
0.194318
0.929476
-0.0004902
0.000829584
-0.0385499
-0.00534728
0.817652
-0.43251
0.520619
-1.16953
0.906204
-1.28221
0.561466
-0.182168
0.713956
0.000407311
0.00338888
0.0183599
-0.112368
0.137564
-0.187465
0.00882074
0.00219918
0.0692752
-0.055854
-0.0134212
0.000602096
0.0144355
0.00964941
-0.0240849
-0.101401
0.00657909
-9.13976e-05
0.0020068
0.496003
-0.436657
-0.00113884
0.000345251
-0.10783
0.248249
0.37495
-0.00626366
-0.000358393
0.0705973
-0.017419
-0.0472256
-0.102605
-0.0128009
-0.00380452
0.130921
0.0263439
-0.00252813
0.400548
0.000717807
0.00119251
-0.00119251
-0.00588758
-0.00773281
0.000472351
-0.321605
-0.0039273
0.0763094
-0.107742
0.213024
0.438899
-0.0651982
0.000381382
0.00126902
0.452566
0.000155829
-0.000497118
-0.0313377
-0.00216652
0.000594408
0.00810441
0.0765638
-0.70991
0.465565
-0.833364
-0.213114
-0.000522757
0.129447
0.00423539
-0.000792608
0.57947
-0.0143937
0.0789879
-0.00432567
-0.00149913
-0.555075
-0.00352118
-0.000292486
-0.00402128
0.905857
-0.510943
-0.00270651
-0.000484314
-0.00630685
-0.00139107
0.0791106
-0.0208511
0.0208511
-0.0228088
0.0241297
-0.00233232
-0.00848901
0.0238554
-0.0238846
-0.172159
0.100915
-0.00562193
-0.0142942
0.0375803
-0.0181481
0.0664018
-0.0473842
-0.625071