/*--------------------------------*- C++ -*----------------------------------*\
| =========                 |                                                 |
| \\      /  F ield         | OpenFOAM: The Open Source CFD Toolbox           |
|  \\    /   O peration     | Version:  2306                                  |
|   \\  /    A nd           | Website:  www.openfoam.com                      |
|    \\/     M anipulation  |                                                 |
\*---------------------------------------------------------------------------*/
FoamFile
{
    version     2.0;
    format      ascii;
    arch        "LSB;label=32;scalar=64";
    class       volScalarField;
    location    "4";
    object      p;
}
// * * * * * * * * * * * * * * * * * * * * * * * * * * * * * * * * * * * * * //

dimensions      [0 2 -2 0 0 0 0];

internalField   nonuniform List<scalar> 
2186
(
0.769868
-0.395846
-0.0683411
1.03888
-1.11942
0.00658889
0.653845
-1.46096
-1.39941
1.2803
0.997954
-0.9108
-1.29655
1.01288
-0.608973
1.00981
1.02741
-0.713882
0.00417976
-1.28561
1.37462
-0.957174
1.00857
-1.05796
0.996901
1.01539
1.20481
0.872562
0.527309
1.01488
-1.13544
0.992744
-1.72929
-0.0598356
-1.40395
0.0233522
-0.0723065
1.3627
-0.834771
0.0098689
-1.31227
-1.00294
-0.764847
-1.07243
0.858235
1.26467
0.322338
0.494562
0.00893277
-1.69171
-1.15027
0.833985
-0.715718
1.29291
-1.6257
0.9209
-0.836501
0.947141
-0.788848
0.816426
-0.0194902
0.578255
0.488037
0.0187951
0.519128
0.434172
0.604847
1.26503
1.16122
-1.00246
-1.53277
-0.0149571
1.23716
0.974566
1.14604
1.12094
-0.0219098
1.01735
-1.4572
-1.21798
-0.732458
0.0199217
0.993627
0.562683
1.00848
1.00349
1.26717
0.00464915
0.0334493
-1.16758
0.924455
-1.82593
0.939872
1.14209
1.00326
0.351328
-0.198335
0.515918
-1.33993
0.960927
-0.111718
-0.247961
0.593688
0.94546
1.02814
-2.18479
1.18017
-0.438849
0.90922
0.117427
-1.06477
-1.77875
0.520662
1.29059
-1.5541
-0.836676
0.0219043
0.0325554
-1.17588
1.23996
-0.127394
-1.87352
0.792223
-0.41476
1.008
0.0164344
-1.37785
1.11422
-0.597558
0.635135
1.35099
1.20395
0.209853
0.626629
-0.433959
-2.05188
0.893376
-0.676915
-0.304909
-1.57567
0.731465
-0.244464
-1.44476
0.677497
0.918129
0.954322
-0.507124
-1.08393
0.586792
-1.26329
-1.7103
0.557782
1.01778
1.15174
1.01832
0.502137
1.26238
0.387836
0.278495
0.400633
-1.54963
-1.32076
0.967061
0.964699
0.00282627
0.0116379
-0.850067
-0.940094
0.0319364
0.0231561
0.289869
0.967565
1.026
1.08004
0.351226
-0.234062
-0.963952
0.972466
-0.228366
0.808199
-0.967144
1.0068
-1.40578
0.478564
0.451215
-0.917332
-0.708559
1.09732
-0.344188
-1.10262
-0.645121
1.23443
-0.166944
0.961594
-1.44755
0.0991546
-0.0222846
1.15103
1.02869
-1.00135
-2.3237
0.0866409
0.0503724
1.0225
-1.06989
-1.37446
-1.08873
0.036845
0.944638
-0.12067
0.501286
0.0362404
1.27676
0.763695
0.8651
0.926262
1.1504
1.01541
0.872889
1.06311
0.364045
-0.787342
-1.91078
0.0151913
0.162425
-0.876489
-1.30204
0.995522
1.11444
-1.51772
-0.897518
0.10695
0.348232
0.62865
0.77398
0.873909
1.08904
-0.10633
0.862417
-1.59573
-1.54564
-0.807111
0.953489
0.660597
1.11717
1.16082
1.07433
1.05215
-1.71313
0.802723
1.08476
-1.58704
0.93859
0.709573
0.109467
-2.00053
-2.29188
1.11916
1.01705
-1.20124
-0.249526
0.0437268
0.929091
-0.397677
0.688835
1.03163
0.907214
-2.48913
-1.35844
0.966643
0.591169
-0.296904
-0.303698
1.31931
-1.40485
-1.5942
0.892322
1.15488
1.00113
-1.17633
-0.134885
-0.732833
0.881116
-1.46551
0.525504
0.973893
1.00731
-0.222416
-0.277726
0.954795
-2.68467
0.90806
1.16364
1.0159
1.02266
0.0546259
-2.31266
-1.18889
-0.0434481
0.0511692
-0.073444
0.355154
-0.586439
0.534824
1.14014
1.17716
0.877799
-0.628839
1.11964
-2.43021
0.0154501
-1.58268
-1.5651
-0.99028
0.331496
-1.75658
-1.56302
0.0663876
0.895721
0.0328484
0.296736
-2.00338
0.0320548
-0.919725
-1.61105
1.20082
-0.122161
0.030604
-1.80454
0.768377
0.494904
-0.29267
0.551831
0.0820316
-1.08411
0.588573
1.02773
1.03589
0.0976406
1.13539
0.865851
0.304508
1.21516
0.995607
0.964305
0.355968
0.0104722
-1.54587
0.819829
-1.17063
-2.16953
-2.0331
-0.741126
-1.14072
1.34371
0.0449382
-1.21594
-1.76517
0.994147
-0.923638
0.0439207
-2.46749
0.740616
0.008351
-0.662032
1.23029
1.29333
1.09793
-1.42799
0.032412
1.35952
1.00693
-0.614862
0.379568
-1.62218
0.14365
1.15267
0.944593
0.885848
1.27833
-0.549296
0.00319976
0.0271301
-0.0419222
-0.948842
-0.897943
0.0137157
1.28724
-1.06671
-0.77541
0.996963
0.565096
-2.05538
-0.0340776
-1.56168
-1.35289
-1.23564
-1.47516
-2.33961
-1.31254
1.17527
0.0250338
-0.814718
1.01134
-1.75005
1.23321
-0.270277
0.13725
-2.54358
0.993727
-1.25167
1.01185
0.826641
0.0592786
1.02671
-1.91154
-1.31353
-2.20351
0.987435
0.959288
-2.39364
-1.7212
-1.42376
0.942967
-1.07266
-0.107411
0.431651
0.921449
0.908839
0.725246
-2.35021
-0.169346
0.803826
-0.190245
0.827657
0.105797
1.02466
-0.123909
1.10752
-1.18265
0.831312
0.665544
1.02868
-2.62651
0.998798
-0.0215328
-1.30426
0.993772
0.116241
0.119132
-0.763949
-0.125204
0.997186
0.130233
0.278174
0.997543
0.15958
-0.0702779
0.0161756
-1.20812
0.244418
-1.21528
0.658134
-0.971424
1.0346
1.10576
-1.84443
-1.43226
0.0163921
-1.01053
0.377135
-0.868889
0.776923
-0.00488656
-1.23881
1.07214
0.0240257
0.288953
0.272407
0.00641633
0.73654
0.259447
0.0070575
0.080559
0.0292944
-0.968877
1.02335
0.0948977
1.09587
1.20159
1.18986
0.596711
1.13793
-1.27468
-1.7288
0.878527
0.19656
0.994528
-0.813027
-1.10584
-0.104729
0.756387
-1.33324
0.0914437
-1.08121
-1.12721
0.00575109
-0.25796
0.687876
0.681991
-0.249099
-0.236468
0.731416
0.0429277
1.10539
0.0695714
-0.266085
-1.3694
0.697596
0.0232129
1.144
1.37493
0.00064121
-1.32344
-0.888058
0.230987
-0.201844
1.01248
-0.229096
0.970265
0.724892
-1.12581
0.84191
0.808016
0.1359
0.890693
-0.0709308
-1.54387
-0.0785781
-1.06963
-0.0995877
-0.246353
-0.260754
1.00885
0.136643
-1.51139
0.572835
1.13261
1.1876
-0.363246
0.71505
0.0317879
0.758672
0.0200372
-0.076654
-1.65015
0.43516
0.763618
1.02995
-0.0360957
-2.40313
-0.997381
-1.12244
-0.157416
0.712092
-0.0998585
0.0145871
-0.791398
0.900727
0.0857583
0.951633
-0.0172857
-0.0196353
0.967255
0.661884
-0.0464286
-0.293666
0.964637
1.26642
1.02822
0.0744295
-1.17064
0.779789
-0.00706239
0.765969
-0.655856
0.378222
0.957316
-1.01905
-1.23106
0.986076
-2.44037
1.21475
0.0171815
0.856651
0.0239976
0.604977
-1.51266
1.21887
-1.41
-0.191308
0.917732
0.463098
0.433038
-1.20092
-1.08916
-0.211382
0.762826
0.0198063
-0.214552
0.0718193
1.01561
0.32171
-1.43866
0.710923
0.850352
0.980407
0.0101681
-0.92316
-1.93112
1.01283
1.14633
0.473942
1.0021
0.0375569
1.04214
0.0234378
-0.483123
0.00527949
0.945527
0.986205
-0.426185
0.798246
-1.38196
0.771282
-0.952771
0.96182
0.940442
1.02342
0.0831099
0.881619
-0.369887
-0.390638
1.15593
0.0699462
0.0708651
1.09085
-0.637874
1.07352
0.0641156
-1.48634
1.00839
0.763336
1.33374
1.0029
-0.708907
1.05861
1.05778
0.0340929
0.569127
0.0381473
-2.23436
1.46824
-1.65657
1.10518
-1.6548
0.292474
0.997988
-0.946783
0.982408
-0.0325065
0.880359
0.972601
1.01768
0.0160483
-1.01552
-0.688204
0.62472
0.686309
1.05162
0.0172676
0.777883
0.0712151
-0.272049
-0.135911
0.813927
1.12082
-1.30713
-2.7076
0.0258567
1.21678
0.0303482
0.679252
0.0291309
-0.010761
-1.55393
-0.969734
0.0564807
0.7774
0.121465
0.0304813
-0.424294
-0.524219
-1.10719
-1.96143
0.0181326
0.971763
1.0185
-1.06173
-0.244558
0.991797
0.934501
1.01942
-0.119191
0.9849
1.04597
0.996329
1.03596
0.0983743
0.0201958
-1.26099
0.558935
1.00113
0.690941
0.127422
0.0167246
0.105099
0.0203808
1.23461
0.0200454
0.0242913
-0.652008
0.0206867
-1.36076
0.745082
-1.66879
-1.758
-1.37606
1.0021
1.00422
1.00357
0.013219
0.290673
1.20982
0.0093582
1.00437
0.0240879
0.0116535
0.713513
1.00939
1.06111
0.0136774
0.975532
0.978645
-0.15424
0.0211317
1.01147
1.02898
1.00683
-1.44454
-1.15639
1.01534
0.591211
1.00026
0.123797
-0.235716
0.0264887
0.0380169
0.0160833
-2.30954
-0.154526
0.0332239
1.02162
1.02735
0.722967
-1.12611
1.00193
0.02564
0.000779821
0.00407933
1.00242
1.01855
1.01537
1.03156
1.00628
1.0092
0.996054
0.0191986
0.0270472
0.019798
0.0113506
0.00579164
-0.00176243
-0.00260797
0.0107636
0.0176626
0.020835
0.0221724
1.00595
1.01802
1.0021
1.02751
1.02841
1.01247
1.01824
1.00134
1.00593
0.00417909
0.0147883
1.0172
1.01846
-0.000240705
1.01075
1.01633
0.0194108
0.0169125
0.0181364
-0.955069
0.100429
0.999769
-1.52488
1.01638
0.640979
1.05864
-1.54614
0.99823
0.955062
0.963071
-1.26737
0.037671
-1.06849
0.0172384
-0.121996
-1.10503
1.0121
0.0263067
1.08239
0.997341
-0.284654
1.15554
1.30943
0.0220772
0.863259
0.648745
1.00061
1.01646
1.00131
-1.78265
0.421379
0.0168444
0.997692
1.01321
-0.867228
0.0161268
0.998119
0.0132792
-0.428014
1.00328
-0.145342
0.984591
1.02538
-0.560293
1.01188
0.0227509
1.02181
1.06394
0.128369
1.01539
1.03182
0.0164079
0.653763
1.00104
1.01018
0.0637791
-0.938469
0.703154
1.325
1.01842
1.00168
1.01559
0.0168745
0.999774
1.00514
1.01497
1.00895
1.01353
1.00654
1.09622
0.0408186
-0.00604968
0.994131
1.00373
0.232665
-0.111122
0.0158551
0.0507021
0.889748
-0.284462
0.0618214
0.0098608
1.00888
0.710396
0.012253
0.0276094
0.0240278
0.0278167
-2.52067
0.0186895
0.0698753
-1.49495
-0.461965
1.00604
0.012992
0.995381
0.931793
-1.72463
1.22833
0.0391716
-2.28851
0.76924
1.11382
0.390592
-1.24973
1.00365
0.0275767
1.00689
-0.367449
1.00479
-2.06396
1.00796
0.0277229
0.00504296
1.00235
1.02483
0.934573
0.0275173
-1.1567
-0.975271
0.0249069
1.0278
0.920812
0.0268412
1.00124
1.03799
0.999232
0.0332872
0.105174
-0.694942
0.12154
0.351705
1.00557
0.00837992
1.00529
0.031933
1.00107
1.02715
1.00769
0.000289546
0.00226342
1.03896
-1.87083
1.01365
1.01899
0.0122012
-1.36143
0.9129
1.11985
1.0051
0.998699
0.0280928
0.0450389
0.974675
0.399026
1.00203
0.830266
-0.85903
-1.49638
0.841513
1.2322
1.00256
0.330594
0.0537312
0.0298077
0.0935636
0.0625322
0.988458
-0.0584987
0.99513
-0.299481
-1.48494
-1.27176
0.424641
-2.6342
0.0480785
0.0549633
1.00241
-1.25591
0.882983
-1.5583
-0.213041
0.0367696
0.011864
0.0556145
0.974136
0.0264763
-1.21205
0.0462828
-0.689384
0.991519
0.0680672
0.0165259
0.0446347
1.06598
0.0400641
-1.61529
1.06569
0.993907
0.984709
0.504852
-0.983316
1.00803
1.02535
0.0477964
-1.5431
1.00358
0.781795
1.23626
1.02683
0.0243555
0.0684238
-1.84636
-0.668391
-0.76266
-1.34965
0.0255335
-2.51219
0.786208
-0.0530492
1.01784
1.19447
0.99812
-1.13324
-2.41371
1.00231
0.0702209
0.0531883
0.989171
-0.147012
-0.820842
0.0935714
0.033801
0.949988
0.93341
0.0468772
0.857218
0.647867
0.0899123
0.995366
-1.04481
0.801646
-2.11357
0.97892
0.0858371
0.415974
0.999605
1.0778
0.0215637
-0.0312597
0.829389
1.35623
1.01869
0.999104
0.0790603
1.22039
-1.8824
0.0459355
-0.849848
0.458828
0.0498347
1.10385
1.14098
-1.5542
0.0341967
1.00027
-0.375291
0.840358
1.02768
0.963957
-0.0273132
1.002
0.00858747
1.02989
0.00348307
0.046033
-0.232948
1.00788
0.00410015
-0.522658
0.0491196
1.00124
0.0495853
1.17517
0.247314
1.31244
0.966834
-0.534181
0.992255
-1.67103
0.976967
0.977403
0.0381991
0.0529865
1.10947
0.995904
1.21188
0.965598
0.0706231
0.963731
1.00077
0.851395
1.01223
-2.48834
-1.10358
0.0806298
1.09478
-0.00136064
0.0551616
-1.50577
0.0227687
0.0439386
0.0213224
0.842952
0.0452533
0.966395
1.01533
-1.56223
-0.977387
-0.435306
-0.347771
-1.03653
-1.5119
1.00249
0.0793253
1.01719
1.21577
1.05174
-0.225762
1.01647
0.946849
-0.0706212
0.964972
0.982711
-0.793256
0.993481
0.923019
0.00725393
-0.227465
1.43725
0.068194
-0.450477
-1.37962
0.219441
0.989065
-0.454754
0.035591
-1.11235
1.12379
0.0614937
0.832562
1.01543
0.997631
-0.181052
0.981757
0.0751513
1.00788
1.03975
-0.587831
1.01333
0.463118
0.999298
0.694424
0.0620834
-9.41103e-05
0.00431346
0.0232709
1.22542
0.0101042
1.02784
1.38073
0.0184608
0.000277383
1.05844
0.0015342
1.0583
-0.00204308
0.00607575
1.0595
1.06527
0.413268
-1.36286
0.739815
-1.40039
-2.15074
-0.796892
1.02453
0.99726
1.39841
-1.22276
0.0613359
0.730809
-0.955955
1.06736
0.975165
0.995688
0.996387
0.968878
0.0997467
-1.4464
-0.971977
0.805921
0.929427
0.0914907
-1.54216
-1.82822
1.0141
1.03748
-0.019707
0.0118688
1.03697
0.0634544
0.230206
0.748662
0.905698
0.0217188
-1.2397
-0.232631
-0.964505
-0.799962
-0.0178316
0.0698044
1.34795
1.35752
-0.913082
-0.861949
1.02378
0.995805
-0.869764
-0.0580918
-0.416924
0.630306
1.09063
-0.765527
1.007
0.0509352
-1.41147
-0.595127
-0.495951
-1.18829
0.987358
-0.945393
-0.441516
1.35099
-1.02879
1.00809
1.215
-1.53849
1.02702
1.22889
-1.16566
1.23815
-1.12174
-1.65629
1.00727
0.0360821
0.998104
1.01334
-1.20633
1.05947
0.14685
0.121975
1.03695
1.01548
-1.03433
-0.736083
0.946495
1.00807
-1.43517
0.0835145
1.27824
-1.28957
0.914176
0.0214566
0.950185
-1.26241
0.120951
-1.54848
-1.07954
1.08507
1.03754
1.26597
1.20142
0.966152
1.05788
1.0556
-1.54387
1.12708
1.12371
-1.39033
-1.37441
-0.759907
1.31877
0.0641872
-1.80787
0.0303463
0.924043
-1.3304
-0.831504
1.01097
1.00488
-1.52909
-1.50056
-1.74625
0.0133873
0.0800386
-1.24386
-1.52274
0.875155
0.882967
-1.46467
-0.446162
-0.989161
0.823881
-1.31229
-0.996602
-1.48885
0.932827
-0.706234
-1.48079
1.30563
0.889953
0.421219
1.17652
0.0357612
0.96677
1.01692
1.11533
1.18864
0.0330281
0.659064
0.998245
0.252248
-1.44378
1.41075
0.977377
0.905445
1.05896
-1.44449
-0.322549
0.865301
0.791956
0.982524
0.0375474
0.12302
0.995781
-1.83426
0.817227
0.0320738
1.40791
-1.39309
0.715632
0.733021
-1.33281
-1.34455
-1.1956
1.0503
-1.38186
-1.34535
0.695466
0.594223
-0.508966
1.06477
0.831186
-1.42464
-0.732592
0.954611
0.0659784
-1.29335
-2.11159
-1.06709
-0.385492
0.975536
1.01121
0.134301
0.615426
1.0113
1.33166
0.276537
0.259203
-0.0172413
0.87589
-0.496029
-1.28117
0.0502366
-0.65743
-1.2451
0.998062
-1.60473
0.145341
-1.25377
0.524583
0.566276
-1.19542
0.632036
0.0235918
0.492981
-1.15739
0.447997
-1.28664
0.385637
-1.19058
0.362129
-1.12519
0.812112
-0.404819
-1.09775
-1.0797
-1.54398
1.01707
0.0714789
-1.10119
-1.11748
0.00548599
0.15459
-1.54953
-1.75462
-1.15351
-0.148374
-1.1245
-0.168033
-1.1704
-0.393105
-1.25057
-0.336472
0.897271
-0.000150295
-0.0397517
0.982524
-0.0261751
0.0192647
0.44506
0.993017
-0.636999
0.134697
-1.13306
-0.18159
0.899287
1.40751
-0.0045712
0.0356613
0.02671
-0.979263
-0.29639
-0.375029
0.969175
-0.81485
0.968209
-0.163656
1.4741
0.478315
1.3966
-1.50316
1.17097
-0.529201
1.00481
-0.380322
-1.16157
1.05883
1.00465
-0.0358584
-1.26212
-1.0484
0.962669
-2.33773
0.989191
-0.431627
-2.1933
-1.56975
1.29405
1.03371
1.09532
1.01214
1.02516
0.0361857
-0.392479
1.19996
-0.0405325
-0.838696
1.40726
-1.85444
0.914714
0.952953
1.35755
1.40677
-2.15796
-1.18413
1.03372
0.226963
-0.518518
-0.960744
0.0391832
0.128673
-1.55842
0.577418
-0.319829
1.18169
-0.0999948
1.03447
1.12391
1.02931
-0.454966
-2.01723
-0.799516
1.08631
-0.776449
1.16857
-0.725238
-0.634863
1.2318
1.28396
-1.05127
0.0536158
0.965838
-0.595306
-0.679175
0.656237
1.26773
1.21072
-1.3665
0.88302
0.832341
-1.18704
1.22185
0.260832
-1.4883
0.0317352
0.0153888
0.0146186
1.10507
-0.750779
0.232203
0.0261787
0.0280841
-0.711518
-1.65916
0.993011
-0.131958
1.01301
-0.167317
0.0755715
0.698291
0.265614
-1.15078
-0.745303
-1.35674
0.0194753
0.0123673
-0.366514
0.921542
-0.198601
-0.168645
1.00184
-0.929676
-1.42576
1.01435
-2.18739
0.959015
0.0110752
-1.9819
-0.331621
0.780404
-1.29208
-0.621158
0.880716
-2.0161
1.07579
-0.666716
-0.715633
-0.902401
-1.2016
1.46338
0.107847
1.11455
0.0159817
0.961405
1.17589
0.708709
1.02459
1.15246
-0.116239
0.013222
0.988039
1.08231
1.34043
-0.983486
1.04361
0.656089
-1.07456
0.778302
1.18832
-0.690655
1.33832
0.104866
-0.869628
0.824569
-1.16219
-1.09571
0.955855
-0.575002
1.05936
1.03882
0.955916
-0.953243
0.891268
1.25786
-0.92408
-0.40162
0.114475
-1.44029
-0.758476
-1.29672
1.32823
0.74076
-1.12133
0.897776
-1.25019
-0.750328
1.24836
1.2207
-0.299506
-0.439657
-1.22269
-1.9843
0.978658
-1.20674
0.0852574
-1.54736
-0.514676
1.06473
-1.41007
1.38313
1.04785
0.868278
1.02031
1.29846
-0.612703
-1.33578
1.01279
1.13034
-0.71489
1.00756
0.134868
-1.54935
-1.49344
1.07521
1.10595
-1.54252
-1.21128
0.540927
-0.065128
-1.22318
0.986441
0.947455
-0.296655
0.989521
1.03405
-1.79193
-1.35993
-1.03671
-1.53974
-1.51846
1.29037
0.0327815
0.898756
-1.28957
1.28572
0.888678
0.84737
0.932577
0.121366
0.00511334
-1.50929
0.504554
-1.49561
0.905984
0.281464
-0.688836
0.854794
0.988196
1.03688
1.0085
0.00108069
1.04364
-0.00191636
0.412932
0.801645
-0.594698
-1.42077
-1.18916
-0.74704
1.01438
0.952742
1.01119
-0.626067
-0.924461
-1.47098
-0.926941
1.01761
1.27874
1.02311
-1.46636
-0.738995
-0.515945
-0.640362
-1.22248
-1.21098
-0.284966
0.99984
-0.787656
-1.44782
0.0128678
-0.115786
0.691776
0.124014
-1.42987
-2.18167
0.92691
1.41258
0.0146172
1.09664
1.47108
0.628222
1.19357
-1.39558
0.0227942
1.37208
-1.38348
0.306582
-1.50518
-1.51247
-1.0569
-1.36316
0.975868
0.723224
1.1853
1.14637
0.00388977
0.769102
-0.0114612
0.0188095
-1.31959
1.10753
0.693911
1.0128
1.03329
0.0106805
0.0122526
1.03175
-0.152232
-1.17325
-1.40649
-1.09333
0.587981
-1.31244
0.967775
0.660714
-1.38586
1.20901
-1.50424
-0.431318
1.00014
-0.726279
-0.808467
-0.160118
0.561551
-1.48048
-2.11017
0.894633
1.02458
0.0314009
0.0600018
-0.0193892
-1.279
0.0474231
-1.41621
-0.189681
0.593418
-0.655482
-1.27887
1.25557
0.207932
0.313925
-1.22058
-1.48337
1.00879
1.0268
0.488253
0.528112
-1.17726
-0.922829
-0.981306
0.408565
0.435495
-1.14393
0.844188
0.0842305
-1.10956
1.4345
-1.08648
-0.349118
-1.51459
-1.00536
0.831302
-1.08023
-1.13467
-1.11141
-0.0198622
-1.12151
-0.070442
-0.884847
0.00582996
1.16427
-1.19714
-0.218135
-1.14816
-0.265026
1.333
1.37159
1.22191
1.01659
1.19857
-0.875472
1.00788
-1.43083
1.02483
-1.1219
-1.79523
1.23995
-0.571946
0.495282
-0.933722
1.37883
-0.0682888
1.31715
0.560042
0.76677
-1.49921
-1.50538
-1.17926
-2.15198
1.29771
1.18079
1.00387
0.638941
1.00349
0.855035
0.784153
-1.04973
-2.07473
0.192651
0.0159298
0.757475
1.02055
-0.0566336
-1.68975
-1.06273
-1.30311
-1.14707
-0.0109076
1.31895
1.02465
0.99709
0.00520287
0.011759
1.03362
0.025386
-1.25351
0.0681744
-1.06243
0.745298
-1.43652
-1.1944
-0.342467
1.00184
-0.665754
-1.54106
1.00578
0.601223
0.719319
1.00254
-1.2423
0.841607
1.17385
0.826767
-1.20316
0.993829
0.344856
0.408146
-0.709399
-1.34395
1.43032
0.237993
-0.891804
0.0449266
0.881564
0.957822
-0.887956
-0.532865
0.0156318
-2.07514
-1.03485
-1.10723
0.0204407
0.998455
-1.1358
0.982915
1.26009
1.0712
0.977774
1.06707
1.12909
1.00353
-0.407829
-0.759041
-0.537803
-1.20409
-1.341
-1.16028
1.13261
1.03121
-1.26098
0.965539
-0.753401
0.0396174
-1.1087
0.0366484
0.545379
-1.86897
0.988344
0.876543
-1.56366
-0.470558
1.32155
-0.839964
0.0526747
-2.06464
-1.06798
-1.03049
1.03837
0.739313
1.08228
-0.827915
0.00824731
-1.04714
-0.456391
-1.22129
-0.178681
-0.523909
-0.162447
0.883952
-1.0941
1.42783
-1.35138
-0.607562
-1.12932
-1.13105
0.931913
-1.08397
-0.76765
-1.90644
-0.272467
1.18071
1.203
0.0729578
0.021286
0.79193
-1.13589
-1.47408
1.09227
-0.828313
-0.0366156
-1.65243
0.716842
-0.451558
-1.16917
0.99704
0.00113228
-1.56596
1.0053
-0.749519
-0.232499
-1.04657
-1.16828
-0.0635023
-1.16446
1.30355
-1.40472
0.171377
-1.12818
0.758301
-1.6696
-0.735103
0.602811
0.753271
1.05483
0.974138
1.16152
-1.07815
0.863271
0.562967
-0.662819
0.922875
-0.493375
-2.002
-0.358007
1.1629
1.15012
-1.43341
-0.733458
-0.677388
0.9904
-0.77533
0.0921823
-1.45535
-1.20148
1.26688
0.991033
-1.50957
-0.961131
-1.65758
-1.48064
0.905174
-1.46073
0.955541
0.176237
0.664377
0.803241
-0.999904
-0.732555
0.915299
-1.15915
0.0112605
1.26552
-1.51049
-1.48541
0.782194
-0.793822
-1.04983
-0.190419
-0.881026
1.33748
-0.706418
0.167202
-1.517
1.27961
-1.47862
-0.922499
0.597249
-1.43554
-1.14564
1.31798
0.628202
0.989024
-1.0959
1.21818
0.0283631
-1.05534
-1.17908
-1.16997
-1.45986
1.25087
0.526883
-1.57059
-1.50407
-1.08658
1.10758
-0.804308
1.25632
-1.15271
0.696678
-1.40031
0.315368
0.488516
0.453089
0.369384
0.173411
-0.850835
0.986821
-1.21538
-0.852096
-1.67109
0.278528
1.2964
-0.294229
-1.01782
-1.52504
-1.42776
0.204555
-1.32353
-1.37448
0.831392
0.197635
-1.49874
1.36102
-1.12953
-0.146739
1.34083
-1.4612
0.0855148
-0.786784
-1.13852
-1.32702
1.33591
-1.03346
1.26114
-1.29663
-0.755578
1.15534
-0.177371
-0.863695
0.517022
-0.917612
-0.057384
-0.456773
-1.39256
0.791266
-2.51351
-1.43086
-1.16078
-1.128
-1.11458
0.832875
-0.243394
-0.366488
-1.50892
1.28841
-0.951974
-1.01023
-1.01863
-0.197998
-1.23346
-0.991431
-1.49986
-0.0868382
1.23307
-1.48214
-1.09996
-1.17204
-0.923351
-0.329744
-1.12471
1.37155
1.30889
0.360973
-0.711138
-1.1214
0.271988
-1.10807
1.38407
0.14626
1.05259
0.656168
1.26144
0.0230226
-1.2348
-0.692095
-0.142385
-1.20455
-0.141786
-0.134706
-1.32254
1.28536
-0.212875
0.158509
-0.314053
-1.02302
-0.710142
)
;

boundaryField
{
    frontback
    {
        type            empty;
    }
    Top
    {
        type            zeroGradient;
    }
    outlet
    {
        type            fixedValue;
        value           uniform 0;
    }
    bottom
    {
        type            zeroGradient;
    }
    Inlet
    {
        type            zeroGradient;
    }
    rectangle
    {
        type            zeroGradient;
    }
}


// ************************************************************************* //
