/*--------------------------------*- C++ -*----------------------------------*\
| =========                 |                                                 |
| \\      /  F ield         | OpenFOAM: The Open Source CFD Toolbox           |
|  \\    /   O peration     | Version:  2306                                  |
|   \\  /    A nd           | Website:  www.openfoam.com                      |
|    \\/     M anipulation  |                                                 |
\*---------------------------------------------------------------------------*/
FoamFile
{
    version     2.0;
    format      ascii;
    arch        "LSB;label=32;scalar=64";
    class       surfaceScalarField;
    location    "4";
    object      phi;
}
// * * * * * * * * * * * * * * * * * * * * * * * * * * * * * * * * * * * * * //

dimensions      [0 3 -1 0 0 0 0];

oriented        oriented;

internalField   nonuniform List<scalar> 
3181
(
-0.989828
0.383916
0.605913
-0.397296
0.367351
0.0299457
0.520754
-0.361246
-0.159508
0.11894
-0.195743
0.0768036
-0.135388
0.125173
0.0102153
0.704897
0.472811
-1.17771
0.145957
-0.139972
-0.00598413
0.0919805
0.0381265
-0.130107
0.410102
-1.01043
0.600326
-0.0718787
0.133056
-0.0611769
-0.0104082
-0.0520951
0.0625033
0.159809
0.0316681
-0.191477
-0.0823229
-0.0592033
0.141526
-1.0185
0.122676
0.895823
-0.318759
0.712263
-0.393504
-1.11128
0.647449
0.463828
0.0762199
-0.936015
0.859795
-0.0750718
-0.0563275
0.131399
-0.625892
-0.394404
0.00101508
0.211028
-0.212043
0.0372662
-0.0860351
0.048769
-2.07151e-05
0.0239051
-0.0238844
0.994778
-0.952861
-0.0419177
0.0528883
0.0521489
-0.105037
-0.965504
0.337079
0.628426
-0.103964
0.222903
0.308022
-0.25272
-0.0553016
0.0283991
0.0606296
-0.0890288
-0.407408
0.335033
0.072375
-0.0237207
-0.0968036
0.125678
-0.0288748
-0.0282206
-0.937283
0.261136
-0.135699
-0.125438
0.0797291
0.730028
-0.809757
-0.11378
0.198446
-0.0846659
0.190102
0.26598
-0.456082
0.874804
-0.795075
0.0716246
-0.0343584
1.57494
-0.951564
-0.623379
-0.309199
1.0141
-0.166148
0.0838249
0.0862552
-0.0862759
-0.421239
0.10248
-0.159591
0.245846
-0.617062
0.12855
0.488512
-0.14454
0.0726618
-0.169484
0.173494
-0.00400952
-0.264357
-0.0802763
0.344633
0.0220419
0.720924
-0.742966
0.214389
-0.0673566
-0.147032
-0.0957885
-0.101244
0.107581
-0.0063374
0.498759
0.213504
-0.096487
0.141778
-0.0452909
-0.051437
0.312573
-0.166188
0.191342
-0.0251538
0.16264
0.0647497
-0.22739
0.10529
-0.111106
0.00581625
0.936188
0.638756
-0.833542
-0.156286
-0.000475493
-0.81234
0.812815
0.546232
0.211452
-0.757684
-0.450704
-0.198924
0.649628
-0.980563
0.671364
-0.258652
0.804884
-0.317376
-0.106336
0.423712
-0.204196
-0.203211
-0.187493
0.168557
0.018936
0.13492
0.28086
-0.41578
-0.547932
0.958034
-0.112736
0.204716
-1.01296
1.01248
0.183811
0.124211
-0.173787
-0.109987
0.283775
-0.262991
0.352
-0.0890089
-0.0790157
0.0864081
-0.00739244
-0.990916
-0.928456
0.0126467
0.915809
-0.195288
0.0815071
-1.2239
0.822906
0.400997
0.414224
-0.790262
0.376038
-0.975116
-0.005447
1.10046
-0.977784
-0.709356
1.09279
-0.196967
1.07224
0.169894
-0.172585
0.00269172
1.13898
-0.666167
1.03573
-1.03573
0.00361407
0.00311134
-0.00672541
-0.205911
-0.0529556
0.258867
0.271951
-0.205329
-0.0666213
-0.412102
0.779921
-0.367819
-0.0120139
-0.234651
0.246664
-1.02547
0.0726046
0.335834
0.0648884
-0.400722
0.123457
-0.835876
1.04733
0.199848
-0.0656762
-0.134172
-0.0169919
-0.149196
-0.493624
0.629074
-0.13545
-0.779887
0.286263
0.081432
-0.917308
0.316022
-0.728123
0.885261
-0.809041
-0.0260012
0.217613
-0.191612
0.0819341
0.0531218
-0.135056
-1.16309
-0.252049
1.41514
-0.241267
0.410063
-0.168797
0.806995
-0.305384
-0.501611
-0.532715
-0.691188
0.206056
0.00833314
-0.151953
0.146045
0.0059081
-0.0788005
-0.0127733
0.0915738
-0.826982
-0.183446
-0.0794072
0.0464573
0.0329499
-0.989492
0.0240795
0.965413
0.984307
-0.263383
-0.00457733
0.00819139
0.0354789
0.148332
-0.196122
0.386224
0.21611
-0.228039
0.0119296
0.14034
0.068042
-0.208382
0.161408
-0.30072
0.139312
-0.586146
-0.525131
-0.807803
-0.181689
-0.00212857
0.201976
-0.103587
0.177858
-0.0742705
0.0863366
0.0233006
0.122656
-0.0552782
0.0691213
-0.0138431
-0.0928767
-0.0216916
0.114568
0.0759093
-0.0759093
-0.182852
0.206153
-0.365664
0.148753
0.100886
0.090456
-1.23307
0.685139
-1.25068
-0.0878879
1.33857
0.172238
-0.14537
-0.0268679
-0.0263787
-0.0520159
0.0783946
0.509483
0.0037593
-0.513243
-0.136766
0.134797
0.0019681
-0.194887
0.0120355
0.157283
0.622638
-0.356043
0.513326
0.0362932
-1.19939
-0.0970292
-0.0383592
0.474265
-0.297176
-0.177089
0.229847
-0.23208
0.00223372
0.0506579
-0.315015
0.013595
-0.942051
0.0469297
-0.150517
-0.277751
-0.397652
0.0734066
1.42455
-1.01321
-0.411338
1.0748
0.349749
0.0695976
0.275036
0.167132
0.00510636
0.242078
-0.131089
-0.110989
-0.23037
-0.578412
0.808783
-0.351254
0.513086
0.663442
-1.05785
0.212697
0.0641087
0.0308609
-0.0949696
-0.879764
-0.0646727
0.944437
0.0318852
-0.911649
-0.317111
0.652945
-0.92242
-0.0178857
0.00122277
-0.265188
0.263966
1.32931
-1.50508
0.175775
-0.127469
0.0304395
0.558472
-0.788842
0.167799
0.0176809
-0.18548
-0.28748
-0.119293
0.406773
0.276806
-0.937778
-0.0876869
-0.116181
-0.0958613
-0.553707
0.354783
-0.246041
0.0188654
0.227176
-0.0754146
-0.052054
0.0175259
-0.0175259
-0.120979
0.132424
-0.0114455
-0.0632238
-1.18745
0.0443728
0.0745547
-0.118927
-0.0827986
0.00779168
0.0750069
-0.225559
0.0380662
0.986601
0.0620048
-1.04861
-0.189494
0.447136
-0.257642
0.08874
-0.0824609
-0.00627905
0.526346
0.280649
-0.18923
-0.00324804
0.192478
-0.170159
0.305079
-0.103747
0.102047
0.00170004
0.0728794
0.0288235
-0.101703
-0.153424
0.0501863
0.103238
0.385528
-0.80917
0.423642
-0.220929
-0.0493119
0.270241
-0.667829
0.647649
0.0201799
0.0123498
0.039799
0.0927262
-0.10111
0.00838367
-0.070721
-0.0343161
0.564644
0.419663
0.147585
-0.844176
0.696591
-0.131457
1.20898
-1.07752
0.367929
0.225576
0.810151
0.0629775
0.20468
-0.0643398
-0.0726945
-0.0285494
0.230819
0.15753
-0.0755956
0.71563
-0.378552
0.0602857
0.198581
0.0477729
-0.163728
0.115955
-0.819544
-0.128385
0.947929
-0.0321382
0.0321382
-0.1617
-0.280903
0.546882
0.00828705
-0.229216
-0.196056
0.139729
0.101342
-0.103471
0.137158
-0.147566
-0.333696
0.321682
-0.199019
0.337797
-0.138778
0.39504
-0.363372
-0.663521
0.376847
0.286674
-0.202793
0.272391
0.189009
-0.486185
-0.206484
0.590399
0.161172
-0.0322039
0.0322039
-0.0885933
-0.0170318
0.105625
0.380772
0.0292915
-0.144339
0.158505
-0.014166
-0.212708
-0.0287655
-0.0506417
-0.0494682
0.186626
-0.181797
0.241264
-0.0594663
0.128385
0.0291445
-0.387484
0.134764
0.191071
-0.0626861
-0.0467863
-0.0569604
-0.124309
0.198184
-0.0738743
0.14391
-0.102537
-0.0413729
-0.019031
0.39245
-0.373419
-0.215109
0.102374
0.10654
-0.110868
0.00432796
0.0228821
-0.33265
-0.330871
-0.202083
-0.0533139
0.255396
-0.061094
-0.198125
0.259219
-0.0918341
0.0973068
-0.71123
0.613923
-0.121775
-1.20519
-0.00495281
1.21014
0.0450989
0.817343
-0.862442
0.080136
0.0435643
-0.344285
0.275726
0.250573
-0.526299
-0.207195
0.254968
0.131338
-0.867638
0.7363
0.0837398
-0.144834
-0.157129
0.0409478
-1.04405
0.448068
0.595986
1.01321
-0.931777
-1.48279
1.23074
-1.32931
1.24142
0.0403377
-0.0856286
-0.00166718
0.0943934
0.080407
0.91688
-0.785542
0.118723
-0.0717932
0.400143
0.692647
-0.172531
-1.05678
0.925326
-0.773802
-0.459269
-0.235931
-0.381131
-0.131285
-0.161614
0.212272
-0.64391
-0.368978
0.179484
0.772688
-0.263205
-0.8187
-0.664086
0.706057
0.124836
-0.0410966
0.278339
0.0367874
-0.0367874
0.665245
0.139524
-0.804769
-0.238927
0.904172
0.61987
-0.939345
0.319475
0.0670745
0.0816788
0.00397425
0.0113359
-0.0153102
-0.81234
-0.831019
0.567636
0.417197
0.569404
-0.0356124
-0.133872
-0.274367
0.773127
-0.198006
-0.0480357
-0.00309484
-0.0759209
-0.0531501
0.106272
0.366474
-0.237924
-0.737508
-0.282022
0.0972211
0.0342506
-0.131472
-0.739519
0.965095
-0.129539
-0.0499951
0.179534
0.180517
-0.0133846
-0.0778419
-0.0130862
0.0909281
0.0150783
0.408634
0.0924493
0.137397
0.0404401
0.0945274
-0.134968
-0.0198344
-0.169396
-0.707895
0.35964
0.348256
0.548455
-0.952165
0.40371
0.137504
-0.159361
0.0218578
0.101321
0.104734
-0.168698
-0.867029
-0.106001
0.0281595
-0.123917
0.13225
0.151
-0.347122
-1.10897
0.697192
0.411779
0.110251
0.0900647
0.0538457
-0.819544
-0.42831
0.813838
0.141865
-0.154951
0.0432581
-0.623297
-0.0445319
0.0619282
0.129143
-0.282824
0.0399441
-0.455724
0.118855
0.355205
-0.290316
-0.114421
0.021544
0.191057
0.820541
-1.0116
0.100899
-0.793123
0.692224
-0.974705
0.84632
-0.789187
-0.0459561
0.835144
-0.091056
0.0976611
-0.00660512
0.174397
-0.461877
0.231985
-0.138395
-0.0935893
-0.0395757
-0.15855
-0.106286
0.203507
-0.0146124
0.00402356
-0.0747446
0.0213189
0.0772228
-0.0985417
0.664969
0.0202286
-0.0182682
-0.0019604
0.227031
-0.124657
0.838506
0.0817381
-0.0512986
-0.192465
-0.638555
0.0354295
0.031645
0.00608381
0.0839809
-0.835144
0.867029
-0.19856
-0.0872165
0.285777
-0.254136
0.0815509
0.119987
-0.117295
-0.00148865
0.0878968
-0.0986391
-0.713181
-0.39579
-0.0418758
0.0631947
0.743008
-0.27918
-0.104872
0.0220739
0.332517
-0.0168663
-0.127473
-0.00843833
0.0843476
0.142742
0.209258
0.158859
-0.333694
0.174835
0.0972424
0.525396
-0.0395979
-0.104943
0.870938
-0.187644
-0.683294
-0.789187
-0.133243
0.681698
0.874804
-0.919896
0.783547
0.136349
0.405693
-0.0617572
-0.343936
-0.228692
-0.746424
-0.0728616
0.0734544
-0.000592762
0.313719
-0.0110668
-0.302652
-0.0702117
-0.86289
0.933102
0.021695
0.731284
-0.752979
-0.0445383
-0.107415
-0.0347333
-0.167349
-0.283934
0.195341
-0.0831533
-0.00790275
-0.129592
0.179032
-0.0494396
0.206285
0.0357927
0.00905736
0.171459
0.2461
-0.0284874
-0.0922334
-0.00887654
0.193705
-0.428355
0.0222115
0.795132
0.0305145
0.00162374
-0.930141
-0.00763735
-0.237375
-0.0702327
-0.0441881
0.076665
0.0911345
-0.417945
0.574919
-0.156974
-0.104702
0.140132
-0.959486
-0.0182982
-0.168158
-0.658813
0.75612
-0.0163177
0.177489
-0.383105
-0.55624
0.173355
-0.423885
0.25053
0.0347031
-0.262743
0.0307121
-0.0286524
-0.00205961
-0.153512
8.80348e-05
-0.020332
-0.128864
0.76729
-0.666391
-0.179567
0.181317
0.0767457
0.311873
-0.153014
-0.309549
0.734032
0.140429
-0.874461
-0.120617
0.139483
-0.492485
-0.21541
-0.551616
0.690079
-0.710396
0.0203169
-0.171159
-0.00840837
-1.05678
0.65332
-0.65332
-1.12329
1.12329
0.91688
0.735206
-0.45111
-0.284096
-0.86269
-0.0674508
0.634049
-0.354271
-0.279778
0.158766
-0.233037
-0.00266517
-0.00191216
-0.845602
-0.0717063
-0.933552
0.222322
0.00212459
0.0321261
0.685374
-0.0928609
-0.592513
0.711125
0.163679
0.0182319
0.0124801
-1.0014
-0.269535
0.646382
-0.139681
-0.554839
0.69452
-0.0433779
-0.857637
-0.647446
0.215042
-0.801188
-0.947929
1.3526
-0.404673
-0.146188
0.279305
-0.133118
-0.0315313
0.716905
-0.100877
-0.972486
0.972486
-1.05359
0.470822
0.582772
0.0165683
0.0036603
0.0200901
-0.43363
0.972643
-0.149737
-0.0856378
-0.0336926
0.153156
0.0507707
0.0379693
0.889438
-0.935394
-0.367957
0.440837
-0.635991
0.993589
-0.357598
-0.0908465
-0.0151549
0.124988
-0.0569456
0.380116
0.0299401
-0.0891434
0.351795
0.0406552
0.0444027
-0.248271
0.203868
0.13886
0.0346332
0.098609
0.181906
0.878706
0.133777
-0.266265
0.789542
-0.523277
-0.893033
0.82836
0.402098
-0.156252
0.0733655
-0.757018
0.683653
0.468941
0.129181
-0.462877
-0.0708716
0.128973
-0.0581012
0.128441
-0.199312
-0.447156
-0.106551
-0.0732481
0.0763478
-0.00309966
-0.0308351
-0.0613982
0.337116
-0.0245422
0.785542
-0.692224
-0.0933176
-0.290114
0.298401
0.842236
0.688967
-0.283274
-0.0223386
0.0968933
0.17328
-0.155599
0.174817
-0.543369
0.368552
-0.0245861
-0.00406631
0.251057
0.21457
-0.465627
-0.00548003
-0.00317792
0.00865795
-0.0246701
0.0130987
0.0115714
-1.00628
0.340111
-0.247321
-0.957866
-0.196582
-0.931777
1.24142
1.23074
-0.188804
-0.173597
0.124285
-0.0649022
0.0707506
-0.00584838
-0.236283
0.76299
-0.526706
0.539029
0.0950198
0.0206872
-0.0452733
0.121491
-0.110611
0.0336926
-0.0466095
0.00473369
0.148163
0.0251166
-0.0650705
0.166413
-0.267721
0.662761
1.0748
-0.24037
-0.0590061
0.00131185
0.0576943
1.37061
-0.139874
-0.058877
-0.0522291
-1.09217
0.160391
0.502197
-0.225391
-0.467066
-0.123708
0.590775
0.769944
-0.332649
-0.437295
-0.0688621
-0.349083
-0.925326
0.112986
-0.0506203
-0.164782
0.215403
0.331048
0.87793
-0.18562
0.189595
0.12228
1.53269
-0.291275
-0.680809
0.068093
0.612716
0.372042
0.0780595
-0.34754
0.498321
0.78073
-0.0979011
0.0744749
-0.0206292
-0.736013
-0.0154842
0.751497
0.748245
0.231404
-0.190963
-0.0459392
-0.351902
0.103408
-0.310603
0.648481
0.0855512
-0.127819
-0.0433403
-0.203442
-0.716455
-0.00693677
0.0192866
0.111312
-0.149926
0.0386143
-0.297252
0.30784
-0.0105882
0.658166
-0.517737
-0.957134
0.047332
0.909802
-0.0337595
-0.0985213
0.132281
0.271187
0.0406862
0.32128
-0.74959
-0.776226
0.776226
0.812815
0.711125
-0.793123
0.321931
0.458799
0.0940849
0.0115402
0.9437
-0.404671
0.0266971
-0.846058
0.819361
0.128334
0.00472173
0.0225703
-0.505623
0.826903
0.117663
-0.169658
-0.116736
0.286394
0.0236278
-0.508362
0.338704
-1.01479
-0.289093
-0.749529
-0.0279993
-0.0153715
-0.00289672
-0.230286
0.182659
-0.314131
0.0354032
-0.146641
0.111238
-0.619596
-0.433998
-0.00540297
0.0660326
-0.984544
0.452534
0.532011
-0.549636
0.372547
-0.135608
0.473405
0.229183
-0.0527748
-0.104354
-0.754038
0.816043
0.0353023
0.0712375
-0.099891
0.176637
0.220621
0.0113639
-0.438849
0.775739
0.475912
0.283919
0.872491
-0.799126
0.779802
-0.447286
-0.593796
0.160166
0.151895
-0.757617
0.738692
0.0189252
0.750137
-0.101657
-0.232965
-0.134993
-0.178883
-0.0264466
0.996439
-0.874028
-0.12241
-0.183026
0.10743
0.0261338
0.119911
0.908752
0.849309
-0.693399
-0.155911
-0.31676
-0.0522182
-0.555082
-0.429463
0.370455
1.04469
0.869256
-0.158131
0.197138
0.518123
-0.71526
-0.272697
0.0506357
-0.0995721
0.0467974
-0.494796
-0.0990004
0.0730658
-0.14848
-0.187269
0.137801
-0.521035
0.263392
-0.995945
-0.687393
-0.287042
-1.1197
1.18384
0.154721
-0.293591
0.159015
-0.0108517
0.239713
0.299173
0.0526216
0.932331
-1.00254
-0.189497
0.126811
0.106147
0.0308445
-0.136992
-0.116392
0.0657717
0.0499516
-0.0642445
-0.233007
-0.116455
0.693932
-0.408273
-0.285659
-0.355351
0.129958
-0.0934447
-0.036513
0.239817
0.0593559
0.0330602
-0.895502
-0.096683
0.139941
0.814795
0.0345145
-0.152591
0.41181
-0.0211027
0.019503
0.00159967
0.00523176
-0.150602
-0.241455
0.0777271
-0.0998303
-0.542517
0.39633
0.0131236
0.157387
-0.191146
-0.671273
0.889246
-0.803694
0.0150029
-0.19291
0.177907
-0.122356
-0.504707
0.627063
0.0749186
-0.698216
-0.857248
-0.099886
-0.0833076
0.00677998
0.0765276
-0.258599
-0.690079
-0.129465
-0.143405
-0.736013
-0.230711
0.166371
-0.436337
-1.01168
0.0177901
-0.0190825
0.00129246
0.264036
0.11133
0.205664
0.802624
-1.00829
0.346805
-0.221968
0.813203
-0.110152
-0.703052
-0.21607
-0.0495609
0.877921
-0.240633
0.181167
-0.788586
0.739025
0.515645
0.113428
-0.0709552
0.151362
-0.0378521
0.856739
-0.57282
0.685211
0.0847328
-0.915441
0.20226
0.28584
0.65786
0.928406
-0.0574682
-0.0301501
-0.869256
-0.749529
-0.703796
0.716443
0.057496
-0.8187
0.731284
0.644934
-0.941479
0.680593
0.0135464
-0.771164
-0.294704
0.635132
-0.770813
0.135681
0.0778971
0.0520607
0.363558
0.0115674
0.986197
-0.997765
0.0083892
-0.0237607
-0.261944
0.213909
0.710051
0.215818
-0.203782
-0.182035
0.911157
-0.887078
-0.4049
0.120804
0.586278
0.462442
-1.04872
-0.810989
0.795505
0.989092
-0.536558
0.190898
0.763064
-0.751497
0.0114192
0.210191
-0.178354
-0.351231
0.113856
-0.0188001
-0.143859
0.162659
-0.982996
-0.0286018
0.307357
-0.767955
-0.446641
1.14103
-0.694391
0.364867
0.628722
-0.0480823
0.0515235
-0.00344119
0.00701032
0.904147
-0.70272
0.875586
0.520757
-0.967398
0.310748
-0.100557
-0.588927
-0.407018
-0.39546
0.981738
-0.0501501
-0.832511
-1.27421
0.196691
0.763064
0.0800126
-0.847967
0.830253
-0.643727
-0.186526
-0.975796
0.386869
0.0598281
0.120871
0.00105092
-0.121922
-0.978506
0.571488
-0.208643
0.906226
-0.924524
0.189745
-0.20958
-0.0930782
0.244078
0.994453
0.223431
-0.159967
-0.949559
0.0750977
0.834556
-0.932457
-0.553711
-0.523003
1.07671
0.446289
0.016415
-0.0050791
-0.78158
0.752979
0.758583
-0.751573
-0.810151
0.76516
0.044991
0.632693
0.508339
0.840878
-0.864598
-0.491478
-0.450573
-0.477305
-0.501201
0.808134
-0.808134
0.701568
-0.701568
-0.78158
-0.759713
0.759713
-0.76516
-0.524398
-0.345608
-0.391439
-0.864519
0.864519
0.758583
-0.751573
0.840878
0.791994
-0.791994
0.864598
0.777061
-0.777061
0.508522
0.522695
0.476997
-0.105935
-0.498799
-0.549427
1.07212
-0.508696
-1.02429
0.628833
0.529562
0.459529
-0.0114914
-0.00345273
0.0851908
-0.890477
0.093547
0.79693
-0.184756
0.0534713
-0.97019
0.591638
0.932647
-0.610716
-0.118985
0.0707932
-0.0310576
-0.769211
-0.0749653
-0.595986
-0.0780631
0.119011
0.0459703
-0.129563
-0.0253887
0.192612
-0.0187784
0.00678591
0.0119925
-0.812989
0.0799595
0.73303
0.456007
0.538446
-0.527064
0.407852
0.119212
0.935928
-0.765082
-0.170846
0.0905294
0.295695
-0.0144377
-0.0588104
-0.0577985
-0.0150631
0.211089
-0.950608
-0.799715
0.0991971
-0.730264
0.790809
-0.0605446
0.127905
-0.897121
0.769217
-0.817108
0.913906
-0.0967984
-0.216738
0.22197
0.021095
-0.286284
0.513906
0.467832
-0.103918
-0.786559
0.939518
-0.105392
-0.834126
-0.00966427
-0.0811822
0.985569
0.83201
-0.663802
0.477225
-0.382205
0.0956689
-0.882228
0.795075
0.328214
-0.772191
0.00102749
1.02355
-0.895644
1.05559
0.952476
-0.510887
-0.441589
-0.851969
-0.118221
-0.402414
0.0289956
0.233477
-0.390451
-0.799631
0.799631
-0.597518
-0.0926519
-0.885836
0.120754
-0.978471
0.83879
0.0673238
-0.205719
-0.0559915
0.0583541
0.0107673
0.197928
0.825621
0.821254
0.761473
0.138443
-0.899916
-0.488201
0.947731
-0.785661
-0.0973651
0.883026
0.170092
-0.872812
-0.687909
0.872612
-0.776943
-0.10327
0.452181
-0.0185866
-0.433594
-0.303326
0.866306
-0.56298
-0.120173
-0.372579
0.492752
-0.888931
-0.820327
0.0900626
0.501805
0.277997
-0.902334
0.553413
-0.697722
0.697722
-0.927379
-0.0221801
0.342053
0.484849
-0.820969
0.868301
0.775247
-0.199791
0.892999
-0.552888
0.513118
-0.917352
0.404234
-0.263026
-0.689139
0.141398
0.464274
0.372573
0.441266
-0.267949
0.311931
-0.221402
0.758717
-0.855516
0.553134
0.394597
-0.149944
0.741583
0.70126
-0.70126
-0.234386
0.221001
0.111414
-0.0760112
0.525839
0.340467
-0.122611
0.0184666
-0.00300547
-0.0154612
-0.675998
0.687809
-0.0118111
0.415697
-0.926583
0.130214
-0.907158
-0.835365
0.7983
0.0370647
-0.168572
0.868794
-0.634324
1.05002
-0.768715
0.59131
-0.635842
-0.644257
0.151772
-0.413465
0.012215
0.349264
-0.934222
0.520757
0.00353811
-0.978147
0.0768792
0.713929
0.680604
-0.089294
0.0577941
0.780712
-0.445695
1.01247
-0.566777
0.265162
0.505406
-0.401512
-0.902617
0.668259
0.234359
-0.671543
-0.129645
0.991579
0.254534
-0.0591928
-0.023397
0.487263
0.512737
-0.751739
-0.103776
-0.489699
-0.541963
-0.482883
-0.555834
0.413899
0.586101
-0.219676
0.0950188
-0.857131
-0.056931
-0.578911
-0.178802
-0.231677
0.410479
-0.0928974
-0.00574166
0.113883
0.0727427
-0.127621
-0.113834
0.750573
-0.657781
0.715575
-0.403276
-0.530946
0.848971
-0.343003
-0.505968
-0.742604
-0.187854
0.930457
-0.238406
0.225684
-0.0271033
-0.0691187
0.0170647
0.0638423
0.839519
-0.141797
0.121502
0.107682
-0.727974
0.0519761
0.895466
-0.457391
0.704686
-0.418012
0.857422
-0.317149
1.0098
0.00852026
0.0852842
0.0369959
-0.0773546
-0.0959056
-0.0389721
0.374919
0.520548
-0.447097
0.817422
-0.370325
0.840636
-0.0779932
-0.0575895
0.135583
0.128886
-0.08104
-0.0021133
0.222045
-0.110733
0.164846
-0.985815
-0.81898
0.371883
-0.0182451
0.36659
0.474419
-1.14811
1.02685
0.121266
-0.755091
0.818061
-0.0629701
-0.377715
0.0577432
0.457902
-0.0707859
0.900758
-0.446321
-0.0807421
0.267193
0.44814
0.171523
-0.619663
0.43737
0.0380861
0.649723
-0.565911
0.552009
0.0139019
0.830766
-0.591053
-0.134456
0.151053
-0.0165976
0.690691
-0.0113142
-0.0836636
0.0172637
0.698421
-0.800798
0.423083
0.193771
0.0509312
-0.149453
0.0485302
0.0617557
-0.110286
0.0617152
-0.0805153
0.663388
-0.773539
0.0326741
0.21437
-0.0256409
-0.0855001
0.224293
0.0852269
0.00527819
0.0823124
0.76757
-0.371217
0.790952
-0.419735
0.895698
-0.423849
-0.471849
0.630207
0.153786
-0.0738793
0.00469931
0.06918
0.285378
-0.349117
-0.568234
-0.00065582
0.706713
0.700129
0.257946
-0.384815
0.748373
0.800299
-0.362611
0.0530614
-0.876144
0.308628
-0.270504
0.319871
-0.174589
0.692249
0.0753214
0.0137902
0.674466
-0.616723
0.0429067
0.186199
0.025115
-0.11115
0.4179
-0.058126
-0.377156
-0.069774
0.320814
0.647428
0.248269
-0.149868
0.482001
-0.0478726
-0.104596
0.095206
-1.19291e-05
-0.095194
-0.832515
0.241462
-0.0140451
0.89257
-0.230023
-0.590662
0.622264
-0.0316015
0.0638708
0.744225
-0.872143
0.366175
0.0820631
-0.175141
0.624183
0.120042
0.701433
0.263661
-0.252392
0.729617
-0.357162
0.87771
-0.582346
0.337765
0.244581
-0.50026
-0.0717877
0.0431747
0.0644495
-0.0483644
1.09091
0.711358
0.0889409
0.591318
0.217465
-0.850757
-0.0820666
-0.661513
0.66254
-0.0236415
-0.579061
0.400259
0.847039
0.662269
0.189842
-0.0994651
-0.148938
-0.313939
0.609084
0.280161
-0.794173
0.111048
0.513888
0.363822
0.628579
0.336834
-0.0794955
0.880063
-0.720015
0.87113
-0.151115
-0.413322
-0.169025
-0.132222
0.0951441
0.0572049
0.84442
0.120619
-0.0260918
0.618192
0.248992
-0.667004
0.605338
-0.126651
0.234282
0.681481
0.290462
-0.971943
0.283198
-0.926925
-0.0145209
-0.789173
-0.186459
0.73783
-0.551371
-0.652348
-0.0995754
0.0304567
-0.0551091
-0.892494
0.0212604
-0.042363
0.816628
0.0328672
-0.0864065
0.0535393
-0.164666
-0.64391
0.0720053
0.0132789
-0.826006
-0.0176446
-0.00113381
-0.37109
-0.0528037
-0.588623
0.0227119
0.561032
0.286007
0.496064
0.714076
-0.234079
-0.370011
0.604089
-0.185003
-0.621608
0.621608
-0.137896
-0.948322
1.08622
0.0303872
-0.151004
0.676911
-0.115879
-0.210932
0.370153
-0.429346
0.522693
0.518363
-0.385332
0.177175
-0.103768
-0.725531
0.470809
0.0811998
0.058204
0.0134206
-0.84727
-0.63343
-0.255683
0.701313
0.298687
-0.63343
0.701313
-0.636028
-0.255428
-0.636028
-0.705332
0.705332
0.294668
-0.0139602
-0.248754
-0.0742626
0.377555
0.186413
-0.485356
0.634907
-0.0295693
0.6474
-0.490451
-0.156949
-0.0563099
0.0556804
0.000629476
-0.0223576
0.0408243
0.419862
0.0184833
-0.139227
-0.421001
-0.356767
0.126481
0.0540625
0.817507
-0.299384
0.273001
-0.283852
0.0276002
-0.155354
-0.00628338
0.648221
0.0584921
-0.515874
-0.139285
0.00431718
-0.0354206
0.0816834
0.547358
-0.457403
-0.0899548
1.01019
0.545613
-0.80284
0.866672
0.0113502
-0.0633661
0.108045
-0.129291
0.151248
1.08999
-0.408505
0.0323653
-0.0603646
0.537993
-0.482969
0.0216984
-0.0216984
0.0201168
-0.0201168
-0.0295469
0.0295469
0.0305145
0.368326
0.455924
-0.0999502
-0.707076
0.443871
0.190087
0.0319576
-0.080777
-0.481467
0.72966
0.114938
-0.786481
-0.753322
0.197082
-0.0134178
0.0199887
-0.00689002
-0.028398
0.028398
0.70748
-0.035178
0.035178
0.695976
0.0935111
-0.112375
-0.0269101
0.00632958
-0.0653357
-0.0218508
0.0218508
-0.0352762
0.0352762
-0.0225313
0.0225313
-0.0344604
0.0344604
0.166117
-0.297411
-0.079209
0.216263
-0.0399626
0.0399626
-0.378333
0.499452
-0.121119
0.491976
-0.212671
0.278324
-0.00532361
0.559515
0.130423
0.0728422
0.549421
0.55283
-0.0418052
0.0418052
-0.0579716
0.0249203
-0.0249203
-0.0455788
0.0455788
0.721063
-0.816013
0.0302885
0.55223
-0.33766
0.034331
-0.034331
0.0346087
-0.0346087
0.0187737
-0.0187737
0.0227108
-0.0227108
-0.0238462
0.0238462
0.0358511
-0.0358511
0.478773
-0.0325639
0.0325639
-0.0322177
0.0322177
0.0246221
-0.0246221
-0.037308
0.037308
0.0398372
-0.0398372
-0.0378197
-0.025513
0.025513
0.333659
0.166205
-0.0401791
0.0401791
0.0289243
-0.0289243
0.026783
-0.026783
0.0342639
-0.0342639
0.0245816
-0.0245816
0.034343
-0.034343
-0.0324375
0.0324375
-0.432681
0.312182
-0.0378009
0.0378009
-0.0256126
0.0256126
-0.0387221
0.0387221
-0.0269702
0.0269702
0.0184286
-0.0184286
-0.390202
0.676041
0.292075
-0.0323847
0.0323847
-0.0814782
-0.0310623
0.0310623
-0.0190512
0.0190512
0.035863
-0.035863
0.329728
-0.276667
0.0367377
-0.0367377
-0.0225659
0.0225659
-0.454477
0.0427752
-0.722688
-0.0300467
0.0300467
-0.442529
0.0331457
0.0183778
-0.300555
-0.614886
-0.0367895
0.0367895
-0.198912
0.140786
-0.0412761
-0.0127722
0.0127722
0.00179662
0.0469724
0.248047
-0.333269
-0.268904
0.602173
0.185513
-0.038196
0.038196
-0.566966
0.297077
0.269889
0.73096
-0.36185
-0.369109
-0.450902
-0.631074
-0.122961
-0.160892
0.112127
0.153035
-0.565455
-0.0124162
0.187591
-0.964024
0.0153831
-0.0153831
-0.00546816
0.00546816
0.0310045
-0.0310045
0.0255977
-0.0255977
-0.00438672
0.00438672
-0.00140185
0.00140185
-0.862029
0.0717669
0.171769
-0.290754
0.00922581
-0.00922581
-0.0440811
0.0440811
-0.0403191
0.0403191
0.0417544
0.0513552
-0.0931096
-0.00269377
0.309563
-0.539585
-0.0139041
0.0139041
-0.0223468
0.0223468
-0.0948356
-0.438819
0.315859
0.000657762
-0.000657762
0.198256
0.0394025
0.904815
-0.480793
-0.072946
0.553739
-0.614352
-0.14733
0.380807
-0.0380969
0.0380969
-0.664411
0.275516
0.0499654
-0.0499654
-0.650039
0.370261
0.260111
0.108751
-0.000961635
0.000961635
-0.829084
0.00193509
-0.00193509
0.306532
0.410374
0.221299
-0.0543065
0.0543065
0.00363882
-0.00363882
-0.0423459
0.0423459
-0.0533377
0.0533377
0.00389549
-0.00389549
-0.0592458
0.0592458
0.00511029
-0.00511029
-0.0457162
0.0457162
-0.0696739
-0.0452856
0.0452856
-0.00855644
0.00855644
0.0483718
-0.0483718
0.00564966
-0.00564966
0.0462269
-0.0462269
0.0570316
0.00356863
-0.00356863
-0.000386769
0.000386769
-0.167687
0.0843476
-0.00904472
0.00904472
-0.000825296
0.000825296
-0.0606637
0.0606637
0.311833
-0.0206161
0.0206161
-0.0587067
0.0587067
-0.00614042
0.00614042
-0.0692934
0.0692934
-0.0142593
0.0142593
-0.0836677
0.0836677
-0.0245305
0.0245305
-0.097321
0.097321
-0.647943
-0.31649
-0.528271
0.49667
-0.857637
-0.174869
-0.544561
0.369972
0.270024
-0.625375
-0.0052582
0.0052582
0.0575824
-0.69512
0.0428118
-0.0293912
-0.574362
0.738041
0.600203
0.2603
-0.0509423
0.078307
-0.389745
-0.575629
-0.0568146
0.366423
-0.851915
-0.0191809
0.0191809
-0.803182
0.0201325
-0.0201325
-0.027955
0.027955
0.339415
-0.0530508
0.0054451
-0.0054451
0.018252
0.0139519
0.594172
-0.315917
-0.0799471
-0.0145704
-0.0155798
-0.0918675
0.482914
-0.391046
0.569554
-0.428156
0.010192
1.06391
0.0704379
0.0512613
-0.40522
0.434215
-0.478166
-0.891901
-0.307486
-0.0716422
0.0184921
-0.60273
0.230151
0.048081
-0.00379773
0.0148877
0.758621
-0.539408
-0.0375039
0.0626189
-0.0350495
-0.622988
0.374234
0.419824
0.227825
-0.182731
0.220033
0.0297884
-0.000964908
-0.568061
0.0386784
-0.0365779
-0.0498286
-0.0184096
-0.824278
-0.0721015
0.26188
-0.348623
0.389279
-0.211997
-0.907705
0.0968469
0.0241858
-0.105368
-0.33512
0.454332
-0.0744934
0.00869676
0.0657966
-0.0277217
0.0277217
0.153042
-0.436316
-0.0617581
0.0695498
-0.079119
0.0554775
-0.0630758
-0.00652151
0.0695973
-0.129286
-0.157377
0.0926856
-0.088212
-0.257987
-0.351052
0.609039
0.0141701
0.0592843
0.146513
-0.0250111
-0.0336765
0.0731201
-0.155366
0.307261
0.0989972
0.0365855
-0.0277752
0.174288
0.00571175
0.258254
0.0237568
-0.0237568
-0.178616
0.807195
0.0875468
-0.169613
-0.0491678
0.00578992
0.464237
0.585783
0.014096
-0.0316219
-0.523997
-0.00427451
-0.556287
0.085592
-0.682094
0.277424
-0.0628449
0.371714
-0.629701
0.159853
0.508406
-0.0948482
0.0948482
0.00105092
-0.928511
0.465861
0.462651
-0.210563
0.155454
-0.259459
0.305653
-0.82339
-0.0817309
-0.107666
0.105999
0.939814
0.643521
-0.453679
-0.0697773
-0.373197
-0.5942
-0.179765
-0.298465
0.796786
0.561985
-0.252422
-0.385472
0.752062
0.667638
0.11591
-0.276193
0.223594
-0.456857
0.335737
0.129279
-0.129279
0.0503076
-0.0810038
0.0306963
0.00211646
0.0381591
0.019503
0.0893304
0.196048
0.22375
-0.178277
-0.0454726
0.523278
-1.05595
-0.00527978
-0.633275
0.65243
-0.119222
-0.171532
-0.0396619
-0.0767932
-0.468115
0.0471144
-0.283988
0.000717588
-0.0184096
0.379255
-0.00539622
-0.00276382
-0.00550214
0.00713332
-0.0116624
0.0045291
-0.10106
-0.0226768
-0.169324
0.192001
-0.126988
-0.329869
0.018252
0.338329
-0.0015154
-0.371471
0.0844288
0.00238897
0.0428525
-0.142803
-0.0124591
0.0124591
-0.000867467
-0.00066755
-0.00889281
-0.00561624
-0.040471
0.00085999
-0.0013149
0.0190295
0.072105
0.00478484
-0.00478484
0.188174
0.492628
-0.00252465
-0.306817
0.778553
1.16452
-0.462108
0.32598
-0.431051
-0.104895
0.0431364
0.228574
-0.223818
-0.00825078
0.0811869
-0.0173447
0.0217023
-0.172013
-0.395759
0.839629
-0.0579808
-0.804048
0.0210045
-0.00158719
0.486639
-0.655211
-0.00354643
0.0098824
0.0713045
-0.267488
0.00145697
-0.000144903
0.689944
-0.616824
-0.24499
-0.342984
0.435828
0.00656137
0.00430018
-0.0412761
-0.00546517
0.807405
-0.428811
0.510011
-0.797646
0.884788
-0.811262
0.56337
-0.193398
0.675507
-0.000887997
0.00391433
0.0160744
-0.0969008
0.140688
0.100672
0.00735688
-0.00806366
0.0649489
-0.0493864
-0.0155626
0.00145836
0.025832
0.0302726
-0.0561046
-0.106102
-0.00185945
-0.00114602
-0.00377161
0.488307
-0.433086
-0.00443626
0.00452445
0.794277
-0.328417
0.383757
-0.00578501
0.00730403
0.580981
-0.548307
-0.0405664
-0.106792
-0.0175812
-0.00352958
0.120524
0.0587462
-0.00156594
0.380639
0.00448252
-0.0244606
0.0244606
-0.000330041
-0.0142403
0.00483909
-0.310834
-0.00387551
0.0726096
-0.102802
0.22849
0.126282
-0.0757474
0.0046783
0.0039554
0.437026
0.00342508
0.0107529
-0.142975
-0.00202678
0.00532827
-0.56813
0.445519
-0.704603
0.420828
-0.816587
-0.208669
0.00298106
-0.739338
0.249337
-0.517286
0.541164
-0.0152408
-0.0378674
-0.00434102
-0.00159367
-0.544369
-0.00337032
0.0012148
-0.0488258
1.04508
-0.607706
-0.00265557
0.00053937
-0.00635723
-0.00208103
0.0856279
-0.0215672
0.0215672
-0.0719368
0.0712693
-0.00696571
-0.00862974
0.0519021
-0.054666
-0.163674
0.0918863
-0.00811884
-0.0143743
0.0418373
-0.0161646
0.0626859
-0.0441938
-0.61466
0.554115
0.0935054
-0.00443291
0.637125
-0.316311
-0.068914
-0.647875
-0.0747114
-0.116391
-0.0938882
0.0918614
0.669224
0.00419813
0.0934193
-0.0891191
0.00142374
0.0598888
-0.143147
0.0832579
-0.0701629
-0.604324
0.830513
-0.531245
0.0196543
0.0127304
0.0461884