/*--------------------------------*- C++ -*----------------------------------*\
| =========                 |                                                 |
| \\      /  F ield         | OpenFOAM: The Open Source CFD Toolbox           |
|  \\    /   O peration     | Version:  2306                                  |
|   \\  /    A nd           | Website:  www.openfoam.com                      |
|    \\/     M anipulation  |                                                 |
\*---------------------------------------------------------------------------*/
FoamFile
{
    version     2.0;
    format      ascii;
    arch        "LSB;label=32;scalar=64";
    class       volVectorField;
    location    "4";
    object      U;
}
// * * * * * * * * * * * * * * * * * * * * * * * * * * * * * * * * * * * * * //

dimensions      [0 1 -1 0 0 0 0];

internalField   nonuniform List<vector> 
2186
(
(1.19159 -0.121346 1.87005e-19)
(1.65836 -0.930813 -1.07833e-19)
(1.48324 -0.903053 2.17436e-22)
(0.727454 -0.58079 -1.23479e-19)
(-0.701912 0.338706 -2.43881e-19)
(1.03403 0.00312022 0)
(0.724087 -0.663321 0)
(-0.832078 -0.733599 1.68685e-19)
(2.26528 0.332583 2.89981e-19)
(0.545339 -0.321817 -2.31399e-21)
(0.680596 0.614418 0)
(1.01817 -0.267898 -1.44323e-19)
(-0.77879 -0.568242 -6.11016e-20)
(1.07273 -0.0295979 -3.2271e-19)
(1.86362 -0.644338 -1.0804e-19)
(1.00766 -0.00956626 1.50618e-19)
(1.00427 0.0349603 0)
(-0.440989 -0.318501 0)
(1.02205 0.000989841 0)
(-0.251737 0.888726 -9.70257e-20)
(0.481238 0.0748776 -1.00035e-19)
(0.143824 0.310813 1.11582e-19)
(1.06015 -0.0180775 2.64834e-19)
(-0.234266 -0.272276 1.85626e-20)
(1.03784 0.0371996 -2.05795e-19)
(0.777006 -0.55518 0)
(0.767538 -0.022237 1.24796e-19)
(0.60429 -0.580578 -1.40428e-19)
(1.19594 0.704059 0)
(0.947793 0.0409185 -2.84178e-19)
(-0.0666879 0.564524 0)
(1.02191 -0.0148316 9.758e-21)
(0.0232742 0.790405 0)
(1.25997 0.110401 7.83971e-21)
(-0.00919472 -0.896811 7.71968e-21)
(1.56132 0.736224 2.62739e-20)
(1.10898 0.0138014 8.60065e-21)
(0.508169 0.12276 -2.97594e-19)
(2.06222 -0.30163 -3.80322e-19)
(1.05965 -0.00369388 -1.93916e-21)
(-0.840485 -0.506282 0)
(0.141275 0.477979 0)
(1.98677 -0.838022 1.05816e-19)
(0.10879 0.553001 0)
(1.06594 0.281138 1.27612e-19)
(0.585675 -0.303847 2.43418e-19)
(0.938364 -0.79143 0)
(1.19243 -0.769383 8.3822e-20)
(1.15449 -0.145502 0)
(-0.69601 0.268598 3.5531e-19)
(-0.10846 0.713896 1.43666e-19)
(0.630636 0.585015 6.47384e-20)
(2.15767 -0.665935 1.19434e-19)
(0.594796 0.259517 -2.38245e-19)
(0.116239 0.776324 5.88312e-20)
(0.753323 -0.639986 0)
(1.77187 -0.974079 2.13338e-20)
(0.57174 -0.531925 0)
(2.15821 -0.175567 1.01917e-19)
(1.12331 -0.142081 -3.03073e-19)
(1.02535 -0.0207025 5.28757e-21)
(1.31723 0.251869 -1.4014e-19)
(1.33474 0.525049 0)
(1.02661 0.0172765 2.12453e-21)
(1.32973 0.397182 -8.14885e-20)
(1.25522 -0.719131 -1.12305e-19)
(1.14888 0.653436 4.12428e-20)
(0.681777 0.0805186 -4.81195e-19)
(0.820307 0.0442461 0)
(2.19075 0.434372 -5.57458e-20)
(-0.853792 -0.708716 -2.20092e-19)
(1.14774 -0.0675345 -5.52566e-22)
(0.735354 -0.0359901 -2.11939e-19)
(0.866493 -0.514877 0)
(0.811678 0.176327 -7.76269e-20)
(0.541178 -0.50744 -2.51961e-19)
(1.18813 -0.11214 0)
(1.00818 0.0145522 3.07751e-19)
(-0.106054 -0.958643 0)
(2.39562 0.156193 0)
(1.3111 -1.18483 6.79558e-20)
(0.995847 -0.0280629 2.46716e-21)
(1.0334 0.0158909 3.44967e-20)
(1.31054 0.36127 2.10001e-20)
(0.94617 0.0161586 3.65479e-19)
(1.04882 0.00613517 -8.52483e-21)
(0.667427 0.174894 -2.86704e-19)
(1.01965 0.00461319 1.20414e-22)
(0.808484 0.0115344 0)
(0.0444998 0.0483042 1.23413e-19)
(0.851957 -0.613581 -1.35855e-19)
(-0.404732 0.864628 -1.16537e-20)
(1.04784 -0.104664 2.12491e-19)
(0.804577 -0.201637 0)
(0.952678 0.00192224 3.41618e-20)
(1.3695 0.613781 0)
(1.65697 -0.922781 0)
(1.31075 0.208715 0)
(-0.810637 0.339008 0)
(0.780322 -0.656885 2.4279e-19)
(0.891007 -0.737006 -2.44735e-20)
(0.981683 -0.939767 3.78988e-20)
(1.40976 0.125451 0)
(1.06879 -0.0796471 -1.94281e-19)
(1.03864 0.0145759 1.53243e-19)
(-0.0494129 0.489717 3.37775e-19)
(0.633404 0.488271 0)
(1.9073 0.112342 -6.71648e-20)
(0.977756 -0.478139 6.80386e-20)
(0.860649 0.0502985 -1.66098e-20)
(1.94165 0.401857 1.48903e-19)
(-0.797964 0.292909 -5.39365e-19)
(0.824122 -0.742608 0)
(0.561812 0.328963 1.44614e-19)
(2.26436 0.261197 -8.80193e-19)
(-0.439598 -0.194969 -4.13094e-19)
(1.018 -0.0157579 -6.1515e-21)
(1.09034 -0.120416 0)
(0.0121662 -0.0232544 -3.71753e-19)
(0.710166 -0.0756761 6.71192e-20)
(1.58844 0.85949 0)
(-0.232291 -0.471647 -4.77213e-19)
(0.880946 0.764147 -2.20734e-19)
(-0.108171 -0.562418 1.15838e-19)
(1.01721 0.000302202 0)
(1.04301 -0.0265953 7.75035e-21)
(-0.787295 0.399278 0)
(0.685894 -0.49739 -9.02129e-20)
(-0.347169 -0.435056 -8.83485e-20)
(0.792523 -0.715295 0)
(0.436461 -0.295936 3.55553e-19)
(0.538696 -0.464269 2.37076e-19)
(0.425441 -0.383718 0)
(0.986195 -0.770438 -9.81949e-20)
(1.01861 -1.05176 0)
(-0.683222 -0.183077 -2.78127e-19)
(0.801138 -0.685468 1.15024e-19)
(2.11773 0.312518 2.1015e-19)
(1.84943 -0.158815 0)
(-0.61553 -0.951965 0)
(0.680752 0.636039 -2.68065e-19)
(1.82868 -0.542401 1.92809e-20)
(-0.710615 -0.677665 0)
(0.984477 -0.792458 -1.08382e-20)
(1.07376 -0.0771468 0)
(1.04471 -0.121898 3.34828e-19)
(1.95845 0.059774 -8.58242e-20)
(-0.668123 0.329113 0)
(1.20513 -0.543838 -4.24607e-20)
(0.350139 0.813885 -7.353e-20)
(-0.863835 0.769149 0)
(1.10032 -0.802298 1.2174e-20)
(1.00574 0.0229148 -5.13922e-19)
(0.641707 -0.484754 -8.90095e-21)
(0.798929 -0.516111 0)
(1.212 -0.722269 -7.06761e-20)
(0.657554 0.230309 2.23218e-19)
(1.24155 0.147345 0)
(1.53767 0.0120446 -1.43965e-19)
(1.20686 -0.846767 -1.38704e-19)
(-0.610355 -0.920231 -1.72467e-19)
(-0.504496 0.492608 -2.44257e-19)
(1.08315 0.0325636 1.91752e-19)
(0.921413 -0.465053 -8.55574e-20)
(1.0497 0.00437702 -1.11478e-22)
(0.983325 -0.00735108 -2.99352e-21)
(0.790281 -0.0688158 1.25441e-19)
(0.332911 -0.363386 -2.83581e-19)
(1.03212 0.0203671 0)
(1.0517 -0.0260747 -3.76438e-21)
(1.43794 0.605707 8.87269e-20)
(0.79614 -0.609283 -1.77088e-19)
(1.0016 0.0117714 1.05509e-20)
(0.709477 -0.533129 2.47939e-19)
(1.30036 0.777211 8.46447e-20)
(1.67019 -0.0570261 1.34618e-20)
(-0.596488 0.213559 0)
(1.00727 0.0570056 -1.99005e-19)
(-0.0701015 0.44258 -4.86217e-20)
(1.0393 0.483796 6.46408e-20)
(0.46122 -0.258566 1.71515e-19)
(1.04533 0.00792558 -3.63712e-20)
(-0.153763 0.904618 -2.69935e-19)
(1.29336 0.558389 -5.47804e-20)
(1.12391 0.876196 0)
(-0.57421 0.135345 -9.45459e-20)
(-0.151356 -0.0569986 0)
(0.652598 0.554107 -2.33419e-19)
(1.84722 -0.115374 -2.02508e-20)
(-0.679983 -0.388939 1.72884e-19)
(-0.419317 -0.0209548 -3.8423e-19)
(0.727931 0.0825793 2.11251e-19)
(1.35822 -0.424674 -4.42058e-21)
(0.979574 -0.343268 -2.53743e-20)
(-0.376013 -0.556888 0)
(0.880349 0.0424621 -2.40572e-20)
(1.33508 0.954787 1.57792e-20)
(0.833832 0.0673486 -1.14808e-19)
(0.559445 0.524395 1.61632e-19)
(0.581479 0.174304 0)
(-0.681139 -0.0431394 -4.8846e-19)
(0.924532 0.00226699 -1.75855e-20)
(1.32281 -0.95648 1.60033e-22)
(0.963899 -0.0224034 -1.61094e-19)
(-0.311092 -0.155052 -5.69227e-21)
(-0.625003 0.611057 2.34122e-19)
(-0.0976554 -0.464752 -2.13635e-19)
(1.0743 -0.124954 0)
(1.08494 0.0555635 -2.68759e-19)
(1.36735 -0.250577 1.95829e-20)
(1.26754 -0.60716 7.30326e-20)
(1.04256 -0.0315609 -1.57646e-21)
(0.592035 0.311895 0)
(0.932424 0.75045 -1.2914e-20)
(0.683666 0.632817 1.48984e-19)
(0.893363 -0.557497 1.22932e-19)
(0.678722 0.481913 0)
(0.96659 0.0158781 6.93119e-21)
(0.876118 -0.654227 1.74874e-19)
(0.826197 0.405644 -3.82346e-19)
(1.27629 -0.123333 0)
(-0.190924 -0.151875 -2.82037e-19)
(0.0410138 0.75924 -2.26138e-19)
(1.59096 0.681005 0)
(1.37294 -0.925205 -1.36972e-22)
(-0.337763 -0.444458 0)
(-0.755076 0.530029 1.65097e-19)
(0.734344 0.649782 -8.0979e-20)
(0.838878 -0.238538 0)
(0.56335 -0.699265 0)
(1.80883 -0.414486 0)
(0.842032 -0.123618 -3.73792e-20)
(1.22716 -0.871911 9.10185e-20)
(1.19176 -0.60202 4.7157e-20)
(1.01832 -0.138284 -1.34263e-19)
(0.871388 -0.679596 -1.37377e-19)
(0.182261 -0.186396 0)
(0.121623 -0.273581 0)
(1.02111 -0.510145 1.41796e-19)
(-0.763591 -0.911519 0)
(-0.878089 0.0879191 0)
(-0.409675 -0.148006 3.53234e-19)
(0.786944 0.666431 7.02597e-20)
(0.998327 0.791021 0)
(0.690972 0.53664 -7.13324e-20)
(0.838617 -0.031836 -1.90209e-19)
(0.738605 0.545075 -1.89971e-19)
(0.594518 0.551403 -1.39166e-19)
(-0.856861 -0.834706 9.03344e-21)
(0.714862 -0.635237 0)
(0.890038 0.16122 -2.70434e-19)
(-0.968793 -0.650982 1.04268e-19)
(0.606629 0.563734 3.09149e-19)
(0.945259 0.796429 0)
(0.81566 -0.140138 -2.84287e-20)
(-0.108425 -0.985171 7.2165e-19)
(0.413096 -0.592741 -4.39368e-19)
(0.661614 0.558526 -1.2418e-20)
(0.968996 -0.0124056 4.85257e-20)
(-0.78015 -0.322633 0)
(1.52807 0.283329 -7.20901e-20)
(0.976675 -0.0405971 1.26983e-20)
(0.642525 -0.592118 -6.20542e-20)
(-0.0753612 -0.614052 2.77994e-21)
(1.17794 0.443763 1.40886e-19)
(0.876102 0.395041 0)
(1.08913 -0.143648 1.67195e-19)
(0.279716 -0.436664 -7.28085e-21)
(-0.376689 0.894349 6.28171e-19)
(1.00737 0.00764933 -4.4057e-20)
(1.17355 0.113908 0)
(1.57909 0.121497 -1.24465e-19)
(1.60414 -0.0914419 0)
(0.544468 0.239097 -3.93405e-19)
(-0.694201 0.695744 0)
(-0.90847 -0.810474 4.34305e-19)
(0.834773 0.104105 0)
(0.614008 -0.519076 -1.52829e-19)
(1.05011 -0.00514223 1.76994e-19)
(-0.769106 0.16295 5.057e-20)
(1.24715 -0.0582819 -6.20304e-21)
(2.13672 0.152118 -1.49632e-19)
(1.07786 0.206474 -1.80067e-19)
(-0.879594 -0.451238 -1.77612e-19)
(1.08226 -0.840272 0)
(0.816388 0.0251641 -1.2932e-19)
(0.930822 -0.38969 -2.42991e-19)
(1.72627 -0.562618 -8.4355e-21)
(1.59925 -0.0194824 1.38016e-19)
(1.04919 0.0227301 3.2026e-19)
(0.211718 -0.077951 -4.29006e-19)
(1.01908 -0.437902 -1.03339e-19)
(0.193519 -0.18722 2.15953e-19)
(0.97699 -0.0310879 0)
(1.01274 0.000459295 0)
(1.02997 -0.047041 -6.41658e-21)
(-0.415087 0.313654 -2.39693e-19)
(0.234173 -0.11375 -1.70549e-19)
(0.8677 -0.0731307 4.27764e-21)
(1.04819 -0.199991 0)
(1.31061 -0.419431 -1.14201e-20)
(0.959752 -0.825724 -5.52318e-20)
(1.85032 -0.566826 -9.01649e-20)
(1.09015 0.82721 0)
(0.466712 -0.452794 0)
(0.601588 0.503788 -1.4976e-19)
(1.0622 0.245181 -3.28068e-19)
(2.05679 0.0681995 3.61872e-22)
(0.83956 0.155572 1.16425e-19)
(0.150089 0.589418 -1.02483e-18)
(1.03053 0.011563 2.49263e-21)
(-0.69043 0.170469 0)
(-0.516359 -1.01281 0)
(-0.628818 -0.190917 0)
(1.34802 -0.704848 -5.41146e-20)
(-0.847426 0.816531 -4.58747e-19)
(-0.666604 0.923903 0)
(1.29045 0.954993 -1.28882e-20)
(1.0841 0.13765 -3.437e-19)
(1.04818 0.0345119 3.99839e-21)
(1.07155 0.908052 4.82244e-20)
(-0.791412 0.683888 2.92458e-19)
(1.02705 0.00442257 0)
(-0.566721 -0.127891 -3.10084e-19)
(-0.768874 0.581173 4.88474e-19)
(0.774371 0.0355961 1.55868e-19)
(1.54884 0.907815 4.47104e-20)
(1.03241 -0.00330842 4.5747e-21)
(-0.452357 0.918073 5.82342e-21)
(0.740876 -0.669959 -2.9628e-20)
(1.30532 -0.0875857 0)
(1.58988 0.0517781 0)
(1.14638 0.0240023 0)
(0.963351 0.0242742 1.76038e-20)
(-0.747809 -0.088997 1.24731e-19)
(1.03154 0.838749 0)
(0.962288 0.0198222 4.31502e-19)
(0.760276 0.589264 -1.89849e-19)
(0.91962 0.0118649 1.27416e-20)
(0.847504 -0.00414322 -3.47553e-20)
(0.70709 -0.640413 -1.77937e-19)
(1.39316 0.675927 -1.7514e-20)
(0.559387 -0.459932 -2.4714e-19)
(1.036 -0.00136092 -3.8748e-19)
(1.00681 0.0574743 3.84752e-20)
(1.55501 -0.142519 4.3522e-20)
(0.996437 0.00231671 1.33072e-21)
(-0.525447 -0.65105 2.09762e-21)
(1.05815 0.473069 -2.15446e-19)
(1.447 0.62163 1.05738e-19)
(0.557525 -0.846469 0)
(-0.462302 0.432243 3.61714e-19)
(-0.248423 -0.166761 1.18066e-19)
(-0.137593 -0.341273 -1.67688e-19)
(0.468076 0.292197 0)
(0.997923 -0.0414011 0)
(-0.0487151 0.106928 -2.03498e-19)
(-0.901633 -0.585323 -1.06307e-19)
(1.03385 0.00639159 1.53563e-19)
(-0.53848 0.299351 -4.96291e-20)
(1.04764 -0.238759 1.12324e-20)
(0.141695 0.0620655 0)
(0.831526 -0.728028 -2.39047e-19)
(1.00593 0.00629717 -2.17932e-21)
(-0.318004 0.607637 6.995e-20)
(0.715803 0.161901 2.79153e-19)
(0.623904 0.134314 9.09764e-20)
(0.493813 -0.470446 1.69138e-19)
(-0.751278 -0.710802 -2.02858e-19)
(1.04014 -0.00520491 0)
(0.382399 0.321418 -1.67226e-19)
(1.0114 0.0106579 -2.45693e-19)
(-0.42775 0.000760931 1.57972e-19)
(1.41783 0.428764 -7.5906e-20)
(-0.800035 -0.927999 -8.93106e-20)
(0.712958 -0.645668 -1.96697e-20)
(0.799434 0.182202 -1.73578e-19)
(0.978397 0.413229 1.86403e-20)
(1.11823 -0.0935866 2.91906e-20)
(0.59586 -0.245221 -2.55393e-19)
(2.07556 -0.144041 -1.81383e-19)
(0.807185 -0.0181125 0)
(0.988629 0.00545766 2.54936e-21)
(0.868385 0.0217885 -3.93526e-21)
(1.60745 1.05575 1.13785e-19)
(1.28355 0.256338 -2.02486e-19)
(1.0337 0.0089847 -3.78048e-21)
(0.411776 0.37346 -2.15641e-19)
(-0.240508 -0.607609 2.52076e-19)
(1.93492 0.713335 0)
(1.01025 0.0103275 0)
(0.879791 -0.76929 4.46283e-20)
(-0.311477 -0.855279 -7.87837e-19)
(0.233784 -0.416158 -1.71349e-20)
(-0.617527 -0.778618 -3.77928e-19)
(-0.6317 -0.143497 -1.88076e-19)
(-0.430184 0.502234 0)
(-0.486937 -0.910616 6.43599e-20)
(0.647861 0.432405 -2.56107e-19)
(-0.646905 0.584236 -5.25908e-19)
(0.801317 -0.12208 0)
(1.04183 -0.0403535 -5.49692e-21)
(-0.284448 -0.245203 0)
(0.970857 0.00363341 3.11112e-19)
(-0.0962863 0.7734 2.80369e-21)
(0.535887 -0.432649 3.31207e-19)
(-0.0998426 0.383768 8.06512e-20)
(0.749199 -0.0055854 0)
(0.205689 -0.119026 3.12032e-19)
(1.02845 -0.0144704 -9.3063e-21)
(0.469562 -0.688315 0)
(1.02299 0.000548438 -4.79828e-20)
(0.85417 -0.712673 -2.31319e-19)
(0.994618 -0.0547139 0)
(0.905624 -0.287723 1.7303e-19)
(-0.129857 -0.4085 3.97282e-19)
(-0.11941 -0.193355 0)
(-0.878719 0.0733195 -1.24298e-20)
(0.714712 -0.626802 -3.50667e-19)
(1.00257 -0.0688347 -2.25186e-19)
(-0.196258 -0.734233 1.12102e-18)
(-0.871606 -0.932128 2.92296e-19)
(-0.756612 0.394268 0)
(0.951882 0.459371 0)
(-0.0659182 0.92103 1.4273e-19)
(1.29461 0.40957 -2.60069e-20)
(1.06338 0.883187 1.27816e-20)
(1.03432 0.206052 -1.02462e-19)
(1.06818 -0.0356232 -1.91922e-19)
(1.20392 0.0112263 -6.52575e-20)
(-0.423207 -0.598979 -9.97195e-19)
(1.14076 -0.102933 8.74467e-20)
(0.877283 0.035366 1.69467e-19)
(1.17714 0.118841 2.52701e-20)
(1.14404 -0.223489 0)
(0.910181 0.157269 -2.66169e-20)
(1.02841 0.0417935 -4.22261e-19)
(1.72992 0.539989 -2.07194e-20)
(0.724556 -0.457385 -1.35087e-19)
(0.00217625 -0.0573393 2.77287e-19)
(0.79066 -0.686239 3.05211e-19)
(1.21277 0.202806 5.86983e-20)
(0.996609 0.0116572 2.13667e-19)
(-0.0613763 0.338771 -4.49714e-19)
(1.0147 0.0283714 0)
(1.04202 0.0423886 -7.97974e-21)
(-0.10428 -0.251099 0)
(1.05695 0.0194405 -1.25483e-19)
(0.851521 -0.050609 4.35665e-20)
(1.66015 0.170177 1.32515e-20)
(-0.34049 -0.135787 1.45907e-19)
(1.57712 0.0356107 -1.53726e-20)
(1.0433 -0.0149475 4.39359e-20)
(1.33043 -0.114612 0)
(1.45014 -0.578318 -8.99718e-20)
(1.00011 0.054459 -1.30647e-19)
(1.44962 0.764047 -1.19296e-20)
(1.32503 -0.0517071 0)
(1.01489 -0.00582642 1.71538e-21)
(-0.0468992 0.133917 0)
(1.45246 0.0711697 0)
(-0.823695 -0.284424 0)
(1.21417 0.45597 0)
(2.14171 0.145984 7.12896e-20)
(0.737334 0.607599 3.3244e-19)
(0.28567 -0.287688 -2.00237e-19)
(-0.974497 -0.75681 -7.15663e-19)
(-0.378405 -0.574425 0)
(1.08558 0.00611524 -2.66414e-21)
(1.55229 0.470545 0)
(1.45419 0.252307 0)
(-0.546771 -0.0457319 1.35042e-19)
(0.803078 0.715481 1.00674e-19)
(1.67797 0.0157491 0)
(-0.714153 -0.561611 1.16056e-19)
(0.897043 0.211381 1.58618e-19)
(1.03593 -0.0331634 3.33222e-21)
(1.23306 0.908984 2.81214e-20)
(0.93982 -0.839314 -2.08258e-20)
(0.822928 0.000388623 9.49736e-22)
(0.788969 0.718189 1.01928e-19)
(1.17292 0.907313 0)
(1.13289 -0.0696699 6.1344e-22)
(0.979115 0.106975 0)
(1.02164 -0.0115814 -5.0755e-21)
(1.0128 0.400246 2.31648e-19)
(0.999618 -0.0167817 0)
(0.928466 0.122978 -2.5906e-20)
(0.868628 -0.191693 4.02709e-20)
(0.618751 -0.41268 0)
(0.655321 -0.386853 1.79047e-19)
(1.21701 0.542205 -2.56123e-20)
(0.477373 0.447336 2.33939e-19)
(-0.661675 0.604625 5.86937e-20)
(0.834152 0.660904 2.08491e-19)
(0.96981 -0.00710365 0)
(1.33875 -0.887521 -3.35387e-20)
(1.04975 -0.0107743 3.418e-19)
(1.55449 0.305937 1.6023e-19)
(-0.661164 -0.424825 9.72124e-20)
(0.142268 0.418049 0)
(1.17283 -0.241208 -8.96333e-20)
(-0.164274 -0.265348 -2.75563e-19)
(0.878391 0.362504 3.08718e-21)
(-0.122899 -0.0281062 1.22152e-21)
(-0.240089 0.0613233 3.96665e-19)
(1.04848 0.00419468 -5.03184e-22)
(1.65033 0.274949 9.664e-20)
(1.17146 0.44109 -2.27189e-19)
(1.12554 -0.0611344 0)
(1.46116 0.0331357 8.61747e-20)
(1.44943 0.018666 4.5221e-20)
(0.908645 -0.751571 1.11858e-19)
(1.1884 -0.986254 -1.28099e-20)
(0.483234 0.447285 1.55814e-19)
(1.01285 0.177726 0)
(1.77554 0.542147 5.41068e-20)
(-0.225077 -0.416717 -5.67045e-19)
(0.876538 0.77028 0)
(1.04599 0.00597701 0)
(0.287528 -0.28833 -3.67466e-21)
(0.313099 0.282429 0)
(0.21554 0.216974 -6.80242e-21)
(-0.737681 0.600619 -1.92007e-19)
(1.81446 -0.431435 0)
(1.25016 0.080156 1.0672e-19)
(0.201566 -0.630309 1.61942e-20)
(0.523359 -0.497165 -3.83386e-19)
(1.39899 0.13247 -1.30354e-20)
(0.600341 -0.544115 0)
(1.09661 0.122506 0)
(1.34998 -0.436869 0)
(1.08712 0.22529 -1.91634e-19)
(1.22342 0.0667663 2.68879e-19)
(0.687322 -0.054258 0)
(1.02455 0.0312929 0)
(1.13028 -0.0320871 4.63159e-21)
(-0.51892 0.898963 1.91648e-19)
(1.31105 -0.201749 -2.41632e-20)
(1.18517 -0.540285 2.34711e-19)
(0.989852 -0.0626371 -3.33037e-20)
(-0.0906858 -0.363617 -4.48994e-20)
(1.41328 -0.160228 -6.81669e-20)
(1.00735 -0.0302271 3.51348e-19)
(1.52899 0.561881 0)
(-0.884778 0.533063 5.24662e-20)
(1.00635 -0.81782 1.32646e-19)
(0.852807 -0.00763146 4.06248e-20)
(0.624172 -0.435949 0)
(1.95711 -0.391069 9.00817e-21)
(1.19663 -0.200117 1.16184e-19)
(1.02353 0.00516793 0)
(0.604296 -0.556685 3.53316e-19)
(0.996629 0.00231017 3.63229e-21)
(1.27233 -0.290282 2.9302e-20)
(-0.689846 0.890497 -4.26243e-19)
(1.32152 0.588372 1.05101e-19)
(1.12127 0.413291 2.92698e-21)
(0.891566 0.361617 1.87486e-19)
(1.20022 0.354621 -5.60184e-21)
(-0.45304 -0.562638 -1.6274e-20)
(1.63906 0.988876 0)
(-0.170602 -0.00470056 4.28611e-19)
(1.13242 -0.973324 0)
(1.07187 -0.640537 1.71355e-20)
(1.15168 0.587935 -3.12671e-20)
(1.01948 0.0408244 -3.32415e-21)
(-0.565561 0.217298 -2.538e-19)
(0.981929 0.471713 1.42902e-19)
(0.949829 0.0575173 -1.94398e-20)
(0.859863 -0.00893894 0)
(0.833762 -0.0101952 0)
(0.793958 0.0109051 2.19226e-21)
(0.792239 -0.0436341 0)
(1.32008 -0.211488 -1.19556e-19)
(0.137521 -0.168314 1.70283e-20)
(1.8943 0.383109 6.16904e-20)
(1.05565 0.0133826 0)
(0.545348 -0.358166 8.78656e-20)
(1.01396 0.0272646 1.67749e-19)
(0.98263 0.0585157 1.44795e-20)
(-0.199651 -0.809075 0)
(1.11648 -0.473122 3.87747e-19)
(1.0071 -0.000747765 -4.86021e-25)
(1.10463 -0.490982 -1.68985e-19)
(2.05948 -0.0271416 1.93574e-19)
(1.2872 0.775264 0)
(0.971025 0.00604911 0)
(-0.629675 -0.270968 -2.13315e-19)
(-0.0665879 0.153493 2.29209e-19)
(0.955632 0.349509 -1.71545e-19)
(0.581296 0.483907 -3.73337e-19)
(0.644452 0.393168 2.06162e-19)
(1.00314 0.01117 0)
(0.530285 -0.490627 0)
(1.0283 -0.0105082 5.10846e-22)
(1.2018 -0.503781 -7.60501e-20)
(1.03869 -0.573141 2.8378e-20)
(0.724993 -0.164484 1.00655e-19)
(-0.38407 0.857103 -4.63441e-19)
(1.19569 -0.680232 2.81761e-20)
(0.664566 0.622205 0)
(1.2613 0.67629 0)
(1.50011 0.189315 0)
(-0.739936 0.197035 -1.96776e-19)
(1.37023 0.573285 2.78564e-19)
(1.39012 0.139782 1.27321e-20)
(1.07224 -0.00543393 0)
(1.02841 0.000358061 0)
(1.4286 -0.0785462 -7.35719e-20)
(0.972231 0.0971255 -1.70246e-20)
(0.990112 0.0223836 -1.66489e-19)
(1.46592 0.483611 0)
(-0.694937 -0.232896 0)
(1.21147 0.272389 2.30499e-19)
(1.00962 0.521429 -1.04789e-19)
(1.02351 0.0347645 0)
(1.12506 0.298017 0)
(2.08023 0.594113 -3.8928e-19)
(-0.497737 0.859502 -2.92744e-20)
(1.03552 0.0304822 0)
(0.702631 0.45558 -2.8058e-20)
(0.945265 -0.823322 0)
(1.05798 0.00367434 3.84568e-20)
(1.04113 -0.00733719 1.31379e-20)
(0.88443 -0.336251 2.55599e-19)
(1.00826 -0.00972059 -8.34232e-21)
(1.83667 0.186603 2.16382e-19)
(1.02868 -0.0127271 1.22787e-21)
(0.832547 -0.0350279 0)
(0.960805 -0.0317404 0)
(-0.106916 0.672166 0)
(0.665332 0.640655 -1.50435e-19)
(-0.39143 0.751241 3.12758e-19)
(1.1263 0.350973 -3.70614e-19)
(-0.634139 0.106071 0)
(0.820724 0.631896 1.3859e-19)
(1.00575 -0.311955 0)
(0.997116 0.030152 9.75911e-20)
(0.945159 0.248639 -2.77574e-21)
(1.02132 0.396012 2.0714e-19)
(1.37391 -0.723247 0)
(1.79518 -0.189627 -4.17057e-20)
(0.825902 -0.103225 -3.07677e-19)
(0.369847 0.199398 2.75906e-20)
(0.991291 0.144594 0)
(0.869439 0.234039 1.4724e-19)
(1.84075 0.520522 0)
(0.767749 0.503306 3.02884e-19)
(0.344688 -0.0748065 -1.16991e-20)
(-0.53794 0.888143 0)
(0.59623 0.56693 -5.85186e-20)
(1.03504 -0.631627 -1.20291e-19)
(0.475454 -0.261765 -1.0445e-19)
(1.00039 -0.0401307 0)
(0.0190573 -0.863872 -1.04521e-19)
(0.627361 -0.564 6.76397e-20)
(0.893052 0.288626 0)
(1.07012 -0.0364534 -6.60075e-21)
(0.972946 0.831338 1.83906e-20)
(1.01174 0.0112513 -1.24383e-20)
(1.0455 -0.416895 -6.33812e-19)
(0.235712 -0.0734248 -4.76245e-19)
(-0.705885 -1.02964 1.71589e-20)
(0.806165 0.344328 2.06383e-19)
(-0.865201 0.692293 -1.00936e-20)
(1.40668 -0.614035 3.44309e-21)
(1.03233 -0.012384 -2.89709e-19)
(-0.560152 0.384681 0)
(0.975733 0.0354526 -3.38841e-19)
(1.24295 0.207521 4.65849e-21)
(0.876148 0.683359 2.28284e-19)
(1.0284 -0.0961351 1.35015e-19)
(0.98982 -0.031625 1.34819e-19)
(1.02743 -0.0040832 3.05607e-21)
(-0.517765 -0.392035 -1.93029e-22)
(1.80263 -0.856001 1.71829e-20)
(1.17652 -0.0937919 -6.33579e-20)
(1.05795 0.0750854 7.23739e-20)
(0.902671 -0.311082 7.51272e-20)
(0.773947 -0.0242299 0)
(0.946904 0.73085 0)
(0.950943 0.295468 3.30791e-21)
(1.86778 0.0931069 -2.04627e-20)
(0.00401559 0.100484 1.95431e-20)
(1.04564 -0.533953 -4.14619e-19)
(0.607576 -0.533949 3.26356e-19)
(2.011 -0.451623 -1.2721e-19)
(0.987104 0.033469 4.63755e-20)
(1.02424 -0.0100612 0)
(0.743996 0.119185 -5.73345e-21)
(1.01266 -0.0202261 1.11537e-20)
(1.02047 0.757673 0)
(1.02627 -0.0249435 0)
(0.823188 -0.563 0)
(-0.806 -0.831589 -1.0917e-19)
(0.207558 0.142762 0)
(1.03405 0.0769795 -1.50192e-20)
(1.16838 0.179031 5.18657e-21)
(0.807141 -0.0185627 -1.75663e-20)
(1.03031 0.00654689 -2.21182e-21)
(1.87053 0.435276 -9.8879e-20)
(2.02093 -0.184702 -2.98192e-20)
(-0.219794 -0.0685134 -2.79285e-19)
(-0.373331 0.479408 9.30672e-21)
(1.027 0.0296358 0)
(0.802201 -0.0126115 0)
(0.991853 0.000704565 1.22826e-21)
(-0.719514 0.235164 0)
(1.32846 0.0778717 -6.65684e-20)
(0.758315 -0.00518132 0)
(1.08153 0.025354 1.07193e-19)
(1.02216 0.0370355 -3.80252e-20)
(1.119 -0.53628 -2.76103e-22)
(1.02889 0.0228528 -7.82138e-22)
(0.900288 -0.194402 -4.54962e-20)
(1.02318 -0.0463302 3.11275e-19)
(0.659927 -0.603074 1.5214e-19)
(0.898681 -0.0431064 1.83041e-20)
(1.00981 0.0105409 -3.18708e-21)
(-0.102357 0.287116 0)
(1.10591 0.787761 0)
(1.03231 -0.0070952 0)
(1.00341 -0.757542 -8.17666e-20)
(1.06287 -0.899667 1.37926e-20)
(1.03545 -0.0303592 2.34506e-21)
(0.858663 0.159452 5.21344e-20)
(1.02712 -0.00832666 2.78744e-21)
(0.57671 -0.389983 -5.34507e-19)
(0.991829 0.0123496 4.339e-21)
(1.02528 -0.0110392 -8.76743e-21)
(2.12919 0.00281663 1.172e-19)
(1.00423 -0.00722719 3.49428e-21)
(-0.824409 -0.594893 -1.97244e-19)
(1.08248 0.554913 1.5536e-19)
(0.478597 -0.744708 0)
(0.314732 0.837764 5.83586e-19)
(-0.34257 -0.858081 7.73035e-21)
(1.02368 -0.0112879 2.79267e-19)
(1.01764 0.0156111 -7.23119e-21)
(1.03221 -0.0136885 -7.67314e-20)
(1.03025 -0.0101563 5.22551e-21)
(1.55649 0.271627 3.68632e-20)
(0.396169 -0.374257 -2.64105e-19)
(1.03669 -0.030313 -3.37947e-21)
(1.01803 -0.0241064 -2.05235e-19)
(1.0216 0.0133071 3.28006e-21)
(1.03489 -0.00149091 0)
(1.07866 0.588433 -2.89924e-19)
(1.02588 0.00251526 7.86319e-20)
(0.676905 0.600682 2.1681e-19)
(1.01468 0.0031508 -2.91007e-22)
(1.03612 -0.0183416 -2.54145e-20)
(1.01756 0.0104099 7.2248e-22)
(1.46489 -0.282752 2.53734e-21)
(0.764857 0.018247 0)
(1.02692 -0.00290158 0)
(1.0539 -0.0356782 4.90511e-19)
(0.995326 -0.0115807 0)
(-0.397471 -0.75715 0)
(1.0428 -0.624053 0)
(1.00344 -0.0186762 -4.60897e-19)
(1.16418 -0.670122 6.24427e-20)
(1.01185 0.0232881 9.67115e-21)
(1.34521 0.929645 -8.39448e-21)
(1.53762 0.979035 -1.18479e-19)
(1.01609 -0.0128017 -4.59978e-21)
(1.05909 0.24602 -4.48187e-21)
(0.804161 -0.00173362 0)
(-0.252389 0.559859 0)
(1.35887 0.505813 4.23756e-20)
(1.02339 -0.0227143 0)
(1.00136 0.00378886 -1.4345e-19)
(1.01489 -0.0129352 2.78205e-19)
(1.30753 0.114807 -5.50436e-20)
(0.0213426 -0.0781639 3.31764e-19)
(1.02252 -0.0171846 1.51943e-19)
(0.983874 -0.0155049 -4.12532e-21)
(1.01513 0.0164916 1.24765e-21)
(1.01847 0.00999094 3.97981e-23)
(0.943117 -0.0145552 -1.52266e-19)
(1.00222 -0.00122482 1.7913e-19)
(1.0018 0.0117009 1.05838e-20)
(0.845556 -0.0384779 0)
(0.776775 0.0189038 0)
(0.790562 0.00200168 3.03207e-22)
(0.767853 -0.0117899 0)
(0.809348 -0.011127 0)
(0.75669 0.03799 0)
(0.80326 -0.0085385 -5.0056e-21)
(0.969991 0.0299278 2.59355e-21)
(1.0343 -0.00819995 0)
(1.01127 -0.0106155 1.4007e-21)
(1.02488 0.00444177 0)
(0.829909 0.0136908 0)
(0.787859 0.00958897 0)
(0.753419 0.0101237 6.90679e-22)
(0.770891 0.00553149 -6.92897e-21)
(0.89713 0.0144672 0)
(0.814792 0.0108142 0)
(1.00956 -0.011536 -1.86892e-19)
(0.852792 0.00690323 3.51044e-19)
(1.00338 0.00112762 0)
(1.00674 -0.00104665 3.3099e-19)
(1.01086 -0.000794027 -3.36631e-22)
(0.874467 0.0561278 2.97338e-19)
(1.01361 0.0135548 -1.74098e-19)
(0.98195 -0.0116372 0)
(0.781249 -0.0295827 -1.2487e-21)
(0.985729 0.000371495 -1.67446e-19)
(1.00107 0.0149543 -2.87094e-19)
(1.0209 0.000876595 0)
(0.995698 -0.00355185 0)
(1.01817 -0.00227993 0)
(1.00173 -0.00781481 -2.52408e-21)
(1.01614 0.000628291 2.94924e-21)
(1.02554 0.0216194 0)
(-0.562471 0.336787 2.39312e-19)
(0.929885 0.0738383 2.54125e-20)
(1.02602 -0.00571845 -2.22689e-19)
(-0.962752 -0.366937 -1.65178e-19)
(0.988093 0.0107837 -1.80706e-19)
(1.23422 -0.199947 -7.97056e-20)
(0.781051 -0.47204 2.52541e-19)
(-0.548553 -0.736016 -1.51353e-19)
(1.03585 -0.0238352 0)
(1.01491 0.00448894 -4.91442e-20)
(0.979505 0.0120983 0)
(-0.198012 0.652983 4.07643e-19)
(0.99962 -0.0246614 0)
(-0.749175 -0.0638052 -3.07845e-19)
(0.98684 0.0101491 3.12072e-21)
(1.68196 0.636275 7.1033e-20)
(-0.0827573 0.114482 0)
(1.0659 -0.0143024 1.52196e-19)
(1.01448 0.013576 5.78252e-22)
(0.919079 -0.0202166 2.37846e-19)
(1.0312 -0.0103687 -1.50168e-19)
(1.70768 0.812977 8.08377e-20)
(0.524487 0.487817 0)
(0.439184 0.383362 1.74523e-19)
(1.00071 0.0274471 4.87855e-22)
(1.11019 0.109189 1.59192e-19)
(1.09492 -0.701386 0)
(1.00222 0.00848613 0)
(1.00114 0.00247343 -3.52464e-19)
(1.04647 0.0271711 -3.40083e-19)
(-0.763427 -1.02056 0)
(1.20957 0.807862 -8.64052e-20)
(1.04527 -0.0173332 3.09823e-22)
(1.02344 -0.0140536 1.31017e-19)
(1.04064 -0.00715689 -1.64757e-19)
(-0.561732 -0.0288449 -2.69366e-20)
(1.0321 0.00903194 -6.6533e-21)
(1.03514 -0.0138434 5.58036e-19)
(1.02822 -0.00730004 0)
(1.90967 0.633344 -8.5813e-20)
(1.00288 -0.0102573 -1.7514e-19)
(1.21723 0.0759394 -2.43934e-20)
(1.04216 -0.00637781 -4.03885e-22)
(1.00349 -0.0483339 3.51493e-20)
(1.9255 0.326903 -1.89822e-19)
(1.03052 -0.018799 1.6898e-19)
(1.01474 -0.0139183 -8.48077e-23)
(0.985833 -0.019406 0)
(0.910191 0.146447 4.15507e-20)
(0.709121 0.107969 -4.39498e-22)
(1.03617 0.0204374 1.68959e-19)
(1.04636 0.0271957 3.40249e-23)
(1.00356 0.00444544 -9.55556e-22)
(1.22018 0.298867 3.201e-19)
(1.033 -0.00228866 1.15155e-19)
(1.04045 -0.0016117 1.49342e-21)
(1.68993 0.196781 -8.76391e-21)
(1.8744 0.936716 -1.3714e-19)
(0.772528 -0.685758 4.6097e-20)
(0.449422 -0.337294 -2.59955e-19)
(0.999948 -0.0185285 0)
(1.01426 0.00473958 4.11963e-20)
(1.00549 0.00391052 8.99951e-20)
(1.01821 -0.00896205 1.92877e-22)
(0.97946 0.0158545 -1.75959e-19)
(1.01514 -0.0293091 2.03193e-19)
(1.05296 -0.0101874 -1.6666e-19)
(1.00302 0.011753 1.73007e-22)
(0.990201 -0.00729842 -1.09249e-21)
(1.04139 0.0233872 1.68778e-19)
(0.888428 0.084886 4.29507e-19)
(1.02857 0.0363393 0)
(0.950118 0.56424 -1.05056e-20)
(1.04525 -0.00621945 0)
(1.00901 -0.0176045 -4.91227e-20)
(1.51877 0.391894 -4.84371e-20)
(0.915477 0.0797543 0)
(1.08107 -0.0317692 2.78289e-21)
(1.039 0.0638407 2.89299e-21)
(0.932393 0.00462614 0)
(1.50064 0.537499 0)
(0.981667 0.0543272 1.45005e-20)
(1.00912 -0.033277 -1.98627e-21)
(1.00794 0.0040618 -1.78673e-19)
(1.12302 -0.558108 -4.75357e-20)
(1.00912 0.0100655 -3.40985e-21)
(1.01342 0.00466777 0)
(1.0184 0.000484046 0)
(1.04654 0.0360444 0)
(0.727484 -0.0424545 2.75628e-19)
(1.03629 0.0108967 6.57566e-21)
(0.980151 0.0285759 0)
(0.261577 -0.983143 -2.94481e-19)
(1.71932 0.942369 -1.18769e-19)
(0.996588 -0.00232188 -3.46368e-19)
(1.02069 -0.000362126 1.88116e-21)
(1.02832 0.0115221 2.31235e-19)
(0.8806 -0.0210442 0)
(-0.592886 -1.01381 -5.33836e-20)
(0.611303 0.417007 -2.90019e-19)
(1.06467 0.0357113 -8.40746e-21)
(0.4228 -0.765265 0)
(1.01847 -0.0398621 6.40301e-20)
(0.524085 0.498579 4.35358e-20)
(1.17741 0.869594 -2.19125e-20)
(-0.011219 -0.118158 1.87223e-19)
(1.01101 0.037714 0)
(1.02597 0.0141648 4.75155e-21)
(1.02283 -0.0410866 1.30801e-19)
(1.74501 -0.358397 0)
(0.969229 -0.00143077 2.18132e-19)
(0.578069 0.947459 -2.92875e-19)
(1.01265 -0.00283265 -1.36563e-19)
(1.02898 0.00356497 0)
(1.09838 -0.042659 5.25741e-25)
(1.01955 -0.000291787 -8.9395e-20)
(0.968651 -0.0370035 2.40377e-19)
(1.07804 0.102125 -3.15746e-21)
(1.01487 -0.013533 -4.99655e-21)
(-0.0507867 -0.112351 4.51057e-19)
(2.29645 -0.149488 2.14767e-19)
(1.02997 0.00874609 5.53785e-21)
(0.815055 -0.0199272 -3.30178e-19)
(0.945847 0.0161955 0)
(1.01679 0.00697351 4.56878e-21)
(1.02265 -0.0277125 -2.6353e-20)
(0.961355 0.0274604 0)
(1.03396 -0.00322262 -1.67406e-19)
(1.00578 -0.0200916 -6.33857e-21)
(0.433821 0.064158 -1.33202e-20)
(2.23327 -0.427044 0)
(0.727734 -0.142745 5.02108e-20)
(1.49552 -0.278225 0)
(0.977811 -0.0337357 4.88843e-20)
(1.03342 -0.0138272 -1.41712e-22)
(1.03507 -0.00863223 1.4072e-19)
(0.391872 -0.332181 -1.5483e-20)
(1.00517 0.0165208 0)
(1.00988 -0.00891854 -3.38473e-19)
(0.967156 0.0251164 1.78838e-19)
(1.0319 0.00168997 0)
(1.03531 -0.00101678 -2.04485e-23)
(0.997633 0.00133412 -1.5421e-19)
(-0.990419 -0.452553 7.5057e-19)
(0.984618 -0.00575657 -1.74816e-19)