/*--------------------------------*- C++ -*----------------------------------*\
| =========                 |                                                 |
| \\      /  F ield         | OpenFOAM: The Open Source CFD Toolbox           |
|  \\    /   O peration     | Version:  2306                                  |
|   \\  /    A nd           | Website:  www.openfoam.com                      |
|    \\/     M anipulation  |                                                 |
\*---------------------------------------------------------------------------*/
FoamFile
{
    version     2.0;
    format      ascii;
    arch        "LSB;label=32;scalar=64";
    class       volScalarField;
    location    "14.6";
    object      p;
}
// * * * * * * * * * * * * * * * * * * * * * * * * * * * * * * * * * * * * * //

dimensions      [0 2 -2 0 0 0 0];

internalField   nonuniform List<scalar> 
2186
(
0.717535
-0.407373
-0.100553
1.02946
-1.01121
-0.0480994
0.628751
-1.06692
-1.1197
1.27769
1.01772
-1.00878
-1.06731
0.978768
-0.638238
0.984771
1.00753
-1.53662
-0.00560853
-0.867216
1.3775
-0.835502
0.985751
-1.08943
0.978198
1.00442
1.20103
0.856514
0.554069
0.978145
-0.856593
0.978551
-0.804383
-1.11953
-1.01244
0.0707837
-1.01542
1.36733
-0.891628
-0.0657912
-1.08832
-0.835768
-0.747865
-0.90198
0.862748
1.26106
0.294484
0.466588
-1.58496
-1.10839
-0.861634
0.86297
-0.748553
1.30211
-0.782161
0.906837
-0.796445
0.934363
-1.02946
0.756682
-0.881499
0.58973
0.511782
-0.0721535
0.524458
0.407382
0.630967
1.26758
1.16397
-1.14862
-1.07518
-0.943268
1.23525
0.959816
1.15239
1.11576
-1.22957
1.00121
-1.01912
-0.782073
-1.92372
-0.100372
0.973375
0.575753
0.965676
0.973289
1.27478
-0.03548
-0.233856
-1.02284
0.90911
-0.883479
0.890339
1.13372
0.98798
0.379004
-0.226172
0.541522
-1.08592
0.948716
-2.30376
-2.22418
0.600254
0.907777
1.00961
-0.882444
1.1934
-0.853685
0.893261
-1.60897
-0.732226
-1.02721
0.492332
1.30075
-1.07008
-0.955877
-0.224449
-1.59288
-1.02505
1.23639
-0.0617679
-1.34416
0.822487
-1.82439
0.989186
-0.21447
-1.0266
1.10729
-1.59726
0.609248
1.35036
1.20077
0.183456
0.601103
-2.00622
-1.13734
0.877588
-1.12526
-0.783006
-1.03458
0.766
-0.27617
-1.04189
0.653929
0.877191
0.91891
-0.783442
-1.03488
0.562289
-0.882883
-0.951799
0.530113
1.00461
1.14629
1.00594
0.477351
1.27179
0.384268
0.283843
0.36952
-1.03833
-1.3751
0.959117
0.949427
-0.0174974
-0.0115743
-0.937905
-0.982289
-0.276906
-0.278666
0.319116
0.954542
1.00781
1.07236
0.388006
-0.439204
-1.02522
0.959817
-1.61781
0.825598
-0.976595
0.992443
-0.860948
0.507667
0.493768
-1.06667
-0.827506
1.11316
-0.695978
-1.05119
-1.16917
1.23689
-1.8862
0.940344
-1.03483
-1.49427
0.0475082
1.15649
1.04733
-0.846761
-1.22869
-0.965971
0.0236714
1.00778
-1.0177
-0.972898
-1.02488
-1.30445
0.925917
-1.34394
0.470067
-0.283202
1.28717
0.794379
0.89202
0.910743
1.1651
0.983113
0.856196
1.07832
0.316649
-0.886385
-0.834293
0.0576873
0.132268
-1.5572
-1.01724
1.0154
1.105
-0.997612
-0.95624
-1.96276
0.317881
0.607366
0.735125
0.857418
1.08333
-1.97299
0.846146
-1.03762
-1.13005
-0.947333
0.975143
0.695124
1.13258
1.15633
1.09127
1.06942
-1.06745
0.783318
1.09168
-1.10127
0.961805
0.743126
-2.10898
-1.02699
-0.987935
1.13426
1.00665
-1.08291
-1.28658
-0.507743
0.915577
-1.94571
0.714601
1.04674
0.826286
-1.07447
-0.866396
0.952957
0.584638
-0.783758
-0.701942
1.32665
-0.971938
-1.06301
0.810856
1.14995
0.967379
-1.07862
-1.15863
-0.978011
0.883295
-1.11292
0.497547
0.951191
0.986587
-0.271716
-0.631307
0.943234
-1.15055
0.892553
1.1603
1.00237
0.998563
-0.630793
-1.06936
-1.08634
-1.02397
-1.82035
-1.87605
0.326965
-0.639179
0.573192
1.13576
1.19022
0.887573
-0.828796
1.12295
-1.27824
-0.291888
-1.27068
-1.04013
-1.0619
0.298661
-0.948599
-0.910575
0.128889
0.899222
-0.363181
0.34642
-1.00498
-0.246046
-1.03575
-1.00524
1.19927
-0.0524278
-0.161179
-0.863265
0.747233
0.509754
-0.569347
0.470729
-0.813673
-1.10194
0.626819
1.00474
1.05414
-1.2928
1.13216
0.849595
0.337926
1.21168
0.98003
0.910796
0.310802
-0.321614
-1.03881
0.839479
-0.949678
-1.00173
-1.30189
-0.856439
-1.02857
1.35137
-0.522109
-0.86319
-1.11736
0.979299
-1.00253
-2.04289
-1.0497
0.718184
-0.211392
-1.47686
1.23757
1.29874
1.09207
-1.04772
-0.170776
1.36683
0.98432
-1.23275
0.410914
-1.04466
0.117727
1.16054
0.960345
0.840573
1.27454
-0.609146
-0.402437
-0.343788
-0.868791
-1.55703
-0.823721
-0.140859
1.2965
-1.67498
-1.36072
0.97077
0.537631
-1.0343
-2.05284
-1.04164
-1.37549
-1.3426
-1.03272
-0.865279
-0.970182
1.16722
-0.37695
-0.906054
0.995101
-1.37188
1.23004
-1.54977
-1.95001
-1.07743
0.977364
-0.981116
1.00474
0.808486
-0.845462
1.01277
-1.41205
-1.03236
-1.23729
0.976834
0.914357
-1.08678
-1.05391
-1.28453
0.959926
-1.48842
-1.7525
0.4768
0.922712
0.852878
0.667605
-1.10766
-1.14273
0.797882
-1.03024
0.768655
-1.70696
1.00052
-0.0783593
1.09928
-1.02627
0.813509
0.66565
1.01182
-1.25842
0.976559
-0.755203
-1.03106
0.980049
-1.65103
0.0736052
-0.904803
-0.254895
0.986609
0.0231754
0.236992
0.985059
0.203067
-0.229814
-0.0884467
-0.862665
0.165325
-1.11226
0.667066
-0.753607
1.05296
1.10071
-1.09664
-1.03635
-0.403108
-0.838476
0.37951
-1.04771
0.808541
-0.12853
-1.05863
1.07938
-0.33952
0.338207
0.244509
-0.228118
0.770347
0.310407
-0.841466
-1.51941
-0.198325
-0.704977
0.995732
-1.68284
1.08234
1.19698
1.18421
0.617944
1.15188
-0.979936
-0.730842
0.867886
0.163812
0.971799
-0.802517
-1.03692
-1.76341
0.754051
-1.03242
-1.95025
-0.861502
-0.903045
-0.0085683
-1.15339
0.703845
0.671528
-0.847507
-0.950759
0.709433
0.019322
1.12089
-1.68596
-0.217537
-1.03364
0.732796
-0.230454
1.14019
1.38155
-1.82572
-0.994762
-0.928866
0.231901
-2.11976
1.00359
-0.984821
0.958906
0.725006
-1.04717
0.842402
0.803377
-1.94255
0.847816
-1.11207
-0.880447
-1.43329
-0.98561
-1.13345
-1.81562
-0.998377
0.981291
0.175747
-1.00237
0.545963
1.12903
1.18298
-0.427744
0.715752
-0.250131
0.737025
-0.241989
-1.66974
-0.90273
0.461538
0.784325
1.04184
-1.68408
-1.12823
-1.49973
-1.02984
-0.172891
0.690558
-1.85997
-0.00656051
-1.27374
0.919947
-1.05423
0.933795
-0.696333
-0.633825
0.924317
0.619589
-1.86499
-0.210433
0.945414
1.26362
1.00223
-0.949251
-1.63256
0.762746
-0.5758
0.74918
-0.711592
0.410294
0.942177
-1.03922
-0.865058
1.00003
-1.30125
1.22764
-0.143217
0.839468
0.130458
0.581362
-0.864111
1.21287
-0.870669
-2.00985
0.941829
0.487716
0.456569
-1.2464
-0.856972
-1.02451
0.746493
-0.284835
-1.10675
-1.12534
0.996284
0.349688
-1.4185
0.711245
0.870354
0.964928
-1.80287
-0.778045
-0.889754
0.993595
1.16118
0.444856
0.989251
0.121245
1.02577
0.158611
-0.959329
-0.476672
0.896368
0.94316
-1.59515
0.829047
-0.879408
0.776637
-1.10523
0.982871
0.920089
0.99785
-1.73897
0.900975
-1.92209
-0.957962
1.14643
-1.93459
-1.56382
1.09817
-1.32438
1.09031
-1.95249
-0.893117
1.0278
0.742598
1.33234
0.980133
-1.92212
1.0513
1.06788
-0.695489
0.609917
0.0910151
-0.951849
1.47053
-1.04448
1.11919
-0.964557
0.251106
0.981031
-1.31046
0.970635
-1.4998
0.905042
0.925059
0.993673
-0.0122743
-1.00562
-0.674025
0.535955
0.633077
1.03873
-0.245906
0.806679
-1.91071
-0.504013
-1.65158
0.797945
1.11536
-1.13378
-1.15603
-0.116584
1.22085
-0.113036
0.710821
-0.0529708
-2.36734
-1.05375
-0.856426
-0.959057
0.773677
-1.76464
-0.229526
-0.341894
-0.653878
-0.880182
-1.29402
-0.300496
0.950995
0.99954
-1.25805
-0.536117
0.963899
0.908203
0.999659
-2.17562
0.963452
1.03014
0.975635
1.02747
-1.31541
-0.328562
-0.867887
0.592645
0.982082
0.667624
0.1021
-0.25968
-1.80045
0.0248906
1.23113
-0.282419
0.168407
-0.779156
-0.290015
-1.05916
0.761762
-0.998101
-1.41771
-1.02988
0.981558
0.981948
0.992067
-0.0399158
0.299701
1.20693
-0.241438
0.975927
-0.27878
-0.0692878
0.738356
1.00033
1.0782
-0.0365346
0.958194
0.956949
-1.42135
-0.303034
0.992921
1.00524
1.00095
-1.0364
-1.06763
1.0017
0.568686
0.981995
0.180828
-0.15423
0.0633828
-1.63611
-0.425017
-0.918613
-1.58628
-0.203148
1.00806
1.01211
0.725581
-1.03393
0.982176
-0.260375
-0.231307
-0.0161905
0.9794
1.00558
1.00202
1.01574
0.992523
0.98611
0.976808
-0.221832
-0.282961
-0.0667733
-0.135248
-0.0172199
0.00188617
-0.0105472
-0.0949877
-0.19241
-0.277146
-0.254039
0.974866
0.993759
0.98895
1.01226
1.0099
1.00163
1.00622
0.983719
0.990369
-0.161587
-0.170256
1.00301
1.00179
-0.0243698
1.00392
1.00307
-0.100017
0.071785
-0.299367
-0.987783
-1.40665
0.985281
-1.14988
0.982841
0.592161
1.04764
-1.04097
0.980997
0.926761
0.925413
-0.861012
-0.0687079
-1.14459
-0.318088
-0.0761634
-0.851559
0.997823
0.0334909
1.07338
0.988995
-0.20529
1.16889
1.31825
-0.239807
0.853375
0.626232
0.982001
1.00006
0.990948
-1.04116
0.458336
-0.0315217
0.987119
0.996237
-1.10092
0.0385809
0.989176
-0.0629244
-0.373008
0.988583
-1.08727
0.968856
1.00137
-1.08571
0.992929
0.0839381
0.984525
1.06492
-2.05983
0.998674
1.00688
-0.00617346
0.661702
0.984782
0.990721
0.119106
-0.767363
0.67972
1.32398
0.997217
0.986919
0.992426
0.0862342
0.987831
0.972847
0.993197
0.988427
0.990179
0.985749
1.09436
-0.629565
-2.06776
0.988855
0.983674
0.250504
-1.05723
-0.59053
-0.689909
0.855331
-1.53328
-0.619542
-0.0133193
0.985243
0.692437
0.00234378
0.00686356
-0.138097
-0.520791
-0.971095
0.0490239
-0.507853
-1.67483
-0.360743
0.992456
0.0316774
0.980415
0.904257
-1.03132
1.2406
-0.455095
-1.26411
0.718479
1.1288
0.433901
-1.02803
0.984254
0.0393086
0.990428
-1.2894
0.990876
-1.37412
0.982712
-0.0298553
-0.672622
0.992647
1.00829
0.932049
0.0821655
-1.02214
-0.814496
0.195201
1.00416
0.888426
0.119295
0.983692
1.02602
0.977824
0.358091
-1.99241
-0.743531
-1.99454
0.274368
0.989904
-0.0737086
0.986342
-2.15013
0.985253
1.02403
0.994222
-0.0166234
-0.019081
1.0193
-1.16414
0.995918
1.00059
-0.0448191
-1.05542
0.936884
1.1323
0.980349
0.978985
0.220881
0.299729
0.952112
0.369324
0.994855
0.81165
-1.03825
-1.04873
0.832152
1.22594
0.984951
0.298519
-0.526898
0.286065
-1.905
-0.365201
0.967617
-1.2533
0.970938
-1.61068
-1.03729
-0.991486
0.427258
-1.17946
-0.334227
0.0491533
0.98236
-1.02948
0.908042
-1.04274
-0.226714
0.200539
-0.00570289
-0.134811
0.957025
0.173998
-0.883577
0.0695724
-1.27214
0.97051
-0.207031
-0.00314393
-2.31414
1.0769
-0.336845
-1.04002
1.05405
0.968996
0.957791
0.437715
-0.989434
0.989933
1.01778
-1.28239
-0.934219
0.981968
0.761769
1.24828
1.0023
-1.00576
-0.493006
-0.956557
-1.31277
-1.15648
-1.03289
-0.0146164
-1.22907
0.766295
-0.0726734
0.991194
1.20263
0.980706
-1.02554
-1.23823
0.983163
-0.917133
-0.117546
0.959793
-0.380906
-0.953497
-2.07146
0.00624272
0.936364
0.908827
-1.04044
0.802118
0.672417
-1.40629
0.966861
-1.53967
0.799008
-0.793493
0.958295
-1.47926
0.380737
0.984109
1.09402
-2.28762
-1.758
0.818506
1.35772
1.00491
1.0186
-0.773803
1.21759
-0.960517
0.0314844
-0.891586
0.429948
-2.22364
1.09758
1.13351
-1.04413
-1.26575
0.981211
-1.04924
0.821454
1.01494
0.954315
-2.19022
0.985271
-0.0197514
1.01104
-0.0304257
0.00554142
-0.150946
0.987939
-0.221533
-0.495788
-0.178523
0.980529
0.0863264
1.18915
0.217036
1.32138
0.9884
-1.09586
0.962763
-0.892326
0.961352
0.958813
0.0331457
-0.187498
1.12523
0.973823
1.2243
0.942692
0.0329934
0.946743
0.969653
0.857657
0.992761
-1.09393
-1.12649
-1.04241
1.07994
-1.39211
-0.194937
-0.876193
-1.4542
-0.0877406
-0.157171
0.870368
0.0656261
0.934949
0.989685
-0.944213
-1.30158
-1.16931
-1.39425
-1.19254
-0.897469
0.990039
-1.97768
1.00215
1.21047
1.04104
-0.226367
1.00873
0.922241
-1.39338
0.939654
0.970423
-1.04269
0.968554
0.945576
-0.117951
-1.30026
1.43884
-1.79828
-1.36679
-1.15273
0.191332
0.959525
-1.46682
-0.636572
-0.851659
1.12553
-0.314508
0.858662
1.00161
0.965867
-1.3089
0.949658
-2.2524
0.997768
1.01381
-0.444752
1.00351
0.507751
0.971572
0.676433
-2.29342
-0.00776395
-0.0109397
0.0454625
1.23591
-0.182186
1.01792
1.38651
-0.592403
-0.0185293
1.04962
-0.0294602
1.04644
-0.0200302
-0.0357716
1.04857
1.05269
0.384118
-1.50284
0.768958
-0.721816
-1.01513
-0.688454
1.0092
0.97848
1.39881
-1.02918
-0.545328
0.708041
-1.14721
1.06624
0.989346
0.970507
0.977873
0.937561
-2.01705
-1.03511
-1.34714
0.8079
0.912207
-2.1951
-0.912394
-1.05272
0.999736
1.01618
-1.1872
-1.85933
1.02296
-1.03828
0.199459
0.782189
0.930344
-0.286551
-1.19589
-0.257419
-1.01013
-0.747529
-1.95121
-1.46939
1.34762
1.36468
-0.965309
-0.933779
1.00041
0.975932
-1.16577
-0.121654
-0.414235
0.661332
1.08501
-1.49595
0.993004
-1.00464
-1.18967
-1.17361
-1.35972
-0.941788
0.964308
-0.97937
-1.58458
1.35793
-1.00905
0.994264
1.2271
-0.917382
1.01854
1.22665
-0.991299
1.24845
-1.03409
-1.22156
1.02
0.0949909
0.988193
0.995164
-1.04707
1.04121
0.0990828
-1.98711
1.03002
1.00633
-0.963246
-1.42042
0.93841
0.987413
-1.0529
-2.27203
1.2873
-1.05339
0.902155
-0.0938773
0.922662
-1.00428
-1.95646
-1.04682
-0.990905
1.10141
1.01525
1.26442
1.21285
0.987984
1.0493
1.07272
-1.0445
1.14134
1.11921
-0.967367
-1.05902
-1.09904
1.3268
-1.54704
-1.21018
0.11381
0.948314
-0.981242
-0.933691
1.03059
0.995386
-1.04937
-0.929054
-1.1789
0.0194326
-2.24398
-0.986043
-1.0418
0.902153
0.866922
-0.898369
-0.447452
-0.929872
0.854109
-1.05421
-0.985157
-1.03989
0.919724
-1.69985
-0.941338
1.30472
0.874726
0.352896
1.17262
0.261927
0.955404
1.00064
1.10596
1.1855
-0.253895
0.697466
1.01721
0.224571
-1.03702
1.41358
0.944929
0.885724
1.04503
-0.955312
-1.95985
0.830374
0.80493
0.946254
-2.05243
-2.03918
0.972319
-1.0359
0.797557
-0.0829568
1.414
-1.03475
0.751061
0.709723
-0.875871
-1.03251
-1.66125
1.03749
-0.882546
-1.03344
0.671435
0.635425
-1.32035
1.05767
0.81164
-0.889488
-0.863186
0.948753
-2.11776
-1.03017
-1.17676
-0.853418
-1.01777
0.976151
0.993363
-1.97663
0.588542
0.992406
1.33728
0.237227
0.312585
0.0426205
0.859074
-0.506914
-0.870367
-1.34671
-0.575529
-0.865157
0.983018
-0.871209
0.204062
-1.02777
0.568388
0.538319
-0.859089
0.607377
-1.91878
0.464022
-0.853671
0.49449
-0.872151
0.355491
-1.0241
0.411717
-0.848072
0.793123
-1.71644
-0.847995
-0.853311
-1.02588
1.00269
0.0479605
-0.883549
-1.02896
0.0727644
0.110655
-0.861307
-1.03388
-0.928767
-0.164338
-1.04369
-0.0880742
-1.07571
-0.291097
-1.00821
-0.33708
0.883837
-0.226423
-1.93867
0.974365
-0.103866
-0.238244
0.415488
0.951772
-2.03237
-2.00209
-1.02454
-1.54772
0.868263
1.41285
-0.854454
-0.201748
-0.0257338
-0.997598
-0.417051
-0.42185
0.96727
-0.973523
0.937192
-1.72316
1.479
0.415594
1.39689
-0.917671
1.16736
-0.53463
0.989364
-1.07906
-1.02222
1.05179
0.979427
-2.33214
-1.0296
-0.854354
0.971432
-0.993446
0.974877
-1.3932
-1.13732
-1.04655
1.2977
1.03377
1.08874
1.01123
1.00216
-0.128436
-0.659595
1.2119
-2.10067
-0.93151
1.41316
-0.914529
0.904766
0.931365
1.35803
1.40752
-0.930049
-1.5603
1.02203
0.18441
-0.511448
-0.802195
-0.848527
-2.0317
-0.924072
0.518735
-1.46657
1.17846
-1.23931
1.05216
1.13102
1.03513
-1.76262
-1.00811
-1.11075
1.07547
-1.00855
1.18104
-0.696606
-1.15673
1.24321
1.28217
-1.02258
0.110843
0.92691
-1.28453
-1.24156
0.63037
1.27767
1.20407
-1.2206
0.873554
0.854406
-1.02568
1.21529
0.303422
-0.906837
-0.840519
-0.206779
-0.169488
1.12057
-0.917585
0.282245
-0.0550513
0.0266459
-0.846676
-1.02253
0.983041
-2.21071
1.01905
-0.0809724
0.0407969
0.659268
0.210594
-1.01639
-0.600569
-1.24004
-0.306381
-0.0219211
-1.60324
0.943514
-1.93716
-1.83709
1.01007
-1.19919
-0.971867
1.00019
-1.09026
0.978903
-0.0978517
-1.04844
-0.403351
0.761361
-0.89219
-1.71606
0.862501
-1.10239
1.05845
-0.63431
-1.08825
-0.959248
-1.02581
1.46454
-2.08126
1.10377
-0.00908808
0.943282
1.18005
0.69094
1.00702
1.16616
-0.179936
-2.01416
0.952634
1.07098
1.33902
-0.994026
1.04101
0.683403
-1.02398
0.759602
1.18508
-0.57028
1.34596
0.153427
-0.951697
0.806019
-1.04108
-0.85144
0.924271
-0.461466
1.0435
1.03053
0.957442
-0.978145
0.908668
1.26747
-1.27412
-0.331366
-2.12567
-1.1877
-1.06474
-1.03068
1.32766
0.71895
-0.99394
0.882969
-1.05159
-0.971934
1.24658
1.2315
-2.19675
-1.44881
-1.02545
-1.08031
0.956511
-0.99001
0.0227392
-0.800505
-0.475771
1.05111
-1.05902
1.38975
1.03893
0.851831
1.0177
1.30695
-1.18961
-1.05995
0.9962
1.12159
-0.853496
0.991309
-2.02636
-1.04717
-1.04562
1.09176
1.12116
-1.05002
-1.00862
0.514002
-0.13755
-1.50534
0.974319
0.970464
-1.47646
1.01015
1.05235
-1.40072
-0.97432
-0.989365
-1.04474
-1.04874
1.28844
-0.302403
0.924362
-0.988947
1.28445
0.870313
0.876215
0.947078
-2.03058
-1.02633
-1.04227
0.53708
-0.937207
0.891456
0.25205
-0.636406
0.865282
0.977873
1.02742
1.00015
-0.023221
1.02573
-0.0352383
0.374335
0.79788
-0.567711
-0.962743
-0.948565
-0.682741
0.998287
0.940533
0.997427
-1.78002
-0.865661
-1.03965
-0.787571
0.996777
1.28877
1.01015
-0.949875
-0.92518
-1.28156
-0.545488
-1.02706
-1.02606
-0.212349
0.987249
-0.908105
-0.894373
-0.043576
-0.149641
0.728668
-1.47013
-1.03715
-1.22193
0.938378
1.41438
-0.000851291
1.08801
1.47477
0.668079
1.20361
-0.980543
-0.0947559
1.37204
-1.03415
0.265774
-0.925309
-1.05453
-0.849028
-0.879259
0.957718
0.699796
1.19724
1.15968
-0.000648447
0.747772
0.0392446
-0.0339747
-1.03102
1.09767
0.730341
1.0054
1.02215
-0.072707
-0.0625165
1.01719
-1.16942
-1.03042
-0.886647
-0.858853
0.552451
-0.873212
0.944554
0.635201
-1.03404
1.20639
-0.948847
-0.33061
0.967497
-0.887772
-0.999247
-1.99976
0.604062
-0.904048
-1.33597
0.919973
1.01325
-0.142668
-0.0208378
-2.15259
-1.02848
-0.307042
-1.76061
-0.269075
0.565889
-1.17084
-0.867694
1.26601
0.263469
0.365143
-0.862425
-1.05951
0.988249
1.01818
0.533392
0.499454
-0.856307
-0.976095
-0.845612
0.456473
0.405741
-0.850563
0.831453
0.146132
-0.844322
1.44005
-0.846432
-1.75125
-1.05013
-0.805274
0.812506
-0.863346
-0.98839
-1.03365
-0.0417427
-0.902735
0.00186235
-0.960748
-0.221361
1.17803
-0.96176
-0.228254
-1.05984
-0.176466
1.34094
1.37152
1.23328
0.994748
1.21042
-0.697757
0.982172
-0.95763
1.01563
-1.0254
-1.04122
1.23752
-1.17919
0.436743
-1.94306
1.37857
-0.0734057
1.3148
0.602179
0.766751
-0.913937
-0.930235
-1.02319
-1.18821
1.29626
1.19348
0.979755
0.59094
0.983039
0.837519
0.816174
-0.852079
-1.07767
0.243132
0.0161831
0.790926
0.99776
-0.0815161
-0.91028
-0.846432
-1.50203
-1.02259
-1.77205
1.31809
1.01611
0.991761
-0.0595904
-0.0423564
1.01393
-0.894393
-1.02962
-2.09373
-1.02119
0.779503
-0.889686
-0.859521
-0.375353
0.996378
-1.80704
-1.04895
0.982638
0.574282
0.68434
0.982631
-1.02655
0.866795
1.1654
0.807964
-1.02344
0.973388
0.314359
0.455631
-1.05704
-0.877314
1.43434
0.192349
-1.33317
-0.0397786
0.902982
0.961704
-0.963245
-1.39128
-0.148472
-0.895956
-0.961201
-0.997255
-0.108321
0.977683
-1.2107
0.979979
1.25482
1.06441
0.982931
1.08296
1.14342
0.986365
-1.40882
-0.724433
-0.420402
-1.1012
-0.994429
-0.857347
1.14262
1.04819
-1.04952
0.940225
-0.904457
0.180902
-0.850383
-0.430082
0.494541
-1.35183
0.975381
0.90264
-1.5803
-0.459471
1.32311
-1.68462
-0.535759
-1.19841
-1.00409
-0.823293
1.02616
0.766486
1.06986
-1.21018
-0.788913
-0.998566
-0.377261
-1.047
-1.42844
-1.46968
-2.04638
0.906818
-0.836016
1.42854
-1.09567
-0.659728
-1.05754
-0.85585
0.904057
-1.08061
-1.16661
-1.04855
-0.440851
1.19305
1.19651
-2.15881
-1.07877
0.816505
-1.04237
-0.974471
1.08133
-1.53955
-2.09736
-1.22674
0.743569
-0.516335
-1.04118
0.978038
-0.0167817
-0.996109
0.991666
-0.928514
-1.57697
-1.29633
-0.924337
-0.161808
-1.04349
1.31267
-1.03463
0.100345
-1.02636
0.785493
-0.699263
-0.993861
0.642554
0.726912
1.03998
0.938855
1.17215
-0.865651
0.815467
0.508377
-1.34586
0.923119
-0.386238
-0.7569
-1.96362
1.15491
1.14147
-0.833143
-0.971598
-1.20573
1.0107
-0.973939
0.0294884
-1.36844
-0.86467
1.27748
1.00839
-0.921111
-0.980227
-0.925129
-0.900503
0.889064
-0.983483
0.974677
0.221847
0.702099
0.828947
-0.831156
-1.01335
0.935064
-0.859124
-0.0792975
1.26509
-1.03872
-0.894652
0.814216
-1.36915
-0.986246
-0.279883
-0.991937
1.33603
-0.716043
0.071002
-0.927788
1.27806
-0.942333
-0.975796
0.63783
-1.30689
-1.02536
1.31528
0.667706
0.978946
-0.989805
1.22922
-0.317562
-0.941199
-0.988453
-0.996117
-0.950878
1.2611
0.570211
-1.04515
-0.939832
-1.02688
1.11935
-0.926472
1.25412
-1.02612
0.704585
-0.88486
0.366212
0.533308
0.498964
0.418015
0.133607
-0.948828
1.00342
-0.986118
-0.698575
-1.23176
0.222441
1.29503
-0.407134
-0.993587
-0.973322
-0.890068
0.260217
-1.09222
-0.881074
0.813041
0.12913
-0.907542
1.36074
-1.03427
-1.6838
1.33935
-0.895207
0.146486
-0.928471
-0.853091
-0.875384
1.33524
-0.844298
1.25577
-0.87231
-1.01028
1.16736
-0.331123
-0.97061
0.560221
-0.991837
0.0134072
-0.511172
-0.88119
0.773349
-1.17156
-0.881229
-0.855824
-0.853364
-1.03188
0.81159
-0.157952
-0.580364
-0.913794
1.28441
-0.937821
-0.983687
-0.840389
-0.23204
-0.982566
-0.834028
-0.906556
-0.192624
1.24384
-0.958493
-1.02159
-1.39594
-0.85139
-0.238416
-1.03725
1.37114
1.30633
0.409191
-1.06296
-1.02911
0.324558
-1.02898
1.38454
0.204538
1.04501
0.693819
1.25918
0.0871128
-0.994368
-1.08734
-0.0646507
-0.988848
-0.0645668
-0.177065
-0.869964
1.28123
-0.404269
0.215634
-0.543418
-1.02042
-1.10752
)
;

boundaryField
{
    frontback
    {
        type            empty;
    }
    Top
    {
        type            zeroGradient;
    }
    outlet
    {
        type            fixedValue;
        value           uniform 0;
    }
    bottom
    {
        type            zeroGradient;
    }
    Inlet
    {
        type            zeroGradient;
    }
    rectangle
    {
        type            zeroGradient;
    }
}


// ************************************************************************* //
