/*--------------------------------*- C++ -*----------------------------------*\
| =========                 |                                                 |
| \\      /  F ield         | OpenFOAM: The Open Source CFD Toolbox           |
|  \\    /   O peration     | Version:  2306                                  |
|   \\  /    A nd           | Website:  www.openfoam.com                      |
|    \\/     M anipulation  |                                                 |
\*---------------------------------------------------------------------------*/
FoamFile
{
    version     2.0;
    format      ascii;
    arch        "LSB;label=32;scalar=64";
    class       volVectorField;
    location    "14.6";
    object      U;
}
// * * * * * * * * * * * * * * * * * * * * * * * * * * * * * * * * * * * * * //

dimensions      [0 1 -1 0 0 0 0];

internalField   nonuniform List<vector> 
2186
(
(1.33835 -0.0673781 1.73707e-19)
(1.63081 -0.956382 -1.10472e-19)
(1.47683 -0.932669 -5.1176e-22)
(0.753599 -0.595553 -1.22377e-19)
(-0.421562 0.585148 -2.09158e-19)
(1.13898 0.0466396 0)
(0.737401 -0.681267 0)
(-0.347222 -0.513898 1.27467e-19)
(1.506 -0.252179 2.13017e-19)
(0.562382 -0.331522 -2.36223e-21)
(0.664806 0.597789 0)
(0.813187 -0.28514 -1.49104e-19)
(-0.402675 -0.53343 -5.12468e-20)
(1.18808 0.0240375 -3.10674e-19)
(1.81876 -0.703991 -1.17012e-19)
(1.00948 -0.00524641 1.47093e-19)
(0.988749 0.0110642 0)
(-0.674522 0.641816 0)
(1.19418 0.0807382 0)
(-0.0620978 0.218062 -6.98877e-20)
(0.478004 0.0619123 -1.0031e-19)
(-0.236148 0.141162 9.46674e-20)
(1.17503 0.0254747 2.56839e-19)
(-0.225123 -0.014301 5.29441e-21)
(1.02789 0.0109405 -2.01727e-19)
(0.804902 -0.570458 0)
(0.759115 -0.045657 1.24188e-19)
(0.624706 -0.603823 -1.38002e-19)
(1.19953 0.704158 0)
(0.968382 0.0269695 -2.75808e-19)
(-0.0116356 0.0225948 0)
(1.02421 -0.00872162 9.54607e-21)
(-0.0218599 0.318288 0)
(2.48703 0.167751 2.33303e-19)
(-0.114046 -0.172631 3.31412e-21)
(1.52188 0.774051 3.86645e-20)
(1.81279 0.162371 1.42124e-19)
(0.502296 0.110345 -2.98818e-19)
(1.89802 0.353315 -3.75855e-19)
(1.04338 0.0819847 9.22136e-21)
(-0.445475 -0.518346 0)
(-0.214006 0.107161 0)
(1.89304 -0.899425 9.90787e-20)
(-0.378721 0.139972 0)
(1.10549 0.270954 1.28754e-19)
(0.603722 -0.312491 2.42708e-19)
(0.937582 -0.799911 0)
(1.20537 -0.803594 7.93992e-20)
(2.39711 -0.427913 0)
(-0.383185 0.742231 2.14479e-19)
(1.65208e-05 0.0841039 1.0333e-19)
(0.618621 0.570399 6.73878e-20)
(2.0892 -0.783793 1.26831e-19)
(0.584076 0.247835 -2.39978e-19)
(-0.230292 0.204445 3.47554e-20)
(0.77901 -0.664114 0)
(1.67801 -0.984154 1.85017e-20)
(0.594166 -0.553806 0)
(2.3465 0.304454 1.22573e-19)
(1.1609 -0.169994 -2.81773e-19)
(1.78288 -0.110389 1.60476e-19)
(1.33451 0.298457 -1.42318e-19)
(1.3321 0.525424 0)
(0.864828 0.128417 -1.01021e-20)
(1.34906 0.382502 -8.2332e-20)
(1.27214 -0.748446 -1.04993e-19)
(1.1594 0.654268 4.29839e-20)
(0.674414 0.0538413 -4.82126e-19)
(0.819982 0.0484274 0)
(2.14806 -0.213888 -7.65137e-20)
(-0.333201 -0.569361 -1.49584e-19)
(1.92762 -0.409696 -1.45703e-19)
(0.722256 -0.0568524 -2.11758e-19)
(0.888535 -0.528077 0)
(0.82501 0.173327 -7.79765e-20)
(0.561186 -0.52258 -2.50774e-19)
(2.44111 -0.334569 0)
(1.0039 0.0103822 3.03339e-19)
(-0.0977209 -0.262271 0)
(1.92374 0.444383 0)
(0.850842 0.457576 1.55533e-19)
(0.820261 0.0988276 -1.81712e-20)
(1.03562 0.00531499 3.35584e-20)
(1.31145 0.420036 2.13659e-20)
(0.972484 0.0233797 3.5139e-19)
(1.03888 0.027853 -8.33979e-21)
(0.661348 0.15646 -2.88418e-19)
(1.18521 0.0327512 -8.56443e-22)
(0.329952 -0.1104 0)
(-0.0670849 -0.0386478 1.08113e-19)
(0.876961 -0.635668 -1.33416e-19)
(-0.102712 0.444137 -2.41781e-21)
(1.12334 -0.0766619 2.02614e-19)
(0.816267 -0.198418 0)
(0.973244 0.020762 3.36787e-20)
(1.35636 0.644723 0)
(1.64271 -0.970801 0)
(1.28674 0.21781 0)
(-0.459055 0.700155 0)
(0.807626 -0.680296 2.39606e-19)
(0.608152 0.205204 -4.76287e-19)
(0.798723 0.334811 3.03097e-19)
(1.52817 0.196305 0)
(1.14256 -0.101111 -1.85221e-19)
(1.10523 0.0219717 1.50388e-19)
(-0.0702005 0.557543 1.30892e-19)
(0.621491 0.484225 0)
(2.21171 -0.177234 -1.50377e-19)
(0.980514 -0.486476 6.69098e-20)
(-1.56866 0.147031 2.07993e-19)
(1.69147 0.323692 1.20182e-19)
(-0.282398 0.705734 -3.05465e-19)
(0.832126 -0.756643 0)
(0.550332 0.322687 1.45768e-19)
(1.69548 -0.258821 -6.15211e-19)
(-0.433409 -0.219602 -4.78249e-19)
(1.23273 0.165878 7.14114e-20)
(1.99967 -0.55778 0)
(-0.0900125 -0.0434194 -3.23912e-19)
(0.706646 -0.0927778 6.69103e-20)
(1.53951 0.87528 0)
(-0.277455 0.851481 -3.45263e-19)
(0.87227 0.74805 -2.28365e-19)
(-0.91119 0.510935 5.24526e-19)
(1.02718 -0.0241587 0)
(1.31727 0.194874 -8.998e-20)
(-0.368051 0.665664 0)
(0.710759 -0.509389 -8.96084e-20)
(-0.806671 0.550952 -2.80934e-19)
(0.804853 -0.734654 0)
(0.44751 -0.303438 3.5539e-19)
(0.555634 -0.473358 2.36367e-19)
(0.420399 -0.380798 0)
(1.002 -0.797168 -9.38051e-20)
(0.836269 0.344242 0)
(-0.139715 0.846224 -1.68282e-19)
(0.827677 -0.712404 1.12935e-19)
(2.43465 -0.252507 3.34233e-19)
(2.28414 0.186935 0)
(-0.0812519 -0.186271 0)
(0.67323 0.625286 -2.80582e-19)
(1.80639 -0.645372 2.34067e-20)
(-0.225808 -0.303808 0)
(1.00262 -0.822449 -1.04246e-20)
(1.1491 -0.0987306 0)
(1.1049 -0.130327 3.23286e-19)
(2.13792 -0.189564 -1.46716e-19)
(-0.457886 0.592656 0)
(1.24674 -0.56561 -4.08723e-20)
(-0.200223 0.376637 -4.34021e-20)
(-0.248615 0.518083 0)
(1.11281 -0.829646 1.24811e-20)
(1.00646 0.00480613 -5.06797e-19)
(0.664403 -0.49619 -8.85237e-21)
(0.830798 -0.528526 0)
(1.22059 -0.744866 -6.75876e-20)
(0.646287 0.215667 2.24843e-19)
(1.22553 0.101863 0)
(1.48952 0.107097 -1.52239e-19)
(1.21717 -0.872251 -1.26961e-19)
(-0.0686538 -0.160558 -1.19764e-19)
(-0.319928 -0.298226 -2.18264e-19)
(1.06263 0.00383613 1.89786e-19)
(0.932097 -0.473175 -8.41394e-20)
(1.1836 0.0790899 7.92945e-22)
(1.31697 0.0466019 1.93755e-21)
(0.723183 -0.116344 1.32739e-19)
(-0.20995 -0.0390347 -2.93324e-19)
(1.34595 -0.413456 0)
(1.32139 -0.507397 4.93606e-20)
(1.43177 0.647423 9.6808e-20)
(0.824422 -0.628177 -1.7478e-19)
(0.996736 0.00803142 1.0389e-20)
(0.735383 -0.545822 2.46347e-19)
(1.28798 0.794651 9.27076e-20)
(1.87896 0.093962 2.50482e-20)
(-0.500072 0.532214 0)
(1.07637 0.0529602 -1.96508e-19)
(-0.962332 -0.187607 -3.01626e-19)
(1.06505 0.479314 6.61223e-20)
(0.048136 -0.114498 1.77232e-19)
(1.14654 0.0252194 -3.58789e-20)
(-0.129466 0.229304 -1.70234e-19)
(1.28712 0.581095 -5.81004e-20)
(1.12123 0.874542 0)
(-0.555507 0.544189 -1.12328e-19)
(-0.153026 -0.0301575 0)
(0.638322 0.544668 -2.36979e-19)
(2.06298 0.272076 -2.703e-20)
(-0.457452 -0.44508 1.70553e-19)
(-0.805157 0.339932 -7.21483e-19)
(0.721275 0.0578965 2.11683e-19)
(2.18345 -0.0199756 -7.08031e-20)
(0.996307 -0.353032 -2.48361e-20)
(-0.0253146 -0.0457082 0)
(-0.947423 -0.100787 3.4027e-19)
(1.30562 0.958886 3.0698e-21)
(0.840529 0.0674505 -1.15271e-19)
(0.543036 0.508404 1.64381e-19)
(0.41032 0.184704 0)
(-0.181945 -0.491611 -2.61761e-19)
(-0.541574 -0.0185696 1.84027e-19)
(1.31598 -0.974219 1.15544e-22)
(0.989118 -0.0408017 -1.57312e-19)
(-0.172003 -0.143993 7.00691e-21)
(-0.153045 0.200774 1.70232e-19)
(-0.314181 -0.131728 -2.10275e-19)
(2.00711 -0.539511 0)
(1.12516 0.0407903 -2.63176e-19)
(2.3004 0.0419124 2.73775e-19)
(1.30021 -0.635032 6.85058e-20)
(0.353866 -0.0377008 1.81338e-20)
(0.57922 0.302675 0)
(0.92925 0.737142 -1.34196e-20)
(0.671011 0.616359 1.53644e-19)
(0.913498 -0.575785 1.20729e-19)
(0.670258 0.480366 0)
(1.02343 -0.00143738 6.74479e-21)
(0.899352 -0.677801 1.71752e-19)
(0.828691 0.406207 -3.87708e-19)
(1.23797 -0.108136 0)
(-0.177798 -0.144001 -3.19333e-19)
(-0.0225997 0.448542 -1.04396e-19)
(1.57039 0.724267 0)
(1.37034 -0.955855 -9.88923e-23)
(-0.673485 0.6464 0)
(-0.3972 0.60194 1.30732e-19)
(0.721136 0.636258 -8.26992e-20)
(0.851496 -0.233062 0)
(-0.22225 -0.191395 0)
(1.60858 -0.473465 0)
(-0.821201 -0.263528 6.24287e-19)
(1.23277 -0.900648 8.34735e-20)
(1.19983 -0.617453 4.53858e-20)
(1.07214 -0.183199 -1.27647e-19)
(0.896435 -0.708169 -1.34729e-19)
(0.190596 -0.194795 0)
(-1.20603 0.272297 0)
(1.0194 -0.52072 1.3902e-19)
(-0.150223 -0.293527 0)
(-0.347423 0.769816 0)
(-0.42712 -0.180766 4.09014e-19)
(0.777762 0.654587 7.17463e-20)
(0.997843 0.781659 0)
(0.681423 0.533564 -7.23804e-20)
(0.828522 -0.056214 -1.89545e-19)
(0.731446 0.543266 -1.93018e-19)
(0.57756 0.535319 -1.41579e-19)
(-0.270877 -0.600992 3.30075e-21)
(0.73415 -0.658461 0)
(0.89284 0.171269 -2.72018e-19)
(-0.387356 -0.576269 6.89322e-20)
(0.590689 0.546805 3.16408e-19)
(0.941658 0.783592 0)
(-0.81465 -0.0973588 4.89228e-19)
(-0.0575547 -0.481031 3.66191e-19)
(0.0259891 -0.374982 -1.90294e-19)
(0.647962 0.550407 -1.25916e-20)
(0.972259 -0.00705773 4.90573e-20)
(-0.452384 -0.453179 0)
(2.32528 -0.00730538 -3.42789e-19)
(1.70671 -0.672469 -1.80766e-19)
(0.666384 -0.616966 -6.10813e-20)
(-0.487415 0.460924 1.89771e-20)
(1.18575 0.454363 1.44923e-19)
(0.87472 0.397044 0)
(1.05902 -0.166361 1.54759e-19)
(0.147076 -0.57225 -9.83813e-21)
(-0.0458163 0.10898 3.9549e-19)
(0.932017 0.0231053 -4.32343e-20)
(1.11779 0.132985 0)
(1.9493 -0.063875 -3.47404e-19)
(1.95464 0.121026 0)
(0.533959 0.227 -3.95452e-19)
(-0.168808 0.242371 0)
(-0.308231 -0.535337 2.93274e-19)
(0.713536 0.109029 0)
(0.635002 -0.53025 -1.52098e-19)
(1.12887 0.0130453 1.71917e-19)
(-0.485107 0.653641 4.88518e-20)
(2.14916 -0.107218 -8.29287e-22)
(2.12538 -0.266549 -1.55388e-19)
(1.10937 0.221574 -1.80287e-19)
(-0.406475 -0.548406 -1.34342e-19)
(1.09417 -0.86722 0)
(0.80447 0.0141782 -1.25193e-19)
(0.938491 -0.384886 -2.3877e-19)
(1.75195 -0.59301 -1.00658e-20)
(1.74793 0.0198732 3.2396e-19)
(1.07165 -0.00830784 3.15928e-19)
(0.14581 -0.484503 -1.8906e-19)
(1.01093 -0.445053 -1.01319e-19)
(0.20081 -0.193388 2.15262e-19)
(1.00506 -0.0080017 0)
(1.00588 -0.00658685 0)
(1.2203 -0.703668 6.93781e-20)
(-0.0522715 0.748447 -1.11993e-19)
(0.176768 -0.119698 -1.5591e-19)
(1.87569 -0.151107 1.92019e-20)
(1.27679 -0.374998 0)
(2.10117 -0.0226044 -1.85046e-19)
(0.960304 -0.836585 -5.0962e-20)
(1.81634 -0.578317 -9.57952e-20)
(1.08899 0.825002 0)
(0.483418 -0.465885 0)
(0.588409 0.497385 -1.51475e-19)
(1.09368 0.274736 -3.31323e-19)
(2.29587 -0.262857 5.01967e-22)
(0.865108 0.156067 1.16946e-19)
(-0.0142811 -0.430059 -5.52427e-19)
(1.04775 -0.127352 -3.97462e-20)
(-0.376055 -0.305131 0)
(-0.0799704 -0.186852 0)
(-0.493948 -0.315339 0)
(1.3622 -0.739655 -4.63512e-20)
(-0.259621 0.526705 -2.42167e-19)
(-0.0764742 0.187138 0)
(1.26724 0.961041 -1.89249e-20)
(1.10668 0.145214 -3.45213e-19)
(1.70905 0.475531 -4.57729e-20)
(1.06101 0.90711 5.70119e-20)
(-0.249351 0.701772 1.56736e-19)
(0.523048 -0.0568189 0)
(-0.494336 -0.241058 -3.54376e-19)
(-0.326429 0.672702 2.95676e-19)
(0.775633 0.0205158 1.55534e-19)
(1.50924 0.937712 2.68386e-20)
(1.54931 0.419257 -2.16243e-20)
(-0.154102 0.41406 -3.95895e-21)
(0.760557 -0.69389 -2.87807e-20)
(1.13576 0.00649967 0)
(1.73555 -0.0515886 0)
(1.05451 0.0603247 0)
(-1.23486 0.254286 -1.96957e-19)
(-0.491702 -0.31326 1.29705e-19)
(1.03002 0.830169 0)
(1.00077 -0.00677875 4.23041e-19)
(0.752899 0.586111 -1.93148e-19)
(-1.67908 0.0177915 -1.90906e-19)
(0.864781 0.0127446 -3.46511e-20)
(0.729206 -0.665213 -1.74496e-19)
(1.3706 0.704208 -2.04331e-20)
(0.5768 -0.469326 -2.4645e-19)
(1.12118 -0.00175222 -3.80246e-19)
(0.824422 0.0397509 3.65192e-20)
(1.5401 -0.173187 3.67031e-20)
(1.07058 -0.11832 -4.32655e-20)
(-0.0572808 -0.0866706 -3.08911e-22)
(1.07265 0.454422 -2.20398e-19)
(1.29082 0.602522 8.49077e-20)
(-0.0757349 -0.425306 0)
(-0.0947377 -0.315296 2.03634e-19)
(-0.24281 -0.165312 1.34476e-19)
(-0.199091 -0.0834323 -1.50001e-19)
(0.458496 0.286356 0)
(1.40163 -0.711455 0)
(0.0316986 -0.0296179 -1.43976e-19)
(-0.326187 -0.618948 -7.70073e-20)
(1.04822 -0.0294092 1.50752e-19)
(-0.447661 0.509085 -5.20308e-20)
(1.70265 -0.392141 -6.32056e-19)
(-0.0708787 0.761808 0)
(0.849476 -0.75299 -2.31662e-19)
(0.737062 -0.140565 6.50077e-20)
(-0.613961 -0.251309 1.88858e-19)
(0.713477 0.144606 2.80839e-19)
(0.615127 0.113112 9.13623e-20)
(0.51276 -0.486015 1.68338e-19)
(-0.250232 -0.36897 -1.54238e-19)
(1.43851 0.442068 0)
(0.375492 0.31762 -1.68173e-19)
(1.02596 -0.0134544 -2.40044e-19)
(-0.899178 0.327041 2.8165e-19)
(1.40503 0.488065 -8.2825e-20)
(-0.176784 -0.373577 -5.8636e-20)
(0.699116 -0.638741 -1.50883e-20)
(0.814012 0.179281 -1.74728e-19)
(0.96787 0.409887 1.89933e-20)
(1.16536 -0.13975 2.75547e-20)
(0.610973 -0.250531 -2.54626e-19)
(2.03988 -0.376394 -2.06556e-19)
(1.25095 -0.19727 0)
(1.29876 0.441051 -3.2956e-20)
(1.74038 0.109565 -2.01968e-20)
(0.937954 -0.229899 1.51204e-19)
(0.894532 0.332427 -1.91792e-19)
(0.89899 0.0877799 3.23363e-20)
(0.402582 0.368017 -2.17243e-19)
(-0.199045 0.5145 3.24675e-19)
(1.99734 -0.173239 0)
(0.930448 0.0045484 0)
(0.889435 -0.787235 4.25518e-20)
(-0.048415 -0.580914 -4.00422e-19)
(-0.920607 0.196335 -3.63448e-19)
(-0.0807361 -0.134495 -2.53639e-19)
(-0.46248 0.811262 -2.07315e-19)
(-0.430616 -0.259475 0)
(-0.0635255 -0.132901 4.54483e-20)
(0.237018 0.525831 -9.95732e-20)
(-0.174999 0.230825 -3.89557e-19)
(0.798458 -0.128099 0)
(1.46631 -0.641906 6.98635e-20)
(-0.248933 -0.241995 0)
(0.992506 0.0219477 3.04946e-19)
(-0.244269 -0.372138 2.29165e-20)
(0.552446 -0.441638 3.3029e-19)
(-0.976628 -0.141324 5.00121e-19)
(-1.68142 0.0484767 0)
(0.238054 0.690236 1.25835e-19)
(1.00571 0.0191906 -9.14455e-21)
(-0.193183 -0.129533 0)
(1.00564 -0.00797175 -4.75671e-20)
(0.876972 -0.740386 -2.25905e-19)
(1.42199 -0.815699 0)
(0.943107 -0.283833 1.70087e-19)
(0.127602 0.805621 2.88548e-19)
(-0.0129029 -0.0108221 0)
(-0.25928 -0.393834 -7.45122e-21)
(0.740435 -0.646823 -3.4701e-19)
(0.964036 -0.0301844 -2.16273e-19)
(-0.0553141 -0.622635 5.05727e-19)
(-0.22663 -0.513489 1.80511e-19)
(-0.409287 -0.293184 0)
(0.946946 0.458421 0)
(-0.508587 -0.325614 2.38952e-19)
(1.87846 0.0637768 -2.5104e-19)
(1.05708 0.882274 1.40519e-20)
(1.06651 0.207187 -1.02081e-19)
(1.1533 -0.000797844 -1.77638e-19)
(1.04992 -0.0860777 -6.05266e-20)
(-0.0526003 -0.632901 -4.65563e-19)
(2.02354 0.053584 5.52429e-19)
(0.67805 0.0263623 1.67637e-19)
(1.96138 -0.0865406 1.62234e-19)
(1.04439 -0.137059 0)
(-0.120081 0.463231 4.47384e-19)
(1.12705 0.0273906 -4.13241e-19)
(1.72762 0.625197 -1.30086e-20)
(0.751568 -0.467818 -1.34149e-19)
(-0.074214 -0.0364813 2.42225e-19)
(0.812846 -0.713127 2.98739e-19)
(1.22459 0.192606 5.88068e-20)
(1.00603 -0.00671318 2.10803e-19)
(0.0763452 -0.461828 -2.08787e-19)
(1.02865 0.0150198 0)
(1.55757 0.164913 -2.1127e-19)
(-0.0245306 -0.017247 0)
(1.02491 0.0123562 -1.23648e-19)
(-1.30666 -0.191215 -6.83436e-19)
(1.67987 0.334148 1.25103e-20)
(-0.37176 -0.127255 1.76791e-19)
(1.61797 0.0132293 -2.71075e-20)
(1.01389 -0.0162706 4.35501e-20)
(1.33847 -0.0932661 0)
(1.47285 -0.626193 -7.8178e-20)
(1.02333 0.0344395 -1.28813e-19)
(1.42485 0.783683 -2.30498e-20)
(1.37831 -0.0590232 0)
(0.742346 -0.16593 -1.22807e-20)
(0.0312141 -0.0313592 0)
(1.36012 0.0503855 0)
(-0.47969 -0.391355 0)
(1.23312 0.431812 0)
(1.83965 0.333067 5.90564e-20)
(0.726138 0.598778 3.38322e-19)
(0.297825 -0.299528 -1.99256e-19)
(-0.286629 -0.621807 -4.37042e-19)
(-0.0250177 -0.0469815 0)
(1.50551 -0.525374 8.24556e-20)
(1.30126 0.508166 0)
(1.43564 0.299661 0)
(-0.520836 -0.191006 1.56812e-19)
(0.794194 0.700849 1.05042e-19)
(1.68803 -0.0297072 0)
(-0.406558 -0.485476 9.78933e-20)
(0.898988 0.216306 1.59684e-19)
(1.59553 -0.4314 -4.29399e-20)
(1.22306 0.915466 3.20528e-20)
(0.937155 -0.843765 -1.8601e-20)
(0.884133 -0.190153 -2.48759e-20)
(0.78052 0.704744 1.07042e-19)
(1.15987 0.913271 0)
(2.17478 -0.406828 1.61821e-19)
(1.19705 0.659804 0)
(1.35969 -0.523305 2.62113e-20)
(0.868854 0.0696108 1.87289e-19)
(1.00655 -0.00274887 0)
(-0.108817 0.187648 4.10583e-19)
(0.889489 -0.188711 3.97174e-20)
(0.640634 -0.42425 0)
(0.677671 -0.396548 1.78243e-19)
(1.22911 0.548835 -2.65607e-20)
(0.462166 0.434477 2.36731e-19)
(-0.21127 0.312353 4.65305e-20)
(0.0828851 0.0672088 9.72956e-20)
(0.767758 0.0594337 0)
(1.3426 -0.916631 -2.51905e-20)
(1.04295 -0.0431615 3.34331e-19)
(1.45418 0.31796 1.5203e-19)
(-0.42217 -0.462246 8.46953e-20)
(-1.00978 -0.209612 0)
(1.24416 -0.240882 -8.76821e-20)
(-0.0110657 -0.0128128 -2.08947e-19)
(-0.0621474 0.0337009 -5.70326e-20)
(-0.121316 0.0256047 -4.43339e-22)
(-0.197879 0.0795641 3.1724e-19)
(1.25455 -0.0238793 -1.61704e-22)
(2.37327 -0.050235 4.59024e-19)
(1.18799 0.457362 -2.33701e-19)
(0.889318 -0.0358465 0)
(1.93304 -0.0995557 3.1342e-19)
(1.85436 0.114852 1.42656e-19)
(0.927929 -0.779391 1.08466e-19)
(1.17295 -0.990191 -9.18561e-21)
(0.467165 0.432538 1.58103e-19)
(1.42329 0.380944 0)
(1.73654 0.582591 4.63166e-20)
(-0.0162795 -0.0255078 -4.25862e-19)
(0.870306 0.758837 0)
(1.25256 0.322506 0)
(0.299063 -0.298821 -3.78164e-21)
(0.308512 0.278999 0)
(-1.33627 -0.119504 -4.82904e-19)
(-0.311759 0.4962 -1.35793e-19)
(1.75089 -0.435512 0)
(1.27197 0.0776542 1.04187e-19)
(-0.647399 0.234536 3.05105e-19)
(0.544994 -0.517417 -3.79999e-19)
(1.983 -0.095088 -5.94224e-20)
(0.623739 -0.566264 0)
(1.02902 0.118183 0)
(1.36697 -0.247098 0)
(1.11153 0.221135 -1.90686e-19)
(1.32775 0.108821 2.67664e-19)
(-1.3919 0.0596526 0)
(0.88274 -0.0622804 0)
(2.03698 -0.126001 9.05411e-21)
(-0.0886411 0.212703 1.10483e-19)
(2.55007 -0.182698 -3.63098e-19)
(1.07304 -0.51921 2.18114e-19)
(1.99313 -0.0496654 -3.70426e-19)
(-1.09674 0.332648 -2.37556e-19)
(2.03491 0.126801 -2.6607e-19)
(1.01572 -0.0255069 3.43155e-19)
(1.50517 0.606808 0)
(-0.352995 0.636945 3.64168e-20)
(1.0211 -0.843558 1.26789e-19)
(0.85762 -0.024436 4.05025e-20)
(0.645698 -0.446955 0)
(1.92729 -0.555395 1.07519e-20)
(1.22352 -0.198451 1.12629e-19)
(1.51906 -0.610588 0)
(0.619801 -0.575592 3.43141e-19)
(0.581993 0.113894 -4.24487e-20)
(2.45695 -0.203046 6.74646e-19)
(-0.13425 0.31708 -2.32101e-19)
(1.32215 0.614588 1.11466e-19)
(1.14365 0.396005 3.00152e-21)
(0.894224 0.360088 1.89527e-19)
(1.95126 0.113262 -2.60015e-19)
(-0.0919166 -0.607878 -6.36779e-21)
(0.915818 -0.166254 0)
(-0.152038 -0.100829 3.98202e-19)
(1.10633 -0.963725 0)
(1.08113 -0.664243 1.66404e-20)
(1.21518 0.00266273 -7.28202e-19)
(1.32472 -6.2479e-05 2.11087e-21)
(-0.720983 -0.101892 -4.4329e-19)
(0.978328 0.469111 1.45972e-19)
(-0.253957 0.265664 2.17869e-19)
(0.706759 -0.0389667 0)
(1.60553 -0.172847 0)
(1.40182 0.153516 2.30555e-20)
(0.761933 -0.0132367 0)
(1.37154 -0.212494 -1.15893e-19)
(-1.62281 0.137777 6.55683e-19)
(1.90765 0.500727 4.10658e-20)
(1.04641 -0.0279872 0)
(0.562325 -0.367876 8.7457e-20)
(1.01084 0.0239861 1.63646e-19)
(0.767691 0.77522 -2.10938e-19)
(-0.491021 0.833756 0)
(1.13195 -0.486066 3.79166e-19)
(1.44504 -0.109113 -3.94448e-22)
(1.11891 -0.503801 -1.65289e-19)
(2.35804 0.260578 2.1554e-19)
(1.27505 0.783643 0)
(0.8667 0.021078 0)
(-0.456864 -0.380958 -2.10598e-19)
(0.0325114 -0.0277659 1.61942e-19)
(0.942445 0.35566 -1.74001e-19)
(0.268482 -0.36981 -1.84309e-19)
(0.635092 0.387686 2.08208e-19)
(0.798987 -0.127693 0)
(0.549113 -0.510387 0)
(1.1033 -0.132184 3.09809e-21)
(1.2552 -0.517441 -7.35923e-20)
(0.651821 -0.0291981 1.52467e-20)
(0.727992 -0.171269 1.00148e-19)
(-0.0444831 0.110276 -2.91281e-19)
(1.40667 0.176852 3.8139e-19)
(0.648769 0.603753 0)
(1.26016 0.690164 0)
(1.58327 0.261356 0)
(-0.511356 -0.254026 -1.95377e-19)
(1.2279 0.549106 2.20922e-19)
(1.99529 0.0864666 5.79632e-20)
(0.939279 -0.00144889 0)
(1.27131 -0.395297 0)
(2.2022 -0.103128 -4.26454e-19)
(0.681057 0.442428 2.41968e-19)
(1.00722 0.0042856 -1.63603e-19)
(1.47813 0.468081 0)
(-0.324225 0.777953 0)
(1.23955 0.315084 2.3139e-19)
(1.0133 0.513881 -1.07185e-19)
(1.0646 0.0198731 0)
(1.71203 0.224643 0)
(1.94146 0.672431 -3.31129e-19)
(-0.132476 0.52334 -4.06755e-21)
(1.00038 0.0127286 0)
(0.696302 0.453988 -2.8439e-20)
(0.951243 -0.839027 0)
(1.01283 0.0164932 3.79371e-20)
(1.04777 -0.379778 4.74835e-20)
(0.911328 -0.329319 2.5063e-19)
(1.02108 -0.158286 -5.52839e-20)
(2.19559 -0.132756 4.25483e-19)
(1.2208 0.144863 8.54281e-20)
(0.775827 -0.0221431 0)
(1.02083 0.0112558 0)
(-0.72124 -0.276667 0)
(0.654019 0.625703 -1.55956e-19)
(-0.00550754 0.0425223 1.96879e-19)
(1.16344 0.337516 -3.72179e-19)
(-0.619121 0.562237 0)
(0.816184 0.627519 1.41461e-19)
(1.02002 -0.341312 0)
(1.00411 -0.000233109 9.58479e-20)
(0.319729 0.0506653 6.63914e-20)
(1.02927 0.39417 2.11941e-19)
(1.52356 0.205504 0)
(2.2024 0.224855 -1.07555e-19)
(0.821081 -0.125794 -3.05113e-19)
(-1.25629 -0.113054 -6.60833e-19)
(1.12898 0.324004 0)
(0.87097 0.237499 1.48198e-19)
(2.05616 -0.133868 0)
(0.764464 0.504216 3.07678e-19)
(-1.64933 0.0491598 2.7103e-19)
(-0.0324711 0.106425 0)
(0.578782 0.549152 -5.96648e-20)
(1.042 -0.651116 -1.17059e-19)
(0.488186 -0.270364 -1.04466e-19)
(1.02012 -0.0184098 0)
(-0.407493 0.430828 -3.08862e-19)
(0.650223 -0.580405 6.7207e-20)
(0.895198 0.281492 0)
(1.61499 -0.68807 1.01711e-19)
(0.968238 0.824828 1.94771e-20)
(1.07243 -0.324048 -3.55774e-20)
(0.238107 -0.25674 -2.93354e-19)
(0.237415 -0.0783436 -4.76866e-19)
(-0.111976 -0.269002 1.096e-20)
(0.808662 0.342884 2.09161e-19)
(-0.275533 0.563454 -6.05004e-21)
(1.43805 -0.665611 3.55529e-21)
(1.02326 0.00894697 -2.83447e-19)
(-0.595324 -0.206359 0)
(1.02979 0.0321336 -3.35135e-19)
(2.12812 0.241055 2.16183e-19)
(0.874617 0.675677 2.34644e-19)
(1.13035 -0.077189 1.29649e-19)
(1.00198 -0.0338486 1.31209e-19)
(1.38122 0.0115701 -1.88129e-21)
(-0.363498 -0.374085 4.08225e-22)
(1.74647 -0.886523 1.53582e-20)
(1.1537 -0.128302 -5.65921e-20)
(0.812434 0.0471206 6.4393e-20)
(0.914703 -0.300867 7.43111e-20)
(0.724029 0.175804 0)
(0.948921 0.721358 0)
(0.750829 0.225474 -7.91506e-20)
(2.06689 0.208022 -3.80703e-20)
(-1.21587 -0.0428881 2.31399e-19)
(1.04548 -0.546774 -4.06658e-19)
(0.628697 -0.546433 3.24939e-19)
(1.24246 0.309072 -1.86209e-19)
(0.333657 -0.465551 2.11864e-20)
(1.41195 -0.323363 0)
(0.75089 0.103533 -5.74857e-21)
(1.39843 -0.451185 -5.2121e-20)
(1.02657 0.749704 0)
(1.25055 -0.46108 0)
(0.62045 0.104373 0)
(-0.231389 -0.409349 -7.12791e-20)
(-0.148098 0.14861 0)
(1.5298 0.703569 2.79393e-19)
(1.2126 0.180876 5.15941e-21)
(-1.24831 0.159456 2.52986e-19)
(1.56344 0.510274 2.36518e-20)
(1.79384 0.481613 -8.93815e-20)
(2.16386 -0.333012 -4.47163e-20)
(-0.168003 -0.00784699 -2.24337e-19)
(-0.276422 -0.361739 5.55724e-21)
(0.904727 0.0943608 0)
(0.684494 -0.0335992 0)
(0.998857 0.000942602 2.94312e-22)
(-0.552316 -0.232697 0)
(1.53508 0.000504703 -1.48757e-19)
(0.68171 -0.0309234 0)
(1.06597 0.00447909 1.03588e-19)
(0.997486 0.0178274 -3.72079e-20)
(1.3519 0.0647266 2.33998e-19)
(1.0607 -0.0196861 -7.64966e-22)
(0.953345 -0.205189 -4.48708e-20)
(1.02511 -0.0361131 3.03659e-19)
(0.683988 -0.621921 1.50858e-19)
(-0.675844 -0.224189 -2.45657e-19)
(1.08801 0.332924 4.36066e-20)
(0.0322921 -0.0189516 0)
(1.11207 0.78403 0)
(1.02653 -0.00880862 0)
(1.01878 -0.787357 -7.88095e-20)
(1.05421 -0.904227 9.89223e-21)
(0.723872 0.00567148 -4.47833e-20)
(0.087848 0.399722 -8.77819e-19)
(1.24458 -0.221424 5.54766e-21)
(0.595468 -0.399988 -5.33219e-19)
(1.09988 0.422355 -5.88098e-20)
(1.09437 0.0140846 -4.92814e-20)
(2.09713 -0.334639 1.42575e-19)
(0.383919 0.0335388 -4.43524e-20)
(-0.384136 -0.514249 -1.48399e-19)
(1.10602 0.539846 1.59918e-19)
(-0.0913591 -0.383254 0)
(0.132432 -0.374687 4.49205e-19)
(-0.0730871 -0.109473 1.13725e-22)
(1.03996 -0.042909 2.74183e-19)
(1.02734 -0.00353951 -7.03661e-21)
(1.1043 -0.011516 -7.58843e-20)
(1.20867 -0.0665424 -1.1512e-20)
(1.60468 0.319578 3.50504e-20)
(0.408492 -0.383812 -2.63491e-19)
(0.730876 -0.032381 8.03826e-20)
(1.03647 -0.000600481 -2.0027e-19)
(0.874121 0.197119 -4.4883e-20)
(1.13827 -0.111486 0)
(1.09972 0.579996 -2.99076e-19)
(1.0031 -0.00411553 7.82859e-20)
(0.660876 0.58778 2.20115e-19)
(1.25621 -0.0865831 6.45299e-22)
(1.06034 -0.0123645 -2.48878e-20)
(1.12107 0.0159565 7.06622e-22)
(2.53019 -0.0356612 2.53277e-20)
(0.0968315 0.0394673 0)
(1.0551 -0.0392 0)
(1.06077 -0.0347742 4.82122e-19)
(1.00296 -0.00282201 0)
(-0.0416756 -0.075921 0)
(0.960929 -0.586548 0)
(1.0024 -0.00105874 -4.54961e-19)
(1.17531 -0.694831 5.97134e-20)
(1.02298 -0.00342216 9.50302e-21)
(1.32386 0.94551 -1.36197e-20)
(1.50418 0.994645 -7.33155e-20)
(1.19226 -0.0738329 -8.75202e-21)
(1.55026 0.282404 2.26036e-19)
(1.18611 0.255652 0)
(0.00327284 0.600522 0)
(2.17219 -0.0328245 5.41038e-19)
(1.24892 -0.651005 0)
(0.999694 -0.00616558 -1.41212e-19)
(1.01035 -0.000803385 2.74296e-19)
(1.42007 0.144495 -5.5145e-20)
(-0.000188544 -0.122096 3.07134e-19)
(0.970185 0.000963792 1.48696e-19)
(0.339463 -0.0674998 4.77314e-20)
(0.354246 0.0959245 -3.21578e-20)
(1.19489 -0.118796 -1.28335e-22)
(0.92828 0.0169631 -1.49172e-19)
(1.00074 0.00304923 1.76832e-19)
(1.00216 0.000428068 1.04432e-20)
(0.789292 -0.0136399 0)
(0.723708 -0.0260689 0)
(0.722098 -0.0284286 6.66309e-22)
(0.700965 -0.0299017 0)
(0.488809 -0.122698 0)
(0.0912622 -0.00135971 0)
(0.253957 0.0102008 2.68631e-20)
(0.446315 0.1042 -1.69865e-20)
(1.07526 0.112039 0)
(1.28125 0.0312654 -1.36435e-21)
(1.20415 -0.103576 0)
(0.258348 -0.0172359 0)
(0.0745238 -0.00639604 0)
(0.00947101 0.0236604 4.71072e-21)
(0.372827 0.106948 8.47929e-20)
(0.789336 0.0255248 0)
(0.800092 0.0187308 0)
(0.965918 0.0198782 -1.84068e-19)
(0.82565 0.0090309 3.451e-19)
(1.00617 -0.00173989 0)
(0.999848 -0.00142153 3.26576e-19)
(1.00086 -0.00145395 -3.98101e-22)
(0.798472 0.0241014 2.92035e-19)
(0.991756 -0.00723179 -1.70785e-19)
(0.413416 -0.0567879 0)
(0.114994 0.00319405 3.21881e-20)
(1.00006 -0.00290317 -1.65288e-19)
(0.998736 0.0019993 -2.83266e-19)
(1.05289 -0.156278 0)
(1.00092 0.000814985 0)
(0.999426 -0.000363906 0)
(1.32252 -0.182074 2.12016e-20)
(1.20624 0.0205152 5.74409e-21)
(0.853935 0.131284 0)
(-0.40888 0.495771 2.42989e-19)
(-0.74421 0.414037 -4.00922e-19)
(1.02136 -0.0138767 -2.19566e-19)
(-0.419025 -0.475286 -1.37011e-19)
(1.02278 0.00216503 -1.76554e-19)
(1.17378 -0.224187 -6.98584e-20)
(0.808308 -0.481597 2.4971e-19)
(-0.0570817 -0.0963938 -1.02943e-19)
(1.02635 0.0122951 0)
(1.05286 -0.0109817 -4.77746e-20)
(0.861789 0.0227469 0)
(-0.0103047 0.032453 2.85291e-19)
(1.22304 -0.589751 0)
(-0.542417 -0.259662 -3.38724e-19)
(0.330433 -0.0437859 -4.88885e-20)
(1.63992 0.685246 4.85901e-20)
(-0.0453314 -0.0612567 0)
(1.06697 -0.0404787 1.48866e-19)
(1.24062 -0.0956893 1.05708e-21)
(0.930749 -0.0118354 2.35572e-19)
(1.01174 -0.00993994 -1.49738e-19)
(1.65235 0.858975 6.16897e-20)
(0.508924 0.47546 0)
(0.429765 0.378675 1.75621e-19)
(1.24449 -0.23524 -5.65778e-21)
(1.142 0.124854 1.58413e-19)
(1.10237 -0.72317 0)
(1.02167 0.00621431 0)
(0.999894 -0.0204713 -3.45463e-19)
(1.01473 0.0162841 -3.35479e-19)
(-0.153301 -0.431479 0)
(1.20753 0.812485 -9.46414e-20)
(1.26148 -0.0753662 -6.87004e-22)
(1.01709 0.00715861 1.2925e-19)
(1.00887 0.0115735 -1.62209e-19)
(-0.574482 -0.15991 -3.32646e-20)
(1.25274 0.0162428 -2.10482e-20)
(1.01796 -0.014006 5.51939e-19)
(1.15872 0.00988218 0)
(1.83176 0.658087 -7.34588e-20)
(1.01476 -0.0120863 -1.7182e-19)
(1.95822 0.136492 -1.4828e-19)
(1.06218 0.00683857 -3.96095e-22)
(1.01055 -0.00960802 3.44606e-20)
(2.09409 -0.230801 -3.49623e-19)
(1.01775 0.00535951 1.66522e-19)
(1.29293 0.19972 7.31037e-21)
(1.018 0.000491165 0)
(0.924721 0.149035 4.15716e-20)
(-1.32819 0.054491 6.7693e-21)
(0.995236 0.0237193 1.65629e-19)
(1.03559 0.0208919 -6.76129e-22)
(1.2357 -0.0424312 6.01673e-22)
(1.24431 0.309085 3.24438e-19)
(0.998694 0.016746 1.13435e-19)
(1.01688 -0.0151853 3.61116e-22)
(1.72257 0.263041 -8.27646e-21)
(1.73721 0.927178 -1.11102e-19)
(0.788068 -0.707218 4.46149e-20)
(0.460486 -0.344087 -2.59696e-19)
(1.0079 -0.00911472 0)
(1.02159 0.00342649 4.14254e-20)
(1.01257 -0.0103235 8.73353e-20)
(1.26873 0.111793 3.63538e-21)
(1.01268 0.00544895 -1.73315e-19)
(1.0322 -0.0255595 1.97574e-19)
(1.01065 -0.00705784 -1.63278e-19)
(1.01528 0.00676503 -4.54194e-22)
(1.01275 -0.00181531 -3.42281e-22)
(1.02319 0.0132401 1.65787e-19)
(0.904443 0.0823883 4.28633e-19)
(1.74961 0.632912 0)
(0.510592 -0.0333497 2.77795e-19)
(1.01279 -0.00333143 0)
(1.02407 -0.0159473 -4.81408e-20)
(1.52315 0.457266 -4.7579e-20)
(1.80888 -0.00444296 0)
(1.90772 -0.415065 -8.6125e-20)
(1.33841 0.639629 -4.46712e-20)
(0.76621 -0.0134034 0)
(1.95976 -0.0607447 0)
(0.429694 0.375504 -1.46907e-19)
(1.33758 0.0187863 1.80623e-21)
(1.01643 -0.00299202 -1.74761e-19)
(1.13641 -0.572641 -4.64091e-20)
(1.29612 0.0243942 -2.13492e-21)
(1.50692 0.460706 0)
(1.28852 -0.223098 0)
(1.75205 0.499643 0)
(0.164797 0.588823 1.124e-19)
(1.3696 0.190525 1.63425e-20)
(-0.178543 0.108242 0)
(-0.00688652 0.696162 -3.80744e-19)
(1.67443 0.961208 -9.06471e-20)
(1.00787 -0.00255393 -3.41671e-19)
(1.3633 0.0883589 2.91487e-21)
(1.02198 0.00517624 2.25913e-19)
(0.701557 -0.0401376 0)
(-0.120505 -0.362707 -3.16767e-20)
(0.600668 0.412726 -2.93106e-19)
(1.73526 0.691827 8.38967e-20)
(0.115573 0.751812 0)
(0.793122 0.0650159 5.9344e-20)
(0.507827 0.483859 4.41371e-20)
(1.17133 0.875117 -2.49768e-20)
(-0.0346897 -0.0206183 1.54164e-19)
(1.02474 0.0125028 0)
(1.45813 0.302055 1.15696e-20)
(1.01192 -0.00514811 1.28258e-19)
(2.4768 0.113771 0)
(1.01115 0.00794393 2.15087e-19)
(0.260335 -0.407342 -2.13537e-19)
(1.01907 0.0112096 -1.32944e-19)
(1.41756 0.19383 0)
(1.74463 -0.480539 4.26639e-22)
(1.00838 0.00311548 -8.93506e-20)
(0.994364 -0.0350216 2.36327e-19)
(1.09071 0.0939131 -2.47541e-21)
(1.32482 0.284716 -2.63387e-20)
(-0.152941 -0.0722622 4.03205e-19)
(1.9679 0.377303 2.23819e-19)
(0.956875 0.234657 3.07952e-20)
(0.813609 0.0128408 -3.23027e-19)
(0.803068 0.0224747 0)
(1.07082 0.126972 3.22443e-20)
(1.02124 -0.0168533 -2.587e-20)
(0.973334 0.0217519 0)
(1.04917 0.00198643 -1.64341e-19)
(0.611591 -0.234391 -5.5361e-20)
(-1.61477 -0.0821845 2.91166e-19)
(2.1728 -0.600232 0)
(-1.00267 -0.123515 -8.84535e-19)
(1.52842 -0.351407 0)
(1.03771 -0.0155865 4.82368e-20)
(0.986554 -0.142682 1.24405e-21)
(1.016 -0.000372339 1.38607e-19)
(-1.09584 0.130066 5.9233e-19)
(1.01838 0.00283057 0)
(0.991546 0.00305653 -3.36067e-19)
(1.00764 0.00766114 1.76435e-19)
(0.929409 0.119593 0)
(0.870889 -0.148112 -4.82302e-21)
(0.963415 -0.00127454 -1.51345e-19)
(-0.328185 -0.535786 4.78218e-19)
(1.00539 -0.00300704 -1.72134e-19)