/*--------------------------------*- C++ -*----------------------------------*\
| =========                 |                                                 |
| \\      /  F ield         | OpenFOAM: The Open Source CFD Toolbox           |
|  \\    /   O peration     | Version:  2306                                  |
|   \\  /    A nd           | Website:  www.openfoam.com                      |
|    \\/     M anipulation  |                                                 |
\*---------------------------------------------------------------------------*/
FoamFile
{
    version     2.0;
    format      ascii;
    arch        "LSB;label=32;scalar=64";
    class       surfaceScalarField;
    location    "14.4";
    object      phi;
}
// * * * * * * * * * * * * * * * * * * * * * * * * * * * * * * * * * * * * * //

dimensions      [0 3 -1 0 0 0 0];

oriented        oriented;

internalField   nonuniform List<scalar> 
3181
(
-1.05114
0.41279
0.638347
-0.390518
0.367719
0.0227984
0.525257
-0.360576
-0.164681
0.121862
-0.201701
0.0798395
-0.0751299
0.1
-0.0248705
0.806711
0.490211
-1.29692
0.149654
-0.143275
-0.00637926
0.0851517
0.00196202
-0.0871137
0.585832
-0.77884
0.193008
-0.0743549
0.137272
-0.0629171
-0.0104537
-0.0505984
0.0610521
0.123962
0.0495846
-0.173547
-0.0157208
-0.0624193
0.0781401
-1.09342
0.151088
0.942337
-0.329036
0.701065
-0.372029
-1.11913
0.637907
0.481222
0.0856807
-0.936048
0.850367
-0.373609
0.338016
0.0355925
-0.620564
-0.564117
-0.0013242
0.0621837
-0.0608595
0.0346505
-0.0839937
0.0493432
-0.075735
0.0614234
0.0143116
1.05831
-1.03259
-0.0257186
0.0233424
0.0354746
-0.058817
-0.95599
0.32675
0.62924
-0.10872
0.230582
0.305192
-0.242169
-0.0630227
0.0298325
0.0627613
-0.0925938
-0.410139
0.338126
0.0720132
-0.035119
-0.00711815
0.00742883
-0.000310678
-0.039463
-0.916527
0.111112
-0.0776181
-0.0334941
0.10755
1.42776
-1.53531
-0.0470132
0.0458282
0.00118503
0.177677
0.276669
-0.454346
1.52413
-1.41658
0.0704792
-0.0358287
1.56813
-0.805716
-0.762417
-0.166782
0.973492
-0.1235
0.10778
-0.0807274
0.00499241
-0.410616
0.0815801
-0.1428
0.0620723
-0.634768
0.130371
0.504397
-0.148547
0.0741919
-0.16961
0.173916
-0.00430634
-0.272295
-0.0770257
0.349321
-0.0893528
1.54543
-1.45607
0.0857726
0.216861
-0.302633
-0.00844235
-0.0993219
0.10535
-0.00602776
0.517482
0.183583
-0.0958152
0.138631
-0.0428162
0.080616
0.0304962
-0.171987
0.198391
-0.0264037
0.164337
0.0565159
-0.220852
0.109622
-0.115595
0.00597247
1.30811
0.260028
-0.863382
-0.187755
0.173407
-1.57052
1.39711
0.547764
0.229154
-0.776917
-0.443963
-0.205918
0.649881
-0.777435
0.610653
-0.272887
0.82065
-0.325519
-0.103315
0.428834
-0.206932
-0.203207
-0.190127
0.164993
0.0251338
0.13616
0.283546
-0.419707
-0.196214
0.782046
-0.0197372
0.104889
-1.78864
1.96205
0.187432
0.117759
-0.178622
-0.111998
0.290619
-0.269701
0.357227
-0.0875262
-0.0814604
0.0896644
-0.00820399
-1.87799
-0.917985
0.0110747
0.906911
-0.0533558
0.00634256
-1.04836
0.811362
0.237001
0.572945
-0.317767
-0.255179
-0.872616
0.0951808
1.10805
-0.956963
-0.71685
1.14347
-0.201136
1.06859
0.165582
-0.174081
0.00849838
1.28653
-0.796318
0.425456
-0.425456
-0.0080835
-0.000303946
0.00838744
-0.212883
-0.0534529
0.266336
0.128164
-0.0893282
-0.0388361
-0.455158
0.835249
-0.380091
-0.0169011
-0.23535
0.252251
-1.07677
0.0441813
0.347612
0.054956
-0.402568
0.13474
-0.847527
1.07668
0.0918483
0.110967
-0.202815
-0.0176994
-0.154288
-0.458704
0.172919
0.285785
-0.250457
-0.208247
0.11866
-0.966187
0.326196
-0.781354
0.919689
-0.834008
-0.00891946
0.209681
-0.200761
0.08172
0.0517407
-0.133461
-1.37864
-0.10388
1.48252
-0.244925
0.411272
-0.166347
-1.17812
0.627947
0.550169
-0.469395
-0.578968
0.18315
-0.0973778
-0.153863
0.148235
0.00562804
-0.0772521
-0.0126907
0.0899427
-0.555051
-0.223789
-0.0877648
0.0452315
0.0425333
-1.09007
-0.0543858
1.14446
1.79388
-0.248453
-0.012598
0.00451446
0.0395185
0.147914
-0.20031
0.377987
0.00926109
0.312401
-0.321662
0.137703
0.0679618
-0.205665
0.29546
0.0840091
-0.379469
-0.593455
-0.525673
-1.02779
-0.062284
-0.0672313
0.15908
-0.105991
0.184166
-0.0781755
-0.0781488
0.0249833
0.124671
-0.056743
0.0707632
-0.0140202
-0.0958075
-0.0218355
0.117643
0.0750928
-0.0750928
-0.185797
0.210781
0.322488
0.226122
0.105177
0.0932142
-1.26556
1.06935
-1.58802
0.117942
1.47008
0.0278778
-0.0222936
-0.0055842
-0.0264675
-0.0510086
0.0774761
0.541177
-0.0227787
-0.518399
-0.0475751
0.0496047
-0.00202964
-0.200934
0.0151368
0.163324
0.671925
-0.369012
0.532336
-0.153927
-1.22471
-0.133957
0.0588266
0.489909
-0.306234
-0.183675
0.142499
-0.123349
-0.0191497
0.0481645
-0.32046
0.0236316
-0.941617
0.0492741
-0.155265
-0.287342
-0.402544
0.069767
1.39265
-0.944644
-0.448009
1.09669
0.295967
0.0667167
0.282604
0.0294191
-0.00154133
-0.0269639
0.154513
-0.127549
-0.251723
-0.585799
0.837523
-0.356923
0.665965
0.805629
-1.36975
0.147305
0.0321621
-0.0600497
0.0278876
-1.38579
0.354161
1.03162
-0.293271
-1.09252
-0.303927
0.651539
-0.912416
-0.0175352
0.00533956
-0.266901
0.261562
1.49052
-1.59855
0.108028
-0.120607
-0.0133492
0.568222
-0.819945
0.247315
-0.501306
0.253991
-0.297304
-0.116931
0.414235
0.179467
-1.00097
-0.0757965
-0.0177888
-0.0430707
-0.557128
0.351211
-0.245677
0.0183604
0.227317
-6.48582e-05
-0.120542
0.0167414
-0.0167414
-0.118559
0.129864
-0.0113053
-0.31307
-1.27495
0.0707949
0.0377414
-0.108536
-0.114776
-0.028142
0.142918
-0.220523
0.0303969
1.65034
-0.432867
-1.21747
-0.189666
0.449001
-0.259336
0.00652487
-0.00594034
-0.000584533
-0.768754
-0.409362
-0.184443
-0.00489801
0.189341
-0.1724
0.30856
-0.100809
0.0991061
0.00170241
0.0737996
0.00984771
-0.0836473
-0.136352
0.16158
-0.0252284
-0.46902
1.00608
-0.537059
-0.219993
-0.0512572
0.27125
-0.693149
0.661353
0.0317962
-0.00450561
0.0399802
0.0343879
-0.0343675
-2.03207e-05
-0.0019106
-0.0569064
0.775792
1.01809
0.174656
-0.885202
0.710546
-0.0450243
2.09056
-2.04553
0.386594
0.230642
0.194814
0.0613793
0.203383
-0.0656796
-0.0708335
-0.0284884
0.237166
0.156105
-0.0743848
0.737665
-0.410915
0.0609283
0.205407
0.0477569
-0.164008
0.116251
-0.779988
-0.133322
0.913309
-0.032372
0.032372
-0.0865376
-0.264872
0.541541
0.0128709
-0.232864
0.211971
0.126046
0.0420935
-0.109325
0.134825
-0.145279
-0.342499
0.325598
0.0519128
0.0589603
-0.110873
0.385628
-0.336043
0.608207
-0.239297
-0.36891
-0.207474
0.27419
0.187204
-0.493438
-0.196864
0.609653
0.166105
-0.0336612
0.0336612
-0.266756
0.480681
-0.213925
0.38434
0.026932
-0.0302855
0.0379778
-0.00769226
-0.191667
-0.0330628
-0.054702
-0.0493683
0.184194
-0.179743
0.240664
-0.0609215
0.127933
0.0281713
-0.388957
0.146788
0.189846
-0.0619129
-0.0456167
-0.0551918
-0.0910058
0.0784313
0.0125745
0.148304
-0.105218
-0.0430864
-0.0198728
0.39557
-0.375697
-0.135553
0.115816
0.103645
-0.107961
0.00431626
0.0236403
0.534927
0.0732796
-0.0976068
-0.0209767
0.118584
-0.100133
-0.0140529
0.114186
-0.0903878
0.0975117
-0.720336
0.622824
-0.0527055
-1.49016
-0.417115
1.90727
0.689361
0.987888
-1.67725
0.0832187
-0.269638
0.353647
0.277149
0.252111
-0.529259
-0.207355
0.255112
0.130238
-0.887005
0.756767
0.0529853
-0.153119
-0.0216076
0.00381875
-0.989756
0.448848
0.540908
0.944644
-0.825983
-1.67894
1.57506
-1.49052
1.60846
0.0400178
-0.082834
0.0107846
0.0236033
0.0138831
0.789738
-0.6595
0.122464
-0.0731901
0.41129
0.732183
-0.143988
-1.77725
1.73223
-0.676374
-0.589189
-0.242401
-0.392368
-0.0277738
-0.166416
0.21458
-0.578467
-0.372746
0.18308
0.77656
-0.235383
-0.888401
-0.790539
0.742878
0.194252
-0.141266
0.282654
0.0381485
-0.0381485
0.671135
0.147119
-0.818254
-0.226062
0.897197
0.410754
-1.24319
0.832436
0.26663
-0.0405086
0.00700124
0.00592455
-0.0129258
-1.57052
-1.17917
0.930715
1.00089
0.649455
-0.0347223
-0.134887
-0.240984
0.758466
-0.197068
-0.048609
-0.00304613
-0.0784142
-0.0524642
0.104205
0.379331
-0.24896
-0.830302
-0.289573
-0.106057
-0.0537351
0.159793
-0.68137
0.912013
-0.162263
0.114728
0.0475343
0.0260884
0.00333079
-0.0939183
0.0297979
0.0641204
0.00909481
0.419739
0.0995085
0.04299
0.0206457
0.00881603
-0.0294617
-0.0158134
-0.168629
-0.725639
0.371549
0.354091
0.494629
-1.47786
0.983228
0.137761
-0.158747
0.0209864
-0.0023116
0.185462
0.0962886
-0.521745
-0.108196
0.0142777
-0.145853
0.0484755
0.142676
-0.342986
-1.53949
0.658015
0.881471
0.0416268
0.0932229
0.0550813
-0.779988
0.0945444
-0.563564
0.122287
-0.0924887
0.0435959
-0.637725
-0.055424
0.0610313
0.128815
0.237325
0.0409081
-0.460615
0.123047
0.347065
-0.292109
-0.117479
0.0216715
0.222628
0.8406
-1.06323
0.103113
-0.709663
0.60655
-0.940661
0.807339
-1.09013
0.275117
0.815016
-0.011095
0.0121663
-0.00107132
0.16757
-0.464874
0.20608
-0.120533
-0.0855469
0.054157
-0.06821
-0.0433455
-0.062712
-0.0156306
0.0238798
-0.0257904
0.0207918
0.0760039
-0.0967957
1.10012
-0.00463208
0.00515194
-0.000519859
0.119907
-0.00409126
0.860535
0.0596065
-0.0729556
-0.236849
-0.94232
0.232503
0.0341275
0.00768722
0.0855356
-0.815016
0.521745
0.173735
-0.286382
0.112647
-0.251431
0.0773503
0.118663
-0.110164
-0.00144116
0.0911055
-0.0456131
-1.37562
-0.163865
-0.0415379
0.0623297
0.739526
-0.258305
-0.265282
0.150506
0.345954
0.0175517
-0.0478372
-0.00773214
0.0828249
0.146672
0.210555
0.157531
-0.330917
0.173385
0.106615
0.56531
-0.0407024
-0.107844
0.932066
-0.256444
-0.675622
-1.09013
-0.452938
0.947566
1.52413
-0.154207
0.391093
-0.236886
0.349797
-0.0677543
-0.282043
-0.297456
-0.57516
-0.0715591
0.0722811
-0.000722028
-0.0936359
-0.167113
0.260749
0.458492
-0.965193
0.506701
0.0402103
0.659107
-0.699318
-0.0443651
-0.109498
0.00521387
-0.102821
0.280986
-0.547742
-0.0135474
0.00245243
0.203327
-0.0045574
-0.19877
0.0951786
-0.122142
0.00108144
0.0250069
0.066595
0.143086
-0.0300198
-0.00434771
0.192312
-0.427662
-0.451277
1.43917
0.027702
0.00467002
-0.983021
-0.0179505
0.111168
-0.0725142
-0.0449648
-0.0622751
0.30959
0.838085
-1.0933
0.255218
0.197687
0.0348162
-0.94209
-0.0148725
-0.00813682
-0.649371
0.746883
-0.0178289
0.183934
0.00370838
-1.2469
0.184145
-0.44281
0.258665
0.0194592
0.292941
0.00158485
-0.00174628
0.000161427
-0.0520163
-0.0843356
-0.0209913
-0.133297
0.748425
-0.645312
-0.147905
0.0959831
-0.067084
0.311269
-0.153737
0.0461856
1.20039
-0.257505
-0.942888
-0.120192
0.138552
-0.506715
-0.218924
-0.560809
0.61575
-0.592874
-0.0228762
-0.0944799
-0.0534248
-1.77725
0.551282
-0.551282
-1.78664
1.78664
0.789738
-0.0823537
-0.210511
0.292864
-0.893019
-0.0900022
0.627924
-0.369526
-0.258398
0.162525
-0.2407
-0.0109546
-0.00164331
-0.885175
-0.0810119
-0.933536
0.2132
0.026732
-0.0804672
0.699085
-0.106986
-0.592099
1.08747
0.436654
-0.00146431
0.00304915
-0.967809
0.465356
-0.704653
-0.0650974
-0.607116
0.672213
-0.0486934
-0.886962
-0.711588
0.219337
-0.812792
-0.913309
1.35652
-0.443207
-0.138788
0.280784
-0.141996
-0.0293474
0.728433
-0.107281
-1.00647
1.00647
-0.810437
0.284091
0.526346
0.000201845
-0.00483393
0.0695811
-0.439701
0.81904
-0.00767813
-0.0842477
-0.0351024
0.132482
0.00441229
0.00211258
1.54379
-1.26868
-0.326422
0.400221
-0.628671
1.00683
-0.378155
-0.0781168
-0.0300791
0.123492
-0.0555306
0.350046
0.00875825
-0.0711775
0.353072
0.0424978
0.0423605
-0.24688
0.204519
0.139733
0.0341828
0.0970249
0.180121
1.38729
0.574756
0.108398
0.736636
-0.845034
-1.0146
1.36876
0.185972
-0.1239
0.0742309
-0.765175
0.690944
0.0260441
0.131195
-0.473694
-0.0740169
0.133593
-0.0595761
0.131407
-0.205424
-0.450147
-0.106981
-0.0711281
0.0741695
-0.00304143
-0.000997911
-0.0290219
0.0257993
0.00469687
0.6595
-0.60655
-0.0529498
-0.291699
0.30457
0.88081
0.593295
-0.243498
-0.0299386
0.06768
-0.35706
-0.144245
0.170297
-0.580879
0.410582
-0.00168226
-6.40154e-05
0.0887853
0.0530207
-0.141806
0.0018922
-0.00829043
0.00639823
-0.0223523
0.0141836
0.00816865
-1.21853
0.422216
-0.148441
-1.34172
-0.198037
-0.825983
1.60846
1.57506
-0.193247
-0.173327
0.12207
-0.0628642
0.0684856
-0.00562149
-0.199311
0.980953
-0.781642
0.555323
0.0726013
0.000813155
-0.00249542
0.120665
-0.369771
0.0351024
-0.0461406
0.00460274
-0.688009
0.330949
-0.0603433
0.102437
-0.231846
0.617474
1.09669
0.0113478
-0.0614655
0.0013205
0.060145
1.93508
-0.360017
-0.0611403
-0.0544546
-0.983858
0.157875
0.390942
-0.211475
-0.476147
-0.129148
0.605295
0.815078
-0.365
-0.450078
-0.0249021
0.862988
-1.73223
0.161714
-0.0130272
-0.0371341
0.0501614
0.374278
1.71628
-0.170275
0.177276
0.101212
2.26421
-0.655747
-0.676583
0.0543229
0.62226
0.386667
0.0132264
-0.348049
0.535576
0.808644
0.424564
0.076533
-0.0214518
-0.575198
0.230135
0.345063
1.37516
0.0759703
-0.0553246
-0.0513571
-0.361689
0.103894
-0.311249
0.831211
0.369182
-0.127901
0.033421
0.283036
-0.437243
-0.0223098
0.0178042
0.11109
-0.147889
0.0367989
-0.299404
0.313242
-0.0138375
0.477048
-0.734553
-1.23963
0.0572892
1.18234
0.0684711
-0.211639
0.143168
0.27061
0.0406586
-0.288773
0.383318
-0.666784
0.666784
1.39711
1.08747
-0.709663
0.329144
0.4795
-0.55995
0.346025
0.912952
-0.357629
0.0113494
-0.875219
0.86387
0.13209
0.00518162
0.02667
-0.782483
0.493709
0.118335
-0.169568
-0.120527
0.290095
0.306976
-0.514471
0.344903
-1.11879
-0.286769
-0.655434
-0.0444159
0.0046705
0.000481442
-0.227023
0.112534
0.0472583
0.0345559
-0.144703
0.110147
-0.333351
-0.477086
-0.00570917
0.0684705
-1.06052
0.519551
0.540971
-0.569849
0.386174
-0.100036
0.158996
0.231831
-0.00638418
-0.0152234
-1.00382
0.570954
0.0341116
0.0695331
-0.15019
0.0831063
0.198012
0.00806786
-0.432576
1.12791
0.486957
-0.0458467
0.865236
-0.791005
0.788449
-0.442495
-0.614127
0.174426
0.153679
-0.791193
0.761904
0.0292883
1.12931
-0.298096
-0.195314
-0.131108
-0.111009
0.0216805
0.958722
-0.844623
-0.114099
-0.181784
0.107399
0.0276159
0.120619
0.882925
0.69358
-0.81844
0.12486
-0.324081
-0.0486643
-0.389999
-0.670523
0.137017
1.3455
1.02814
0.0593353
0.168755
0.554869
-0.723624
-0.032391
0.0498191
-0.00598677
-0.000397416
-0.513967
-0.10016
0.181819
-0.181883
-0.186557
0.137188
-0.532582
0.273246
-0.991237
-0.409821
-0.291488
-0.681332
1.569
-0.0989195
-0.280874
-0.419254
-0.268755
0.135919
0.29929
0.0537816
1.30862
-0.850132
-0.189207
0.127294
-0.427195
-0.359395
0.78659
-0.0150159
0.00198863
0.0485077
-0.0604708
-0.238933
-0.11966
0.69703
-0.418982
-0.278047
0.186534
0.134268
-0.096725
-0.0375434
0.241627
0.0576632
-0.42559
-1.25166
-0.0956436
0.139239
0.94788
-0.2543
0.0103828
0.103803
-0.0210592
0.0197429
0.00131629
0.0181366
-0.0404302
-0.242289
0.0782818
-0.0748733
-0.559445
0.420657
0.0204467
0.132594
-0.0641227
-0.692785
1.59822
-1.22904
0.0158483
-0.192535
0.176687
-0.134666
-0.538856
0.673522
0.0754249
-0.71315
-1.12012
-0.119513
-0.0679181
0.000600797
0.0673173
-0.24628
-0.61575
-0.164237
-0.139936
-0.575198
-0.230651
0.164971
-0.321036
-1.16692
-0.557589
0.399419
0.15817
0.263814
0.11426
0.547369
0.143174
-0.690543
0.143411
0.0508401
0.907904
0.164293
-1.0722
-0.221034
0.308332
1.06043
-0.241299
0.180378
-0.737678
1.04601
0.235669
-0.0627504
-0.0344726
0.0483557
-0.00633089
1.13859
-1.18443
0.7273
0.0877778
-1.26878
-0.10684
0.23018
0.682772
0.91666
0.0154063
-0.0204601
-1.02814
-0.655434
-0.711849
0.722924
-0.0175965
-0.888401
0.659107
0.613759
-0.934625
0.856739
-0.0045958
-0.786597
-0.311615
0.634849
-0.7724
0.137551
0.0808111
0.0534573
-0.467328
-0.157811
1.03124
-0.87343
0.00222888
0.00244162
-0.26306
0.214451
0.710274
0.222559
-0.207422
-0.181059
0.635585
-0.689971
0.222426
0.0704378
0.576037
0.657324
-1.23336
-0.750135
0.98027
1.14972
-0.630172
0.0863581
0.187252
-0.345063
-0.00897361
0.216198
-0.0567161
0.0710382
0.0401296
0.00229884
-0.0229131
0.0206143
-1.02895
-0.034274
0.318682
-0.809618
-0.42578
1.31324
-0.887455
0.369013
0.637813
-0.0496046
0.0530725
-0.00346792
0.0482103
0.587375
-0.718077
0.661471
0.633023
-1.0588
0.313913
-0.0977149
-0.584149
-0.407088
-0.617899
1.19394
-0.0580409
-0.879815
-1.94731
-0.0982219
0.187252
0.0505005
-0.860118
0.83451
-0.648394
-0.186117
-0.981943
0.397794
0.00549373
0.113759
-0.000348481
-0.11341
-0.973262
0.566174
-0.21534
0.909669
-0.924542
0.191571
-0.207385
-0.0956485
0.238325
1.19829
0.347665
-0.166634
-1.4299
0.48701
1.28801
-0.863451
-0.552653
-0.517178
1.06983
0.447347
0.0176288
-0.0117043
-0.733592
0.699318
0.206962
-0.158752
-0.194814
0.242596
-0.0477819
0.625304
0.687931
0.779602
-0.814721
-0.491755
-0.449862
-0.472383
-0.500879
0.802607
-0.802607
0.683091
-0.683091
-0.733592
-0.337777
0.337777
-0.242596
-0.402906
-0.464501
-0.561571
-0.358172
0.358172
0.206962
-0.158752
0.779602
0.77054
-0.77054
0.814721
0.761821
-0.761821
0.508245
0.527617
0.482822
-0.15121
-0.499121
-0.550138
1.07775
-0.356484
-1.34268
0.724781
0.648338
0.501384
-0.0285007
-0.0180513
0.0776578
-0.885822
0.0926345
0.793188
-0.1285
0.100727
-0.997894
0.586979
0.915922
-0.586777
-0.124817
0.00658212
-0.00685769
-0.805829
-0.0793736
-0.540908
-0.00234242
0.00616117
0.550337
-0.140149
0.0476602
0.172015
0.00808519
-0.0125345
0.00444927
-0.81451
0.0666011
0.747909
0.593171
0.605124
-0.532968
0.416928
0.11604
0.915823
-0.741593
-0.174231
0.078794
0.299193
-0.0138172
-0.0573109
-0.0571308
-0.0144282
0.434777
-1.11615
-0.841147
0.0979012
-0.743918
0.795531
-0.0516135
0.122653
-0.898835
0.776182
-0.802346
0.902693
-0.100346
-0.071545
0.0896816
0.0195631
-0.286464
0.580525
0.613411
-0.0923594
-0.793463
0.916445
-0.0937926
-0.822653
0.0321351
-0.110252
1.24151
0.823464
-0.716397
0.455899
-0.383298
0.100226
-0.893688
1.41658
0.370062
-0.792284
0.00568685
1.01666
-0.894002
1.20637
1.23253
-0.865429
-0.367096
-0.881528
-0.116366
-0.411907
0.0362095
-0.5592
0.814418
-0.788491
0.788491
-0.602491
-0.0848837
-0.864914
0.123321
-0.93378
0.868683
0.075604
-0.196137
-0.0577389
0.0596151
0.0111481
0.187933
0.828723
0.817809
0.770367
0.140792
-0.91116
-0.726495
1.22788
-0.783048
-0.105338
0.888386
0.173133
-0.89121
-0.676981
0.886333
-0.786107
-0.106733
0.461973
-0.0205721
-0.441401
0.00463647
1.33862
-1.34326
0.142084
-0.335914
0.19383
-0.889781
-0.830674
0.086756
0.53019
0.258258
-1.69427
1.14322
-0.580881
0.580881
-0.891508
-0.53839
-0.10201
0.595719
-1.06731
1.1246
0.780995
-0.203343
1.131
-0.708781
1.0063
-1.25815
0.251853
-0.0414775
-1.43638
0.264282
0.50603
-0.312115
-0.251449
0.280209
0.300606
-0.221812
0.780861
-0.881207
0.773326
0.454554
-0.15162
0.738599
0.58741
-0.58741
-0.0689079
0.0722387
0.109659
-0.0751036
1.25844
0.0801859
0.327758
-0.000868161
0.00359379
-0.00272563
-0.672444
0.697489
-0.0250455
0.384081
-1.24951
0.10892
-0.895027
-1.12701
1.46035
-0.33334
0.183573
0.873629
-1.07104
1.45512
-0.754234
0.603156
-0.65858
-0.660179
0.153463
-0.24321
0.0283943
0.0566226
-0.866053
0.622843
0.00652952
-0.997268
0.0704319
0.725099
0.694448
-0.0912924
0.0729199
0.787615
-0.208781
0.764423
-0.555643
-0.846449
0.52662
0.510025
-0.951682
0.730686
0.220996
-0.683973
-0.128819
0.917114
-0.383525
-0.164217
-0.0374859
0.486189
0.513811
-0.770206
-0.111001
-0.570586
-0.364618
-0.560629
-0.325782
0.404171
0.595829
-0.135773
0.131681
-0.863998
-0.0700215
-0.588558
-0.154506
-0.248998
0.403504
-0.040477
-0.00513603
0.112149
0.0720442
-0.129319
-0.11297
0.757264
-0.645236
0.718156
-0.10175
-0.764303
0.310531
-0.0327228
-0.277808
-0.74674
-0.19101
0.93775
-0.242196
0.230572
-0.025165
-0.108232
-0.0123106
0.0151322
0.713399
-0.132518
0.122499
0.109332
-0.73865
0.0662068
1.04121
-0.374424
-0.0158759
-0.353034
0.283604
-0.289333
1.02152
-0.00466839
0.371435
-0.270223
-0.00748167
-0.0613412
-0.114534
0.0431176
0.998097
0.242308
-0.0665235
-0.175785
0.84402
-0.0217993
0.00272449
0.0190748
0.127998
-0.0125099
-0.00103752
0.217659
-0.106569
0.238748
-1.30605
0.353499
-0.111191
0.00367313
0.290906
-0.0992464
-0.995426
1.34098
-0.34555
-0.779255
0.835967
-0.0567123
0.10205
0.175028
0.0606416
-0.0696218
1.30156
-0.458947
-0.0740211
0.274776
0.453113
0.188977
-0.64209
0.405998
0.0387959
0.658693
-0.572566
0.558864
0.0137019
1.30775
-1.17183
-0.036905
0.045986
-0.00908104
0.6924
-0.0093128
-0.0833238
0.0200001
1.35055
0.489526
-0.387476
0.0971969
-0.0291772
-0.182462
0.181345
0.00731549
-0.188661
0.00860572
-0.00630688
0.956004
-0.79171
0.19067
0.221259
-0.0258188
-0.09089
0.224022
0.0942904
0.00608446
0.0811132
0.762832
0.352917
0.292292
-0.645209
0.798132
0.150498
-0.94863
0.644957
0.11807
-0.0730197
-0.00793793
0.0809576
-0.74292
-0.0882014
-1.16995
-0.00452235
0.747401
0.717076
0.123318
-0.161944
-0.305384
0.81809
0.129366
-0.0831802
-0.882654
0.168885
-0.273917
-0.17782
-0.172851
0.690074
0.072757
0.0132939
0.657992
-0.482965
-0.22664
0.162116
0.0273206
-0.111314
0.42046
-0.0577416
-0.0475331
-0.07144
0.169379
0.268103
0.530029
-0.15246
0.421144
-0.0436869
-0.109294
0.0202022
-0.000995397
-0.0192068
-1.45758
0.285748
-0.0135511
0.913252
-0.231817
-0.617047
0.641026
-0.0239792
0.373774
0.756281
-0.256726
-0.0210819
0.077911
-0.173559
0.630589
0.125693
0.622942
0.289071
-0.268806
0.724706
0.084313
0.913784
-0.598854
0.346197
0.252656
-0.367917
-0.0716369
0.0413262
0.0633132
-0.0469088
1.20919
0.736203
0.0818871
0.621569
0.215954
-0.876142
-0.0818074
-0.67291
0.678597
-0.0238012
-0.586087
0.431581
0.873754
0.669385
0.154643
0.0378302
-0.161252
-0.312442
1.10992
0.488301
-0.0252867
0.034938
0.873586
0.0401979
0.704582
0.439874
-0.0776674
0.852504
-0.743572
0.929194
-0.185622
-0.409995
-0.188859
-0.0560547
-0.183147
-0.21376
0.807396
0.0132025
-0.00438649
0.629346
0.0185278
-0.371562
0.599363
-0.131232
0.235501
0.76262
0.230578
-0.993198
0.276011
-0.924404
0.140207
-1.36924
-0.176165
0.767282
-0.591117
-0.663497
-0.113916
0.00568413
-0.0553467
-1.01385
0.021943
-0.0430022
0.949243
0.206214
-0.367439
0.161225
-0.0589193
-0.578467
0.0590686
0.312367
-1.38474
0.00454145
0.00354373
-0.412762
-0.0539639
-0.591697
0.0191304
0.565143
0.308611
1.02504
0.882233
-0.243793
-0.387191
0.630983
0.0495819
-0.61649
0.61649
-0.250599
-0.91335
1.16395
0.0300428
-0.150234
0.679802
-0.114659
-0.224946
-0.359767
0.19555
0.660094
0.62077
-0.277357
0.175015
-0.105248
-0.484561
0.482158
0.076706
0.0567779
0.0137012
-1.37704
-0.32256
-0.261252
0.695532
0.304468
-0.32256
0.695532
-0.309732
-0.249005
-0.309732
-0.695584
0.695584
0.304416
-0.0142681
0.169495
-0.0763281
0.190669
0.144953
-0.46412
0.637012
-0.0376489
0.653787
-0.503637
-0.150151
-0.0572426
0.0565892
0.000653416
-0.00986591
0.00899775
-0.12047
0.0187941
-0.108014
-0.432479
-0.353812
0.126789
0.0452455
0.830934
-0.276065
-0.626639
0.357884
0.00209381
-0.186265
-0.00956978
0.679938
0.0674627
0.122862
-0.02735
-0.00211167
0.0244381
0.0842576
0.561213
-0.477261
-0.0839524
1.91606
0.54572
-0.641501
0.899203
0.0112078
-0.0622164
0.106156
0.197431
0.130767
1.12944
-0.366818
0.0188987
-0.0633146
0.619132
-0.819321
0.0220571
-0.0220571
0.0198497
-0.0198497
-0.0212615
0.0212615
0.027702
0.365906
0.460552
-0.000538182
-0.721568
0.486185
0.188725
0.0289341
-0.0826825
-0.485088
0.789737
0.112209
-0.796182
-1.14801
-0.0988883
0.0718472
0.0184803
-0.00429667
-0.0220805
0.0220805
0.251347
-0.0226813
0.0226813
0.699904
0.0916912
-0.0198396
-0.00751042
0.00665339
-0.0681188
-0.0225053
0.0225053
-0.0118127
0.0118127
-0.0218835
0.0218835
-0.0181865
0.0181865
0.119381
-0.296149
-0.0821316
0.220215
-0.0173131
0.0173131
-0.372354
0.511122
-0.138767
0.502521
-0.221737
-0.421797
-0.204842
0.559421
-0.0736185
0.0762629
0.564763
0.565159
-0.00870433
0.00870433
0.183503
0.0243265
-0.0243265
-0.01587
0.01587
0.756201
-1.13332
0.0376914
-0.283832
0.336853
0.00415284
-0.00415284
0.0151128
-0.0151128
0.0180925
-0.0180925
0.0232828
-0.0232828
-0.0230783
0.0230783
0.0346876
-0.0346876
0.4854
-0.0313863
0.0313863
-0.00311532
0.00311532
0.023714
-0.023714
-0.00559763
0.00559763
0.010734
-0.010734
-0.106601
-0.0250486
0.0250486
0.129923
0.0350458
-0.0390039
0.0390039
0.00561796
-0.00561796
0.0242952
-0.0242952
0.0330887
-0.0330887
0.0257579
-0.0257579
0.00514824
-0.00514824
-0.00146962
0.00146962
-0.532728
-0.176264
-0.00996566
0.00996566
-0.00204399
0.00204399
-0.0377034
0.0377034
-0.0280457
0.0280457
-0.000981794
0.000981794
-0.416624
0.646804
0.258856
-0.0316756
0.0316756
-0.0494507
-0.017253
0.017253
-0.00114445
0.00114445
0.0374208
-0.0374208
-0.220036
0.136856
0.00277847
-0.00277847
-0.0230453
0.0230453
-0.498568
0.0444529
-0.430783
-0.0314483
0.0314483
-0.442125
0.0339613
0.0191112
-0.00793654
-1.26085
-0.0362979
0.0362979
-0.199066
0.141325
-0.0409099
-0.000559919
0.000559919
0.0029732
0.04637
0.261971
-0.327898
-0.280455
0.608353
0.198679
-0.00413564
0.00413564
-0.234804
0.389904
-0.1551
0.775511
-0.397955
-0.377556
-0.46185
-0.661685
-0.0963955
0.45428
-0.392621
-0.453829
-0.572528
0.0207737
0.194633
-1.33382
0.015247
-0.015247
-0.000177085
0.000177085
0.0304861
-0.0304861
0.0262689
-0.0262689
0.00200401
-0.00200401
-0.00011307
0.00011307
0.0330008
-0.350767
0.173843
-0.29866
-0.00188358
0.00188358
-0.045063
0.045063
-0.0398474
0.0398474
0.171919
0.0852665
-0.257186
0.000312273
0.313853
-0.54567
0.00143827
-0.00143827
-0.024766
0.024766
-0.0954159
0.0876395
-0.184035
-0.000274498
0.000274498
0.106453
0.0124212
0.985484
-0.483958
-0.0815035
0.565462
-0.627411
0.0614059
-0.620606
-0.0386837
0.0386837
-0.679448
0.277743
0.0488758
-0.0488758
-0.644925
0.386527
0.264098
0.121439
0.00224988
-0.00224988
-0.829566
0.00176844
-0.00176844
0.31875
0.409683
0.0765648
-0.0527559
0.0527559
-0.000598022
0.000598022
-0.0418469
0.0418469
-0.0538564
0.0538564
0.0022883
-0.0022883
-0.0594844
0.0594844
0.00229021
-0.00229021
-0.0451048
0.0451048
-0.000113545
-0.0452163
0.0452163
0.00254851
-0.00254851
0.0475674
-0.0475674
0.0014237
-0.0014237
0.0477206
-0.0477206
-0.252427
-0.000987322
0.000987322
-0.00350495
0.00350495
-0.051262
0.0828249
-0.00990318
0.00990318
0.00534704
-0.00534704
-0.0584046
0.0584046
0.292088
-0.0180718
0.0180718
-0.0570061
0.0570061
-0.00761498
0.00761498
-0.0660572
0.0660572
-0.0132743
0.0132743
-0.0789173
0.0789173
-0.02146
0.02146
-0.093805
0.093805
-0.687683
0.310034
-0.531575
0.507596
-0.886962
0.0117666
-0.568017
0.395166
0.0640996
0.122434
0.00376763
-0.00376763
0.337144
-0.725853
0.0423559
-0.0286547
-0.982255
1.41891
1.29362
0.253523
-0.0490194
-0.0374847
-0.394807
-0.579374
-0.0853303
0.390338
-1.3157
-0.0190316
0.0190316
-0.751684
0.0203963
-0.0203963
-0.000439623
0.000439623
0.308081
-0.356234
-0.00224456
0.00224456
0.0191045
0.0145567
0.595615
0.1328
-0.00714141
-0.00854074
-0.0119194
-0.0964385
0.496178
-0.399739
0.226917
0.037365
0.0151002
1.00764
-0.0214481
0.0548285
-0.405358
0.441568
-0.486862
-1.005
-0.21971
-0.0702944
0.0178301
-0.276489
-0.0594247
0.0499016
-0.00378466
-0.0138118
0.784538
-0.554372
-0.0361491
0.0634697
-0.0352996
0.0235717
0.145924
0.422623
0.23873
-0.16543
0.211524
0.0094464
0.000401312
-1.26142
0.0261464
-0.133468
-0.233971
-0.0190374
-1.3951
-0.0717726
0.264336
-0.350089
0.392587
0.30806
-0.989392
0.0503735
0.0137036
-0.123956
-0.348406
0.464446
-0.0955459
0.0107648
0.0847811
-0.0267554
0.0267554
0.182762
-0.42626
-0.150448
0.122306
-0.0780102
0.054209
-0.0647968
-0.00642806
0.0712248
-0.0290189
-0.151415
0.142742
-0.0381544
-0.292171
-0.357691
0.649862
0.0142861
0.057995
0.150389
-0.0278907
-0.196224
0.0685174
-0.155337
0.309016
-0.00867253
0.0277473
-0.0274383
0.177828
0.0028653
0.258696
-0.000276943
0.000276943
-0.102814
0.807396
0.0877282
-0.169536
-0.0618175
0.0131241
0.732357
0.722764
0.0212368
-0.0379781
-0.534704
0.00312915
0.144148
0.0914786
-0.678615
0.320985
-0.0560061
0.380188
-0.672359
0.218602
0.512084
-0.0879461
0.0879461
-0.000348481
-1.23839
0.572824
0.665563
-0.210808
0.155461
0.0576073
-0.113415
-0.621138
-0.12561
-0.0413514
0.052136
0.932079
0.266453
-0.11181
-0.0694831
-0.33031
-0.728494
-0.082047
-0.266472
0.802048
0.582637
-0.268784
-0.267866
0.558772
0.0213023
0.369791
-0.272424
0.111034
-0.464496
0.325728
0.122739
-0.122739
0.0818424
-0.132388
0.0505456
0.00562149
-0.0019569
0.0197429
-0.333761
-0.409159
0.227356
-0.185662
-0.0416942
0.544877
-1.07841
0.0809093
-1.02323
0.698949
-0.119968
-0.178692
-0.0411079
-0.0785522
-0.482471
0.0499921
-0.28589
0.00449475
-0.0190374
0.37621
-0.00519886
0.00303378
0.00087344
0.0108081
-0.0132224
0.00241438
-0.107831
-0.0165126
-0.165163
0.181676
-0.125825
-0.33867
0.0191045
0.346538
0.0040084
-0.374007
0.0825185
0.00244306
0.231118
-0.231656
-0.012062
0.012062
-0.000988227
0.0033001
-0.00937512
0.00144307
-0.0510527
0.000777503
-0.00119481
0.256081
0.0535093
-0.000823472
0.000823472
0.135472
0.514628
0.00184703
-0.289987
0.42767
1.12646
-0.474231
0.335929
-0.43687
-0.246492
0.0960435
0.233261
-0.229262
-0.0035292
0.0197185
-0.00458635
-0.0093244
-0.181843
-0.379066
0.865251
0.527546
-0.494545
0.203676
-0.00159888
0.213314
-0.0297415
0.00214025
0.00103025
0.0186883
0.236665
0.00130048
-0.000237443
0.720538
-0.65202
-0.247218
0.132012
0.933805
0.000899545
0.00130885
-0.0409099
-0.0056904
0.818228
-0.431942
0.508648
-0.62587
0.900297
-0.574787
0.582214
-0.187048
0.693073
0.001462
0.00338822
0.0150921
-0.118179
0.141075
-0.213502
0.00932883
0.00311551
0.0637241
-0.048885
-0.0148391
0.00135716
0.024854
0.0505808
-0.0754348
-0.08791
0.00336834
0.000225448
0.00172504
0.471208
-0.428813
0.000470743
0.000456473
1.00697
-0.434144
0.388262
-0.00581174
0.000382834
0.245578
-0.0549081
-0.040029
-0.116397
-0.0177153
-0.0035495
0.118774
0.0610853
-0.00166078
0.416784
0.00102999
-0.00411798
0.00411798
0.00877318
-0.0173139
0.000120421
-0.321111
-0.00367711
0.0716643
-0.107023
0.0484405
0.015217
-0.0662884
0.000445315
0.00251763
0.468019
0.000245873
-0.00448034
-0.0515743
-0.00199956
0.000704849
0.124454
0.203303
-0.711205
0.48081
-0.859876
0.0282148
-0.000323523
-0.711965
0.132744
0.147464
0.59878
-0.0151726
-0.0363445
-0.00388011
-0.00130837
-0.553755
-0.00325791
1.91142e-06
-0.0433979
0.933196
-0.527198
-0.00246254
-0.000866515
-0.00564871
-0.00241102
0.066904
-0.0223365
0.0223365
-0.0381994
0.0414995
-0.00226795
-0.00765265
0.0536557
-0.0506219
-0.162891
0.0912538
-0.00565928
-0.0128601
0.042569
-0.0160854
0.060988
-0.0431579
-0.621964
0.57035
0.0250653
-0.00157941
0.335599
-0.16622
-0.0706625
-0.685616
-0.0764075
-0.119255
-0.0931365
0.0911369
0.683503
0.000716567
0.0141699
-0.0128611
0.351371
0.0564858
-0.142893
0.0864073
-0.0711996
-0.617145
0.859687
-0.533309
0.0192783
0.0123973