/*--------------------------------*- C++ -*----------------------------------*\
| =========                 |                                                 |
| \\      /  F ield         | OpenFOAM: The Open Source CFD Toolbox           |
|  \\    /   O peration     | Version:  2306                                  |
|   \\  /    A nd           | Website:  www.openfoam.com                      |
|    \\/     M anipulation  |                                                 |
\*---------------------------------------------------------------------------*/
FoamFile
{
    version     2.0;
    format      ascii;
    arch        "LSB;label=32;scalar=64";
    class       volVectorField;
    location    "28.4";
    object      U;
}
// * * * * * * * * * * * * * * * * * * * * * * * * * * * * * * * * * * * * * //

dimensions      [0 1 -1 0 0 0 0];

internalField   nonuniform List<vector> 
2186
(
(1.28602 -0.0620596 2.56049e-19)
(1.60392 -0.925587 -1.98821e-20)
(1.44706 -0.902912 7.5246e-21)
(0.726788 -0.565023 -1.64907e-19)
(-0.215405 0.36289 -1.64869e-19)
(1.61576 -0.221924 0)
(0.716332 -0.661277 0)
(-0.0300818 0.029717 6.91325e-20)
(1.59931 -0.0435056 1.1684e-19)
(0.541141 -0.285449 -2.29074e-21)
(0.696724 0.630226 0)
(0.869952 -0.278392 -9.228e-20)
(-0.0187232 0.0764648 -2.72437e-20)
(1.20474 0.0259847 -4.1501e-19)
(1.79105 -0.6713 -3.00099e-20)
(1.01452 -0.000199061 1.95351e-19)
(0.980508 0.0121741 0)
(-0.0118495 0.596595 0)
(1.38906 -0.108284 0)
(-0.0854349 0.272504 -5.52636e-20)
(0.489467 0.128479 -1.23398e-19)
(-0.193488 0.20317 7.48333e-20)
(1.19307 0.0291785 3.42228e-19)
(-0.190562 -0.105316 6.2851e-21)
(1.031 0.0120225 -2.69396e-19)
(0.777579 -0.54076 0)
(0.760733 -0.00956031 1.5944e-19)
(0.605319 -0.584744 -1.94391e-19)
(1.23743 0.734342 0)
(0.963923 0.025128 -3.67503e-19)
(-0.0267525 0.0885138 0)
(1.02434 -0.00729866 1.27399e-20)
(-0.10061 0.212823 0)
(2.06367 -0.110184 8.15532e-20)
(-0.188921 -0.173184 -7.52455e-22)
(1.57 0.797276 1.09112e-19)
(1.90306 0.00764555 7.51135e-20)
(0.518597 0.176077 -3.67923e-19)
(1.94479 0.271201 -2.31649e-19)
(1.53665 -0.212912 -1.17243e-20)
(-0.0417942 0.0784154 0)
(-0.152771 0.177007 0)
(1.87436 -0.858984 6.14423e-20)
(-0.414578 0.204766 0)
(1.12698 0.294315 1.73405e-19)
(0.587426 -0.268066 3.09238e-19)
(0.914158 -0.777799 0)
(1.17212 -0.775243 1.36301e-19)
(2.39344 -0.137347 0)
(-0.210707 0.397971 1.42622e-19)
(-0.0198567 0.149635 8.16976e-20)
(0.645262 0.59593 9.04643e-20)
(2.05985 -0.728299 5.69596e-20)
(0.607215 0.302948 -2.96767e-19)
(-0.287106 0.0544491 2.88794e-20)
(0.752747 -0.638528 0)
(1.66523 -0.953582 1.86157e-20)
(0.575024 -0.535 0)
(2.35268 0.245449 7.46237e-20)
(1.12185 -0.160166 -4.14088e-19)
(2.02298 -0.0820879 1.59053e-19)
(1.37753 0.315533 -2.10006e-19)
(1.37399 0.553253 0)
(1.57164 -0.214987 1.28442e-20)
(1.3925 0.401534 -1.31672e-19)
(1.23721 -0.718978 -1.95237e-19)
(1.19595 0.68264 6.11099e-20)
(0.682487 0.0953871 -6.04575e-19)
(0.820693 0.076414 0)
(2.19074 -0.0647345 -3.6562e-20)
(-0.0606134 0.0222616 -8.15734e-20)
(2.48639 -0.142802 -1.49967e-19)
(0.724912 -0.0139454 -2.66976e-19)
(0.862877 -0.502075 0)
(0.835036 0.19994 -9.90474e-20)
(0.538609 -0.497242 -3.30887e-19)
(2.37759 -0.146441 0)
(1.00699 0.00962055 4.01701e-19)
(-0.19618 -0.175694 0)
(2.05073 0.396199 0)
(0.611414 0.278137 7.1706e-20)
(1.44582 -0.16761 1.13178e-20)
(1.02245 0.00838357 4.47572e-20)
(1.34354 0.433147 3.26907e-20)
(0.969319 0.0253044 4.69494e-19)
(1.03842 0.0308179 -1.113e-20)
(0.675362 0.202587 -3.60124e-19)
(1.31636 -0.0993345 3.88563e-21)
(1.35044 -0.0962299 0)
(-0.0740141 -0.0788265 6.90286e-20)
(0.8487 -0.608094 -1.86996e-19)
(-0.165702 0.250537 -1.59931e-21)
(1.10654 -0.0680358 2.77736e-19)
(0.81047 -0.164667 0)
(0.973477 0.0236587 4.47727e-20)
(1.39429 0.664678 0)
(1.60949 -0.935272 0)
(1.32963 0.23087 0)
(-0.242307 0.434333 0)
(0.778682 -0.651327 3.28859e-19)
(0.229903 0.293093 -2.50182e-19)
(0.598584 0.23579 1.39508e-19)
(1.60148 0.201595 0)
(1.14228 -0.0946235 -2.53899e-19)
(1.12455 0.0238754 1.98652e-19)
(-0.131934 0.281317 1.01074e-19)
(0.65854 0.531101 0)
(2.08389 -0.120506 -5.499e-20)
(0.954264 -0.462961 9.20993e-20)
(-1.18049 -0.368626 1.34526e-19)
(1.77177 0.33254 9.54298e-20)
(-0.224655 0.338651 -2.23023e-19)
(0.809682 -0.73527 0)
(0.584107 0.378282 1.79158e-19)
(1.74508 -0.115815 -3.55368e-19)
(0.106992 0.326704 -3.05405e-19)
(1.48586 0.938362 1.49398e-20)
(2.02623 -0.146623 0)
(-0.098334 -0.112161 -2.06185e-19)
(0.706542 -0.0500844 8.45472e-20)
(1.59145 0.903516 0)
(-0.120855 0.415616 -1.905e-19)
(0.90888 0.782866 -3.03401e-19)
(0.0096449 0.626253 2.65678e-19)
(1.03062 -0.0231982 0)
(1.5955 0.936811 -1.88318e-20)
(-0.23209 0.346883 0)
(0.685091 -0.476434 -1.18852e-19)
(-0.000926261 0.638845 -1.44549e-19)
(0.781866 -0.713059 0)
(0.421229 -0.244299 4.48981e-19)
(0.528527 -0.437595 3.0769e-19)
(0.411166 -0.372006 0)
(0.973037 -0.771145 -1.53372e-19)
(0.235971 0.261642 0)
(-0.172183 0.375421 -1.11792e-19)
(0.800163 -0.685658 1.59221e-19)
(2.22695 -0.123406 1.41673e-19)
(2.24092 0.189322 0)
(-0.103587 -0.0624583 0)
(0.701299 0.651664 -3.81863e-19)
(1.76584 -0.600671 -1.7181e-20)
(-0.0147294 0.00536147 0)
(0.97242 -0.795044 -1.64013e-20)
(1.13677 -0.0923553 0)
(1.07482 -0.113471 4.39358e-19)
(2.0044 -0.106999 -5.11752e-20)
(-0.23072 0.461106 0)
(1.20816 -0.541435 -6.55503e-20)
(-0.191586 0.34762 -3.60385e-20)
(-0.191866 0.226624 0)
(1.08351 -0.802145 1.22548e-20)
(1.00674 0.00457014 -6.70972e-19)
(0.638594 -0.461093 -1.16307e-20)
(0.80593 -0.499457 0)
(1.18745 -0.717569 -1.13986e-19)
(0.668599 0.262648 2.78304e-19)
(1.25573 0.118416 0)
(1.53083 0.0907749 -3.23322e-19)
(1.1868 -0.84399 -2.63465e-19)
(-0.112086 -0.0753413 -7.17991e-20)
(-0.43083 0.037283 -9.87163e-20)
(1.07667 0.0108336 2.52854e-19)
(0.907289 -0.448256 -1.15823e-19)
(1.36432 -0.128457 -3.59729e-21)
(0.613448 0.245116 -5.84697e-20)
(0.776074 -0.136883 8.35023e-20)
(-0.066479 -0.11436 -1.93826e-19)
(1.73351 -0.259298 0)
(2.34865 -0.28081 8.73115e-20)
(1.4749 0.668357 1.70252e-19)
(0.796806 -0.599508 -2.39855e-19)
(0.994721 0.00894179 1.37452e-20)
(0.708352 -0.514328 3.26776e-19)
(1.33182 0.821988 1.51425e-19)
(1.90367 0.0624576 8.98564e-21)
(-0.207654 0.51915 0)
(1.0903 0.0623102 -2.62634e-19)
(-0.65401 0.379489 -1.3548e-19)
(1.09358 0.507199 8.8691e-20)
(0.191538 -0.162514 1.17126e-19)
(1.16246 0.0288472 -4.76934e-20)
(-0.180626 0.213883 -1.34013e-19)
(1.32048 0.601457 -9.16665e-20)
(1.16273 0.907822 0)
(-0.180145 0.635292 -8.60356e-20)
(0.166155 0.290312 0)
(0.673199 0.582451 -2.99019e-19)
(2.15791 0.206061 -1.51706e-20)
(0.00973749 0.146453 9.22667e-20)
(-0.144523 0.657789 -4.56743e-19)
(0.728186 0.0983717 2.65704e-19)
(2.04491 0.116163 -4.16429e-20)
(0.970854 -0.332024 -3.36865e-20)
(-0.0790073 -0.0671001 0)
(-1.0764 -0.482323 2.86438e-19)
(1.3542 0.99321 -3.82819e-20)
(0.843605 0.0940607 -1.4655e-19)
(0.569827 0.535588 2.08903e-19)
(0.431992 0.193193 0)
(-0.23678 0.0105491 -1.31273e-19)
(-1.1349 -0.748891 2.54031e-19)
(1.28725 -0.947099 6.92997e-22)
(0.987768 -0.0214808 -2.09015e-19)
(-0.143264 -0.172862 4.89537e-21)
(-0.0435463 0.0437007 1.35467e-19)
(-0.194758 -0.240895 -1.35556e-19)
(2.02075 -0.252538 0)
(1.14035 0.0501326 -3.53888e-19)
(2.54655 0.11446 2.04657e-19)
(1.261 -0.604912 1.24887e-19)
(1.05055 -0.0604981 5.46537e-21)
(0.608419 0.357392 0)
(0.96604 0.770684 -1.80563e-20)
(0.699642 0.64475 2.01965e-19)
(0.886228 -0.548937 1.68629e-19)
(0.705423 0.524826 0)
(1.02215 0.005279 8.97594e-21)
(0.870798 -0.650274 2.40692e-19)
(0.856341 0.442964 -4.93572e-19)
(1.19374 -0.104719 0)
(0.102749 0.173477 -2.27531e-19)
(-0.0835317 0.242907 -8.2565e-20)
(1.61962 0.743263 0)
(1.33841 -0.925404 -5.9306e-22)
(-0.0295987 0.55689 0)
(-0.214608 0.279629 1.0198e-19)
(0.756212 0.672575 -1.06341e-19)
(0.843759 -0.19959 0)
(-0.192662 -0.151548 0)
(1.64043 -0.445773 0)
(0.000409156 0.155829 5.10187e-19)
(1.20101 -0.871997 1.72323e-19)
(1.16453 -0.590579 7.28037e-20)
(1.04039 -0.162106 -1.89628e-19)
(0.866025 -0.68016 -1.90964e-19)
(0.185122 -0.188593 0)
(-0.147075 0.62195 0)
(0.99055 -0.497108 2.00927e-19)
(-0.0718488 -0.0324439 0)
(-0.194096 0.428335 0)
(0.0764279 0.39174 2.65861e-19)
(0.813237 0.690659 9.22798e-20)
(1.03537 0.814237 0)
(0.717371 0.576405 -9.11976e-20)
(0.830279 -0.0230949 -2.42044e-19)
(0.765866 0.583669 -2.4479e-19)
(0.606625 0.565639 -1.79828e-19)
(-0.103058 -0.0150555 -4.61684e-22)
(0.711942 -0.637574 0)
(0.909506 0.192179 -3.49879e-19)
(-0.0910838 0.0249525 3.6117e-20)
(0.617345 0.573368 4.08152e-19)
(0.979386 0.817726 0)
(-0.0558339 -0.128328 3.69824e-19)
(-0.257153 -0.0948301 2.28503e-19)
(-0.213638 0.0167519 -1.23306e-19)
(0.684384 0.591956 -1.58146e-20)
(0.968888 -0.00753124 6.49989e-20)
(-0.049454 0.128355 0)
(2.00607 -0.0179397 -1.03761e-19)
(1.63302 -0.522271 -2.43676e-19)
(0.644789 -0.595847 -8.52933e-20)
(0.15263 0.576629 9.19197e-21)
(1.21457 0.476173 2.04255e-19)
(0.903589 0.432677 0)
(1.03966 -0.162193 2.16224e-19)
(-0.266261 -0.108595 4.04594e-21)
(-0.10512 0.150923 3.11049e-19)
(0.914242 0.0202144 -5.82027e-20)
(1.14809 0.147143 0)
(1.73524 0.0214249 -8.93599e-20)
(1.96038 0.0817922 0)
(0.557685 0.284119 -4.8588e-19)
(-0.071713 0.0633 0)
(-0.0656303 -2.50007e-05 1.60114e-19)
(0.680782 0.095087 0)
(0.607176 -0.495724 -2.00314e-19)
(1.13751 0.0205794 2.30701e-19)
(-0.222541 0.478376 3.49449e-20)
(2.15935 -0.0681794 4.57016e-21)
(2.05935 -0.15455 -7.71571e-20)
(1.1296 0.240499 -2.41954e-19)
(-0.0920785 0.05783 -6.78324e-20)
(1.06396 -0.83977 0)
(0.809852 0.0169864 -1.67824e-19)
(0.91738 -0.360702 -3.19582e-19)
(1.70182 -0.562958 8.31832e-22)
(1.65719 -0.0133336 5.86004e-20)
(1.08748 -0.00354147 4.2269e-19)
(-0.209993 -0.0432837 -1.05285e-19)
(0.984741 -0.423139 -1.42087e-19)
(0.194108 -0.186545 2.82091e-19)
(1.00805 -0.00699197 0)
(1.00467 -0.00582967 0)
(0.646827 -0.38257 6.96243e-20)
(-0.171111 0.332244 -7.7851e-20)
(0.200644 -0.113083 -1.03499e-19)
(2.01567 -0.0536577 -9.50522e-22)
(1.22518 0.0147626 0)
(1.94014 0.101003 -1.27707e-19)
(0.936616 -0.813266 -1.04646e-19)
(1.78335 -0.550247 -4.30102e-20)
(1.12838 0.856978 0)
(0.463433 -0.443465 0)
(0.625116 0.540959 -1.88489e-19)
(1.11536 0.293655 -4.46172e-19)
(2.15355 -0.175622 1.95806e-22)
(0.871246 0.175628 1.50146e-19)
(-0.303166 0.00413529 -2.75928e-19)
(1.55901 -0.135547 -7.96653e-21)
(-0.27995 0.106956 0)
(-0.144159 -0.0857003 0)
(-0.045813 0.236911 0)
(1.32657 -0.709669 -1.1874e-19)
(-0.199688 0.23814 -1.84646e-19)
(-0.0975479 0.123052 0)
(1.31349 0.995104 -4.48093e-20)
(1.12621 0.160264 -4.65274e-19)
(2.54762 0.0505291 -1.15854e-19)
(1.1011 0.940923 1.01458e-19)
(-0.222934 0.314707 1.13374e-19)
(1.21783 -0.026117 0)
(-0.0257569 0.291662 -2.02164e-19)
(-0.238142 0.314112 2.1869e-19)
(0.779944 0.0515862 1.97569e-19)
(1.56231 0.967998 -2.82115e-20)
(1.62926 0.737082 -1.048e-19)
(-0.185324 0.240539 -2.24071e-21)
(0.738033 -0.672542 -4.27479e-20)
(1.1519 -0.014668 0)
(1.75096 -0.0372357 0)
(0.990188 0.0476398 0)
(-0.781819 -0.407716 -2.15579e-19)
(-0.105194 0.213071 6.54945e-20)
(1.06932 0.863955 0)
(0.997005 0.00567198 5.60761e-19)
(0.788329 0.626399 -2.45433e-19)
(-1.13389 -0.553347 -1.24106e-19)
(0.865453 0.0351949 -4.45817e-20)
(0.706139 -0.64292 -2.48117e-19)
(1.41241 0.727892 -4.0456e-20)
(0.54899 -0.428969 -3.18541e-19)
(1.12886 0.00377661 -5.05687e-19)
(0.800371 0.0398771 4.98058e-20)
(1.48967 -0.165016 9.20394e-20)
(1.60655 -0.0966076 -8.54044e-20)
(-0.0565298 -0.0455091 -2.9099e-22)
(1.0981 0.48587 -2.95229e-19)
(1.34659 0.631773 6.08789e-20)
(-0.234049 -0.0127183 0)
(-0.337361 0.0187677 1.00858e-19)
(0.159149 0.359085 9.78969e-20)
(-0.148838 -0.188492 -9.60369e-20)
(0.496301 0.350071 0)
(1.70481 -0.484313 0)
(-0.00830404 0.0123028 -1.13193e-19)
(-0.134398 0.00367036 -3.54814e-20)
(1.04897 -0.0288959 2.00451e-19)
(-0.189689 0.451192 -4.36562e-20)
(1.44766 0.0603946 -4.44239e-19)
(-0.163124 0.314221 0)
(0.8241 -0.729397 -3.48016e-19)
(1.36203 -0.0757073 1.22507e-19)
(-0.578913 0.187173 8.18447e-20)
(0.727267 0.183407 3.5109e-19)
(0.630793 0.167221 1.12911e-19)
(0.492953 -0.464789 2.23037e-19)
(-0.0157508 0.0185355 -8.40258e-20)
(1.97751 0.715851 0)
(0.412895 0.37717 -2.04406e-19)
(1.03009 -0.0134742 -3.1883e-19)
(-0.122546 0.660108 1.82101e-19)
(1.44456 0.498746 -1.45677e-19)
(-0.0745486 -0.026139 -3.33423e-20)
(0.684332 -0.623752 -8.30608e-20)
(0.827268 0.205578 -2.21936e-19)
(0.994452 0.442275 2.50414e-20)
(1.1424 -0.13041 3.89367e-20)
(0.599612 -0.204432 -3.24564e-19)
(1.98951 -0.293812 -7.19562e-20)
(1.70345 -0.0505998 0)
(2.25182 -0.0298799 -7.96972e-20)
(1.79358 -0.118843 7.6269e-21)
(0.66365 0.154114 6.77856e-20)
(0.950768 0.361466 -1.51642e-19)
(1.66555 -0.171213 -1.94938e-20)
(0.436199 0.410596 -2.66178e-19)
(0.0640297 0.453997 1.57511e-19)
(1.98072 0.0478453 0)
(0.943739 0.00808084 0)
(0.864802 -0.764178 6.98977e-20)
(-0.244546 -0.0849843 -2.50847e-19)
(0.171464 0.592203 -1.88469e-19)
(-0.0596724 -0.0426715 -1.4803e-19)
(-0.127712 0.498277 -1.18197e-19)
(-0.388333 0.106395 0)
(-0.144373 -0.10063 2.79135e-20)
(0.0422125 0.314208 -7.73926e-20)
(-0.0428513 0.0454106 -3.09427e-19)
(0.798419 -0.0904964 0)
(1.49857 -0.4832 9.49781e-20)
(0.114356 0.213661 0)
(0.9945 0.0240334 4.04373e-19)
(-0.353224 0.0293782 9.94879e-21)
(0.525426 -0.400761 4.27042e-19)
(-0.660798 0.389438 2.24898e-19)
(-1.00559 -0.367785 0)
(-0.00788985 0.275112 8.51042e-20)
(1.00207 0.0252014 -1.2187e-20)
(0.00638901 -0.155385 0)
(1.00489 -0.0087025 -6.28797e-20)
(0.848477 -0.714316 -3.27504e-19)
(1.52667 -0.573188 0)
(0.926794 -0.255428 2.28605e-19)
(-0.0650517 0.345062 1.58966e-19)
(-0.0790526 -0.0785176 0)
(-0.244024 0.0339646 -3.57444e-21)
(0.713958 -0.620003 -4.71443e-19)
(0.943308 -0.0203613 -2.95152e-19)
(-0.262563 -0.0800606 3.01471e-19)
(-0.101282 -0.0323973 1.01488e-19)
(-0.319902 0.137346 0)
(0.976865 0.492755 0)
(-0.476521 0.0474108 1.02052e-19)
(1.4647 -0.098559 -6.18381e-20)
(1.09668 0.91615 2.16337e-20)
(1.08373 0.223952 -1.36257e-19)
(1.1194 0.00771551 -2.48207e-19)
(1.0285 -0.0635165 -9.04265e-20)
(-0.249093 -0.065202 -2.67064e-19)
(1.98142 0.0656475 3.85342e-19)
(0.700504 0.0394883 2.32637e-19)
(1.67314 -0.0198104 6.0978e-20)
(1.03345 -0.139017 0)
(-0.100072 -0.172211 1.89453e-19)
(1.14398 0.0267472 -5.47879e-19)
(1.78382 0.638486 2.88207e-20)
(0.728349 -0.435539 -1.76248e-19)
(-0.103246 -0.113477 1.54164e-19)
(0.78743 -0.689004 4.28426e-19)
(1.25998 0.204103 8.4627e-20)
(1.00705 -0.00814966 2.78421e-19)
(-0.280059 0.0250383 -1.09273e-19)
(1.02841 0.0233487 0)
(1.9607 -0.013982 -1.58666e-19)
(-0.100465 -0.0952573 0)
(1.01389 0.0148254 -1.64717e-19)
(-0.80751 -0.532005 -5.49267e-19)
(1.77011 0.32706 5.03767e-20)
(0.133643 0.434327 1.33682e-19)
(1.64936 0.0245137 1.04025e-20)
(1.01516 -0.0170117 5.77738e-20)
(1.26578 -0.0875799 0)
(1.42769 -0.595166 -1.84333e-19)
(1.02649 0.0429579 -1.70911e-19)
(1.46967 0.809838 -8.27168e-20)
(1.26992 -0.0438585 0)
(0.514624 0.478683 2.90424e-20)
(-0.0121457 0.0152925 0)
(1.29403 0.0542562 0)
(-0.0915585 0.142499 0)
(1.26586 0.461073 0)
(1.90575 0.298871 3.73704e-20)
(0.762032 0.636934 4.30427e-19)
(0.288364 -0.2897 -2.64054e-19)
(-0.135172 -0.0202152 -2.35366e-19)
(-0.0914817 -0.0762489 0)
(2.43004 -0.345503 1.28178e-19)
(1.36261 0.533804 0)
(1.4899 0.303297 0)
(-0.0666986 0.34985 8.79874e-20)
(0.827098 0.731581 1.42069e-19)
(1.61761 -0.00449346 0)
(0.0093239 0.0838856 5.26579e-20)
(0.920821 0.238634 2.05255e-19)
(2.01806 -0.214973 -7.65892e-20)
(1.26712 0.948392 5.42939e-20)
(0.914162 -0.821552 -4.77774e-20)
(1.48137 -0.108717 -4.31421e-20)
(0.812781 0.734818 1.46665e-19)
(1.20247 0.945893 0)
(2.28052 -0.202538 1.66503e-19)
(0.324039 -0.28297 0)
(1.49378 -0.284674 5.49253e-20)
(1.00966 0.1055 1.54124e-19)
(1.00574 -0.0042174 0)
(-0.505355 -0.416772 1.86633e-19)
(0.883528 -0.153816 5.23577e-20)
(0.616241 -0.38575 0)
(0.657298 -0.358491 2.30402e-19)
(1.2635 0.574778 -3.80875e-20)
(0.489178 0.462932 2.95402e-19)
(-0.0593584 0.076509 3.72813e-20)
(0.149596 -0.00447078 7.97051e-20)
(0.742801 0.0581072 0)
(1.31166 -0.887274 -1.16131e-19)
(1.03566 -0.0437759 4.452e-19)
(1.53198 0.345767 1.20129e-19)
(0.0246907 0.132116 4.46359e-20)
(-0.743146 0.399001 0)
(1.21785 -0.227088 -1.28575e-19)
(-0.0802347 -0.0743534 -1.28173e-19)
(-0.718302 -0.510414 -1.69274e-20)
(-0.13379 0.0445365 -6.58512e-22)
(-0.21063 0.0945802 2.57201e-19)
(0.710486 0.0476205 -1.89821e-20)
(2.1274 -0.0512861 1.38991e-19)
(1.21613 0.477608 -3.29393e-19)
(0.888873 -0.0562999 0)
(1.91733 -0.095947 1.83481e-19)
(1.718 0.0468605 4.06688e-20)
(0.899371 -0.75363 1.62483e-19)
(1.14872 -0.964626 -6.3433e-20)
(0.492781 0.458583 1.99283e-19)
(0.640387 -0.0435367 0)
(1.79426 0.59489 1.1518e-20)
(-0.0911673 -0.0842715 -2.60688e-19)
(0.904708 0.790396 0)
(1.70322 0.813686 0)
(0.288747 -0.287696 -3.76504e-21)
(0.344326 0.335207 0)
(-0.73297 0.313684 -2.43244e-19)
(-0.161561 0.18487 -1.05356e-19)
(1.73968 -0.42015 0)
(1.30082 0.0761466 2.39854e-19)
(0.0818119 0.547049 1.56614e-19)
(0.526019 -0.498586 -5.14603e-19)
(1.70429 0.00566142 -1.93477e-20)
(0.603217 -0.545849 0)
(1.0579 0.131801 0)
(1.37949 -0.263773 0)
(1.13294 0.238749 -2.60455e-19)
(1.37982 0.114497 3.71604e-19)
(-0.872861 -0.137222 0)
(0.86851 -0.0499029 0)
(2.1232 -0.0987849 -8.37097e-21)
(-0.128112 0.164701 8.68459e-20)
(2.42988 -0.0151244 -2.67862e-19)
(1.08259 -0.504407 1.33371e-19)
(1.99925 -0.00431842 -2.84381e-19)
(0.0320826 0.623762 -1.14391e-19)
(2.02042 0.0788148 -1.53875e-19)
(1.01614 -0.0152526 4.56822e-19)
(1.54855 0.621088 0)
(-0.230669 0.309286 2.85272e-20)
(0.991707 -0.817346 2.06322e-19)
(0.856154 0.00247778 5.21094e-20)
(0.620111 -0.409389 0)
(1.88374 -0.4958 -8.88334e-22)
(1.19282 -0.185946 1.70933e-19)
(1.50465 -0.24955 0)
(0.601006 -0.557707 5.09984e-19)
(1.78066 0.144835 -5.37108e-20)
(2.435 -0.00909088 4.34801e-19)
(-0.146263 0.183213 -1.8154e-19)
(1.36047 0.63814 1.75896e-19)
(1.17009 0.422693 4.08901e-21)
(0.922478 0.3931 2.4365e-19)
(1.58271 -0.0157331 -5.20961e-20)
(-0.246207 -0.0422076 3.95715e-22)
(0.731159 0.0484822 0)
(-0.125326 -0.112736 2.51018e-19)
(1.08591 -0.94181 0)
(1.04967 -0.638089 2.48945e-20)
(0.424587 0.0545128 -8.81943e-20)
(1.57287 0.907389 -2.63997e-20)
(-0.33325 0.345733 -2.10594e-19)
(1.00938 0.503688 1.91724e-19)
(-0.88336 -0.651754 2.37998e-19)
(0.702476 -0.0411909 0)
(1.92926 -0.050763 0)
(1.75174 -0.155296 -9.48693e-21)
(0.773763 -0.00832711 0)
(1.33485 -0.19655 -1.75888e-19)
(-0.231043 0.592464 3.58464e-19)
(1.97124 0.514646 -1.76783e-20)
(1.05068 -0.0325358 0)
(0.538311 -0.322436 1.14462e-19)
(1.00886 0.026267 2.16866e-19)
(0.126585 -0.656153 -1.65223e-19)
(-0.0356492 0.550523 0)
(1.09345 -0.461275 5.54476e-19)
(1.83931 -0.0849439 -5.17279e-22)
(1.08601 -0.481747 -2.41174e-19)
(2.38288 0.258449 1.26698e-19)
(1.31543 0.812893 0)
(0.88101 0.0238706 0)
(0.00932614 0.198555 -1.14425e-19)
(-0.0105059 0.0128811 1.27365e-19)
(0.96825 0.384977 -2.26707e-19)
(-0.287089 -0.0642791 -1.04193e-19)
(0.665865 0.435365 2.57451e-19)
(0.678108 0.494379 0)
(0.531944 -0.494311 0)
(-0.267016 0.113144 -8.45517e-22)
(1.21553 -0.49191 -1.14912e-19)
(0.846057 -0.057524 1.13052e-20)
(0.728327 -0.128588 1.27827e-19)
(-0.101595 0.133889 -2.28532e-19)
(1.0778 0.143944 2.09574e-19)
(0.677924 0.632724 0)
(1.29844 0.716167 0)
(1.65495 0.268947 0)
(-0.268116 0.209134 -9.19773e-20)
(1.28475 0.579746 1.72522e-19)
(1.84812 0.035382 1.88797e-20)
(0.952607 -0.0152381 0)
(2.29888 -0.264222 0)
(2.17159 -0.0696473 -2.92027e-19)
(0.142438 -0.51371 2.05502e-19)
(1.00518 0.00458219 -2.16963e-19)
(1.52948 0.493497 0)
(-0.0830816 0.463992 0)
(1.26692 0.333435 3.25008e-19)
(1.0454 0.547293 -1.43736e-19)
(1.07509 0.0316389 0)
(1.0758 -0.0762345 0)
(2.03393 0.691557 -2.44375e-19)
(-0.185482 0.270257 -1.0609e-21)
(0.994276 0.0140842 0)
(0.728438 0.498689 -3.57349e-20)
(0.925919 -0.814945 0)
(1.00179 0.0166574 5.04295e-20)
(-0.562627 -0.450238 -6.13024e-20)
(0.893075 -0.304526 3.37253e-19)
(-0.187058 -0.704871 3.17058e-20)
(2.00711 -0.0448442 1.53514e-19)
(2.03053 0.0616984 9.33258e-20)
(0.779201 -0.0189418 0)
(1.00659 0.012032 0)
(-0.634244 0.284897 0)
(0.681283 0.652666 -2.07539e-19)
(-0.0656235 0.0835967 1.54357e-19)
(1.18964 0.363806 -5.20019e-19)
(-0.16833 0.60416 0)
(0.851473 0.665597 1.82011e-19)
(0.996188 -0.316812 0)
(1.00539 -0.000396019 1.26964e-19)
(-0.213022 -0.16935 1.9426e-20)
(1.05488 0.421947 2.84127e-19)
(1.33772 0.223105 0)
(2.26784 0.157966 -6.49183e-20)
(0.821994 -0.0910987 -3.94534e-19)
(-0.796234 0.252119 -3.24166e-19)
(0.37328 -0.128323 0)
(0.892743 0.261361 1.89187e-19)
(1.89874 -0.0238377 0)
(0.79671 0.545151 3.89937e-19)
(-0.551112 0.39433 1.48665e-19)
(-0.0813724 0.106761 0)
(0.6068 0.5778 -7.64035e-20)
(1.01301 -0.625782 -1.73827e-19)
(0.464656 -0.21266 -1.31424e-19)
(1.02007 -0.00869196 0)
(0.0825527 0.536536 -1.43478e-19)
(0.625469 -0.553881 8.9575e-20)
(0.921468 0.308316 0)
(1.80452 -0.319706 1.33799e-19)
(1.00548 0.857568 2.73334e-20)
(0.662404 -0.203181 2.99406e-20)
(0.239715 0.0398827 -2.04055e-19)
(0.217372 0.0224077 -5.87536e-19)
(-0.105455 -0.0532642 6.41171e-21)
(0.835496 0.380203 2.66038e-19)
(-0.20171 0.24475 -4.60046e-21)
(1.39573 -0.632615 3.46977e-21)
(1.02228 0.0171721 -3.77452e-19)
(-0.395372 0.230729 0)
(1.03455 0.0422505 -4.46393e-19)
(1.80273 -0.142284 4.33187e-20)
(0.910375 0.711711 3.0834e-19)
(1.12679 -0.0608954 1.76366e-19)
(1.00302 -0.0185944 1.74603e-19)
(1.53582 0.963941 2.30179e-20)
(0.0705655 0.130755 6.83167e-22)
(1.72441 -0.853378 1.53118e-20)
(1.11288 -0.124646 -8.88191e-20)
(0.766338 0.0446727 1.02486e-19)
(0.898545 -0.274382 9.80862e-20)
(1.9569 0.111797 0)
(0.985296 0.756182 0)
(0.0635546 -0.248101 -2.31682e-20)
(2.05635 0.200745 -1.36573e-20)
(-0.537671 0.413464 1.20696e-19)
(1.01665 -0.523347 -5.79665e-19)
(0.602933 -0.516228 4.27238e-19)
(1.26969 0.205795 -1.08526e-19)
(-0.182989 -0.0169361 1.23027e-20)
(1.57603 -0.231326 0)
(0.758261 0.139375 -7.23655e-21)
(1.62129 -0.174947 -1.05301e-19)
(1.06362 0.782875 0)
(0.670985 -0.245865 0)
(0.688007 0.438238 0)
(-0.0472891 -0.0032248 -3.92397e-20)
(-0.144108 0.173416 0)
(0.890376 -0.515135 2.32142e-19)
(1.24254 0.188308 7.18646e-21)
(-0.726169 -0.339194 1.97431e-19)
(1.93172 0.545466 5.85155e-20)
(1.86342 0.477089 -3.64859e-20)
(2.05582 -0.269578 -1.97192e-20)
(-0.178539 0.00896851 -1.7914e-19)
(-0.286472 0.0416447 2.66612e-21)
(1.95241 0.148077 0)
(0.682199 -0.0356312 0)
(1.00071 0.000760658 2.11267e-22)
(-0.307677 0.249053 0)
(1.36831 0.0412646 -1.93235e-20)
(0.681111 -0.0320544 0)
(1.04359 0.0097119 1.41874e-19)
(0.989792 0.0157002 -4.93134e-20)
(1.15409 0.197973 1.25564e-19)
(1.06822 -0.0146759 -1.02064e-21)
(0.939613 -0.175928 -5.91516e-20)
(1.02087 -0.0234517 4.05562e-19)
(0.658563 -0.594563 2.03324e-19)
(-0.823554 -0.524521 -2.57603e-19)
(1.77163 0.519971 2.31498e-20)
(-0.0143239 0.0267886 0)
(1.15048 0.815912 0)
(1.02463 0.00307286 0)
(0.988987 -0.759809 -1.22636e-19)
(1.0303 -0.881418 6.8298e-20)
(1.43721 0.58979 4.5025e-20)
(-0.846374 -0.450445 -3.70168e-19)
(0.248832 0.181696 1.54259e-20)
(0.570537 -0.356143 -6.85268e-19)
(2.09339 0.22531 -1.33376e-19)
(-0.0961387 0.0801949 2.14861e-20)
(2.03972 -0.229207 5.43718e-20)
(1.4706 0.133768 -2.92437e-20)
(-0.017076 0.0483304 -7.96463e-20)
(1.13605 0.57152 2.21197e-19)
(-0.264428 -0.186842 0)
(-0.322914 -0.0386393 2.0717e-19)
(-0.170109 -0.133941 -3.10444e-23)
(1.02839 -0.0444815 3.64514e-19)
(1.02277 0.00784786 -9.36437e-21)
(1.10812 -0.00860453 -1.00689e-19)
(1.18964 0.75574 8.97079e-21)
(1.66815 0.328614 7.60105e-20)
(0.38841 -0.361836 -3.42368e-19)
(0.999834 0.564168 -9.01094e-20)
(1.03161 0.00972355 -2.67428e-19)
(1.96578 0.6054 -2.38486e-20)
(1.03442 0.787278 0)
(1.13337 0.610627 -4.1543e-19)
(1.0026 -0.00365673 1.0358e-19)
(0.695653 0.625145 2.77595e-19)
(1.03978 -0.190181 -2.61408e-21)
(1.0733 -0.00602297 -3.32818e-20)
(1.13142 0.0190622 9.42795e-22)
(2.39492 0.063139 1.54737e-20)
(1.40109 0.285943 0)
(1.04333 -0.0403219 0)
(1.04815 -0.034679 6.36989e-19)
(1.00258 -0.00261402 0)
(-0.121191 -0.0917682 0)
(0.965783 -0.5779 0)
(1.0008 -0.00044403 -6.02462e-19)
(1.14158 -0.667447 1.00703e-19)
(1.02291 -0.000731302 1.26647e-20)
(1.3714 0.97805 -3.67675e-20)
(1.55769 1.02732 6.22511e-20)
(0.287143 -0.161569 -2.47414e-20)
(1.05721 -0.119247 6.39616e-20)
(1.98661 -0.0590015 0)
(-0.148967 0.291897 0)
(1.88195 0.0991708 1.01195e-19)
(1.0957 -0.227558 0)
(0.999747 -0.004835 -1.86338e-19)
(1.01082 -0.00114027 3.62193e-19)
(1.4844 0.14918 -7.93597e-20)
(0.0162856 -0.110556 1.97454e-19)
(0.980768 0.0021823 1.97462e-19)
(0.63156 0.113622 -5.65976e-20)
(0.943359 -0.0519948 4.17583e-21)
(1.15773 0.784109 5.82549e-23)
(0.927599 0.0181973 -1.98732e-19)
(1.0037 0.00409945 2.34014e-19)
(1.0003 -0.000410344 1.38265e-20)
(0.789721 -0.0133923 0)
(0.728378 -0.0269531 0)
(0.724013 -0.0273348 7.14251e-22)
(0.700732 -0.0298123 0)
(1.31954 -0.0683991 0)
(1.20589 -0.106304 0)
(0.904336 -0.0673941 -2.17671e-20)
(0.832668 -0.0664201 1.16986e-20)
(1.62167 -0.283085 0)
(1.25485 0.428919 3.44007e-20)
(1.23151 0.63777 0)
(0.307065 0.220251 0)
(0.553099 0.108515 0)
(0.977469 0.257744 1.04743e-20)
(1.76214 0.216176 8.15758e-20)
(0.774369 0.0241402 0)
(0.785871 0.0200564 0)
(0.966172 0.0210442 -2.44861e-19)
(0.814786 0.00770065 4.56023e-19)
(1.00777 -0.00123654 0)
(1.00011 -0.000464454 4.3253e-19)
(1.00028 -0.000628396 -3.28777e-22)
(0.783983 0.0226127 3.88803e-19)
(0.998468 -0.00476431 -2.26618e-19)
(0.321405 0.149046 0)
(1.06216 -0.0825256 -4.17894e-21)
(1.00062 -0.00115714 -2.18602e-19)
(0.999661 0.00105606 -3.75168e-19)
(0.71236 0.457304 0)
(0.998965 0.00158337 0)
(0.999654 0.000304484 0)
(1.67287 -0.268083 -1.04972e-20)
(0.216557 0.387629 3.90433e-20)
(1.43373 0.614488 0)
(-0.164436 0.312544 2.0307e-19)
(-0.337312 -0.185802 -1.84013e-19)
(1.02015 -0.0113794 -2.9185e-19)
(-0.134703 0.0679334 -6.6471e-20)
(1.01851 0.00807138 -2.34898e-19)
(1.15047 -0.208441 -1.22955e-19)
(0.785032 -0.452571 3.3338e-19)
(-0.0715905 -0.0544081 -6.09404e-20)
(1.02962 0.0150715 0)
(1.06597 -0.00983239 -6.42107e-20)
(0.845576 0.0241792 0)
(-0.0701546 0.0912381 2.24286e-19)
(1.12002 -0.426908 0)
(-0.145693 0.241312 -1.69932e-19)
(1.03022 0.128076 4.14046e-20)
(1.69137 0.703147 -5.42327e-20)
(-0.0548982 -0.00960487 0)
(1.052 -0.0378929 1.97083e-19)
(-0.111155 0.256495 3.25783e-21)
(0.929443 0.00695033 3.0737e-19)
(1.01245 -0.00648471 -1.98802e-19)
(1.70924 0.88433 1.44498e-20)
(0.539537 0.508833 0)
(0.466818 0.430626 2.13966e-19)
(2.11768 -0.256515 -2.45089e-21)
(1.16666 0.13312 2.16387e-19)
(1.07247 -0.697126 0)
(1.02395 0.00716936 0)
(0.999934 -0.0175488 -4.57327e-19)
(1.01847 0.0173767 -4.45818e-19)
(-0.134315 -0.0619913 0)
(1.24796 0.843415 -1.54568e-19)
(1.16551 -0.129445 2.78305e-21)
(1.01616 0.00676197 1.71814e-19)
(1.01179 0.0145426 -2.15107e-19)
(-0.125252 0.36578 -1.73742e-20)
(0.18714 0.0544586 -6.51959e-20)
(1.01889 -0.0110165 7.32794e-19)
(1.42801 -0.116617 0)
(1.8955 0.670897 -1.82688e-20)
(1.01609 -0.00836082 -2.28208e-19)
(1.86747 0.00473773 -5.77448e-20)
(1.06504 0.0135928 -5.27804e-22)
(1.00957 -0.00922098 4.56032e-20)
(1.95555 -0.0714901 -1.36683e-19)
(1.01619 0.00744887 2.21211e-19)
(0.873181 0.84214 9.55658e-21)
(1.0182 0.00754877 0)
(0.944152 0.167224 5.40157e-20)
(-0.850754 -0.158621 3.17761e-21)
(0.998702 0.0226795 2.19566e-19)
(1.03984 0.0213559 -5.9791e-22)
(0.792362 -0.145973 -1.87387e-20)
(1.28116 0.327749 4.72896e-19)
(0.994638 0.0177672 1.51172e-19)
(1.01718 -0.0118103 4.79137e-22)
(1.79253 0.259037 -3.33258e-20)
(1.81094 0.967132 -9.24355e-20)
(0.765151 -0.685777 6.74426e-20)
(0.432664 -0.290589 -3.30453e-19)
(1.00753 -0.00871755 0)
(1.02016 0.00478112 5.49412e-20)
(1.01138 -0.00750495 1.15969e-19)
(0.979741 0.777965 1.84932e-20)
(1.0146 0.00881424 -2.30371e-19)
(1.02618 -0.0172429 2.63937e-19)
(1.00813 -0.00708104 -2.1676e-19)
(1.01371 0.00804567 -5.02784e-22)
(1.01291 0.00424016 -3.46498e-22)
(1.0248 0.0165208 2.2058e-19)
(0.907967 0.105558 5.53418e-19)
(1.67674 -0.231804 0)
(-0.352685 -0.0813202 4.87399e-20)
(1.01109 -0.000597262 0)
(1.02234 -0.0128948 -6.40049e-20)
(1.56765 0.460298 -1.07004e-19)
(1.62377 -0.0498909 0)
(2.16253 -0.21069 -1.33889e-19)
(1.01885 -0.371884 -5.49251e-20)
(0.77698 -0.0195393 0)
(1.73744 -0.0165318 0)
(-0.26142 -0.551913 -3.39753e-19)
(1.43139 0.657909 -4.34856e-20)
(1.01788 -0.000721794 -2.322e-19)
(1.10252 -0.549023 -6.87811e-20)
(0.270964 0.00459351 -5.29359e-20)
(0.824268 0.748406 0)
(1.43217 -0.212912 0)
(2.13856 -0.111411 0)
(-0.0715923 0.194993 7.43432e-20)
(0.836451 0.723464 -6.04404e-21)
(-1.09141 -0.893859 0)
(0.00998139 0.38385 -1.84886e-19)
(1.73347 0.991729 -2.12281e-20)
(1.00766 -0.00116104 -4.5357e-19)
(0.797117 0.668435 3.78001e-20)
(1.02106 0.0136155 3.00569e-19)
(0.702273 -0.0450245 0)
(-0.181668 -0.0912672 -1.94796e-20)
(0.634996 0.462326 -3.63524e-19)
(1.68174 -0.0763432 3.00247e-19)
(-0.0583846 0.320314 0)
(0.765939 0.0751825 8.86449e-20)
(0.535414 0.513589 5.53723e-20)
(1.2127 0.906826 -4.23006e-20)
(-0.0952757 -0.101184 9.67616e-20)
(1.02379 0.0196026 0)
(0.789869 0.697395 -3.7716e-20)
(1.01205 0.000401838 1.70341e-19)
(2.38627 0.138095 0)
(1.01215 0.00965299 2.85586e-19)
(-0.191737 -0.00412697 -9.99079e-20)
(1.01853 0.0143785 -1.76963e-19)
(1.59827 1.10093 0)
(2.4811 -0.296571 5.59459e-22)
(1.009 0.0049563 -1.18565e-19)
(0.996771 -0.0168172 3.12612e-19)
(1.10589 0.106353 -2.91448e-21)
(0.892752 0.736496 8.58588e-20)
(-0.10968 -0.147325 2.5767e-19)
(2.0578 0.285729 1.39042e-19)
(0.0898992 0.379966 -9.82676e-20)
(0.799569 0.0146062 -4.27952e-19)
(0.821981 0.0314653 0)
(0.39389 0.331652 3.91777e-21)
(1.02285 -0.00833166 -3.43957e-20)
(0.971763 0.0395993 0)
(1.05272 0.00584672 -2.18521e-19)
(-1.03893 -0.0131487 5.95718e-20)
(-0.758256 0.128518 1.26995e-19)
(2.13541 -0.531466 0)
(-0.139397 0.0107302 -6.67268e-19)
(1.48553 -0.33249 0)
(1.0412 -0.0166394 6.40167e-20)
(0.705849 0.562426 -1.0432e-21)
(1.0134 0.00287454 1.84236e-19)
(-0.0768277 0.502311 3.44744e-19)
(1.01978 0.00514575 0)
(0.994461 0.0036325 -4.42347e-19)
(1.00875 0.00867011 2.34182e-19)
(1.38022 -0.255693 0)
(0.19773 0.245834 7.11008e-21)
(0.956388 -0.00124568 -1.99973e-19)
(-0.171507 0.00974633 2.4266e-19)