/*--------------------------------*- C++ -*----------------------------------*\
| =========                 |                                                 |
| \\      /  F ield         | OpenFOAM: The Open Source CFD Toolbox           |
|  \\    /   O peration     | Version:  2306                                  |
|   \\  /    A nd           | Website:  www.openfoam.com                      |
|    \\/     M anipulation  |                                                 |
\*---------------------------------------------------------------------------*/
FoamFile
{
    version     2.0;
    format      ascii;
    arch        "LSB;label=32;scalar=64";
    class       volScalarField;
    location    "23.9";
    object      p;
}
// * * * * * * * * * * * * * * * * * * * * * * * * * * * * * * * * * * * * * //

dimensions      [0 2 -2 0 0 0 0];

internalField   nonuniform List<scalar> 
2186
(
1.12207
0.121188
0.401355
1.43305
-0.79102
0.133641
1.06696
-0.488376
-0.328656
1.65559
1.248
-0.427232
-0.501475
1.31201
-0.0878219
1.30258
1.33528
-0.886821
0.0637912
-0.880815
1.68884
-0.849844
1.31873
-0.497172
1.31017
1.40914
1.532
1.27657
0.743103
1.31133
-0.854705
1.31042
-0.822639
-0.940043
-0.422833
0.208058
-0.893325
1.66896
-0.739404
0.0816429
-0.503037
-0.818827
-0.190374
-0.981102
1.11399
1.63605
0.764152
0.917569
-0.922701
-0.924955
-0.864823
1.07686
-0.185762
1.58383
-0.857181
1.32192
-0.236455
1.348
-0.808653
1.15205
-0.828439
0.806435
0.703978
0.132471
0.733494
0.862658
0.828745
1.58426
1.47891
-0.331267
-0.48195
-0.857252
1.57028
1.36369
1.44656
1.51547
-0.90001
1.32896
-0.424885
-0.771473
-0.937175
0.162271
1.30628
0.785134
1.3028
1.3076
1.57118
0.136025
0.0558988
-0.437661
1.32115
-0.861927
1.25587
1.49518
1.3189
0.552849
0.28713
0.753523
-0.861761
1.36
-1.05055
-0.89325
0.817638
1.27145
1.33763
-0.888211
1.44382
-0.193061
1.29854
-1.42386
-0.740718
-0.901006
0.943029
1.56809
-0.328323
-0.538185
-0.0688932
-1.06443
-0.438987
1.57889
0.0571231
-0.977232
1.03339
-0.881623
1.30852
-0.058836
-0.854016
1.50343
-0.875373
1.04971
1.72662
1.59458
0.660986
1.04206
-0.959048
-0.951338
1.29494
-0.351571
-0.552968
-0.444901
0.970401
0.244922
-0.480194
1.08976
1.25045
1.28569
-0.138052
-0.792102
1.00059
-0.944676
-0.86486
0.975847
1.33218
1.5405
1.4076
0.92698
1.55684
0.588478
0.476031
0.830017
-0.445252
-0.528697
1.26271
1.35107
0.0752138
0.102068
-0.364373
-0.41903
-0.319459
-0.342559
0.487388
1.36368
1.33567
1.47273
0.558067
-0.251989
-0.744807
1.2628
-0.723106
1.05232
-0.420161
1.32323
-0.87111
0.69534
0.671007
-0.73812
-0.537106
1.35322
-0.496415
-0.518747
-0.688013
1.54994
-0.866086
1.33478
-0.441808
-1.55519
0.173637
1.46474
1.28068
-0.858102
-0.451403
-1.5172
0.514363
1.34538
-0.434444
-0.829663
-0.440894
-1.09215
1.2204
-0.872591
0.918012
0.153234
1.55874
1.00291
1.10939
1.32026
1.41406
1.31239
1.27371
1.33302
0.780064
-0.539444
-0.856244
0.194706
0.614133
-0.914744
-0.835437
1.24626
1.46953
-0.443584
-0.38041
-1.15752
0.783459
1.04232
1.13417
1.27597
1.48597
-0.899436
1.25741
-0.455254
-0.903797
-0.54557
1.20248
0.893967
1.37734
1.49183
1.33303
1.30497
-0.464783
1.20871
1.38094
-0.483073
1.18645
0.946395
-1.08124
-0.417866
-0.38261
1.37729
1.32861
-0.513746
-0.573178
-0.759424
1.33072
-0.909426
0.932263
1.29922
1.20537
-0.393682
-0.859573
1.29735
0.80977
-0.184695
-0.477228
1.61362
-0.835
-0.47196
1.18598
1.54577
1.30544
-0.826243
-0.829353
-0.273948
1.1424
-0.495511
0.947356
1.29201
1.37767
0.251985
-0.046106
1.24139
-0.400037
1.29349
1.55685
1.3251
1.32253
-0.659084
-0.952808
-0.499291
-0.830846
-1.22698
-0.82191
0.792866
-0.0808925
0.75932
1.53397
1.43843
1.13956
-0.174248
1.42001
-0.428684
0.114575
-0.497716
-0.440514
-0.532531
0.764731
-0.868261
-0.858158
0.266119
1.16581
-0.753396
0.508003
-0.905626
-0.0262453
-0.537856
-0.884643
1.51951
0.0652777
-0.136433
-0.855898
1.17612
0.72766
-0.373679
0.916571
-1.6494
-0.529961
0.817943
1.33871
1.29064
-1.55043
1.45295
1.26957
0.505213
1.60325
1.29591
1.26613
0.771084
-0.495061
-0.450347
1.07046
-0.962199
-0.406479
-0.463763
-0.544502
-0.444284
1.62177
-0.743366
-0.862777
-0.474283
1.29619
-0.72089
-1.03483
-0.959992
1.14933
-0.259798
-0.622463
1.535
1.59994
1.49379
-0.48357
-0.337702
1.63414
1.3031
-0.721732
0.591292
-0.459889
0.600902
1.44752
1.20654
1.22103
1.64145
-0.0301024
-0.597019
-0.534164
-0.889983
-0.467057
-0.831687
0.178251
1.55388
-0.979253
-0.445099
1.28444
0.984179
-0.421652
-0.914613
-0.452935
-0.921774
-0.542243
-0.438286
-0.891446
-0.815043
1.51875
-0.574185
-0.53866
1.32462
-0.48586
1.61986
-0.737277
-1.31131
-0.960566
1.30888
-0.411604
1.32732
1.23092
-1.25649
1.38918
-0.987987
-0.438143
-0.464291
1.38576
1.26968
-0.416089
-0.458604
-0.514944
1.20188
-0.579749
-0.932029
0.651415
1.19574
1.2219
1.07423
-0.427223
-0.780308
1.062
-0.592119
1.15988
-1.64469
1.33009
0.0373225
1.49285
-0.438485
1.2361
0.896563
1.33395
-0.431989
1.28818
-0.924013
-0.436397
1.31196
-1.33102
0.245727
-0.54853
-0.084833
1.30574
0.527725
0.708745
1.2958
0.354125
0.311081
-0.112762
-0.863031
0.65481
-0.517056
0.887165
-0.699618
1.28767
1.50234
-0.463426
-0.441616
-0.525835
-0.849092
0.570194
-0.548775
1.0171
0.394303
-0.508605
1.36008
-0.505778
0.499199
0.717957
-0.351418
0.97523
0.468286
-0.890151
-1.94539
-0.35432
-0.830111
1.32125
-1.82183
1.4441
1.58543
1.56996
0.820235
1.39486
-0.81193
-0.793931
1.23233
0.642996
1.28589
-0.84324
-0.515975
-0.811693
1.15657
-0.437183
-1.52925
-0.87869
-0.921266
0.18668
-0.46386
0.919384
0.90946
-0.581697
-0.356711
1.14073
0.511013
1.36044
-1.69122
-0.12145
-0.43756
0.934274
-0.123043
1.53868
1.65033
-0.857421
-0.831159
-0.352454
0.421037
-0.955542
1.41191
-0.413277
1.37045
0.973761
-0.474111
1.10035
1.06286
-1.21055
1.21691
-0.841236
-0.857698
-0.929212
-0.406998
-0.819104
-0.865151
-0.683517
1.31364
0.325666
-0.868723
0.991731
1.4588
1.5741
0.111824
1.12038
-0.431071
1.16672
-0.154674
-0.938587
-0.857341
0.643575
1.01308
1.29875
-1.15066
-0.43367
-0.447665
-0.446485
0.334794
1.12119
-0.911471
0.227519
-0.597775
1.1543
-1.77074
1.23392
-0.770033
-0.819662
1.27458
1.03816
-0.872495
-0.12013
1.24929
1.64684
1.33199
-2.00538
-0.944027
1.17983
-0.725097
1.16576
-0.577938
0.584058
1.24564
-0.525771
-0.860319
1.25389
-0.408431
1.48993
-0.172524
1.26116
0.156191
1.0158
-0.319473
1.56309
-0.860293
-1.01115
1.16422
0.670829
0.65319
-0.533574
-0.864831
-0.510048
1.00238
-0.146301
-0.753093
-1.916
1.32278
0.531506
-0.946534
0.943257
1.09941
1.27272
-1.35719
-0.761809
-0.867534
1.32339
1.41319
0.899905
1.32011
0.116185
1.40989
0.169737
-0.268818
-0.728869
1.2558
1.29133
-0.688914
1.03927
-0.862589
1.01627
-0.774225
1.21218
1.31175
1.32224
-1.78357
1.14149
-1.01287
-0.663007
1.49036
-0.963343
-1.80618
1.37534
-0.448469
1.33493
-0.961244
-0.861435
1.25923
1.16759
1.70618
1.30959
-0.967256
1.45534
1.33682
-0.847428
0.798384
-0.155406
-0.337866
1.80487
-0.44862
1.3794
-0.864137
0.721065
1.31065
-0.58092
1.27964
-1.11535
1.12641
1.27992
1.32829
0.246162
-0.521265
-0.124114
0.967109
1.03892
1.41621
-0.308604
1.01776
-1.61384
-0.337216
-0.811004
1.21289
1.51424
-0.941681
-0.370689
-0.125908
1.52598
-0.271481
0.912637
-0.314839
-1.05218
-0.470149
-0.863059
-1.90628
1.02679
-1.37503
-0.386586
-0.272588
-0.0535711
-0.897785
-0.478011
-0.417263
1.25734
1.32689
-0.554733
0.0490396
1.27625
1.26688
1.3286
-1.08935
1.27217
1.39809
1.31406
1.43335
-1.35429
-0.141207
-0.861141
0.782547
1.31922
1.10141
0.586626
-0.0422411
-1.7163
0.102371
1.61812
-0.218116
0.309894
-0.149962
-0.0475051
-0.492718
0.980726
-0.413761
-0.470185
-0.435196
1.29923
1.31277
1.31073
0.00264574
0.477016
1.60154
-0.0559014
1.31241
-0.0963671
-0.0370915
0.950292
1.32449
1.31494
0.141851
1.26293
1.26452
-0.805555
0.00989418
1.31182
1.32625
1.32564
-0.438286
-0.487107
1.32668
1.00953
1.31243
0.324965
-0.0500272
0.16888
-1.50376
-0.600444
-0.893654
-0.813316
-0.501297
1.33068
1.33475
0.96954
-0.45326
1.29865
-0.0483634
0.225276
-0.0142327
1.31306
1.33293
1.3274
1.33671
1.31199
1.30362
1.29165
-0.113043
0.203904
0.166059
0.197809
0.032975
0.0758477
0.00629375
-0.0666789
-0.0465472
-0.0123485
-0.0856488
1.30876
1.32528
1.32062
1.3411
1.33759
1.32792
1.32934
1.31625
1.30897
-0.078624
0.233841
1.3271
1.32788
-0.0266834
1.33068
1.32733
0.118436
0.25242
-0.0464137
-0.729267
-1.71972
1.30854
-0.495473
1.30983
1.00933
1.44418
-0.44842
1.31127
1.22263
1.27266
-0.861289
-0.501576
-0.535226
-0.00699267
0.0435166
-0.857601
1.31897
0.227627
1.39822
1.31084
-0.10302
1.41358
1.5791
0.0633096
1.11962
1.06263
1.30247
1.32133
1.31947
-0.446379
0.634558
0.164508
1.31059
1.32452
-0.558026
0.288906
1.31127
0.150447
-0.285892
1.31252
-0.707383
1.28149
1.32338
-0.33749
1.32204
0.236522
1.31147
1.35634
-1.26607
1.32951
1.33634
0.195953
0.887187
1.31527
1.31399
0.262592
-0.748604
1.11372
1.70465
1.31956
1.31646
1.31693
0.359574
1.31486
1.30884
1.31671
1.31328
1.31427
1.31535
1.39944
-1.34278
-1.25814
1.31681
1.30617
0.426128
-0.758117
-0.777099
-1.58693
1.13565
-0.663442
-1.74551
0.192128
1.31058
1.11807
0.229289
-0.108963
-0.0350998
-0.991406
-0.922439
0.289403
-1.57759
-1.01587
-0.280676
1.31978
0.319075
1.30671
1.1965
-0.436291
1.50048
-1.12815
-0.995066
1.11729
1.36925
0.60536
-0.436699
1.30155
0.157935
1.31666
-0.750199
1.31787
-0.428451
1.30729
0.13206
-0.776941
1.31859
1.33541
1.21148
0.0693308
-0.438463
-0.757938
0.177884
1.33462
1.1758
0.206191
1.30471
1.3505
1.29315
0.134016
-1.00033
-0.173596
-1.27023
0.742183
1.31063
-0.100555
1.31456
-0.972462
1.30703
1.34588
1.32125
0.00493089
-0.0595377
1.34881
-0.472046
1.32358
1.32598
0.454992
-0.491684
1.15966
1.39898
1.30553
1.29509
-0.0717928
-0.455892
1.2942
0.830679
1.32122
1.23241
-0.711268
-0.478049
1.10822
1.5828
1.30497
0.765487
-1.70466
0.199162
-1.41998
-1.74222
1.30628
-0.856018
1.28461
-0.82313
-0.442943
-0.81809
0.628218
-0.408449
-1.30921
-0.862882
1.30576
-0.436624
1.12848
-0.455674
0.284554
-0.37132
0.22162
-1.16446
1.26711
0.151675
-0.327311
-0.626075
-0.91935
1.30787
-1.3431
0.219946
-1.17089
1.34236
-1.01135
-0.454604
1.37631
1.30581
1.30061
0.886816
-0.407572
1.30771
1.32808
-1.80361
-0.847814
1.30593
1.18817
1.51732
1.32348
-1.03474
-1.17831
-0.877239
-0.6258
-0.737042
-0.436453
-0.022727
-0.382648
1.19158
0.426716
1.32297
1.49172
1.29957
-0.441673
-0.440984
1.30658
-1.43285
-0.633842
1.2994
0.182995
-0.6676
-0.987631
-0.256941
1.23007
1.19836
-1.76952
1.18857
0.876764
-1.54072
1.30555
-0.574076
1.06245
-0.871971
1.34122
-1.61201
0.837199
1.30839
1.33169
-0.95935
-0.867311
1.08696
1.67861
1.32806
1.25249
-1.39237
1.61133
-0.352154
-0.684359
-0.31993
0.885969
-0.839641
1.4157
1.52148
-0.46236
-1.59483
1.30032
-0.695717
1.22868
1.33672
1.24731
-1.0995
1.30738
0.0379649
1.33964
-0.0617413
-0.799729
-0.0465045
1.31126
0.17949
-0.428028
-1.27947
1.3408
-1.14007
1.44778
0.691435
1.58896
1.21593
-0.785244
1.30486
-0.858725
1.26185
1.27003
-0.367486
-1.39935
1.37543
1.28809
1.4788
1.24505
0.525038
1.2421
1.31211
1.11768
1.31298
-0.379679
-0.827992
-1.41073
1.43372
-1.26553
-0.82694
-0.860434
-1.48031
-0.846197
-0.0580656
1.08679
-0.656833
1.2846
1.34426
-0.848725
-0.400366
-0.74608
-0.540919
-0.906775
-0.85432
1.30435
-1.34369
1.32376
1.58963
1.36756
-0.11438
1.33016
1.21842
-0.930615
1.2946
1.27992
-0.689415
1.28127
1.17196
0.166746
-0.714471
1.78232
-1.40642
-0.728599
-0.509235
0.668269
1.29882
-0.791189
-1.31739
-0.855896
1.43047
-1.0285
1.07598
1.31175
1.31154
-0.697669
1.30738
-0.894849
1.31853
1.33416
-0.374667
1.32562
0.685446
1.31646
1.09976
-0.95707
0.12255
0.0929025
0.150464
1.51497
-0.0937661
1.32387
1.67759
-0.925859
-0.0124341
1.37862
0.0159228
1.37593
-0.0507249
-0.0628212
1.36979
1.3745
0.844374
-0.510418
0.977224
-0.820838
-0.915215
-0.660118
1.3275
1.32739
1.77146
-0.437557
-1.12522
1.14007
-0.551586
1.36537
1.24599
1.32469
1.2935
1.28445
-1.02075
-0.435976
-0.578957
1.05434
1.20054
-1.19144
-0.851378
-0.450657
1.3278
1.35976
-1.17849
-0.89443
1.34262
-1.3422
0.3838
0.988184
1.15162
-0.391334
-0.527823
-0.139563
-0.530676
-0.827023
-1.09784
-1.53823
1.73359
1.62637
-0.707551
-0.533351
1.32655
1.30423
-0.776523
0.388444
0.11305
0.859092
1.39672
-0.486411
1.31378
-1.33085
-0.513519
-0.842543
-0.747562
-0.961165
1.3136
-0.528434
-0.582987
1.63966
-0.5207
1.31552
1.49891
-0.848541
1.42577
1.62094
-0.791848
1.49901
-0.513344
-0.50245
1.28443
-0.30033
1.39714
1.31913
-0.505488
1.3895
0.583585
-1.22315
1.34596
1.41436
-0.388633
-0.623723
1.22591
1.30763
-0.478667
-1.06693
1.54124
-0.496985
1.18676
0.00626546
1.28186
-0.421084
-1.4189
-0.457693
-0.767951
1.33847
1.36429
1.65643
1.46078
1.21483
1.36568
1.30855
-0.452658
1.38264
1.51928
-0.835876
-0.488565
-0.704048
1.58469
-1.44109
-0.484683
0.260792
1.1712
-0.827515
-0.669773
1.2617
1.40439
-0.464173
-0.852504
-0.483998
0.351765
-0.990264
-0.810019
-0.448024
1.1203
1.28632
-0.859939
-0.39057
-0.357266
1.06683
-0.495685
-0.740695
-0.444281
1.33451
-0.629561
-0.84868
1.69407
1.23928
0.811264
1.56787
-0.16222
1.36759
1.31508
1.45179
1.58103
-0.579241
0.894781
1.25334
0.699798
-0.440736
1.72864
1.30607
1.27285
1.39857
-0.844031
-0.739902
1.21839
1.04318
1.29254
-1.00743
-1.11057
1.30612
-0.439246
1.19398
-0.396613
1.68214
-0.438586
0.95411
1.14226
-0.86265
-0.436783
-1.00468
1.43084
-0.862296
-0.434853
1.1063
0.826088
-0.676136
1.36904
1.21656
-0.860949
-0.623279
1.23406
-1.1321
-0.436343
-0.460409
-0.856085
-0.343546
1.26007
1.33885
-1.43851
1.03114
1.32048
1.63524
0.708893
0.468626
0.172175
1.27229
0.030585
-0.862801
-1.26153
-0.530918
-0.862763
1.29057
-0.861541
0.348091
-0.435788
0.751889
0.985475
-0.861371
1.04577
-1.38134
0.917802
-0.860267
0.670165
-0.86391
0.81895
-0.437008
0.578423
-0.859416
1.21733
-0.686111
-0.862219
-0.871839
-0.431181
1.32635
0.537407
-0.902845
-0.446001
0.201808
0.291385
-0.862536
-0.431255
-0.947608
0.343004
-0.460921
0.0220947
-0.49161
-0.205576
-1.02917
0.183475
1.1582
0.181876
-0.803534
1.27022
0.0596187
-0.109217
0.867496
1.29749
-0.957745
-1.21588
-0.440738
-0.766451
1.25147
1.70066
-1.06474
-0.728531
0.471338
-0.524122
-0.284997
0.110757
1.25464
-0.671689
1.2875
-0.864185
1.75752
0.863624
1.77647
-0.855773
1.56381
-0.479683
1.3852
-0.378917
-0.437316
1.457
1.32057
-0.912892
-0.43636
-0.86547
1.23681
-0.903115
1.28763
-0.893205
-0.448953
-0.460342
1.60829
1.32005
1.48929
1.2994
1.33071
-0.595929
-0.0504589
1.46153
-1.04884
-0.53398
1.68724
-0.868099
1.19127
1.31317
1.68921
1.76613
-0.893001
-0.499991
1.35787
0.661632
0.024715
-0.819383
-1.48757
-1.58003
-0.849414
0.947389
-0.759853
1.57465
-0.867352
1.29402
1.41043
1.31197
-0.964416
-0.40903
-0.577797
1.40638
-0.568305
1.42652
-0.68378
-0.664376
1.49747
1.66934
-0.440635
0.248473
1.27779
-0.643132
-0.75199
1.05571
1.53353
1.56711
-0.900143
1.15106
1.07801
-0.437199
1.58295
0.463498
-0.85751
-0.973702
-0.117915
0.144829
1.37421
-0.564479
0.437838
0.0923413
-0.0842651
-0.570708
-0.419107
1.28384
-0.927672
1.29898
0.0321455
0.531026
1.07821
0.687264
-0.432204
-0.553611
-0.647931
-0.148456
0.17724
-0.933617
1.17164
-0.790441
-0.770858
1.27897
-0.564759
-0.837633
1.32637
-0.310245
1.21206
-0.0208916
-0.433147
0.137361
1.17093
-0.290767
-0.577747
1.25933
-0.453725
1.40089
-0.0887028
-0.607592
-0.532777
-0.437593
1.83119
-1.02512
1.47979
0.19545
1.29136
1.48332
1.11059
1.36708
1.4116
-0.0322179
-0.937786
1.30234
1.45885
1.70515
-0.525142
1.34111
0.885462
-0.518234
1.18032
1.58198
-0.519382
1.60545
0.303049
-0.688032
1.2257
-0.509768
-0.865343
1.28046
-0.393369
1.38172
1.43777
1.23476
-0.724495
1.15534
1.51952
-0.824997
-0.246829
-1.02974
-1.21826
-0.583635
-0.436564
1.7154
1.14798
-0.78111
1.30073
-0.501147
-0.574795
1.63992
1.48075
-0.969062
-0.687407
-0.435968
-0.446548
1.32039
-0.802049
0.517468
-0.852621
-0.387309
1.38479
-0.483339
1.65463
1.34472
1.24637
1.31217
1.56244
-0.657455
-0.493524
1.36323
1.50601
-0.592622
1.33251
-1.09982
-0.455382
-0.471592
1.32869
1.36033
-0.46104
-0.813306
0.954853
0.377642
-0.967569
1.27682
1.19537
-0.744718
1.23913
1.28577
-0.415584
-0.83134
-0.754398
-0.450446
-0.470366
1.67217
-0.659777
1.14474
-0.822007
1.67526
1.14958
1.09143
1.20045
-1.3988
-1.22475
-0.446074
0.722219
-0.852182
1.30853
0.725241
-0.549165
1.112
1.38839
1.34891
1.30219
0.00736396
1.35485
-0.0759496
0.830825
1.04713
-0.527619
-0.841489
-0.965522
-0.668156
1.32475
1.35398
1.32485
-0.594908
-0.303333
-0.442377
-0.793409
1.31654
1.55067
1.3308
-0.847705
-0.598557
-0.686257
-0.492172
-0.436499
-0.437695
-0.107428
1.29068
-0.647568
-0.860929
0.0912429
0.358718
0.92921
-1.53469
-0.43966
-0.34007
1.19583
1.74571
0.241799
1.4276
1.77998
0.862126
1.48446
-0.835958
-0.148433
1.75548
-0.437481
0.734457
-0.855439
-0.471407
-0.86062
-0.862924
1.33059
1.1331
1.44387
1.40283
0.0395987
1.17593
0.175361
0.0768494
-0.435999
1.43129
0.9313
1.32691
1.34315
-0.125998
0.0982709
1.3465
-0.726775
-0.441914
-0.862233
-0.873109
0.987908
-0.863132
1.28819
1.07312
-0.438028
1.60197
-0.842343
-0.247159
1.30424
-0.57208
-0.55307
-0.818922
0.791362
-0.859795
-1.00173
1.14024
1.33491
-0.179188
0.484213
-0.997215
-0.435395
-0.401396
-1.03649
0.262416
1.01104
-0.628365
-0.863327
1.52272
0.4141
0.526897
-0.862369
-0.475724
1.31489
1.42586
0.713126
0.950138
-0.860731
-0.529673
-0.253737
0.62804
0.864436
-0.859826
1.10369
0.283614
-0.858728
1.71479
-0.863817
-0.649762
-0.467345
-0.798244
1.23647
-0.882404
-0.782656
-0.450855
0.454796
-0.921869
0.122659
-0.69756
-0.0314169
1.44002
-0.980836
0.284366
-0.47666
-0.0770707
1.60348
1.7467
1.4849
1.31879
1.45912
-0.712509
1.30077
-0.8373
1.42174
-0.442155
-0.384799
1.62982
-0.382337
0.885102
-1.02713
1.7355
0.0636212
1.67663
0.789546
1.00706
-0.85739
-0.846651
-0.437399
-1.00768
1.62669
1.46178
1.29447
1.01845
1.31078
1.25925
1.02512
-0.8549
-0.438424
0.401238
0.306625
0.99667
1.31863
0.41809
-0.857246
-0.85435
-0.459145
-0.438385
-1.03998
1.70439
1.33795
1.31379
-0.15074
0.062721
1.34265
-1.40323
-0.436991
-1.34217
-0.520062
0.984614
-0.857891
-0.860261
0.152457
1.29267
-0.638982
-0.465965
1.30881
1.0182
1.08808
1.30178
-0.43579
1.08657
1.53121
1.23197
-0.435558
1.3095
0.781747
0.627641
-0.61404
-0.861401
1.7352
0.670691
-0.916385
0.471524
1.13046
1.23071
-0.531772
-0.646643
-0.0740077
-0.900522
-0.382233
-0.778905
-0.00776334
1.29509
-0.857501
1.27327
1.61904
1.46818
1.25864
1.33449
1.40279
1.30707
-0.703706
-0.170843
-0.350896
-0.517266
-0.305117
-0.859778
1.41769
1.29319
-0.500472
1.31073
-0.619605
-0.390015
-0.86213
-0.873031
0.936565
-0.39638
1.28958
1.1216
-1.03589
0.0718103
1.64307
-0.568757
-0.770997
-0.349822
-0.772829
-0.831767
1.36536
0.979111
1.45245
-0.587863
-1.14111
-0.41901
-0.293588
-0.504496
-0.822665
-0.80916
-0.822787
1.13202
-0.230956
1.80083
-1.12445
-0.0914775
-0.474179
-0.858904
1.27936
-0.491396
-0.594288
-0.322576
0.128178
1.44007
1.57175
-1.30659
-1.43272
1.03405
-0.459272
-0.334537
1.45407
-0.964789
-0.905439
-0.998687
0.952388
0.0377035
-0.509022
1.2953
0.137923
-0.930873
1.2993
-0.619548
-0.807337
-0.862635
-0.948291
0.371365
-0.510453
1.57577
-0.439324
0.589489
-0.443113
0.997152
-0.824542
-0.595711
0.834418
1.13556
1.37162
1.29422
1.44768
-0.878318
1.20358
0.948166
-0.78977
1.19017
-0.309371
-0.863984
-0.720386
1.53248
1.51528
-0.838847
-0.607307
-0.622082
1.24018
-0.649048
0.211366
-0.373628
-0.863232
1.54082
1.25014
-0.85249
-0.728606
-0.857328
-0.857659
1.17241
-0.8478
1.21046
0.373393
0.900149
1.04575
-0.842123
-0.635513
1.16769
-0.862045
0.00922869
1.59194
-0.445784
-0.856187
1.02272
-0.827683
-0.758094
0.260472
-0.539761
1.67493
-0.136683
0.567923
-0.851051
1.66806
-0.841931
-0.71379
0.829067
-0.370154
-0.441698
1.66937
0.862077
1.38903
-0.772436
1.47924
-0.598635
-0.263042
-0.793928
-0.794146
-0.840016
1.51429
0.754193
-0.466321
-0.846747
-0.516234
1.38906
-0.657657
1.64511
-0.441378
0.93627
-0.860842
0.52872
0.71347
0.675676
0.586187
0.615117
-0.680727
1.24863
-0.802153
-0.664227
-0.365681
0.69608
1.68257
0.151224
-0.754157
-0.851888
-0.860579
0.411091
-1.11222
-0.860893
1.2364
0.613177
-0.85304
1.74235
-0.512194
-0.837871
1.68642
-0.857441
0.284333
-0.644613
-0.86084
-0.862519
1.71836
-0.855714
1.6132
-0.862273
-0.656431
1.43765
0.23196
-0.692541
0.743185
-0.532593
0.136356
0.0518617
-0.860445
1.17772
-0.428721
-0.858923
-0.860968
-0.862416
-0.449129
1.20951
-0.0550125
0.0109659
-0.852797
1.63604
-0.361165
-0.745279
-0.82105
0.283777
-1.00187
-0.84654
-0.856936
0.352164
1.49566
-0.841659
-0.43919
-0.898887
-0.20844
-0.14342
-0.454402
1.71955
1.64392
0.576743
-0.649291
-0.445933
0.482822
-0.446449
1.72183
0.349188
1.45056
0.890856
1.64827
0.218146
-1.00826
-0.637999
0.0496853
-0.8006
0.0492483
0.334462
-0.862012
1.62486
0.170006
0.362379
0.0477851
-0.437168
-0.682343
)
;

boundaryField
{
    frontback
    {
        type            empty;
    }
    Top
    {
        type            zeroGradient;
    }
    outlet
    {
        type            fixedValue;
        value           uniform 0;
    }
    bottom
    {
        type            zeroGradient;
    }
    Inlet
    {
        type            zeroGradient;
    }
    rectangle
    {
        type            zeroGradient;
    }
}


// ************************************************************************* //
