/*--------------------------------*- C++ -*----------------------------------*\
| =========                 |                                                 |
| \\      /  F ield         | OpenFOAM: The Open Source CFD Toolbox           |
|  \\    /   O peration     | Version:  2306                                  |
|   \\  /    A nd           | Website:  www.openfoam.com                      |
|    \\/     M anipulation  |                                                 |
\*---------------------------------------------------------------------------*/
FoamFile
{
    version     2.0;
    format      ascii;
    arch        "LSB;label=32;scalar=64";
    class       volVectorField;
    location    "7.3";
    object      U;
}
// * * * * * * * * * * * * * * * * * * * * * * * * * * * * * * * * * * * * * //

dimensions      [0 1 -1 0 0 0 0];

internalField   nonuniform List<vector> 
2186
(
(1.2753 -0.0895094 1.73188e-19)
(1.62099 -0.944953 -1.02543e-19)
(1.46362 -0.917191 1.24978e-22)
(0.726972 -0.57203 -1.20956e-19)
(-0.566986 0.605291 -2.53776e-19)
(1.04191 0.00728541 0)
(0.722987 -0.663836 0)
(-0.326067 -0.537487 1.36742e-19)
(1.56202 -0.234185 1.99008e-19)
(0.542668 -0.31399 -2.24171e-21)
(0.687127 0.617663 0)
(0.883599 -0.262695 -1.47094e-19)
(-0.401783 -0.628941 -5.60779e-20)
(1.10159 0.0208079 -3.01998e-19)
(1.80937 -0.688558 -1.08065e-19)
(1.0102 -0.00882999 1.41491e-19)
(0.996887 0.0131164 0)
(-0.974264 0.290987 0)
(1.039 -0.00230312 0)
(-0.0543057 0.274356 -8.85192e-20)
(0.481651 0.092421 -9.67907e-20)
(-0.250508 0.117593 1.17786e-19)
(1.11016 0.0450137 2.48934e-19)
(-0.26236 -0.0090543 4.30382e-21)
(1.03398 0.017892 -1.95151e-19)
(0.778513 -0.5477 0)
(0.750151 -0.0224126 1.20503e-19)
(0.604819 -0.580524 -1.37856e-19)
(1.20674 0.715635 0)
(0.981444 0.0265772 -2.6731e-19)
(-0.0091683 -0.00349212 0)
(1.04643 -0.00895292 9.24371e-21)
(0.0374602 0.431951 0)
(1.73761 0.422766 8.63761e-20)
(-0.132138 -0.203449 6.85806e-21)
(1.54747 0.770239 7.53379e-21)
(1.35797 0.140251 5.03617e-20)
(0.509207 0.140102 -2.87509e-19)
(2.04203 0.149244 -4.3301e-19)
(1.0382 0.00792172 -1.10787e-21)
(-0.481573 -0.678912 0)
(-0.233707 0.109608 0)
(1.88753 -0.8882 9.59626e-20)
(-0.434966 0.218725 0)
(1.09752 0.273099 1.19346e-19)
(0.585552 -0.294651 2.37718e-19)
(0.928301 -0.789175 0)
(1.18859 -0.7735 8.19147e-20)
(1.58379 -0.659524 0)
(-0.51782 0.754585 2.88151e-19)
(0.0222022 0.0808796 1.30947e-19)
(0.63993 0.590561 6.02647e-20)
(2.06685 -0.763282 1.1821e-19)
(0.596812 0.271957 -2.29566e-19)
(-0.256744 0.333339 4.35674e-20)
(0.752531 -0.634305 0)
(1.6753 -0.976397 1.85597e-20)
(0.570914 -0.529117 0)
(2.3289 0.144923 1.39219e-19)
(1.14923 -0.195668 -2.80779e-19)
(1.04808 -0.0674364 4.36593e-20)
(1.34149 0.294748 -1.25597e-19)
(1.33657 0.541298 0)
(1.07443 0.00917738 1.2138e-21)
(1.3605 0.373397 -6.90769e-20)
(1.25564 -0.714872 -1.0856e-19)
(1.16711 0.664265 3.7167e-20)
(0.672763 0.0760089 -4.6487e-19)
(0.808833 0.0645719 0)
(2.29659 -0.140671 -7.02214e-20)
(-0.317393 -0.617401 -1.58123e-19)
(1.38706 -0.373362 -3.43554e-20)
(0.713686 -0.0293067 -2.05018e-19)
(0.864724 -0.511983 0)
(0.830567 0.183767 -7.46855e-20)
(0.535071 -0.496742 -2.4695e-19)
(1.59652 -0.376067 0)
(1.01229 0.00561674 2.93102e-19)
(-0.106073 -0.305471 0)
(2.04605 0.382022 0)
(1.2254 0.0852365 1.88815e-19)
(1.00227 0.000597068 1.24696e-21)
(1.06599 0.0190418 3.24001e-20)
(1.32479 0.415002 1.8404e-20)
(0.956795 0.0287786 3.4187e-19)
(1.05002 0.0352868 -8.07555e-21)
(0.667917 0.176349 -2.76688e-19)
(1.04442 0.00457229 2.35943e-22)
(0.716326 -0.00907532 0)
(-0.037452 0.00353894 1.05259e-19)
(0.851609 -0.606706 -1.3284e-19)
(-0.102075 0.606589 -3.04023e-21)
(1.09914 -0.0727613 1.99567e-19)
(0.803222 -0.167818 0)
(1.00387 0.0138182 3.26745e-20)
(1.37547 0.643773 0)
(1.63103 -0.956046 0)
(1.30001 0.211479 0)
(-0.569939 0.682957 0)
(0.779613 -0.648818 2.37716e-19)
(0.839114 -0.586565 -3.89216e-19)
(1.08764 -0.353161 3.21598e-19)
(1.47232 0.16343 0)
(1.09108 -0.100233 -1.82451e-19)
(1.08484 0.016528 1.45032e-19)
(-0.0104405 0.676077 1.70244e-19)
(0.640939 0.501665 0)
(2.15976 -0.136439 -1.36706e-19)
(0.960058 -0.474091 6.61722e-20)
(0.128427 0.251953 -4.24012e-21)
(1.80608 0.257784 1.46554e-19)
(-0.318275 0.797918 -3.9503e-19)
(0.820457 -0.742155 0)
(0.567373 0.344744 1.38879e-19)
(1.73239 -0.270593 -5.66013e-19)
(-0.522978 -0.393814 -5.49824e-19)
(1.03644 -0.0158499 -5.44734e-21)
(1.41202 -0.582524 0)
(-0.066775 0.00953132 -3.16191e-19)
(0.698269 -0.0633602 6.50663e-20)
(1.57399 0.882191 0)
(-0.399631 0.741747 -4.71966e-19)
(0.896514 0.770536 -2.06188e-19)
(-1.05944 0.186912 5.70322e-19)
(1.0319 -0.0158703 0)
(1.05838 -0.0100548 6.86313e-21)
(-0.48152 0.737476 0)
(0.685727 -0.492997 -8.83128e-20)
(-1.07717 0.258374 -3.21253e-19)
(0.79115 -0.716647 0)
(0.429385 -0.280483 3.48094e-19)
(0.529941 -0.452524 2.32361e-19)
(0.416901 -0.377203 0)
(0.983856 -0.772289 -9.63376e-20)
(1.11802 -0.169832 0)
(-0.180087 0.87705 -2.26104e-19)
(0.801131 -0.680934 1.12781e-19)
(2.29602 -0.207293 3.15898e-19)
(2.1103 0.0886206 0)
(-0.0399517 -0.161099 0)
(0.694564 0.646295 -2.48439e-19)
(1.77614 -0.625878 1.95465e-20)
(-0.188584 -0.27575 0)
(0.983015 -0.793521 -1.06304e-20)
(1.1227 -0.1064 0)
(1.06669 -0.141786 3.16412e-19)
(2.08001 -0.118 -1.30868e-19)
(-0.595361 0.575187 0)
(1.22558 -0.535641 -4.12259e-20)
(-0.187856 0.477155 -5.44093e-20)
(-0.312247 0.699604 0)
(1.0964 -0.799469 1.20174e-20)
(0.996396 0.00606564 -4.89694e-19)
(0.638569 -0.478551 -8.71319e-21)
(0.805687 -0.512961 0)
(1.20351 -0.711233 -6.92573e-20)
(0.659103 0.237179 2.15076e-19)
(1.23395 0.0933191 0)
(1.54373 0.0699473 -9.60666e-20)
(1.20305 -0.845533 -1.34945e-19)
(-0.0246305 -0.1333 -1.20619e-19)
(-0.230642 -0.672729 -3.16666e-19)
(1.06397 0.0164308 1.81961e-19)
(0.908256 -0.464809 -8.32147e-20)
(1.02902 -0.00251342 -2.18435e-22)
(1.04827 -0.00518846 -1.57959e-21)
(0.743362 -0.118343 1.32346e-19)
(-0.164364 0.0149499 -2.76474e-19)
(1.05724 0.042121 0)
(1.08798 0.0175357 6.91784e-21)
(1.44023 0.650452 7.07743e-20)
(0.798311 -0.601943 -1.73377e-19)
(0.998493 0.0112589 1.00357e-20)
(0.708085 -0.52532 2.42793e-19)
(1.30553 0.802001 7.04288e-20)
(1.83315 -0.0590672 2.47738e-20)
(-0.641602 0.427454 0)
(1.05486 0.0579891 -1.88277e-19)
(-1.14665 0.0368089 -3.94409e-19)
(1.07359 0.491293 6.01652e-20)
(0.128943 -0.0441689 1.66976e-19)
(1.10093 0.0200469 -3.49061e-20)
(-0.118188 0.326854 -2.14241e-19)
(1.30586 0.584099 -4.64924e-20)
(1.14486 0.895113 0)
(-0.681079 0.401319 -1.29451e-19)
(-0.224615 -0.123204 0)
(0.658864 0.561282 -2.21711e-19)
(2.01358 0.101428 -2.78521e-20)
(-0.517214 -0.604277 1.92205e-19)
(-0.985233 0.0305351 -8.46303e-19)
(0.717576 0.0793532 2.04025e-19)
(2.08616 -0.600144 -4.08194e-20)
(0.974327 -0.349187 -2.44832e-20)
(0.0338098 0.0078178 0)
(0.353496 0.309937 -5.43874e-20)
(1.34015 0.977731 2.56551e-20)
(0.837315 0.0798686 -1.10658e-19)
(0.562694 0.526353 1.53199e-19)
(0.501184 0.190877 0)
(-0.144768 -0.871497 -2.90721e-19)
(0.644145 0.047543 -5.19143e-20)
(1.30583 -0.961374 1.59077e-22)
(0.977722 -0.0348158 -1.52137e-19)
(-0.199664 -0.125687 7.40199e-21)
(-0.263646 0.337699 2.05452e-19)
(-0.394106 -0.108469 -2.08624e-19)
(1.34285 -0.555401 0)
(1.08364 0.0495411 -2.5177e-19)
(1.88516 -0.416012 1.25358e-19)
(1.28162 -0.600138 7.05823e-20)
(0.942846 0.0228005 -3.68117e-22)
(0.595422 0.32622 0)
(0.950882 0.756988 -1.20044e-20)
(0.693275 0.637859 1.39694e-19)
(0.888813 -0.554095 1.19935e-19)
(0.689717 0.496711 0)
(1.0299 0.017078 6.52842e-21)
(0.874318 -0.647516 1.70991e-19)
(0.843578 0.419205 -3.64078e-19)
(1.2155 -0.115173 0)
(-0.223862 -0.218349 -3.6617e-19)
(-0.00917215 0.62345 -1.32726e-19)
(1.59101 0.719907 0)
(1.35941 -0.940209 -1.36149e-22)
(-1.04782 0.452076 0)
(-0.54164 0.722238 1.60655e-19)
(0.743142 0.65533 -7.64631e-20)
(0.843037 -0.204025 0)
(-0.150531 -0.226044 0)
(1.63487 -0.445769 0)
(0.0367056 -0.483893 2.38099e-21)
(1.21986 -0.881688 8.88742e-20)
(1.18243 -0.583834 4.57859e-20)
(1.02092 -0.19834 -1.28523e-19)
(0.870211 -0.675203 -1.34662e-19)
(0.180432 -0.183926 0)
(-1.05981 -0.0713246 0)
(0.99992 -0.503207 1.38365e-19)
(-0.113908 -0.268172 0)
(-0.494972 0.704405 0)
(-0.511483 -0.37854 4.69043e-19)
(0.799336 0.673107 6.63445e-20)
(1.01867 0.801546 0)
(0.701429 0.549902 -6.78714e-20)
(0.816428 -0.0366302 -1.83498e-19)
(0.751268 0.558774 -1.80522e-19)
(0.597863 0.553731 -1.319e-19)
(-0.267451 -0.623367 4.07142e-21)
(0.714899 -0.635784 0)
(0.90694 0.180075 -2.58832e-19)
(-0.398364 -0.716714 7.35296e-20)
(0.611818 0.566294 2.9163e-19)
(0.965011 0.805709 0)
(-0.0728907 -0.59623 1.08816e-19)
(-0.0704178 -0.548137 3.59629e-19)
(0.0715283 -0.472239 -1.81762e-19)
(0.668372 0.567682 -1.18134e-20)
(0.995979 -0.0185878 4.68592e-20)
(-0.50225 -0.678421 0)
(2.13081 0.283705 -2.66248e-19)
(1.13766 -0.113963 -5.06496e-21)
(0.642425 -0.590127 -6.09064e-20)
(-0.855598 0.0166123 2.04017e-20)
(1.19426 0.465416 1.28454e-19)
(0.88787 0.408812 0)
(1.07839 -0.177302 1.55187e-19)
(0.165668 -0.642475 -1.54635e-20)
(-0.0172198 0.144653 4.97135e-19)
(0.957689 0.0102103 -4.19681e-20)
(1.13962 0.11963 0)
(1.81292 0.0893304 -2.48335e-19)
(1.85793 -0.027123 0)
(0.545505 0.252825 -3.79417e-19)
(-0.274995 0.398528 0)
(-0.287696 -0.551222 3.09562e-19)
(0.789809 0.119147 0)
(0.607581 -0.507758 -1.49731e-19)
(1.0547 0.003923 1.66891e-19)
(-0.634503 0.554819 6.04175e-20)
(1.6391 -0.0917281 -1.46898e-20)
(2.17348 -0.221445 -1.4109e-19)
(1.10541 0.223104 -1.68387e-19)
(-0.419487 -0.752682 -1.48476e-19)
(1.0786 -0.843206 0)
(0.798003 0.00769697 -1.21532e-19)
(0.918255 -0.380808 -2.35017e-19)
(1.69712 -0.566847 -8.83583e-21)
(1.69503 -0.0385898 2.34946e-19)
(1.06533 0.0041227 3.02627e-19)
(0.123789 -0.699174 -1.98088e-19)
(0.995375 -0.440895 -1.0013e-19)
(0.19005 -0.183092 2.11741e-19)
(1.0109 0.00353564 0)
(1.01974 0.0052102 0)
(1.13068 -0.219414 -1.0461e-20)
(-0.0690265 0.826684 -1.49925e-19)
(0.186231 -0.118135 -1.52181e-19)
(0.977811 -0.160165 1.12478e-20)
(1.31399 -0.88562 0)
(1.99183 -0.562864 -6.69281e-20)
(0.950573 -0.82417 -5.43347e-20)
(1.81272 -0.543852 -8.92729e-20)
(1.10994 0.843864 0)
(0.459589 -0.442685 0)
(0.607686 0.514263 -1.42847e-19)
(1.0939 0.271187 -3.06921e-19)
(2.14626 -0.186906 4.48153e-22)
(0.869977 0.161985 1.11613e-19)
(0.0311425 -0.81368 -6.81807e-19)
(1.02859 0.00625868 1.33155e-21)
(-0.415904 -0.755586 0)
(-0.0478267 -0.177976 0)
(-0.621317 -0.569044 0)
(1.34288 -0.711423 -5.03381e-20)
(-0.333836 0.713381 -3.0688e-19)
(-0.101154 0.287418 0)
(1.29839 0.979844 -6.74984e-21)
(1.10503 0.155965 -3.23239e-19)
(1.10875 0.0353605 -6.52477e-21)
(1.08729 0.929439 3.79919e-20)
(-0.288931 0.842911 2.03735e-19)
(0.953065 0.0357267 0)
(-0.623907 -0.500457 -4.07342e-19)
(-0.398083 0.807119 3.79685e-19)
(0.766821 0.0377905 1.50225e-19)
(1.54366 0.944833 5.80241e-20)
(1.06824 0.00365736 3.87477e-21)
(-0.180203 0.579486 -4.22201e-21)
(0.740952 -0.670733 -2.90822e-20)
(1.26806 -0.0235416 0)
(1.68457 0.0971885 0)
(1.13174 0.0678054 0)
(0.763299 0.159167 4.41082e-20)
(-0.60543 -0.639387 1.52825e-19)
(1.05339 0.852117 0)
(0.990519 0.0052505 4.09592e-19)
(0.773678 0.602335 -1.79994e-19)
(0.454282 0.0538247 2.64365e-20)
(0.851454 0.0254225 -3.34701e-20)
(0.707311 -0.638517 -1.7461e-19)
(1.3856 0.702964 -1.23786e-20)
(0.551491 -0.449245 -2.42127e-19)
(1.08595 0.00166202 -3.65023e-19)
(0.856362 0.0258867 3.5946e-20)
(1.53374 -0.159953 4.0274e-20)
(0.865148 0.028327 -1.55457e-20)
(-0.00789009 -0.0413772 6.10872e-23)
(1.07991 0.472651 -2.01661e-19)
(1.36991 0.621683 1.08741e-19)
(-0.0213144 -0.507777 0)
(0.0334136 -0.82623 2.55617e-19)
(-0.312659 -0.296112 1.54012e-19)
(-0.230629 -0.0714566 -1.45945e-19)
(0.474864 0.31058 0)
(1.1261 -0.125337 0)
(0.0685122 -0.0611582 -1.8079e-19)
(-0.32263 -0.781583 -8.82929e-20)
(1.02893 -0.0305382 1.45391e-19)
(-0.572912 0.465512 -5.96378e-20)
(1.47615 -0.863142 -1.90026e-19)
(-0.0481551 0.87118 0)
(0.831239 -0.729366 -2.34586e-19)
(0.892913 0.0223297 2.12225e-20)
(-0.67157 -0.310279 2.76705e-19)
(0.719409 0.162571 2.69296e-19)
(0.621898 0.139871 8.78477e-20)
(0.488237 -0.461702 1.65894e-19)
(-0.212227 -0.350631 -1.65486e-19)
(1.05482 -0.012118 0)
(0.390641 0.339264 -1.60639e-19)
(1.03911 -0.0207844 -2.30875e-19)
(-1.07518 0.0216353 3.30652e-19)
(1.4334 0.473676 -6.05532e-20)
(-0.145155 -0.353044 -6.10602e-20)
(0.694343 -0.633379 -2.02172e-20)
(0.823134 0.189478 -1.66207e-19)
(0.980434 0.423392 1.75554e-20)
(1.12258 -0.165805 2.72917e-20)
(0.596397 -0.230188 -2.49427e-19)
(1.99424 -0.340012 -1.78294e-19)
(0.585303 -0.0287825 0)
(1.05476 -0.0175734 -6.94105e-21)
(1.01374 0.177565 -9.93082e-21)
(1.42378 -0.215189 2.13542e-19)
(1.06101 0.346407 -2.35201e-19)
(1.06321 -0.00520583 -2.42945e-21)
(0.41781 0.384434 -2.06613e-19)
(-0.379744 0.0977823 4.2751e-19)
(2.25811 -0.0366998 0)
(0.955691 0.011392 0)
(0.876513 -0.770495 4.38053e-20)
(-0.0767594 -0.63178 -3.92971e-19)
(-1.27015 -0.149859 -3.45207e-19)
(-0.0309989 -0.0915453 -2.59059e-19)
(-0.776456 0.704428 -2.59071e-19)
(-0.537061 -0.741575 0)
(-0.0207683 -0.11482 4.52253e-20)
(0.306006 0.653146 -1.29225e-19)
(-0.297346 0.386233 -4.70277e-19)
(0.783358 -0.0957192 0)
(1.12879 -0.0405268 8.58487e-23)
(-0.292365 -0.32663 0)
(1.01579 0.0219981 2.95515e-19)
(-0.16428 -0.707753 3.24517e-20)
(0.528341 -0.422697 3.2451e-19)
(-1.16172 -0.138916 6.54395e-19)
(-0.346555 0.131009 0)
(0.324133 0.800211 1.73575e-19)
(1.02319 0.0320763 -8.84054e-21)
(-0.193059 -0.116477 0)
(0.995961 -0.00647891 -4.58376e-20)
(0.853349 -0.710078 -2.2691e-19)
(1.13357 -0.245974 0)
(0.935125 -0.266435 1.67022e-19)
(0.193223 0.687608 3.94312e-19)
(0.0446043 0.0505275 0)
(-0.266783 -0.804606 -8.88878e-21)
(0.713373 -0.618025 -3.43758e-19)
(1.0224 -0.0308543 -2.12897e-19)
(-0.104846 -0.714933 5.00262e-19)
(-0.214095 -0.512744 1.87854e-19)
(-0.521799 -0.825572 0)
(0.957233 0.468786 0)
(-0.424895 -0.61271 3.69523e-19)
(2.2334 0.722781 -1.8049e-19)
(1.08182 0.90463 1.11407e-20)
(1.05673 0.213738 -9.71562e-20)
(1.11301 0.0225541 -1.7814e-19)
(1.12969 -0.0724819 -6.19419e-20)
(-0.0632292 -0.742643 -4.68227e-19)
(1.6036 -0.0917156 3.04467e-19)
(0.789063 0.041719 1.59404e-19)
(1.69407 0.146475 9.07977e-20)
(1.05313 -0.199642 0)
(0.648611 1.0096 6.78881e-20)
(1.09482 0.0224578 -3.99925e-19)
(1.73836 0.611787 -3.38502e-20)
(0.72737 -0.45574 -1.32019e-19)
(-0.0433332 0.0208631 2.36621e-19)
(0.790756 -0.685819 2.99459e-19)
(1.22315 0.185398 5.39339e-20)
(0.993876 -0.00199438 2.03164e-19)
(0.1635 -0.868435 -2.24343e-19)
(1.03215 0.0248753 0)
(1.02746 0.119802 -7.2227e-20)
(0.0375879 0.0486012 0)
(1.02352 0.0333813 -1.19975e-19)
(0.101113 -0.278973 1.76125e-20)
(1.69227 0.293492 -1.23007e-21)
(-0.460161 -0.301478 2.00809e-19)
(1.60358 0.0861905 -3.37011e-20)
(1.01301 -0.00402796 4.16482e-20)
(1.30618 -0.0962185 0)
(1.43486 -0.596193 -8.31399e-20)
(1.018 0.0443489 -1.23611e-19)
(1.44423 0.787921 4.13509e-21)
(1.36099 0.0163779 0)
(1.06916 -0.00930424 3.20087e-22)
(0.0709228 -0.0666355 0)
(1.4466 0.0539812 0)
(-0.585148 -0.673047 0)
(1.22527 0.448538 0)
(1.96146 0.228225 7.05861e-20)
(0.747356 0.615622 3.15063e-19)
(0.282654 -0.283648 -1.96409e-19)
(-0.285554 -0.719838 -4.58699e-19)
(0.0372726 0.0103288 0)
(1.1111 -0.0468282 1.52646e-20)
(1.41177 0.512459 0)
(1.47191 0.278041 0)
(-0.663359 -0.500679 1.80612e-19)
(0.817472 0.722874 9.34911e-20)
(1.71832 -0.014905 0)
(-0.413222 -0.554194 1.07036e-19)
(0.910282 0.227013 1.51904e-19)
(1.07206 -0.00775415 -6.45047e-21)
(1.24846 0.933605 2.30036e-20)
(0.92858 -0.833847 -2.0647e-20)
(0.579886 0.00998567 -6.74954e-21)
(0.804021 0.72732 9.42741e-20)
(1.18677 0.932305 0)
(1.30675 -0.301609 3.81511e-20)
(1.15056 0.668458 0)
(1.0986 -0.00526667 -2.31788e-21)
(1.03928 0.0585392 2.32546e-19)
(1.00687 -0.00430662 0)
(0.64113 0.754228 -2.00392e-20)
(0.880929 -0.159445 3.87987e-20)
(0.617095 -0.409352 0)
(0.655488 -0.383193 1.75062e-19)
(1.23432 0.560878 -2.30038e-20)
(0.479301 0.45017 2.22778e-19)
(-0.345196 0.484123 5.57862e-20)
(0.203586 0.0709601 1.19285e-19)
(0.832246 0.0387965 0)
(1.32857 -0.895477 -3.1911e-20)
(1.04202 -0.0184716 3.21174e-19)
(1.56142 0.288307 1.86232e-19)
(-0.447829 -0.57986 9.30785e-20)
(-1.04651 0.0166063 0)
(1.18161 -0.208301 -8.67431e-20)
(0.0489141 0.0465685 -2.07396e-19)
(0.611725 1.01395 -3.04607e-20)
(-0.147939 0.0381512 -6.01874e-22)
(-0.226283 0.106358 3.96058e-19)
(1.04329 -0.00218221 -6.37025e-22)
(2.2258 0.0441671 3.56605e-19)
(1.19892 0.46321 -2.07146e-19)
(1.05877 -0.0633084 0)
(1.73234 0.049944 2.31415e-19)
(1.73435 0.101219 1.01065e-19)
(0.907088 -0.750785 1.09773e-19)
(1.16579 -0.981025 -1.32945e-20)
(0.484962 0.448761 1.48007e-19)
(1.43385 0.954664 0)
(1.78483 0.554 6.62807e-20)
(0.0479632 0.0366335 -4.23641e-19)
(0.893633 0.781378 0)
(1.05005 -0.00193921 0)
(0.283168 -0.282859 -3.55134e-21)
(0.322514 0.299725 0)
(-1.31961 0.114639 -4.71255e-19)
(-0.439003 0.662458 -1.68008e-19)
(1.75781 -0.38177 0)
(1.29527 0.00357388 6.6212e-20)
(-0.649405 -0.157491 2.9522e-19)
(0.521343 -0.492439 -3.76147e-19)
(1.74484 0.0304556 -3.69374e-20)
(0.599235 -0.540337 0)
(1.066 0.124583 0)
(1.36743 -0.198146 0)
(1.10771 0.229397 -1.78374e-19)
(1.26837 0.101357 2.52094e-19)
(-0.381214 0.143377 0)
(0.893001 -0.059359 0)
(1.35002 -0.110847 1.28443e-20)
(-0.0979509 0.313496 1.38178e-19)
(1.91191 -0.365408 -1.63232e-19)
(1.07381 -0.515129 2.11354e-19)
(1.34994 -0.15387 -1.49021e-19)
(-1.29786 0.00284311 -2.53551e-19)
(1.81249 -0.0446132 -1.97096e-19)
(1.00555 -0.0299427 3.31135e-19)
(1.53891 0.593409 0)
(-0.459571 0.736875 4.45767e-20)
(1.00418 -0.820226 1.30129e-19)
(0.845004 -0.00893016 3.91221e-20)
(0.621082 -0.43132 0)
(1.89141 -0.536131 9.43691e-21)
(1.18786 -0.172118 1.11557e-19)
(1.09792 -0.0112099 0)
(0.604245 -0.557495 3.46844e-19)
(0.852204 -0.0362557 -6.88362e-21)
(1.86606 -0.608453 3.0945e-19)
(-0.162103 0.460366 -2.90081e-19)
(1.33233 0.621701 8.92024e-20)
(1.14634 0.410195 2.72183e-21)
(0.9059 0.372278 1.78132e-19)
(1.95534 0.78202 -1.43741e-19)
(-0.089441 -0.773147 -1.1947e-20)
(1.53545 -0.113848 0)
(-0.167048 -0.0775351 3.88965e-19)
(1.10063 -0.957066 0)
(1.06037 -0.631681 1.67294e-20)
(1.58534 0.651571 -6.78373e-19)
(1.03955 0.00466557 -1.53831e-21)
(-0.972547 -0.48152 -5.91358e-19)
(0.991216 0.480705 1.3413e-19)
(0.767857 0.366105 -4.86683e-20)
(0.761904 -0.0329874 0)
(0.740003 -0.0878084 0)
(0.610813 0.0743367 4.13697e-21)
(0.767589 -0.000534389 0)
(1.30912 -0.189898 -1.14787e-19)
(-1.53359 0.0128021 6.253e-19)
(1.88958 0.468568 6.99782e-20)
(1.05193 -0.0164285 0)
(0.540963 -0.35054 8.60119e-20)
(1.02855 0.0382695 1.57935e-19)
(0.977392 0.355382 2.39987e-20)
(-0.508738 0.457728 0)
(1.11114 -0.461544 3.77381e-19)
(0.900591 -0.0072013 -1.07641e-22)
(1.1046 -0.486493 -1.64447e-19)
(2.24955 0.111378 2.37365e-19)
(1.28446 0.79342 0)
(0.917205 0.0259479 0)
(-0.533193 -0.575074 -2.37167e-19)
(0.0698073 -0.056695 2.03294e-19)
(0.95671 0.366269 -1.62447e-19)
(0.401857 -0.777583 -2.11312e-19)
(0.652951 0.407422 1.97711e-19)
(1.00525 0.00726444 0)
(0.530851 -0.490966 0)
(1.05875 -0.00156052 7.26427e-22)
(1.23878 -0.488613 -7.36599e-20)
(0.578385 -0.0155504 1.35152e-20)
(0.718514 -0.139884 9.76908e-20)
(-0.0314727 0.161785 -3.64906e-19)
(1.70934 -0.416043 3.01333e-19)
(0.671548 0.625241 0)
(1.26862 0.695725 0)
(1.55611 0.229447 0)
(-0.731092 -0.710203 -2.43807e-19)
(1.30209 0.57273 2.77286e-19)
(1.79855 0.17487 3.60507e-20)
(1.0318 -0.0190072 0)
(1.08351 0.0286686 0)
(1.84369 -0.0491518 -2.4482e-19)
(1.04288 0.505879 -2.92433e-20)
(0.991272 0.00643965 -1.5803e-19)
(1.48273 0.475867 0)
(-0.545989 0.638499 0)
(1.23568 0.318788 2.10867e-19)
(1.02121 0.524072 -9.75225e-20)
(1.04112 0.0363113 0)
(1.86503 0.990624 0)
(2.03851 0.6593 -4.13821e-19)
(-0.143426 0.701399 -7.81143e-21)
(1.01479 0.00254281 0)
(0.71566 0.471908 -2.67733e-20)
(0.939562 -0.824088 0)
(1.00541 0.0163472 3.69083e-20)
(1.05721 -0.019971 1.92303e-20)
(0.893413 -0.320178 2.46807e-19)
(1.04736 0.00174742 -1.35768e-20)
(2.13639 -0.00996206 3.83795e-19)
(0.882544 0.00572058 3.34926e-20)
(0.780902 -0.0271352 0)
(1.02558 0.0144676 0)
(-0.774277 -0.385395 0)
(0.676086 0.647785 -1.40492e-19)
(0.0185852 0.0546393 2.46146e-19)
(1.15151 0.345481 -3.39939e-19)
(-0.773197 0.341456 0)
(0.836943 0.643798 1.30882e-19)
(1.00507 -0.33538 0)
(1.00534 0.00299969 9.22469e-20)
(0.786088 0.976954 2.87576e-20)
(1.04079 0.404071 1.93805e-19)
(2.00944 -0.323002 0)
(2.07944 0.057009 -8.58457e-20)
(0.808004 -0.100379 -2.96375e-19)
(-0.980645 0.182888 -5.15744e-19)
(1.21686 0.835313 0)
(0.88534 0.2489 1.40559e-19)
(2.3249 0.0962527 0)
(0.78406 0.520086 2.87863e-19)
(-1.28627 0.0167323 1.93034e-19)
(-0.0228426 0.156398 0)
(0.599725 0.56865 -5.53403e-20)
(1.02399 -0.620459 -1.17034e-19)
(0.47047 -0.247719 -1.02324e-19)
(1.01864 -0.019296 0)
(-0.433968 0.17269 -3.69637e-19)
(0.623097 -0.553655 6.62951e-20)
(0.907207 0.293185 0)
(1.18049 -0.188334 4.25357e-21)
(0.992289 0.847649 1.68296e-20)
(1.05284 -0.00402506 -1.64915e-20)
(0.277022 -0.383162 -2.64297e-19)
(0.228464 -0.0390568 -4.6467e-19)
(-0.0788005 -0.252735 1.1201e-20)
(0.823897 0.356228 1.96714e-19)
(-0.353655 0.739596 -7.63495e-21)
(1.4099 -0.63392 3.40293e-21)
(1.01951 0.00251117 -2.73142e-19)
(-0.811326 -0.688911 0)
(1.03221 0.0462599 -3.21241e-19)
(1.85727 0.631977 1.19516e-19)
(0.894974 0.692748 2.13945e-19)
(1.08224 -0.0831576 1.27679e-19)
(0.983308 -0.0164109 1.27762e-19)
(1.04084 -0.00892253 1.43059e-21)
(-0.391837 -0.451722 1.66913e-22)
(1.74077 -0.876902 1.54257e-20)
(1.15685 -0.106734 -5.96206e-20)
(0.960908 0.0913788 6.77944e-20)
(0.902387 -0.287222 7.29051e-20)
(0.546739 -0.00173415 0)
(0.968935 0.739207 0)
(1.11917 1.16257 -3.4289e-20)
(1.99444 0.208508 -3.76554e-20)
(-1.34782 0.0278075 2.43961e-19)
(1.02558 -0.525229 -4.04474e-19)
(0.601664 -0.522642 3.19793e-19)
(1.65684 0.131342 -2.09478e-19)
(0.414428 -0.727799 2.3254e-20)
(1.04459 -0.00402607 0)
(0.751862 0.119116 -5.52906e-21)
(1.04752 0.00262223 5.86388e-21)
(1.04462 0.766979 0)
(1.06132 -0.0268364 0)
(0.661579 -0.685145 0)
(-0.199914 -0.391344 -7.4759e-20)
(-0.10433 0.113037 0)
(1.18139 0.318094 3.67111e-21)
(1.19531 0.176223 4.79885e-21)
(0.0832467 -0.0644323 -1.31762e-20)
(1.08428 -0.00611153 1.63847e-22)
(1.84963 0.435672 -1.18898e-19)
(2.03067 -0.267384 -4.03632e-20)
(-0.196427 -0.00221326 -2.81302e-19)
(-0.357381 -0.895711 6.62516e-21)
(0.834876 -0.0307373 0)
(0.73221 -0.0262539 0)
(1.017 -0.00282077 1.15083e-22)
(-0.715233 -0.708879 0)
(1.47193 0.117194 -1.08397e-19)
(0.718785 -0.0249637 0)
(1.08702 -0.00692518 1.01933e-19)
(1.00983 0.0286243 -3.59956e-20)
(1.82651 -0.662198 1.73954e-19)
(1.04304 0.000123976 -7.34698e-22)
(0.94635 -0.183557 -4.38335e-20)
(1.03439 -0.0201 2.94109e-19)
(0.656278 -0.592571 1.49119e-19)
(0.383969 -0.214883 4.13119e-20)
(1.03683 -0.0219051 2.8751e-22)
(0.0728345 -0.0431398 0)
(1.1283 0.800244 0)
(1.01904 0.0130945 0)
(0.999807 -0.755338 -8.00798e-20)
(1.0464 -0.894794 1.43159e-20)
(1.00713 -0.0198445 1.42086e-21)
(0.482384 0.844009 -1.29326e-19)
(1.05128 -0.000879039 2.6895e-21)
(0.572056 -0.383148 -5.23318e-19)
(1.03292 -0.027471 -7.65158e-21)
(1.03845 -0.00338519 -1.03202e-20)
(2.08049 -0.294419 1.24804e-19)
(0.895489 -0.0248014 -3.69916e-21)
(-0.366788 -0.57113 -1.59277e-19)
(1.1081 0.555779 1.42285e-19)
(-0.0197142 -0.401374 0)
(0.346654 -0.711829 6.45698e-19)
(-0.0426507 -0.0937544 2.16228e-22)
(1.06882 -0.0291611 2.63101e-19)
(1.0217 0.00581452 -6.81093e-21)
(1.05918 -0.0216919 -7.30736e-20)
(1.05193 -0.00345687 2.44303e-21)
(1.61504 0.302172 2.21175e-20)
(0.386743 -0.363628 -2.58875e-19)
(1.03653 -0.026279 -2.65103e-21)
(1.03675 -0.0181479 -1.93798e-19)
(1.01797 -0.00986909 -2.95899e-22)
(1.05057 -0.00888747 0)
(1.10589 0.594337 -2.64934e-19)
(1.01018 -0.00405203 7.53891e-20)
(0.682418 0.606194 2.05947e-19)
(1.04414 -0.0106142 -3.56538e-22)
(1.05097 -0.00225551 -2.38911e-20)
(1.08407 0.0197148 6.78661e-22)
(2.05991 -0.330746 1.62724e-20)
(0.63881 0.00145036 0)
(1.07179 -0.0283674 0)
(1.06629 -0.0384904 4.63674e-19)
(1.00677 -0.000935229 0)
(0.0151332 -0.0292978 0)
(0.962455 -0.583459 0)
(1.00081 -0.00221767 -4.38377e-19)
(1.15746 -0.660875 6.11905e-20)
(1.03617 -0.0200295 9.1871e-21)
(1.35341 0.959981 -2.80824e-21)
(1.53871 1.00588 -1.51188e-19)
(1.04044 -0.000181085 -4.69758e-21)
(1.52487 0.978524 7.43926e-20)
(0.573329 0.0395429 0)
(0.0686538 0.725595 0)
(2.18515 0.390624 4.45319e-19)
(1.08031 -0.0351577 0)
(1.00669 -0.00606193 -1.35773e-19)
(0.999725 -0.000173743 2.63802e-19)
(1.36386 0.128444 -5.05757e-20)
(0.00718594 -0.120165 2.99685e-19)
(0.984071 -0.0103563 1.43112e-19)
(0.899999 -0.00423586 -1.3366e-21)
(0.914184 -0.00999908 1.87016e-21)
(1.04166 0.00338564 2.20292e-23)
(0.911258 0.00999598 -1.44297e-19)
(1.00662 0.00512605 1.70866e-19)
(0.993184 -0.00535094 1.00767e-20)
(0.80212 -0.000376709 0)
(0.728621 -0.0148945 0)
(0.726739 -0.0299792 8.66821e-22)
(0.712809 -0.009621 0)
(0.62129 0.0205968 0)
(0.702731 0.00354308 0)
(0.727169 -0.0229099 -2.20119e-21)
(0.895169 -8.17447e-05 1.09328e-21)
(1.04868 -0.00413109 0)
(1.04503 -0.000627695 8.61099e-22)
(1.04382 0.00372456 0)
(0.736677 0.0181332 0)
(0.693716 0.00714574 0)
(0.667593 -0.00268928 9.46143e-22)
(0.593847 -0.00651567 1.02306e-20)
(0.832792 0.0110165 0)
(0.826615 0.0206428 0)
(0.947623 0.0193343 -1.78475e-19)
(0.8248 0.0192236 3.33731e-19)
(0.999639 -0.00197014 0)
(1.00238 0.00202187 3.1512e-19)
(0.99453 0.00350072 -1.02952e-22)
(0.834456 0.0144293 2.82805e-19)
(1.01405 -0.0147708 -1.64599e-19)
(0.894149 0.00827914 0)
(0.707985 -0.00247788 -1.87174e-21)
(1.00324 -0.00537591 -1.59294e-19)
(1.00257 -0.00341527 -2.7333e-19)
(1.04808 0.00221179 0)
(0.998873 0.00653608 0)
(0.999768 0.00516393 0)
(1.03722 0.0141829 -2.71492e-21)
(1.04939 -0.00136542 3.58765e-21)
(1.02883 -0.00869672 0)
(-0.543987 0.497674 2.8049e-19)
(0.589882 0.536052 2.31259e-20)
(1.02129 -0.011279 -2.12095e-19)
(-0.486272 -0.771109 -1.58118e-19)
(0.995887 0.00232748 -1.70597e-19)
(1.15304 -0.202449 -7.39548e-20)
(0.783754 -0.469715 2.46152e-19)
(-0.00418415 -0.0493193 -1.04128e-19)
(1.03008 -0.00234348 0)
(1.06022 -0.00212121 -4.57521e-20)
(0.888519 0.00174648 0)
(0.0267139 0.0310599 3.59243e-19)
(1.05368 -0.042979 0)
(-0.722599 -0.639627 -4.05296e-19)
(0.900157 -0.0155218 2.55568e-22)
(1.67809 0.669954 1.01253e-19)
(-0.0671187 -0.115093 0)
(1.0765 -0.0267495 1.43493e-19)
(1.05892 0.0014048 4.6225e-22)
(0.922075 -0.00465112 2.27356e-19)
(1.01652 -0.00472046 -1.4402e-19)
(1.68881 0.855572 9.14157e-20)
(0.527247 0.492165 0)
(0.445966 0.397723 1.67518e-19)
(1.06256 0.0176683 1.26241e-22)
(1.12762 0.132503 1.48185e-19)
(1.0848 -0.689339 0)
(1.02246 -0.00193099 0)
(0.995106 -0.00952237 -3.32579e-19)
(1.01201 0.0236032 -3.24573e-19)
(-0.143766 -0.43491 0)
(1.22357 0.826381 -7.18946e-20)
(1.03285 0.000873433 3.79588e-22)
(1.00844 0.00524727 1.24891e-19)
(1.01704 -0.00326216 -1.56769e-19)
(-0.784306 -0.54598 -3.98675e-20)
(1.04226 -0.00253758 -7.61353e-21)
(1.01557 -0.0235853 5.32896e-19)
(1.04315 0.00469536 0)
(1.89488 0.641161 -1.05121e-19)
(1.01806 -0.0141826 -1.66054e-19)
(1.63786 0.136148 -8.63287e-20)
(1.02663 0.00722358 -3.81502e-22)
(1.01529 -0.0192723 3.31186e-20)
(2.20063 -0.104969 -3.20578e-19)
(1.01095 0.0224384 1.61355e-19)
(1.04839 -0.000681823 3.43308e-22)
(0.998653 -0.00396308 0)
(0.937979 0.154787 3.95283e-20)
(-0.159202 0.599843 2.15612e-21)
(0.977256 0.0159262 1.60633e-19)
(1.03511 0.00760489 -5.49115e-22)
(1.0465 0.00207668 -1.24211e-21)
(1.25245 0.304101 2.89189e-19)
(1.01012 0.0338618 1.10159e-19)
(0.988922 -0.00617042 6.27392e-22)
(1.75445 0.208918 8.13664e-22)
(1.81825 0.950011 -1.35878e-19)
(0.772033 -0.687184 4.52397e-20)
(0.44054 -0.322447 -2.54657e-19)
(1.01415 0.0106877 0)
(1.02303 0.00431695 4.01031e-20)
(1.0122 -0.00818573 8.4406e-20)
(1.05064 0.00904066 4.92567e-22)
(1.00742 0.0171781 -1.67568e-19)
(1.03524 -0.0350481 1.91254e-19)
(1.01574 -0.00222605 -1.58837e-19)
(1.01121 0.0126168 -8.98513e-22)
(1.00341 0.00427079 -3.97058e-22)
(1.02851 0.0208777 1.60107e-19)
(0.90239 0.0927098 4.1111e-19)
(1.17015 0.109141 0)
(0.950483 0.89009 2.24339e-19)
(1.00045 -0.00209626 0)
(1.01885 -0.00992075 -4.63715e-20)
(1.54479 0.43537 -3.07882e-20)
(1.32402 0.116976 0)
(1.13112 -0.107012 -1.59447e-20)
(1.1498 0.246666 1.23654e-21)
(0.88305 -0.0201356 0)
(2.32969 0.355602 0)
(0.999259 0.246969 2.71073e-20)
(1.04689 -0.00906331 -1.37993e-21)
(1.03366 0.00731682 -1.68431e-19)
(1.11827 -0.544437 -4.63517e-20)
(1.04599 0.00533496 -2.25591e-21)
(1.05562 -0.0106488 0)
(1.05892 0.0149984 0)
(1.11251 0.0663521 0)
(0.366139 0.578387 1.48704e-19)
(1.04148 -0.00119628 6.74176e-21)
(0.891475 0.110074 0)
(0.0538455 0.493039 -5.00607e-19)
(1.71522 0.965437 -1.34304e-19)
(1.00235 -0.00579256 -3.30968e-19)
(1.04783 0.00377074 2.08427e-21)
(1.01422 0.0115317 2.18292e-19)
(0.789537 -0.0440441 0)
(-0.118198 -0.391024 -3.1505e-20)
(0.618637 0.431743 -2.78012e-19)
(1.16286 0.0660905 -1.84198e-21)
(0.305838 0.56883 0)
(0.911259 -0.0135192 6.07523e-20)
(0.526199 0.500979 4.14015e-20)
(1.19299 0.892696 -1.79235e-20)
(0.018939 0.0428291 1.51595e-19)
(1.01448 0.0253677 0)
(1.04585 0.00627754 5.07052e-21)
(1.01532 0.00366363 1.23874e-19)
(2.20287 -0.250114 0)
(1.01458 0.00655728 2.08358e-19)
(0.460708 -0.670968 -3.03096e-19)
(1.02504 0.0206084 -1.27968e-19)
(1.05688 -0.00605419 0)
(1.19357 -0.214401 1.16437e-22)
(1.00937 -0.00749172 -8.66423e-20)
(0.993725 -0.0296696 2.28066e-19)
(1.07887 0.0990528 -3.1125e-21)
(1.05356 -0.00636712 -7.13137e-21)
(-0.166521 -0.0349174 3.92113e-19)
(2.09118 0.265552 2.59967e-19)
(1.04056 -0.00337173 8.13779e-21)
(0.824354 0.0342698 -3.12935e-19)
(0.861358 0.0278041 0)
(1.04134 -0.00125748 5.44067e-21)
(1.02283 -0.0186035 -2.49294e-20)
(0.97986 0.0237773 0)
(1.01883 0.0110252 -1.58496e-19)
(1.04492 -0.00629989 -1.1351e-20)
(-1.30634 0.0922469 2.38305e-19)
(2.13556 -0.574269 0)
(-0.305238 -0.575886 -1.68796e-19)
(1.47319 -0.335307 0)
(1.02694 -0.0204824 4.67703e-20)
(1.04977 -0.0218696 -5.59878e-23)
(0.990781 -0.00261298 1.34009e-19)
(-0.806512 -0.449521 4.18668e-19)
(1.01649 0.0204828 0)
(0.989633 0.00176398 -3.23843e-19)
(0.994445 0.0159919 1.70883e-19)
(1.04597 -0.0107643 0)
(1.03274 -0.00155634 1.76045e-22)