/*--------------------------------*- C++ -*----------------------------------*\
| =========                 |                                                 |
| \\      /  F ield         | OpenFOAM: The Open Source CFD Toolbox           |
|  \\    /   O peration     | Version:  2306                                  |
|   \\  /    A nd           | Website:  www.openfoam.com                      |
|    \\/     M anipulation  |                                                 |
\*---------------------------------------------------------------------------*/
FoamFile
{
    version     2.0;
    format      ascii;
    arch        "LSB;label=32;scalar=64";
    class       volScalarField;
    location    "20";
    object      p;
}
// * * * * * * * * * * * * * * * * * * * * * * * * * * * * * * * * * * * * * //

dimensions      [0 2 -2 0 0 0 0];

internalField   nonuniform List<scalar> 
2186
(
0.977911
-0.108227
0.187201
1.27519
-0.803693
-0.00543757
0.889564
-0.765445
-0.79326
1.51316
1.20213
-0.668173
-0.776771
1.20124
-0.32977
1.20016
1.2278
-1.09847
0.0274203
-0.771876
1.5946
-0.751911
1.20942
-0.746131
1.20106
1.25093
1.42195
1.10894
0.720232
1.20103
-0.757449
1.201
-0.704879
-1.16042
-0.679743
0.21926
-1.07158
1.58169
-0.609808
-0.086577
-0.790788
-0.732353
-0.434458
-0.862608
1.05032
1.49633
0.568399
0.734192
-1.32584
-0.878073
-0.763467
1.04035
-0.43433
1.50885
-0.737833
1.15728
-0.481768
1.18404
-0.681585
1.01284
-0.972632
0.765178
0.680302
-0.0757634
0.697739
0.677002
0.799878
1.48414
1.37894
-0.831377
-0.768359
-1.02773
1.45779
1.20725
1.35991
1.35883
-1.14795
1.2219
-0.686087
-0.649253
-1.10667
-0.129117
1.19669
0.74905
1.19127
1.19712
1.48495
0.0380647
0.015114
-0.693603
1.15925
-0.760623
1.12557
1.36649
1.20951
0.538795
0.0666206
0.713753
-0.861667
1.19756
-1.0933
-1.12636
0.77287
1.14968
1.22968
-0.750986
1.3885
-0.582108
1.14269
-1.90676
-0.632695
-0.833503
0.758756
1.50388
-0.740466
-0.726916
-0.0349459
-1.44367
-0.694913
1.46182
0.0799244
-0.979784
0.99845
-1.18534
1.20538
-0.0199205
-0.827931
1.35006
-1.12559
0.870979
1.58367
1.44069
0.462024
0.863254
-1.1293
-0.884652
1.1292
-0.841308
-0.54431
-0.720924
0.939391
0.0203474
-0.74732
0.914066
1.11706
1.15801
-0.498526
-0.819235
0.825995
-0.815415
-0.790416
0.79514
1.22504
1.38783
1.25187
0.744143
1.4785
0.554949
0.453615
0.64084
-0.721669
-1.01856
1.16768
1.19664
0.0132689
0.0402369
-0.588928
-0.649207
-0.284721
-0.310438
0.477503
1.20303
1.22848
1.31666
0.547372
-0.226582
-0.799663
1.1676
-1.30134
1.00542
-0.648854
1.21427
-0.764761
0.673629
0.656398
-0.825725
-0.642571
1.30285
-0.466629
-0.779667
-0.902287
1.45179
-1.12434
1.18649
-0.715496
-1.84665
0.19192
1.36859
1.23331
-0.76152
-0.860768
-1.46894
0.30691
1.2329
-0.690426
-0.795672
-0.684443
-1.32261
1.12956
-1.02468
0.737841
0.0488427
1.49076
0.969143
1.07084
1.1604
1.35866
1.20364
1.10853
1.27177
0.591226
-0.684646
-0.736596
0.20576
0.411815
-1.092
-0.818732
1.19999
1.33917
-0.662488
-0.624645
-1.49134
0.590723
0.869262
0.992711
1.10986
1.32779
-1.25725
1.09792
-0.732075
-0.892661
-0.723103
1.15806
0.865781
1.32392
1.37895
1.28069
1.25673
-0.754055
1.03848
1.29692
-0.784395
1.14371
0.915628
-1.53345
-0.696599
-0.66594
1.32534
1.22385
-0.797021
-1.14295
-0.849959
1.16583
-1.18029
0.890431
1.23913
1.07292
-0.725584
-0.759538
1.18252
0.759821
-0.546198
-0.440835
1.53542
-0.796862
-0.755211
1.05186
1.39176
1.19362
-0.8558
-0.911997
-0.680929
1.07389
-0.800775
0.763656
1.17884
1.23088
0.0241668
-0.373015
1.14841
-0.787325
1.14143
1.40206
1.22011
1.21737
-1.19172
-0.849713
-0.75544
-0.999609
-1.64324
-1.11108
0.599164
-0.329753
0.739003
1.37802
1.38475
1.07592
-0.529278
1.33121
-0.901559
-0.0102219
-0.923999
-0.719208
-0.796241
0.573006
-0.788723
-0.776873
0.277129
1.09336
-0.417269
0.503383
-0.81845
-1.56379e-06
-0.780942
-0.820226
1.41647
0.0888159
0.0174021
-0.750293
1.00397
0.683098
-0.333168
0.74535
-1.1577
-0.824677
0.794652
1.22782
1.24125
-1.60843
1.34946
1.10217
0.49557
1.45092
1.19498
1.14479
0.58132
-0.50166
-0.72771
1.02097
-0.859143
-0.675814
-0.938741
-0.66339
-0.696445
1.55818
-0.919715
-0.763203
-0.789411
1.19453
-0.778316
-1.45447
-0.831842
0.975961
-0.204896
-1.12256
1.44709
1.51108
1.3361
-0.753942
-0.124995
1.57384
1.20031
-0.950356
0.574708
-0.739742
0.39843
1.36606
1.1479
1.08502
1.50763
-0.30568
-0.621233
-0.384166
-0.9409
-1.18766
-0.740666
-0.0906619
1.498
-1.09139
-1.07563
1.18498
0.802354
-0.706343
-1.22543
-0.732078
-1.00329
-0.999717
-0.710301
-0.730602
-0.789782
1.39599
-0.710042
-0.697054
1.21599
-0.994231
1.46844
-1.24204
-1.79664
-0.825689
1.20006
-0.648541
1.22262
1.06266
-1.43449
1.25273
-0.980843
-0.705856
-0.874331
1.22462
1.14901
-0.738501
-0.742767
-0.941878
1.14626
-1.12407
-1.7114
0.638642
1.11911
1.0911
0.924678
-0.758775
-0.858775
0.989206
-0.959918
1.02158
-2.17438
1.22204
0.061006
1.34168
-0.696352
1.06753
0.843062
1.22912
-0.877958
1.18968
-0.868093
-0.703164
1.20296
-1.49622
0.241746
-0.695749
-0.0655051
1.2029
0.306156
0.514578
1.1973
0.355638
0.0478737
-0.0763389
-0.763531
0.451317
-0.820348
0.844152
-0.568673
1.23951
1.34451
-0.769508
-0.715243
-0.609856
-0.751689
0.551843
-0.794157
0.983807
0.149482
-0.773946
1.28147
-0.575483
0.494669
0.520346
-0.316268
0.943978
0.465966
-1.0522
-1.79429
-0.319543
-0.704739
1.21555
-2.06713
1.31635
1.43625
1.4233
0.788355
1.34382
-0.793588
-0.674206
1.107
0.442636
1.18603
-0.733476
-0.767637
-1.47219
1.00777
-0.706484
-2.22241
-0.77886
-0.819362
0.107318
-0.984996
0.878707
0.852972
-0.562058
-0.75544
0.967469
0.302924
1.31055
-2.01213
-0.0863213
-0.708812
0.904766
-0.0682658
1.38251
1.59014
-1.50398
-0.804736
-0.603829
0.40799
-1.18423
1.25052
-0.808911
1.20759
0.911082
-0.711295
1.03278
0.993871
-1.65441
1.08788
-0.966966
-0.764714
-1.11683
-0.660979
-0.909266
-1.21216
-0.678921
1.20414
0.3277
-0.816671
0.810282
1.34937
1.42313
-0.126974
0.96954
-0.573291
0.994148
-0.131462
-1.13903
-0.770605
0.624719
0.964301
1.23522
-1.7795
-0.775913
-1.14322
-0.699201
0.117542
0.949184
-1.78383
0.10644
-0.967522
1.10352
-1.29643
1.14011
-0.87746
-0.730087
1.15525
0.877054
-1.29489
-0.0814344
1.15371
1.50026
1.22382
-1.1776
-1.09365
1.01775
-0.790904
1.00453
-0.494588
0.57069
1.15046
-0.777115
-0.761964
1.19097
-0.914509
1.4265
-0.13679
1.09281
0.26232
0.844021
-0.542804
1.44115
-0.763626
-1.04881
1.12285
0.651612
0.624653
-0.922449
-0.768823
-0.900224
0.933133
-0.104739
-0.799957
-1.27122
1.21641
0.514475
-1.01748
0.892026
1.05161
1.17508
-1.97997
-0.677793
-0.762136
1.2153
1.35538
0.712824
1.21173
0.0369089
1.26769
0.255468
-0.698197
-0.569417
1.13362
1.17502
-1.26927
1.00509
-0.766173
0.960458
-0.867316
1.16639
1.16566
1.21667
-2.15668
1.08632
-0.994633
-0.647969
1.37283
-1.68753
-1.85594
1.29978
-1.06047
1.2805
-1.47903
-0.770712
1.21288
0.999015
1.56549
1.20129
-1.16188
1.29649
1.26513
-0.962323
0.776936
-0.0487238
-0.635552
1.695
-0.731243
1.31486
-0.795742
0.527669
1.20212
-0.986424
1.18155
-1.58599
1.08477
1.15989
1.21707
0.125493
-0.749906
-0.364169
0.802763
0.88521
1.2788
-0.226502
0.982159
-2.18855
-0.307113
-1.28231
1.05153
1.35835
-0.761686
-0.795469
-0.08704
1.43256
-0.203165
0.882279
-0.245994
-1.04573
-0.75205
-0.770395
-1.26939
0.960079
-1.7438
-0.184865
-0.220716
-0.352443
-0.796985
-0.929499
-0.310564
1.16066
1.21992
-0.937491
-0.262118
1.1778
1.14548
1.22077
-1.16538
1.17425
1.2668
1.2015
1.27351
-1.39995
-0.117279
-0.762484
0.759431
1.20744
0.927294
0.382895
-0.0805942
-2.24212
0.125517
1.46905
-0.142838
0.39331
-0.473177
-0.0871551
-0.764073
0.938348
-0.664332
-1.03278
-0.701728
1.19762
1.20395
1.20842
0.0276136
0.471128
1.44695
-0.12051
1.20098
-0.0812232
-0.004189
0.912347
1.21865
1.26599
0.0545655
1.16712
1.16741
-0.979564
-0.0655131
1.20919
1.22219
1.22016
-0.712563
-0.740753
1.22025
0.831812
1.204
0.331217
-0.0174136
0.194404
-1.89046
-0.465024
-0.760997
-1.50891
-0.612989
1.22571
1.23004
0.907542
-0.705841
1.19737
-0.111124
0.020503
0.0109377
1.20249
1.22594
1.22124
1.23269
1.20911
1.20191
1.19134
-0.0681426
0.0764455
-0.0952878
-0.0913208
-0.0088051
0.0268928
0.0166611
-0.0972412
-0.120312
-0.091911
-0.103756
1.19742
1.2162
1.21105
1.23318
1.23043
1.22149
1.22402
1.20617
1.20674
-0.127306
-0.016547
1.22157
1.22114
-0.00548371
1.22348
1.22142
0.0329026
0.300599
-0.100898
-0.768356
-1.71982
1.20344
-0.829014
1.20244
0.848135
1.2916
-0.72717
1.20321
1.1311
1.15521
-0.760498
-0.33072
-0.856311
-0.0763044
0.0653141
-0.759613
1.21543
0.194008
1.29249
1.20657
-0.0695959
1.36186
1.52135
0.0156891
1.04578
0.887375
1.19873
1.21756
1.21194
-0.727155
0.620111
0.0773321
1.20549
1.21719
-0.836629
0.227856
1.20675
0.0166966
-0.241224
1.20715
-1.05238
1.18217
1.21883
-0.826052
1.21428
0.361634
1.20486
1.27019
-2.00318
1.22084
1.22795
0.126613
0.839765
1.20689
1.20921
0.287607
-0.663988
0.938771
1.55854
1.21492
1.2085
1.21136
0.377757
1.20812
1.19724
1.2119
1.20744
1.20908
1.20743
1.30543
-0.822655
-2.15029
1.20988
1.20153
0.414484
-1.05323
-0.845872
-0.917207
1.05341
-1.35822
-0.824127
0.1164
1.20468
0.950702
0.160251
0.111495
-0.047308
-0.626739
-0.750208
0.306486
-0.832927
-1.08576
-0.234027
1.21265
0.207367
1.19996
1.10678
-0.710927
1.43941
-0.573044
-0.909166
0.973735
1.31923
0.594249
-0.699033
1.19952
0.261973
1.21032
-0.807226
1.21103
-0.987978
1.20194
0.178356
-0.873288
1.21257
1.22883
1.13082
0.214898
-0.692662
-0.599513
0.209306
1.22608
1.08922
0.268967
1.20086
1.24567
1.19186
0.336013
-1.66118
-0.429403
-1.5077
0.546908
1.20735
-0.0535506
1.20741
-1.30351
1.20266
1.24138
1.21459
-0.0693337
-0.0439058
1.24066
-0.822379
1.21679
1.22012
0.242686
-0.764112
1.11792
1.33014
1.19962
1.19339
0.310425
0.120029
1.18033
0.640163
1.21501
1.06558
-0.806211
-0.751723
1.02864
1.4567
1.20184
0.572969
-0.903389
0.463346
-1.58339
-0.815684
1.1933
-1.05119
1.18465
-1.1678
-0.719181
-0.801029
0.599219
-0.811185
-0.618163
-0.577893
1.20001
-0.697601
1.08768
-0.73492
0.0654891
0.0421277
0.149958
-0.623765
1.16935
0.120061
-0.55338
-0.275853
-0.800938
1.1969
-0.828974
0.119206
-1.23825
1.27374
-0.402861
-0.732063
1.272
1.19428
1.18622
0.708163
-0.659318
1.20534
1.23018
-1.53028
-0.782325
1.19987
1.01772
1.4496
1.21953
-1.25304
-0.948017
-0.792763
-1.00557
-0.898986
-0.705249
-0.0297359
-0.855988
1.02204
0.214187
1.21356
1.40922
1.19711
-0.696258
-0.861372
1.20158
-1.30313
-0.679316
1.1872
-0.10351
-0.729898
-1.41125
0.0722681
1.14016
1.11003
-1.32204
1.05257
0.843422
-1.54189
1.19268
-1.18441
0.991345
-0.702109
1.20086
-1.69883
0.652275
1.20261
1.28247
-1.35471
-1.38701
1.01215
1.57696
1.22323
1.20419
-1.14452
1.45703
-0.643121
-0.361907
-0.565685
0.698528
-1.44693
1.31375
1.37417
-0.740665
-1.48831
1.19778
-0.696481
1.07365
1.23192
1.15846
-1.30555
1.20277
-0.046348
1.2322
-0.0268011
-0.290028
-0.0139178
1.2064
0.00585425
-0.372171
-0.574113
1.21474
-0.553593
1.38594
0.493446
1.52592
1.17157
-0.691943
1.19083
-0.767476
1.16827
1.17192
-0.280111
-0.565044
1.31788
1.18787
1.42147
1.15048
0.317823
1.15139
1.1984
1.04965
1.20928
-0.741066
-0.888914
-1.29146
1.31055
-1.54377
-0.817113
-0.763649
-1.64012
-0.299236
-0.00404932
1.04852
-0.118621
1.16668
1.22149
-0.78635
-0.991841
-0.742578
-1.18847
-0.78215
-0.77098
1.20374
-1.55214
1.21967
1.44767
1.26161
-0.0719085
1.22617
1.12683
-1.42269
1.17242
1.18104
-0.808078
1.18178
1.12748
0.0041417
-0.847472
1.66413
-1.7981
-1.04345
-0.841154
0.468786
1.18648
-1.09081
-0.87844
-0.757646
1.33661
-1.15514
1.03655
1.21432
1.19546
-1.2285
1.1837
-1.355
1.21516
1.23025
-0.312134
1.2207
0.67074
1.20029
0.934983
-1.21251
0.0579216
0.0492739
0.11002
1.43999
-0.134134
1.22845
1.59874
-0.684546
-0.0620289
1.27107
-0.0787083
1.26794
-0.0400066
-0.0648878
1.2657
1.27021
0.654022
-1.11113
0.942942
-0.66773
-0.819078
-0.582721
1.22534
1.20832
1.62977
-0.698871
-1.19702
0.966225
-0.86635
1.27432
1.18089
1.20275
1.19219
1.16794
-1.90239
-0.70785
-1.01351
0.993892
1.11405
-1.51904
-0.775601
-0.737461
1.22058
1.24357
-1.31859
-1.37906
1.2397
-1.32029
0.366885
0.956339
1.11086
-0.22951
-0.884713
-0.0946022
-0.759315
-0.703493
-1.94562
-1.57426
1.58195
1.57112
-0.74212
-0.71512
1.21979
1.19704
-0.909311
0.168834
-0.114884
0.830906
1.29874
-1.18182
1.21045
-1.41255
-0.871637
-0.736379
-1.02952
-0.857995
1.19514
-0.742976
-1.32596
1.5671
-0.755701
1.2114
1.42868
-0.776338
1.26495
1.46576
-0.792684
1.44634
-0.766483
-0.88817
1.21444
0.118932
1.23588
1.21397
-0.768916
1.27031
0.381265
-2.09081
1.24534
1.25321
-0.640672
-1.08129
1.14039
1.20374
-0.755223
-1.30623
1.48775
-0.767062
1.10287
0.106579
1.15585
-0.669844
-2.17256
-0.739169
-0.783486
1.29025
1.24447
1.50204
1.40842
1.17099
1.26481
1.25987
-0.733359
1.33248
1.36227
-0.795355
-0.765363
-0.851524
1.53004
-1.64847
-0.867966
0.140292
1.12932
-0.799451
-0.705837
1.21555
1.24271
-0.745426
-0.782972
-0.841642
0.219124
-1.22405
-0.796299
-0.727168
1.08119
1.11901
-0.772955
-0.330744
-0.611931
1.03097
-0.765821
-0.768772
-0.721755
1.17012
-1.31024
-0.786981
1.54078
1.11404
0.623257
1.4136
-0.00496999
1.20419
1.21519
1.33328
1.4263
-0.253768
0.867764
1.20344
0.501398
-0.715566
1.63277
1.18057
1.13215
1.27571
-0.791877
-1.65052
1.07688
0.988211
1.17599
-1.92871
-1.80276
1.19608
-0.718542
1.04865
-0.0666457
1.62426
-0.710461
0.923718
0.967494
-0.765877
-0.706322
-0.996011
1.28092
-0.767962
-0.700517
0.931223
0.803213
-1.02414
1.27133
1.06374
-0.770003
-0.635235
1.15003
-2.13228
-0.702516
-0.823514
-0.759705
-0.791053
1.17685
1.22227
-2.12409
0.85095
1.21269
1.5495
0.514322
0.467747
0.188625
1.1106
-0.203357
-0.764448
-1.44614
-0.453088
-0.76309
1.19397
-0.75775
0.354844
-0.699011
0.733466
0.803339
-0.76127
0.869466
-2.06931
0.731899
-0.759969
0.656668
-0.765415
0.626622
-0.695024
0.570593
-0.758764
1.04857
-1.3797
-0.761725
-0.771142
-0.698241
1.22127
0.331297
-0.801713
-0.699862
0.217993
0.278557
-0.754046
-0.707382
-0.845735
0.125261
-0.714044
0.0501679
-0.745346
-0.162574
-0.92514
-0.0399936
1.07953
-0.037434
-1.62228
1.17978
0.0810164
-0.0984794
0.685736
1.18229
-1.13921
-2.00446
-0.695445
-1.22039
1.11292
1.62607
-1.01378
-0.218852
0.260628
-0.747721
-0.237546
-0.121612
1.16936
-0.746282
1.16847
-1.05315
1.69405
0.684411
1.62906
-0.779397
1.40872
-0.417151
1.23451
-0.861071
-0.693258
1.29691
1.20711
-1.19957
-0.699599
-0.767255
1.16545
-0.718951
1.18765
-0.849128
-0.789348
-0.740553
1.51281
1.23678
1.3327
1.21487
1.22335
-0.0829222
-0.379028
1.4077
-2.02943
-0.712162
1.62412
-0.77374
1.10494
1.17469
1.58026
1.63611
-0.773992
-1.15205
1.24634
0.46344
-0.208832
-0.723374
-1.16312
-2.32567
-0.779258
0.778953
-1.12569
1.41966
-1.23358
1.24078
1.33424
1.23443
-0.953258
-0.681049
-0.850789
1.29688
-0.766311
1.37444
-0.595925
-0.892709
1.44121
1.51884
-0.685468
0.258859
1.16003
-0.991537
-0.957156
0.892312
1.47777
1.4375
-0.940252
1.07073
1.03393
-0.693349
1.44964
0.459616
-0.775632
-1.17969
-0.0796895
-0.0218841
1.31415
-0.698621
0.436631
0.135654
-0.115529
-0.639742
-0.686391
1.19039
-1.17672
1.21937
0.0629128
0.324115
0.918867
0.486644
-0.682973
-0.487794
-0.903281
-0.105563
0.162537
-0.950124
1.1259
-1.60637
-1.64368
1.20588
-0.905162
-0.79623
1.21965
-0.7323
1.1636
-0.00245872
-0.722463
-0.104424
1.01644
-0.571692
-1.36862
1.11133
-0.767298
1.28494
-0.324724
-0.832672
-0.731716
-0.695836
1.69377
-1.45634
1.34193
0.198984
1.17431
1.39069
0.949875
1.24075
1.35916
-0.00386008
-1.32417
1.1845
1.31255
1.57039
-0.749322
1.24944
0.854254
-0.763861
1.01502
1.42565
-0.454813
1.55056
0.307088
-0.725739
1.05993
-0.768133
-0.765381
1.16064
-0.338748
1.26874
1.27642
1.15544
-0.757958
1.09612
1.46662
-0.973965
-0.197241
-1.33197
-1.10927
-0.81155
-0.702149
1.56289
0.976566
-0.790261
1.13438
-0.769182
-0.739626
1.48495
1.42821
-1.18156
-1.12698
-0.696457
-0.749973
1.19259
-0.795904
0.307707
-0.707666
-0.321874
1.27441
-0.762229
1.59799
1.24949
1.10165
1.22409
1.50869
-0.916575
-0.769741
1.23262
1.36167
-0.641181
1.21864
-1.67367
-0.73754
-0.747254
1.27977
1.31116
-0.743835
-0.807216
0.779877
0.152722
-0.898652
1.18242
1.15248
-1.1488
1.19414
1.23842
-1.01849
-0.797714
-0.777414
-0.731636
-0.748184
1.52443
-0.706292
1.10438
-0.801178
1.52133
1.06778
1.05411
1.1371
-2.27056
-1.21667
-0.725549
0.701879
-0.786189
1.14262
0.52709
-0.45535
1.05187
1.22586
1.2446
1.20928
-0.05878
1.2467
-0.0386144
0.646633
0.98422
-0.454243
-0.794724
-0.86189
-0.582837
1.21801
1.19013
1.21817
-1.39599
-0.547725
-0.719733
-0.702621
1.21342
1.49017
1.22716
-0.790557
-0.703838
-0.986974
-0.429292
-0.697663
-0.696853
-0.0754886
1.1959
-0.679957
-0.771864
0.109595
0.140686
0.900271
-2.0507
-0.71466
-0.859407
1.12952
1.63702
0.177698
1.31275
1.69372
0.837144
1.40769
-0.798538
0.0827083
1.60544
-0.709337
0.542697
-0.782104
-0.752865
-0.762463
-0.767204
1.19724
0.958551
1.39162
1.35188
0.0237264
1.00421
0.190201
0.0809775
-0.703731
1.32
0.902129
1.22284
1.23886
-0.118048
-0.124471
1.23862
-1.12638
-0.698249
-0.76935
-0.773273
0.818209
-0.765304
1.17273
0.895962
-0.708985
1.44619
-0.786623
-0.201996
1.19244
-0.674902
-0.757787
-1.7921
0.770556
-0.775031
-0.914094
1.10006
1.23063
-0.121091
0.262869
-1.9924
-0.700101
-0.833899
-1.06022
0.0250641
0.829744
-0.894228
-0.764145
1.46562
0.416651
0.522315
-0.762437
-0.758721
1.20803
1.26474
0.697074
0.765941
-0.760339
-0.740123
-0.529573
0.617112
0.6752
-0.758797
1.02662
0.2945
-0.757538
1.65255
-0.763063
-1.48348
-0.747957
-0.710655
1.06647
-0.781777
-0.787574
-0.704225
0.243987
-0.820455
0.14405
-0.736721
-0.0673456
1.37548
-0.878426
0.0644295
-0.729672
-0.042303
1.54577
1.60374
1.43038
1.21322
1.40594
-0.621014
1.19771
-0.790418
1.26217
-0.696337
-0.694118
1.4761
-0.921509
0.705461
-1.12664
1.60724
0.0834831
1.54567
0.768721
0.949804
-0.778123
-0.781327
-0.694227
-0.849347
1.51757
1.39333
1.19413
0.854137
1.20336
1.09056
0.991882
-0.758182
-0.74377
0.415751
0.211701
0.965493
1.21511
0.205513
-0.772922
-0.757188
-1.12029
-0.693572
-1.33242
1.55342
1.23364
1.2097
-0.0952432
-0.115808
1.23462
-1.15916
-0.700925
-2.26948
-0.759324
0.953237
-0.769835
-0.760828
-0.0770716
1.20311
-1.38043
-0.746256
1.20228
0.837676
0.939082
1.19868
-0.697663
1.04532
1.39996
1.06277
-0.694468
1.19982
0.587123
0.616403
-0.807915
-0.766309
1.6512
0.469728
-0.842556
0.243209
1.08445
1.15735
-0.731106
-1.06516
-0.0679589
-0.671904
-0.637373
-0.791483
0.0499443
1.19312
-0.936891
1.1848
1.48751
1.30932
1.18084
1.27524
1.33931
1.20326
-1.09611
-0.413064
-0.298002
-0.769869
-0.668327
-0.760658
1.3441
1.23768
-0.764772
1.17933
-0.682192
-0.155072
-0.762123
-0.428128
0.763086
-0.976055
1.18915
1.08194
-1.00635
-0.157378
1.54149
-1.28623
-1.23847
-0.840812
-0.794282
-0.737008
1.25166
0.94131
1.31035
-0.921152
-0.953779
-0.673856
-0.247681
-0.766125
-1.38854
-1.08767
-1.74141
1.08765
-0.519748
1.65915
-1.01552
-0.3513
-0.729451
-0.760164
1.14575
-0.75172
-0.894656
-0.703077
-0.152163
1.38747
1.43306
-2.26625
-1.32739
0.993731
-0.713522
-0.647408
1.31877
-0.911116
-1.28835
-0.808653
0.917024
-0.213936
-0.766274
1.19335
0.159884
-0.746302
1.20287
-0.705563
-1.18964
-0.981109
-0.841189
0.125975
-0.766376
1.51574
-0.711853
0.380451
-0.697622
0.960405
-0.61908
-0.756906
0.81084
0.982739
1.26291
1.17418
1.37407
-0.779868
1.0638
0.775456
-1.01744
1.11726
-0.26058
-0.628802
-1.56499
1.39287
1.37869
-0.652474
-0.740958
-0.927444
1.1949
-0.74462
0.204231
-1.00371
-0.764482
1.47874
1.19628
-0.779549
-0.761337
-0.779226
-0.773285
1.08792
-0.803308
1.16006
0.374845
0.87274
1.00599
-0.743541
-0.775761
1.11864
-0.76243
0.0540954
1.48507
-0.722958
-0.770447
0.98949
-1.02287
-0.776851
0.0112789
-0.751615
1.56031
-0.406872
0.352131
-0.781526
1.51495
-0.785106
-0.754534
0.805834
-0.958822
-0.696378
1.5441
0.836924
1.22671
-0.78496
1.42598
-0.290669
-0.621
-0.791576
-0.795469
-0.788391
1.46
0.735538
-0.743232
-0.785524
-0.762802
1.31809
-0.6983
1.49201
-0.696723
0.884194
-0.768413
0.523642
0.697179
0.6615
0.577438
0.414208
-0.72458
1.19215
-0.793334
-0.588916
-0.878911
0.500693
1.53128
-0.114341
-0.780233
-0.799048
-0.769937
0.413464
-1.00687
-0.767031
1.0674
0.409865
-0.77468
1.59417
-0.764224
-1.27444
1.56594
-0.771162
0.295177
-0.704275
-0.760717
-0.765918
1.56977
-0.759079
1.48635
-0.764836
-0.774238
1.36731
-0.0428354
-0.746624
0.72514
-0.748704
0.156377
-0.21114
-0.766979
1.0275
-0.810099
-0.767018
-0.761263
-0.762438
-0.702968
1.06341
-0.0224088
-0.29223
-0.776913
1.51278
-0.613628
-0.770464
-0.73887
0.061485
-0.896723
-0.748103
-0.77506
0.0981725
1.44155
-0.790395
-0.693012
-1.02157
-0.535128
-0.105803
-0.708489
1.59775
1.5301
0.568352
-0.816207
-0.699979
0.480387
-0.70069
1.60843
0.355583
1.29061
0.864013
1.49682
0.233495
-0.907752
-0.833854
0.075002
-0.793631
0.0754815
0.115365
-0.764955
1.50705
-0.121494
0.367299
-0.266482
-0.689753
-0.857007
)
;

boundaryField
{
    frontback
    {
        type            empty;
    }
    Top
    {
        type            zeroGradient;
    }
    outlet
    {
        type            fixedValue;
        value           uniform 0;
    }
    bottom
    {
        type            zeroGradient;
    }
    Inlet
    {
        type            zeroGradient;
    }
    rectangle
    {
        type            zeroGradient;
    }
}


// ************************************************************************* //
