/*--------------------------------*- C++ -*----------------------------------*\
| =========                 |                                                 |
| \\      /  F ield         | OpenFOAM: The Open Source CFD Toolbox           |
|  \\    /   O peration     | Version:  2306                                  |
|   \\  /    A nd           | Website:  www.openfoam.com                      |
|    \\/     M anipulation  |                                                 |
\*---------------------------------------------------------------------------*/
FoamFile
{
    version     2.0;
    format      ascii;
    arch        "LSB;label=32;scalar=64";
    class       surfaceScalarField;
    location    "20";
    object      phi;
}
// * * * * * * * * * * * * * * * * * * * * * * * * * * * * * * * * * * * * * //

dimensions      [0 3 -1 0 0 0 0];

oriented        oriented;

internalField   nonuniform List<scalar> 
3181
(
-1.04958
0.410826
0.63875
-0.387816
0.366113
0.021703
0.52344
-0.358894
-0.164547
0.122487
-0.202283
0.0797959
-0.0549861
0.0719172
-0.0169311
0.629448
0.941838
-1.57129
0.148779
-0.142426
-0.00635307
0.0708912
0.00169431
-0.0725856
0.591078
-0.752069
0.160991
-0.0748685
0.137548
-0.0626792
-0.0104233
-0.0509255
0.0613487
0.112395
0.0530464
-0.165441
-0.00879083
-0.056167
0.0649578
-1.09775
0.150967
0.946784
-0.329461
0.696694
-0.367233
-1.12162
0.638301
0.483323
0.0841437
-0.931722
0.847578
-0.202466
0.141009
0.0614575
-1.04143
-0.385535
0.00413108
0.0447395
-0.0488706
0.0362562
-0.085471
0.0492148
-0.0586936
0.0515066
0.00718697
1.0648
-1.03935
-0.0254483
0.0183623
0.0365306
-0.0548929
-0.955255
0.325561
0.629693
-0.108527
0.231014
0.30753
-0.244358
-0.0631726
0.0297274
0.0622913
-0.0920187
-0.410125
0.337259
0.0728659
-0.032953
-0.0150504
0.0147825
0.000267966
-0.0366206
-0.918634
0.0446443
-0.0415876
-0.00305666
0.177473
1.52068
-1.69815
-0.0507625
0.0503427
0.000419829
0.180162
0.274023
-0.454184
1.72832
-1.55084
0.0713706
-0.0351145
1.52078
-0.802919
-0.717858
-0.499809
1.12926
-0.116219
0.107428
-0.0574294
-0.00126418
-0.407224
0.0777625
-0.131268
0.0738384
-0.633136
0.129384
0.503752
-0.149171
0.0743026
-0.16834
0.17259
-0.00424972
-0.272305
-0.0762519
0.348557
0.251729
1.21668
-1.4684
0.0507624
0.134315
-0.185077
-0.0109194
-0.0999034
0.105992
-0.00608883
0.519925
0.176768
-0.0955341
0.139863
-0.0443287
0.0865282
-0.0418839
-0.17186
0.198269
-0.0264088
0.163867
0.0547822
-0.218649
0.109126
-0.115049
0.00592331
1.2171
0.303672
-0.860638
-0.188938
0.00395505
-1.74024
1.73628
0.550696
0.229306
-0.780003
-0.445016
-0.203765
0.648781
-0.932815
0.433006
-0.269854
0.820551
-0.325073
-0.101663
0.426736
-0.207488
-0.202637
-0.190639
0.166267
0.0243723
0.132484
0.284475
-0.416959
-0.151859
0.742937
-0.0170832
0.0879745
-2.1052
2.10916
0.187953
0.119578
-0.17973
-0.11126
0.29099
-0.26808
0.353904
-0.0858234
-0.0812067
0.0893291
-0.00812242
-1.85347
-0.918915
0.00933093
0.909584
-0.0531872
0.00242474
-1.06965
0.784032
0.285613
0.389184
-0.258146
-0.131037
-0.798084
-0.134731
1.10417
-0.953202
-0.71487
1.14686
-0.200071
1.06755
0.166765
-0.173856
0.00709085
1.5866
-0.644766
0.979408
-0.979408
-0.00751492
-0.000315655
0.00783058
-0.213567
-0.0528884
0.266455
0.0803332
-0.0573981
-0.0229351
-0.451905
0.836157
-0.384252
-0.0174024
-0.23759
0.254992
-1.08295
0.0436
0.345314
0.0570021
-0.402316
0.135625
-0.857164
1.08647
0.0612735
0.0730061
-0.13428
-0.0174478
-0.154412
-0.19893
-0.0579692
0.256899
-0.171058
-0.0278713
0.119525
-0.976689
0.329783
-0.781688
0.92329
-0.839146
-0.0100903
0.138758
-0.128668
0.0823483
0.0517665
-0.134115
-1.40765
-0.0899404
1.49759
-0.246536
0.410758
-0.164223
-1.02935
0.652642
0.376708
-0.466683
-0.602962
0.122677
-0.0719143
-0.152888
0.14733
0.00555889
-0.0773034
-0.0132526
0.090556
-0.523938
-0.228131
-0.0958227
0.0421163
0.0537064
-1.14981
-0.244007
1.39381
1.6738
-0.457128
-0.0122483
0.00473337
0.0385667
0.149386
-0.199502
0.379664
0.00389075
0.160657
-0.164548
0.13763
0.0681643
-0.205794
0.239841
-0.131309
-0.108532
-0.594935
-0.526689
-1.20825
0.0584442
-0.0489888
0.110262
-0.10641
0.18456
-0.0781506
0.0373742
0.0249656
0.123813
-0.0569539
0.0706635
-0.0137096
-0.0958046
-0.0217945
0.117599
0.0741814
-0.0741814
-0.185232
0.210198
0.218125
0.138206
0.105341
0.0929277
-1.26905
1.11719
-1.54494
0.108498
1.43644
0.0271996
-0.0227851
-0.00441454
-0.0266157
-0.0514025
0.0780182
0.54236
-0.0264933
-0.515866
-0.0367606
0.0380657
-0.00130507
-0.200635
0.0154028
0.161169
0.674988
-0.367864
0.529033
-0.178527
-1.22912
-0.0920004
0.0370143
0.487003
-0.306193
-0.18081
0.0992868
-0.084624
-0.0146628
0.0477246
-0.320029
0.0231093
-0.942024
0.0492535
-0.155663
-0.288257
-0.401325
0.0712309
1.38135
-0.929882
-0.45147
1.0783
0.303056
0.0660952
0.282461
0.027837
-0.00063738
-0.0886398
0.168471
-0.0798308
-0.254329
-0.58551
0.83984
-0.357796
0.545172
0.950558
-1.33609
0.130757
0.0401013
-0.0581833
0.018082
-1.8618
0.387161
1.47464
-0.253826
-1.60797
-0.307092
0.652406
-0.908613
-0.0177231
0.00415078
-0.266333
0.262183
1.43689
-1.55704
0.120141
-0.0884575
-0.00354293
0.571181
-0.82551
0.0359604
-0.358225
0.322265
-0.296119
-0.117709
0.413828
0.170858
-1.00824
-0.0747076
-0.0066985
-0.0421721
-0.556126
0.352361
-0.245957
0.0187267
0.22723
-0.0158835
-0.072574
0.023829
-0.023829
-0.1189
0.130379
-0.0114791
-0.281922
-1.26302
0.0782991
0.0293157
-0.107615
-0.143986
0.0330043
0.110982
-0.221302
0.0306628
1.43131
-0.408383
-1.02293
-0.193033
0.449612
-0.25658
0.00669265
-0.00626852
-0.000424132
-0.446079
-0.583271
-0.186079
-0.00461557
0.190694
-0.174355
0.306839
-0.101493
0.0997991
0.00169421
0.0749739
0.0154984
-0.0904722
-0.136273
0.161706
-0.0254333
-0.942579
1.10473
-0.162151
-0.218798
-0.0511668
0.269965
-0.693718
0.661469
0.0322485
-0.00234514
0.0388757
0.0262941
-0.0263637
6.96209e-05
-0.00394544
-0.0509475
1.02906
0.644746
0.17448
-0.887405
0.712924
0.0197708
1.98926
-2.00903
0.385341
0.529864
0.449544
0.0625594
0.203384
-0.0657546
-0.0713063
-0.0285971
0.238101
0.156213
-0.0738642
0.735195
-0.409634
0.0606319
0.205823
0.0488998
-0.164213
0.115314
-0.780741
-0.143575
0.924316
-0.032184
0.032184
-0.0516779
-0.268915
0.542937
0.0133622
-0.23216
0.0587868
0.0822221
0.0295604
-0.0785492
0.135035
-0.145458
-0.345741
0.328338
0.0441157
0.0579143
-0.10203
0.381363
-0.328316
0.987534
-0.65046
-0.337074
-0.206963
0.273058
0.185572
-0.491765
-0.202411
0.613237
0.165973
-0.033312
0.033312
-0.396858
0.321906
0.0749514
0.384931
0.0258271
-0.0274893
0.0330183
-0.00552895
-0.112071
-0.0496671
-0.0461556
-0.0492157
0.184251
-0.179596
0.240746
-0.0611502
0.128273
0.0279399
-0.391679
0.147321
0.189699
-0.0614265
-0.0457758
-0.0557175
-0.074701
0.0684699
0.00623113
0.147567
-0.104753
-0.0428139
-0.0162866
0.394594
-0.378307
-0.124355
0.107272
0.104277
-0.108621
0.00434394
0.0237887
0.572996
0.414538
-0.0955398
-0.0130253
0.108565
-0.0955517
-0.00895975
0.104511
-0.0909605
0.0981835
-0.720491
0.622307
-0.0379197
-1.52311
-0.482376
2.00549
0.444265
1.24775
-1.69201
0.0827172
-0.248564
0.117255
0.275608
0.252106
-0.527714
-0.207114
0.256014
0.140082
-0.887813
0.747731
0.0279501
-0.123502
-0.0168081
0.0101096
-0.990845
0.444343
0.546502
0.929882
-0.810357
-1.72356
1.63362
-1.43689
1.54539
0.0398334
-0.084162
0.00823115
0.018063
0.0132734
0.798382
-0.658299
0.122511
-0.0732571
0.412862
0.733993
-0.0972653
-1.74611
1.76588
-0.662583
-0.60647
-0.240966
-0.39217
-0.0169271
-0.166098
0.213822
-0.577983
-0.375223
0.18219
0.772396
-0.230036
-0.912462
-0.811097
0.745661
0.172447
-0.144497
0.28539
0.0377997
-0.0377997
0.67059
0.149101
-0.81969
-0.225266
0.895856
0.469497
-1.02893
0.559437
0.173096
-0.0348905
0.00794076
0.00450877
-0.0124495
-1.74024
-0.988112
0.530984
1.04066
0.390649
-0.0344293
-0.133911
-0.233176
0.753101
-0.19687
-0.0490877
-0.00304832
-0.0781583
-0.0529904
0.104757
0.376829
-0.247446
-0.84111
-0.284367
-0.120835
-0.0388215
0.159657
-0.699632
1.2295
-0.156994
0.132059
0.0249347
0.0290774
-0.00124035
-0.110047
0.0540533
0.0559939
0.00816499
0.418571
0.0715808
0.027706
0.0126448
0.00716916
-0.019814
-0.0166998
-0.169379
-0.724752
0.371621
0.353131
0.696226
-1.7695
1.07327
0.13814
-0.159417
0.021277
-0.0072032
0.12988
0.150752
-1.13016
-0.110799
0.000752283
-0.102789
0.0308748
0.144837
-0.344339
-1.68853
0.685588
1.00294
0.0286552
0.0928496
0.0547177
-0.780741
-0.190828
-0.751751
0.124632
-0.0705784
0.0438762
-0.638231
-0.0554867
0.0608545
0.128845
0.658651
0.0438047
-0.460763
0.122655
0.348457
-0.291455
-0.117527
0.0217227
0.223345
0.838599
-1.06194
0.104979
-0.715247
0.610268
-0.950999
0.807424
-1.55366
0.169676
1.38399
-0.00980829
0.010637
-0.000828715
0.167713
-0.463831
0.212902
-0.125158
-0.0877442
0.0492112
-0.0581709
-0.0303539
-0.0904811
-0.00835506
0.0221515
-0.0260969
0.020809
0.0771953
-0.0980044
0.913761
0.00117996
-0.00107464
-0.000105322
0.108859
-0.0015872
0.861646
0.0450458
-0.0485887
-0.430324
-0.557788
0.15752
0.0155764
0.00778232
0.0850673
-1.38399
1.13016
0.211371
-0.2018
-0.00957133
-0.251678
0.0778222
0.119277
-0.112186
-0.00143947
0.0907686
-0.0350663
-1.62564
-0.0628915
-0.0425774
0.0633865
0.739205
-0.255883
-0.203534
0.0595482
0.341689
0.0112051
-0.0386945
-0.0075968
0.0817782
0.145528
0.208376
0.156696
-0.331027
0.174331
0.112908
0.56208
-0.0402874
-0.108884
0.93867
-0.26696
-0.67171
-1.55366
-0.497162
1.19339
1.72832
-0.0746275
0.326431
-0.251804
0.369156
-0.0700448
-0.299111
0.0501146
-0.848199
-0.0724993
0.0733013
-0.000802024
0.0104887
-0.110739
0.10025
0.507315
-0.943075
0.43576
0.0403024
0.65838
-0.698682
-0.0441006
-0.108788
-0.00776727
-0.0877725
0.0672619
-0.46412
-0.0111921
0.00138378
0.0952726
0.00448828
-0.0997609
0.0573585
-0.145998
0.0026385
0.0264389
0.0385778
0.10018
-0.0229218
-0.00344188
0.195749
-0.433338
-0.335389
1.58314
0.0238142
0.00836981
-0.990611
-0.0176314
0.138117
-0.0725891
-0.0449382
-0.176762
0.212722
0.732738
-0.913467
0.180729
0.109361
0.0481587
-0.939225
-0.0139778
-0.0140675
-0.648382
0.746565
-0.0179017
0.183875
-0.13858
-0.890354
0.183143
-0.443884
0.260741
0.0113321
0.149325
0.00198833
-0.00219034
0.000202016
-0.0415782
-0.0946948
-0.0210561
-0.133356
0.746221
-0.641242
-0.131269
0.079675
-0.0996355
0.311744
-0.155048
0.13154
1.23886
-0.374093
-0.864764
-0.120495
0.139222
-0.50543
-0.219322
-0.55803
0.612285
-0.595971
-0.016314
-0.0938767
-0.0373924
-1.74611
0.54367
-0.54367
-1.90052
1.90052
0.798382
0.0656883
-0.254801
0.189113
-0.897691
-0.0929205
0.631354
-0.366411
-0.264943
0.163626
-0.241777
-0.010332
-0.00191631
-0.895049
-0.0816402
-0.933397
0.212907
0.0400572
-0.0788787
0.698266
-0.10976
-0.588506
1.28117
0.447143
-0.00166583
0.00365415
-0.964673
0.260825
-0.911285
-0.0802959
-0.598998
0.679294
-0.0580222
-0.863351
-0.693685
0.218038
-0.812973
-0.924316
1.37881
-0.454498
-0.136528
0.278562
-0.142034
-0.0251704
0.723436
-0.105727
-1.03033
1.03033
-0.911589
0.51628
0.395309
0.000418943
0.000761018
0.086712
-0.439263
0.826693
-0.0426613
-0.0846037
-0.0347514
0.11509
0.00421583
0.00247682
1.94336
-1.77369
-0.337693
0.412667
-0.635001
1.01017
-0.375174
-0.0556892
-0.0551102
0.123961
-0.0557971
0.348487
0.00615563
-0.0623226
0.353733
0.0408613
0.0429762
-0.24756
0.204583
0.138777
0.0338126
0.0973457
0.181117
1.79084
0.318318
0.211699
0.560621
-0.77232
-1.19607
1.58324
0.23509
-0.161252
0.0760599
-0.766965
0.690905
0.277387
0.130677
-0.476418
-0.0742659
0.13394
-0.0596746
0.132141
-0.206407
-0.449599
-0.106528
-0.0717816
0.0748992
-0.00311755
-0.00063846
-0.0222834
-0.00865468
-0.0332292
0.658299
-0.610268
-0.048031
-0.290626
0.303989
0.878902
0.627935
-0.258779
-0.028893
0.0582087
-0.434659
0.0764339
0.173148
-0.580882
0.407733
-0.00221882
2.848e-05
0.239802
0.0171608
-0.256963
0.00611968
-0.0122259
0.00610618
-0.0246733
0.0169145
0.00775883
-1.39449
0.749719
-0.123537
-1.39957
-0.197492
-0.810357
1.54539
1.63362
-0.192853
-0.172078
0.120912
-0.0634201
0.0691668
-0.00574669
-0.256975
0.991394
-0.734419
0.550342
0.081013
0.000504032
-0.00272285
0.121134
-0.522662
0.0347514
-0.0472443
0.00466686
-0.488715
0.0540562
-0.0446144
0.0741748
-0.221132
0.602495
1.0783
-0.181302
-0.0611086
0.0013414
0.0597672
2.02406
-0.390444
-0.0609034
-0.0541459
-0.971603
0.161245
0.364578
-0.19372
-0.478448
-0.130656
0.609104
0.822288
-0.367675
-0.454613
0.0292545
0.703484
-1.76588
0.0256464
-0.00645888
-0.0246657
0.0311246
0.161427
1.82783
-0.166668
0.174609
0.213374
2.18923
-0.643842
-0.677976
0.0539949
0.623981
0.383491
0.00747326
-0.347874
0.53922
0.811899
0.387063
0.0759633
-0.0212456
-0.778751
0.214691
0.56406
1.20209
0.0476008
-0.0349559
-0.0499548
-0.360002
0.105115
-0.312229
0.770145
0.468713
-0.115489
0.0216122
0.30759
-0.382218
-0.0210225
0.0186773
0.110276
-0.146512
0.0362359
-0.2989
0.313219
-0.0143194
0.401021
-0.775115
-1.3195
0.0537956
1.2657
0.104942
-0.202687
0.0977442
0.271462
0.0402813
-0.496712
0.305884
-0.65738
0.65738
1.73628
1.28117
-0.715247
0.330313
0.481585
-0.303219
0.378171
0.919163
-0.368822
0.00748335
-0.875087
0.867604
0.132264
0.00528395
0.025599
-0.584435
0.0877228
0.0692755
-0.16644
-0.121552
0.287992
0.182622
-0.512528
0.346088
-1.08484
-0.287304
-0.649897
-0.0516209
-0.00110624
3.15971e-05
-0.225912
0.0860109
0.0736457
0.0339863
-0.145159
0.111173
-0.507367
-0.404223
-0.00564169
0.067933
-0.733192
0.529286
0.203906
-0.566439
0.385629
-0.0792699
0.137184
0.234315
-0.00225712
-0.014551
-0.774362
0.36598
0.0342852
0.0699914
-0.154405
0.0547694
0.203734
0.00916861
-0.427932
1.62539
0.443121
-0.0238141
0.866865
-0.790805
0.787066
-0.445377
-0.612553
0.173291
0.153753
-0.794154
0.767341
0.0268136
1.17431
-0.404162
-0.20525
-0.132443
-0.0755
0.0181019
0.952881
-0.8402
-0.112681
-0.181921
0.108056
0.0275697
0.11976
0.878174
0.359955
-0.532214
0.172259
-0.324962
-0.050261
-0.0122385
-0.720954
0.109554
1.38804
1.27591
0.00526001
0.168746
0.551977
-0.720723
0.120465
0.0501951
-0.00578125
0.00352414
-0.512988
-0.0995648
0.110423
-0.126307
-0.186199
0.136983
-0.532985
0.276406
-0.992231
-0.511777
-0.289501
-0.556237
1.50725
-0.0708093
-0.286017
-0.46021
-0.0285047
0.219075
0.299588
0.0541447
1.33208
-0.824768
-0.189
0.127573
-0.165676
-0.465179
0.630855
-0.0105067
0.00404785
0.0488736
-0.0596061
-0.239294
-0.119633
0.697119
-0.418993
-0.278126
0.00651688
0.134178
-0.096665
-0.0375131
0.242077
0.0575112
-0.199775
-1.49224
-0.0959018
0.139778
0.76992
-0.409965
0.0255581
0.0789534
-0.0216179
0.0192071
0.00241079
0.011617
-0.0344021
-0.241444
0.0772309
-0.0537492
-0.555636
0.419108
0.019143
0.101174
0.00376836
-0.69527
1.69903
-1.23032
0.0158552
-0.192122
0.176267
-0.14016
-0.536733
0.676893
0.076399
-0.71463
-1.07973
-0.239772
-0.0595365
-0.000259954
0.0597965
-0.243357
-0.612285
-0.168456
-0.141819
-0.778751
-0.230198
0.164443
-0.271975
-1.14287
-0.381692
0.402196
-0.0205042
0.26338
0.114388
0.463597
0.206084
-0.669681
0.106472
0.0659754
0.83188
0.433662
-1.26554
-0.221015
0.444583
1.13865
-0.240916
0.179766
-0.655473
1.10006
-0.167086
0.109117
-0.0265589
0.0398323
-0.0185382
1.18054
-1.20436
0.733803
0.0884848
-1.46434
-0.161303
0.245081
0.674082
0.910378
0.0282923
-0.0185536
-1.27591
-0.649897
-0.713522
0.722853
-0.0532308
-0.912462
0.65838
0.606061
-0.933121
0.622879
-0.00551586
-0.788639
-0.313207
0.63565
-0.771912
0.136262
0.0806181
0.05356
-0.252634
-0.22745
1.25799
-1.03054
-0.000359445
-0.000746791
-0.262884
0.213797
0.712049
0.222563
-0.20716
-0.179675
0.674835
-0.918842
0.0688235
0.12029
0.258327
0.914392
-1.17272
-0.977148
1.19184
0.718179
-0.188893
0.0692682
0.33661
-0.56406
-0.00762772
0.216335
-0.0528189
0.103303
0.034814
0.00351235
-0.0272618
0.0237494
-1.02566
-0.0362821
0.316202
-0.807624
-0.755289
1.69665
-0.94136
0.372935
0.63724
-0.0493596
0.0527816
-0.00342208
-0.107789
0.782624
-0.717917
0.735324
0.570284
-1.32557
0.314015
-0.0976803
-0.584823
-0.407409
-1.11921
1.37754
-0.0581691
-0.880603
-1.83227
-0.176757
0.33661
0.0497943
-0.857418
0.83204
-0.646405
-0.185635
-0.981921
0.397099
0.00685433
0.111886
-0.000724747
-0.111161
-0.971296
0.563888
-0.215753
0.910946
-0.924924
0.191507
-0.208207
-0.0953801
0.240217
1.1183
0.439888
-0.113091
-1.43807
0.573309
1.14796
-0.760894
-0.552527
-0.518447
1.07097
0.447473
0.0163968
-0.0118881
-0.734964
0.698682
0.0453033
-0.153093
-0.449544
0.155709
0.293835
1.06336
0.633285
0.778054
-0.811007
-0.492802
-0.449222
-0.471664
-0.499632
0.803509
-0.803509
0.68517
-0.68517
-0.734964
-0.0209783
0.0209783
-0.155709
-0.71181
-0.378195
-0.51703
-0.00282651
0.00282651
0.0453033
-0.153093
0.778054
0.767407
-0.767407
0.811007
0.759439
-0.759439
0.507198
0.528336
0.481553
0.0424768
-0.500368
-0.550778
1.07911
-0.676221
-1.63075
0.511537
0.29832
0.419859
-0.183518
-0.0114499
0.0564957
-0.886482
0.0957024
0.790779
-0.12504
0.108113
-0.995948
0.586314
0.927236
-0.596923
-0.12463
0.00622246
-0.0076882
-0.809435
-0.07797
-0.546502
-0.00379615
0.0139058
0.492484
-0.145352
0.0747737
0.176526
0.00128993
-0.0101409
0.00885101
-0.812462
0.0672962
0.745166
0.766851
0.351447
-0.532265
0.412714
0.119551
0.917653
-0.742914
-0.174738
0.0818555
0.297808
-0.0137965
-0.0579852
-0.0581451
-0.0143542
0.798871
-1.4985
-0.846124
0.0974666
-0.741778
0.79529
-0.0535121
0.121686
-0.899376
0.77769
-0.802414
0.90424
-0.101826
-0.0663518
0.0779687
0.020329
-0.286662
0.334503
1.04304
-0.0952923
-0.79119
0.915095
-0.0910536
-0.824042
0.0702406
-0.12593
1.06517
0.822361
-1.23678
0.462679
-0.381666
0.101648
-0.892837
1.55084
0.34968
-0.792003
0.00336464
1.01735
-0.895666
1.22675
0.899739
-0.711583
-0.188156
-0.879971
-0.115977
-0.412039
0.033731
-0.450356
0.631084
-0.785038
0.785038
-0.606712
-0.086499
-0.864144
0.121229
-0.940295
0.859999
0.0739093
-0.199067
-0.0573583
0.0594787
0.0111848
0.187968
0.829384
0.817741
0.771608
0.138977
-0.910585
-0.49808
0.917939
-0.781346
-0.106313
0.887659
0.170925
-0.888842
-0.676176
0.887609
-0.785961
-0.107183
0.458722
-0.0230509
-0.435671
-0.0197382
1.37697
-1.35723
0.275116
-0.451068
0.175952
-0.888529
-0.829687
0.0879089
0.523595
0.263471
-1.97346
1.16081
-0.574392
0.574392
-0.849708
-0.588366
-0.108436
0.196159
-0.993216
1.04701
0.781295
-0.203773
1.24341
-0.493695
0.928402
-1.07275
0.144348
-0.122329
-1.64717
0.147939
0.401659
-0.495572
-0.256178
0.111582
0.304111
-0.222256
0.780963
-0.882789
0.514419
0.40352
-0.150712
0.737026
0.57941
-0.57941
-0.0682758
0.0670355
0.109911
-0.0759244
1.22185
0.155119
0.197484
-0.000354848
0.00365695
-0.00330211
-0.667916
0.694095
-0.0261787
0.268189
-0.979772
0.107565
-0.893526
-1.0564
1.38915
-0.332744
0.189314
0.876998
-1.20574
1.47393
-0.754549
0.602812
-0.658299
-0.659615
0.154185
-0.0513702
0.0268849
0.108836
-0.333119
0.281749
0.00501806
-0.377049
0.0693878
0.725902
0.69375
-0.090938
0.076424
0.785222
-0.0196709
0.107539
-0.0878684
-0.625887
0.531969
0.602251
-0.956459
0.736985
0.219475
-0.685016
-0.127956
1.08656
-0.174208
-0.289912
-0.0389077
0.485924
0.514076
-0.770473
-0.112316
-0.417447
-0.336906
-0.410343
-0.301196
0.401415
0.598585
-0.129568
0.127981
-0.861527
-0.0681494
-0.590149
-0.151018
-0.248989
0.400007
-0.0312664
-0.00379988
0.112132
0.0721189
-0.12792
-0.113524
0.76102
-0.642483
0.718907
0.25542
-0.588539
-0.23575
0.0566731
0.179076
-0.745305
-0.191168
0.936473
-0.241392
0.230458
-0.0246346
-0.0752614
0.00268738
0.0115068
0.706009
-0.131616
0.123441
0.110874
-0.735813
0.0678969
1.05237
-0.0953008
-0.727505
0.390431
-0.299414
-0.287692
1.02168
-0.00678157
0.265703
-0.0523283
-0.0069059
-0.0452528
-0.10444
0.0105583
1.04181
0.368176
-0.455628
0.087452
0.848929
-0.0241692
0.00140608
0.0227632
0.127987
-0.010467
-0.00072503
0.215694
-0.105418
0.092679
-1.08589
0.778168
-0.409992
0.00848284
0.285308
-0.398955
-0.953298
1.25184
-0.298539
-0.779857
0.836911
-0.0570537
0.521989
0.166459
-0.333546
-0.0701524
1.2324
-0.45684
-0.0754245
0.27638
0.454668
0.192219
-0.646887
0.408775
0.0409384
0.653157
-0.57376
0.563592
0.010168
1.38039
-1.16132
-0.0249825
0.0316437
-0.00666122
0.698218
-0.00897843
-0.0825994
0.0195777
1.34738
0.752375
-0.230385
0.0643776
-0.101171
-0.101515
0.0977936
0.0434058
-0.141199
0.0108707
-0.00735837
1.12375
-0.690091
0.180117
0.221479
-0.0256003
-0.0906488
0.22335
0.0967219
0.00586243
0.0828276
0.767605
0.265535
-0.215077
-0.0504584
0.354294
0.298165
-0.652459
0.645743
0.117865
-0.0585335
0.00131366
0.0572199
-0.639387
0.0405093
-1.11326
-0.00377448
0.749436
0.717942
0.176036
0.603124
-0.855759
0.816668
0.154209
-0.0226689
-0.882545
0.0915255
-0.272244
-0.12438
-0.170296
0.693082
0.0745231
0.0134493
0.355884
-0.189425
-0.327636
0.162338
0.0264421
-0.111913
0.422592
-0.0573542
0.590223
-0.071154
0.162742
0.03973
0.314564
-0.151548
-0.0744399
-0.0480496
-0.109636
0.015996
-0.000683996
-0.015312
-1.5372
0.375881
-0.00991102
0.863408
-0.227139
-0.616867
0.640632
-0.0237649
0.433454
0.760979
0.499218
-0.320142
0.0791478
-0.174528
0.632747
0.128232
0.554364
0.675132
-0.265438
0.728117
0.210187
0.831624
-0.600394
0.349216
0.251178
0.0892264
-0.0707481
0.0408978
0.0639427
-0.0472718
1.1463
0.736619
0.0800494
0.620641
0.219198
-0.87212
-0.0809433
-0.674859
0.678224
-0.0242042
-0.582051
0.431032
0.872881
0.673686
0.144929
0.0131581
-0.160426
-0.315992
1.09731
0.601723
0.385617
0.0165736
0.868172
-0.0365479
0.701551
0.692261
-0.077807
0.54803
-0.738861
0.927257
-0.188396
-0.412113
-0.188281
-0.0396453
-0.200138
-0.192997
0.767269
0.010061
-0.00289184
0.627986
0.172906
0.217525
0.605536
-0.132104
0.23691
0.745536
0.244488
-0.990024
0.277068
-0.923473
0.219804
-1.45013
-0.178794
0.769234
-0.59044
-0.668456
-0.0981697
0.0229083
-0.0551392
-1.18667
0.0211066
-0.0427245
0.70389
0.0611276
-0.296497
0.235369
-0.0383283
-0.577983
0.142407
0.123296
-1.47956
-0.00268129
0.00397122
0.155232
-0.0539309
-0.592218
0.0184576
0.568171
0.30471
1.12867
0.876817
-0.245754
-0.384982
0.630735
0.143085
-0.617874
0.617874
-0.225012
-0.91857
1.14358
0.0302764
-0.150771
0.684115
-0.115945
-0.220351
-0.459491
0.16958
0.668817
0.748672
-0.0489665
0.17543
-0.104199
-0.46489
0.48404
0.0795517
0.058171
0.0131996
-1.64191
0.030019
-0.147097
0.694016
0.305984
0.030019
0.694016
0.0401817
-0.137122
0.0401817
-0.696152
0.696152
0.303848
-0.0141511
0.189023
-0.0764728
0.201861
0.0949894
-0.470688
0.641305
-0.0357688
0.657867
-0.505321
-0.152545
-0.0569037
0.0560453
0.000858347
-0.010611
0.0102561
-0.0598452
0.018605
-0.0751115
-0.435089
-0.352847
0.126935
0.0440483
0.829638
-0.277661
-0.464425
0.435921
-0.000822906
-0.14223
-0.00923623
0.682598
0.0668372
0.557623
-0.0185988
-0.00121521
0.0133233
0.0855422
0.561725
-0.475807
-0.0859181
2.12241
0.550367
-0.189038
0.89653
0.0113277
-0.0627302
0.106404
0.216241
0.129543
1.12679
-0.381259
0.0138383
-0.0654592
0.676137
-0.313419
0.021779
-0.021779
0.0204581
-0.0204581
-0.0164018
0.0164018
0.0238142
0.365591
0.4589
-0.0285133
-0.717382
0.487345
0.187417
0.0282773
-0.0831183
-0.48372
0.74335
0.112252
-0.797268
-1.03522
0.144863
0.0912148
0.0190667
-0.00215222
-0.0176016
0.0176016
0.154984
-0.0173417
0.0173417
0.701428
0.0928303
-0.0132714
-0.00532739
0.00658461
-0.0676932
-0.0222565
0.0222565
-0.00987816
0.00987816
-0.0223647
0.0223647
-0.0134039
0.0134039
0.116149
-0.295336
-0.0819595
0.21968
-0.0125654
0.0125654
-0.373444
0.511139
-0.137694
0.500194
-0.221632
-0.436132
-0.0282935
0.560535
-0.151801
0.0763832
0.564249
0.566478
-0.00628778
0.00628778
0.224078
0.0248974
-0.0248974
-0.0113927
0.0113927
0.758982
-1.14729
0.0362751
-0.115465
0.132626
0.00293641
-0.00293641
0.0123823
-0.0123823
0.0183749
-0.0183749
0.0230196
-0.0230196
-0.0235407
0.0235407
0.0351202
-0.0351202
0.485111
-0.0318242
0.0318242
-0.00221138
0.00221138
0.0241216
-0.0241216
-0.0050372
0.0050372
0.00759285
-0.00759285
-0.0547639
-0.0256994
0.0256994
0.390471
0.0214547
-0.0394641
0.0394641
0.00496759
-0.00496759
0.0175957
-0.0175957
0.0335184
-0.0335184
0.0254588
-0.0254588
0.00362041
-0.00362041
-0.00200802
0.00200802
-0.571476
-0.235414
-0.00840947
0.00840947
-0.00138267
0.00138267
-0.0381493
0.0381493
-0.0277019
0.0277019
0.000408092
-0.000408092
-0.410519
0.6556
0.252372
-0.0320605
0.0320605
-0.0388941
-0.0138165
0.0138165
-0.000699234
0.000699234
0.0370034
-0.0370034
-0.239012
0.216343
0.0029556
-0.0029556
-0.0227768
0.0227768
-0.501791
0.044342
0.0843907
-0.0310801
0.0310801
-0.446443
0.0338163
0.0189654
-0.0197055
-1.44463
-0.036732
0.036732
-0.198667
0.141313
-0.0403688
-0.000275103
0.000275103
0.00178974
0.0474251
0.262871
-0.323579
-0.28048
0.604059
0.195147
-0.00397329
0.00397329
-0.172554
0.442773
-0.270219
0.771079
-0.397936
-0.373142
-0.459566
-0.658812
0.153205
0.282716
-0.194953
-0.430934
-0.57264
0.00969291
0.190197
-1.17615
0.0157912
-0.0157912
-2.90749e-05
2.90749e-05
0.0308531
-0.0308531
0.0259337
-0.0259337
5.16964e-05
-5.16964e-05
-5.75565e-05
5.75565e-05
-0.0449945
-0.213152
0.175605
-0.300236
2.81029e-05
-2.81029e-05
-0.0445387
0.0445387
-0.0403271
0.0403271
0.201815
-0.00813399
-0.193681
0.00139032
0.316555
-0.543694
-0.000185553
0.000185553
-0.0157207
0.0157207
-0.0953668
0.176527
-0.023322
-0.000259571
0.000259571
0.102547
0.0135183
0.997594
-0.484076
-0.0811962
0.565273
-0.628352
0.0466419
-0.496998
-0.0381856
0.0381856
-0.680798
0.276537
0.049568
-0.049568
-0.646963
0.38202
0.263928
0.122756
6.81745e-05
-6.81745e-05
-0.827974
3.65757e-05
-3.65757e-05
0.313403
0.410033
0.0452288
-0.0535627
0.0535627
-0.000611621
0.000611621
-0.0423626
0.0423626
-0.0532108
0.0532108
0.000141899
-0.000141899
-0.0587697
0.0587697
-7.09656e-05
7.09656e-05
-0.0456755
0.0456755
-0.0041556
-0.0446186
0.0446186
0.00235227
-0.00235227
0.0481961
-0.0481961
-0.000834296
0.000834296
0.0471793
-0.0471793
-0.118548
-0.00273206
0.00273206
-0.00457235
0.00457235
-0.0540101
0.0817782
-0.0106785
0.0106785
0.00508185
-0.00508185
-0.0593811
0.0593811
0.297532
-0.0184374
0.0184374
-0.0561779
0.0561779
-0.00748099
0.00748099
-0.0672626
0.0672626
-0.0131743
0.0131743
-0.0805181
0.0805181
-0.0216906
0.0216906
-0.0924137
0.0924137
-0.691938
0.35915
-0.53008
0.506315
-0.863351
0.12689
-0.564444
0.394149
-0.0695233
0.0760401
0.00346888
-0.00346888
0.225434
-0.721515
0.0431657
-0.0299661
-1.18168
1.62883
1.2127
0.251205
-0.0456982
-0.0160798
-0.393726
-0.579443
-0.0558462
0.390524
-1.19969
-0.0198698
0.0198698
-0.75878
0.0200655
-0.0200655
-0.00128926
0.00128926
0.317598
-0.40198
-0.00203661
0.00203661
0.0188742
0.0144378
0.596104
0.278697
-0.00920489
-0.0102477
-0.00830596
-0.0955572
0.492748
-0.397191
0.166093
-0.0181547
0.00976741
0.919094
-0.0129414
0.0540812
-0.40658
0.440311
-0.487777
-1.01789
-0.211234
-0.070924
0.0179336
-0.218577
-0.232491
0.0504861
-0.00407859
-0.0111224
0.78478
-0.552724
-0.0371657
0.0636078
-0.0357971
0.0777284
0.111295
0.424486
0.236983
-0.162942
0.20912
0.0205864
-0.00508802
-1.30352
0.0183723
0.00884145
-0.305338
-0.0188344
-1.47835
-0.0710941
0.262521
-0.350032
0.390893
0.280592
-0.836829
0.0503942
-0.0272151
-0.0987148
-0.346085
0.465636
-0.0832068
-0.018059
0.101266
-0.0272391
0.0272391
0.172375
-0.431154
-0.0816279
0.114632
-0.0787814
0.0545772
-0.0647626
-0.00638076
0.0711434
-0.0328655
-0.152832
0.100644
-0.0816512
-0.288958
-0.359121
0.648079
0.0145613
0.0587401
0.151858
-0.028417
-0.107583
0.0670433
-0.155531
0.309284
-0.00340965
0.0261728
-0.0272845
0.179142
0.00362366
0.258559
0.000828824
-0.000828824
-0.317735
1.01929
0.0884448
-0.169388
-0.0508308
-0.00719135
0.822881
0.651046
0.00483731
-0.0286663
-0.532601
0.00252062
0.0973946
0.0902798
-0.679551
0.310729
-0.0549052
0.382826
-0.671784
0.225514
0.511471
-0.0901136
0.0901136
-0.000724746
-1.22454
0.548335
0.676205
-0.210432
0.155293
0.240602
-0.224196
-0.550919
-0.128342
-0.0294821
0.0377132
0.929479
0.226009
-0.0810799
-0.0691192
-0.615063
-0.71051
-0.0780796
-0.25917
0.79839
0.579472
-0.262917
-0.250294
0.535602
-0.0695035
0.395935
-0.267288
0.102149
-0.466376
0.328681
0.120691
-0.120691
0.110422
-0.116938
0.00651638
0.00621261
-7.58644e-05
0.0192071
-0.366837
-0.27255
0.229184
-0.186519
-0.0426647
0.544363
-1.07494
0.266314
-0.824103
0.695235
-0.121313
-0.178922
-0.0404694
-0.0791636
-0.485431
0.0503411
-0.285755
0.00393776
-0.0188344
0.37802
-0.00524137
0.00119387
0.000838496
0.0140661
-0.0112158
-0.00285032
-0.104794
-0.0179617
-0.166791
0.184753
-0.127807
-0.338568
0.0188742
0.34595
0.00258532
-0.372238
0.0827373
0.00253272
0.111963
-0.140477
-0.0119451
0.0119451
-0.000997777
0.00250413
-0.00930144
0.00117268
-0.0688898
0.000763105
-0.00117598
0.253317
-0.0405945
-0.000797147
0.000797147
0.115472
0.514049
0.00146869
-0.286349
0.487474
1.1275
-0.473892
0.336771
-0.437435
-0.227235
0.145607
0.231156
-0.230949
-0.0108834
0.0148807
-0.00337385
-0.00663205
-0.178816
-0.374448
0.861794
0.3681
-0.413094
0.234276
-0.0016018
0.174075
0.0152383
0.00143419
0.000706481
0.0141742
0.152867
0.00131484
-0.000242777
0.720207
-0.653163
-0.245303
0.104333
0.940721
0.000683436
0.000947584
-0.0403688
-0.0056213
0.817924
-0.431012
0.510563
-0.484003
0.904569
-0.438318
0.579145
-0.184996
0.697589
0.00106391
0.00325326
0.0158135
-0.113555
0.138674
-0.242058
0.00952954
0.00204818
0.0642202
-0.0495885
-0.0146316
0.00101769
0.0358577
0.0246315
-0.0604891
-0.092668
0.00347143
0.000185527
0.00155512
0.474334
-0.428491
-0.00187493
0.000222538
1.18113
-0.632797
0.386829
-0.00587888
0.000246028
0.199239
-0.0191219
-0.0409348
-0.117762
-0.017459
-0.00359515
0.119151
0.0446927
-0.00171353
0.416202
0.000718752
-0.00291393
0.00291393
0.00236482
-0.0126125
7.98004e-05
-0.321567
-0.00369843
0.0721393
-0.107357
0.0430082
0.0509972
-0.0654235
0.000157449
0.00184029
0.469263
1.64774e-05
-0.00351528
-0.03613
-0.00203548
0.000420731
0.0409169
0.156567
-0.710567
0.48635
-0.860798
-0.0559642
-0.00035205
-0.499592
0.0549971
0.0565849
0.602624
-0.0150251
0.0286689
-0.00399464
-0.00137188
-0.552566
-0.00331287
-0.000212864
-0.0394856
0.922301
-0.513526
-0.00252068
-0.000763329
-0.00581846
-0.00189776
0.0712908
-0.0220602
0.0220602
-0.0289708
0.031475
-0.00239915
-0.00788148
0.0380612
-0.0368674
-0.162905
0.0921572
-0.0056933
-0.0132555
0.0423357
-0.0163468
0.0616836
-0.04375
-0.624292
0.57078
0.0191269
-0.00161297
0.309211
-0.146469
-0.0703909
-0.686787
-0.0762666
-0.119451
-0.0937767
0.0917413
0.688352
0.000460437