/*--------------------------------*- C++ -*----------------------------------*\
| =========                 |                                                 |
| \\      /  F ield         | OpenFOAM: The Open Source CFD Toolbox           |
|  \\    /   O peration     | Version:  2306                                  |
|   \\  /    A nd           | Website:  www.openfoam.com                      |
|    \\/     M anipulation  |                                                 |
\*---------------------------------------------------------------------------*/
FoamFile
{
    version     2.0;
    format      ascii;
    arch        "LSB;label=32;scalar=64";
    class       volVectorField;
    location    "20";
    object      U;
}
// * * * * * * * * * * * * * * * * * * * * * * * * * * * * * * * * * * * * * //

dimensions      [0 1 -1 0 0 0 0];

internalField   nonuniform List<vector> 
2186
(
(1.33408 -0.0780601 2.34195e-19)
(1.61641 -0.954709 -3.79604e-20)
(1.46607 -0.930526 5.67924e-21)
(0.75492 -0.597778 -1.51913e-19)
(-0.312345 0.411207 -1.66643e-19)
(1.45839 -0.34683 0)
(0.732108 -0.676948 0)
(-0.282575 -0.433487 9.18168e-20)
(1.41276 -0.306888 1.49023e-19)
(0.564117 -0.330147 -2.24197e-21)
(0.66791 0.60107 0)
(0.754272 -0.279323 -1.00121e-19)
(-0.342129 -0.499445 -3.73846e-20)
(1.20155 0.0233396 -3.82297e-19)
(1.80089 -0.708316 -4.78555e-20)
(1.0127 -0.00452383 1.79327e-19)
(0.983047 0.0129518 0)
(-0.464889 0.151434 0)
(1.41779 -0.106862 0)
(-0.0768256 0.209863 -6.20689e-20)
(0.48261 0.0701304 -1.16079e-19)
(-0.173355 0.154424 8.48328e-20)
(1.18876 0.0267324 3.15243e-19)
(-0.206925 -0.000813965 5.99332e-21)
(1.03125 0.00426959 -2.4822e-19)
(0.806082 -0.574014 0)
(0.763283 -0.0435233 1.48141e-19)
(0.620933 -0.600558 -1.77939e-19)
(1.20237 0.703351 0)
(0.965157 0.0232066 -3.38522e-19)
(-0.0368413 0.0547325 0)
(1.02468 -0.0132475 1.17279e-20)
(-0.0758814 0.154956 0)
(2.70683 0.129466 2.51089e-19)
(-0.124632 -0.183488 3.46752e-21)
(1.5279 0.765955 7.98852e-20)
(1.96448 0.128271 1.51805e-19)
(0.506872 0.118701 -3.45979e-19)
(1.87206 0.254353 -2.63853e-19)
(1.11759 -0.182518 1.0796e-20)
(-0.392888 -0.535165 0)
(-0.122171 0.116884 0)
(1.87199 -0.902084 6.73618e-20)
(-0.380946 0.133016 0)
(1.10509 0.271478 1.56319e-19)
(0.607173 -0.311337 2.87497e-19)
(0.92939 -0.794173 0)
(1.20164 -0.805276 1.21722e-19)
(2.30824 -0.0476563 0)
(-0.225981 0.461112 1.68625e-19)
(-0.0254419 0.10307 9.17273e-20)
(0.623033 0.574276 8.19238e-20)
(2.07126 -0.79687 7.03941e-20)
(0.586624 0.254674 -2.78479e-19)
(-0.251819 -0.0307699 3.24175e-20)
(0.77774 -0.664575 0)
(1.65369 -0.979073 1.76352e-20)
(0.59108 -0.551348 0)
(2.24115 0.244627 8.06784e-20)
(1.14982 -0.176165 -3.78869e-19)
(2.04266 -0.119541 1.66177e-19)
(1.34304 0.298814 -1.82431e-19)
(1.33163 0.524956 0)
(0.816281 -0.168681 -1.18245e-20)
(1.34874 0.382114 -1.1144e-19)
(1.26418 -0.748217 -1.72836e-19)
(1.1611 0.653113 5.40136e-20)
(0.676354 0.0563468 -5.64763e-19)
(0.818418 0.0426001 0)
(2.07588 -0.285467 -5.47558e-20)
(-0.282856 -0.492714 -1.06554e-19)
(2.19457 -0.062929 -1.70424e-19)
(0.727389 -0.0541854 -2.49051e-19)
(0.88983 -0.532982 0)
(0.818907 0.167655 -9.19508e-20)
(0.559811 -0.521731 -3.05404e-19)
(2.57351 -0.0869016 0)
(1.00677 0.00836719 3.70041e-19)
(-0.117125 -0.256357 0)
(1.97768 0.36367 0)
(0.664352 0.225017 8.99744e-20)
(0.947763 -0.243576 -1.61321e-20)
(1.02602 0.00505257 4.12211e-20)
(1.31101 0.411708 2.80747e-20)
(0.969955 0.0209511 4.32498e-19)
(1.04237 0.0268168 -1.02459e-20)
(0.662457 0.159858 -3.36521e-19)
(1.3706 -0.201991 8.34436e-22)
(1.05388 -0.218462 0)
(-0.0638401 -0.0379829 7.33009e-20)
(0.87703 -0.638692 -1.71553e-19)
(-0.0748715 0.293762 -1.07942e-21)
(1.12081 -0.0805676 2.56366e-19)
(0.82639 -0.19715 0)
(0.974262 0.0227021 4.12367e-20)
(1.35734 0.638819 0)
(1.63306 -0.971901 0)
(1.29356 0.218506 0)
(-0.308247 0.478376 0)
(0.807663 -0.681773 3.0225e-19)
(0.00910312 0.256487 -2.39419e-19)
(0.538305 0.0666524 1.58732e-19)
(1.55178 0.19402 0)
(1.153 -0.107141 -2.34361e-19)
(1.11872 0.0236649 1.83141e-19)
(-0.0236414 0.363333 1.11072e-19)
(0.624171 0.489259 0)
(2.23197 -0.211604 -1.12662e-19)
(0.978348 -0.492077 8.48691e-20)
(-1.21809 0.526468 2.74157e-19)
(1.72577 0.28961 1.09014e-19)
(-0.173533 0.487427 -2.48496e-19)
(0.825896 -0.751625 0)
(0.553862 0.328844 1.68636e-19)
(1.6328 -0.298752 -4.23793e-19)
(-0.425391 -0.32512 -3.64524e-19)
(1.3029 0.302081 8.66775e-21)
(1.82431 -0.0778227 0)
(-0.0854203 -0.0453207 -2.1967e-19)
(0.712013 -0.0882521 7.88506e-20)
(1.54881 0.87142 0)
(-0.155447 0.447482 -2.46567e-19)
(0.874225 0.749726 -2.75813e-19)
(-0.600518 -0.0612944 3.50229e-19)
(1.02938 -0.0249278 0)
(1.55931 0.371498 -1.09223e-20)
(-0.255606 0.46796 0)
(0.71306 -0.512293 -1.09743e-19)
(-0.559933 0.0507343 -1.91687e-19)
(0.799737 -0.730351 0)
(0.447857 -0.300687 4.17087e-19)
(0.555418 -0.473301 2.84333e-19)
(0.414579 -0.375497 0)
(0.9978 -0.796361 -1.37662e-19)
(0.471387 0.208759 0)
(-0.0762096 0.510308 -1.32202e-19)
(0.826166 -0.712482 1.45826e-19)
(2.46333 -0.306223 2.49721e-19)
(2.25026 0.176332 0)
(-0.0854724 -0.163026 0)
(0.67747 0.629266 -3.43974e-19)
(1.7923 -0.651208 -8.49612e-21)
(-0.171938 -0.229926 0)
(0.999865 -0.822159 -1.47974e-20)
(1.15938 -0.103326 0)
(1.09249 -0.130699 4.06524e-19)
(2.1673 -0.2197 -9.65114e-20)
(-0.340262 0.412953 0)
(1.23857 -0.56869 -5.91947e-20)
(-0.254984 0.264659 -4.04547e-20)
(-0.168152 0.375307 0)
(1.10891 -0.829603 1.19932e-20)
(1.00553 0.00563589 -6.18128e-19)
(0.665742 -0.497367 -1.07478e-20)
(0.832462 -0.532067 0)
(1.21538 -0.746188 -1.02031e-19)
(0.64884 0.220776 2.61006e-19)
(1.21505 0.117707 0)
(1.47985 0.0855319 -2.53997e-19)
(1.21157 -0.871398 -2.29759e-19)
(-0.0762371 -0.144126 -8.31435e-20)
(-0.194295 -0.423598 -1.59877e-19)
(1.06654 0.00463979 2.31039e-19)
(0.932777 -0.478841 -1.06724e-19)
(1.4749 -0.205484 -7.72525e-22)
(1.33421 -0.15757 -2.0094e-20)
(0.666708 -0.0992128 8.80509e-20)
(-0.196502 -0.0711775 -1.94185e-19)
(1.78059 -0.434342 0)
(1.95237 -0.46045 7.08622e-20)
(1.43658 0.643987 1.39912e-19)
(0.825251 -0.630882 -2.20477e-19)
(0.994318 0.00810693 1.26662e-20)
(0.736624 -0.548361 3.01704e-19)
(1.29114 0.789933 1.27856e-19)
(1.81225 0.0976552 1.4411e-20)
(-0.376292 0.338794 0)
(1.081 0.0502876 -2.39153e-19)
(-0.643426 -0.488854 -2.41731e-19)
(1.06328 0.480676 8.01232e-20)
(0.00957252 -0.107105 1.1738e-19)
(1.15714 0.0276423 -4.39237e-20)
(-0.154436 0.139246 -1.50046e-19)
(1.28701 0.576896 -7.8078e-20)
(1.12415 0.874518 0)
(-0.419029 0.327272 -8.72837e-20)
(-0.162498 -0.101042 0)
(0.641527 0.548492 -2.77811e-19)
(2.00163 0.199965 -1.85197e-20)
(-0.421148 -0.490267 1.26982e-19)
(-0.691303 0.0161297 -5.56721e-19)
(0.723487 0.0590738 2.48095e-19)
(1.97766 0.151537 -4.20636e-20)
(0.994771 -0.360021 -3.1133e-20)
(-0.0257478 -0.0404911 0)
(-0.836001 0.455511 4.21849e-19)
(1.31661 0.961128 -2.12344e-20)
(0.836517 0.0608222 -1.36062e-19)
(0.547495 0.51294 1.934e-19)
(0.466778 0.190573 0)
(-0.147839 -0.509048 -1.83047e-19)
(-0.699221 0.66661 2.76274e-19)
(1.30667 -0.970227 5.58172e-22)
(0.98976 -0.0398014 -1.92642e-19)
(-0.189707 -0.135001 7.27155e-21)
(-0.1261 0.163944 1.38949e-19)
(-0.284146 -0.145653 -1.42185e-19)
(1.8916 -0.19062 0)
(1.13207 0.0421888 -3.2108e-19)
(2.21795 0.147966 2.11149e-19)
(1.29023 -0.636335 1.10849e-19)
(0.566387 -0.10706 -1.06902e-21)
(0.582954 0.309588 0)
(0.929782 0.736884 -1.63289e-20)
(0.675094 0.620063 1.8441e-19)
(0.913419 -0.579664 1.54931e-19)
(0.671121 0.484396 0)
(1.02138 -0.000970818 8.26382e-21)
(0.898811 -0.68013 2.20848e-19)
(0.825765 0.40923 -4.56585e-19)
(1.24678 -0.116128 0)
(-0.164957 -0.165171 -2.46815e-19)
(0.00892256 0.246132 -9.13235e-20)
(1.57705 0.714146 0)
(1.36248 -0.954558 -4.77716e-22)
(-0.42975 0.197398 0)
(-0.287776 0.441126 1.05291e-19)
(0.72298 0.639006 -9.79486e-20)
(0.859807 -0.233131 0)
(-0.207982 -0.176743 0)
(1.55675 -0.481519 0)
(-1.19441 0.0924031 5.04944e-19)
(1.22671 -0.899414 1.50255e-19)
(1.1917 -0.619782 6.57327e-20)
(1.06345 -0.179568 -1.73848e-19)
(0.895728 -0.710195 -1.74813e-19)
(0.188601 -0.192924 0)
(-0.834973 -0.299559 0)
(1.01752 -0.526663 1.84273e-19)
(-0.132821 -0.235393 0)
(-0.218488 0.472795 0)
(-0.418349 -0.296249 3.11684e-19)
(0.778336 0.656193 8.4977e-20)
(0.998687 0.781009 0)
(0.682206 0.536913 -8.47644e-20)
(0.833386 -0.0569771 -2.25094e-19)
(0.731436 0.54629 -2.26792e-19)
(0.581784 0.540038 -1.66556e-19)
(-0.245134 -0.501648 2.09565e-21)
(0.730531 -0.656324 0)
(0.893378 0.163191 -3.22956e-19)
(-0.340246 -0.559481 4.88944e-20)
(0.595308 0.551188 3.75514e-19)
(0.942918 0.78407 0)
(-1.23134 0.21227 3.64205e-19)
(-0.0977545 -0.42078 2.49282e-19)
(-0.00714725 -0.333925 -1.28427e-19)
(0.650462 0.554379 -1.47262e-20)
(0.968982 -0.00849865 5.98246e-20)
(-0.407032 -0.517235 0)
(2.45029 -0.0897807 -2.98059e-19)
(1.88407 -0.441491 -2.92134e-19)
(0.663155 -0.614676 -7.81592e-20)
(-0.474497 -0.0222539 1.10338e-20)
(1.18276 0.452315 1.80794e-19)
(0.875909 0.399798 0)
(1.05884 -0.178287 1.99337e-19)
(0.0831693 -0.486602 -7.32794e-21)
(-0.0761199 0.0902299 3.48046e-19)
(0.925703 0.0186612 -5.36161e-20)
(1.11421 0.142607 0)
(2.01401 -0.0723432 -2.43008e-19)
(1.86544 0.111015 0)
(0.537383 0.234872 -4.57436e-19)
(-0.135749 0.193256 0)
(-0.260212 -0.448458 2.08819e-19)
(0.695924 0.109051 0)
(0.635778 -0.531377 -1.85006e-19)
(1.13684 0.0165594 2.12581e-19)
(-0.341769 0.425319 3.86901e-20)
(2.14904 -0.0753168 4.48273e-21)
(2.11609 -0.312083 -1.04939e-19)
(1.108 0.222764 -2.18671e-19)
(-0.356561 -0.564556 -9.67543e-20)
(1.08989 -0.866097 0)
(0.812077 0.0181231 -1.54656e-19)
(0.940692 -0.390719 -2.95886e-19)
(1.74284 -0.599837 -1.53453e-21)
(1.78494 0.0245829 1.94304e-19)
(1.08033 -0.00681353 3.84659e-19)
(0.073927 -0.458269 -1.29835e-19)
(1.00991 -0.452336 -1.30864e-19)
(0.198958 -0.191592 2.60542e-19)
(1.00802 -0.00812516 0)
(1.00495 -0.00585932 0)
(0.908392 -0.285769 1.45885e-19)
(-0.0167102 0.483593 -8.97382e-20)
(0.16207 -0.122085 -1.08739e-19)
(2.06575 -0.0040526 -4.48119e-22)
(1.07428 -0.00766829 0)
(1.78881 0.149719 -1.29493e-19)
(0.952369 -0.830886 -9.11664e-20)
(1.79731 -0.588653 -5.31727e-20)
(1.09079 0.823804 0)
(0.48174 -0.464357 0)
(0.591875 0.502428 -1.76381e-19)
(1.08767 0.27209 -4.02241e-19)
(2.31171 -0.30209 3.20106e-22)
(0.853296 0.147719 1.38764e-19)
(-0.0191155 -0.459294 -3.9065e-19)
(1.19144 -0.477819 1.20229e-21)
(-0.275939 -0.40187 0)
(-0.0972541 -0.176159 0)
(-0.474931 -0.429885 0)
(1.3543 -0.741062 -1.01587e-19)
(-0.167423 0.379823 -2.01072e-19)
(-0.0629972 0.134232 0)
(1.27621 0.963037 -3.43227e-20)
(1.10794 0.145335 -4.20202e-19)
(2.13766 0.552635 -4.85331e-20)
(1.06743 0.910917 8.37365e-20)
(-0.148993 0.477234 1.27399e-19)
(0.832701 -0.182204 0)
(-0.476694 -0.372275 -2.67695e-19)
(-0.215687 0.479215 2.41056e-19)
(0.774662 0.0179697 1.83903e-19)
(1.52039 0.933438 -5.26863e-21)
(1.83031 0.589854 9.4402e-21)
(-0.0983165 0.271068 -1.94296e-21)
(0.755988 -0.690784 -3.88755e-20)
(1.10835 -0.0174021 0)
(1.68889 -0.0807394 0)
(1.0439 0.0555334 0)
(-1.27876 0.539801 -2.57854e-19)
(-0.442257 -0.435826 9.69924e-20)
(1.03188 0.83025 0)
(0.99968 -0.00710387 5.1729e-19)
(0.753125 0.588324 -2.27232e-19)
(-1.55742 0.551609 -2.52317e-19)
(0.859359 0.00520862 -4.13618e-20)
(0.726665 -0.663606 -2.26912e-19)
(1.37362 0.697933 -3.2193e-20)
(0.577172 -0.469297 -2.94555e-19)
(1.13197 -0.00104812 -4.6383e-19)
(0.813054 0.0446219 4.5896e-20)
(1.55833 -0.190311 7.78678e-20)
(1.55433 -0.152643 -6.44302e-20)
(-0.0476101 -0.0690179 3.20335e-23)
(1.07099 0.456822 -2.6686e-19)
(1.3297 0.606891 7.16101e-20)
(-0.0794949 -0.372676 0)
(-0.0632739 -0.404705 1.44936e-19)
(-0.237117 -0.223158 1.03944e-19)
(-0.187391 -0.0820258 -1.01601e-19)
(0.464624 0.293778 0)
(1.28349 -0.477276 0)
(-0.00464632 0.00658627 -1.26988e-19)
(-0.291697 -0.592121 -5.52643e-20)
(1.04776 -0.0298852 1.83814e-19)
(-0.342116 0.342081 -4.05014e-20)
(1.27384 0.238263 -4.3019e-19)
(-0.0287525 0.488071 0)
(0.845598 -0.750747 -3.15951e-19)
(1.2087 -0.168797 7.72529e-20)
(-0.383392 -0.447555 1.44227e-19)
(0.713874 0.145421 3.27886e-19)
(0.618749 0.1193 1.06011e-19)
(0.510891 -0.484578 2.0577e-19)
(-0.193589 -0.287951 -1.11476e-19)
(1.46404 0.534587 0)
(0.381485 0.325901 -1.93768e-19)
(1.02664 -0.0152728 -2.92672e-19)
(-0.73988 -0.0252631 2.17727e-19)
(1.40747 0.475755 -1.19702e-19)
(-0.157062 -0.30032 -4.16546e-20)
(0.689895 -0.630855 -6.74721e-20)
(0.806361 0.173288 -2.05891e-19)
(0.968482 0.413399 2.27874e-20)
(1.15921 -0.147062 3.57962e-20)
(0.615342 -0.248561 -3.01734e-19)
(2.02995 -0.400943 -1.07813e-19)
(1.83794 -0.0927567 0)
(1.65123 0.438158 -3.17657e-20)
(2.02372 0.0644648 -1.57491e-20)
(0.804353 -0.310549 1.13911e-19)
(0.979384 0.338834 -1.73655e-19)
(1.01034 -0.299724 2.25798e-20)
(0.408833 0.375094 -2.51154e-19)
(-0.165083 0.109708 2.11059e-19)
(1.90714 -0.266096 0)
(0.931488 0.00381418 0)
(0.883536 -0.782776 6.26931e-20)
(-0.0955512 -0.49311 -2.7265e-19)
(-0.822324 -0.220382 -2.1132e-19)
(-0.0684972 -0.108229 -1.78128e-19)
(-0.277043 0.41086 -1.5199e-19)
(-0.324286 -0.387542 0)
(-0.0793052 -0.132048 3.11837e-20)
(0.147194 0.373429 -8.50855e-20)
(-0.142722 0.183833 -3.17065e-19)
(0.8089 -0.125929 0)
(1.6797 -0.532074 1.22978e-19)
(-0.223207 -0.246405 0)
(0.995946 0.0232003 3.72551e-19)
(-0.151044 -0.451699 1.78836e-20)
(0.552697 -0.441033 3.94833e-19)
(-0.753134 -0.475067 4.00139e-19)
(-1.39668 0.171187 0)
(0.205376 0.426725 9.68628e-20)
(1.00745 0.0227692 -1.12198e-20)
(-0.16576 -0.144279 0)
(1.00493 -0.0100105 -5.78555e-20)
(0.87549 -0.740479 -2.9878e-19)
(1.36901 -0.280119 0)
(0.944987 -0.283515 2.11659e-19)
(0.0879066 0.412893 2.05779e-19)
(-0.0163548 -0.0123305 0)
(-0.199237 -0.455487 -5.3018e-21)
(0.740093 -0.647368 -4.33522e-19)
(0.961563 -0.0287317 -2.72218e-19)
(-0.0963831 -0.533965 3.43957e-19)
(-0.208208 -0.421963 1.2741e-19)
(-0.310658 -0.40549 0)
(0.949403 0.463007 0)
(-0.364072 -0.52789 1.80963e-19)
(1.86308 -0.0780491 -2.41475e-19)
(1.06139 0.884093 1.86615e-20)
(1.06421 0.208176 -1.23656e-19)
(1.15161 0.00824032 -2.28813e-19)
(1.06803 -0.0702192 -8.29115e-20)
(-0.0905851 -0.553181 -3.18857e-19)
(1.96348 0.114796 4.13253e-19)
(0.669642 0.0303293 2.07508e-19)
(2.11489 -0.111737 1.54483e-19)
(1.06516 -0.161568 0)
(-0.0149236 0.505446 5.6134e-19)
(1.13829 0.0252573 -5.04802e-19)
(1.73485 0.611225 1.06898e-20)
(0.754678 -0.470754 -1.63124e-19)
(-0.0711839 -0.0402917 1.64238e-19)
(0.809951 -0.711921 3.91384e-19)
(1.23303 0.193052 7.40117e-20)
(1.00723 -0.00818123 2.56177e-19)
(0.0433067 -0.483907 -1.43894e-19)
(1.02218 0.0134802 0)
(1.7494 0.148999 -2.37673e-19)
(-0.0313256 -0.0211202 0)
(1.01629 0.0119801 -1.51637e-19)
(-1.43553 0.324182 -5.8668e-19)
(1.66726 0.298347 3.54686e-20)
(-0.365722 -0.241048 1.35016e-19)
(1.59465 -0.0048931 -3.84016e-21)
(1.01239 -0.0190763 5.30409e-20)
(1.35128 -0.0941348 0)
(1.46022 -0.627045 -1.59213e-19)
(1.02076 0.0293938 -1.56498e-19)
(1.42993 0.779119 -5.79173e-20)
(1.41591 -0.061575 0)
(0.775649 0.0717804 -1.46799e-20)
(-0.00805717 0.00753045 0)
(1.37343 0.0464063 0)
(-0.427637 -0.483631 0)
(1.23016 0.43303 0)
(1.84038 0.270748 4.36457e-20)
(0.727294 0.601165 3.98305e-19)
(0.295401 -0.297084 -2.43566e-19)
(-0.2658 -0.565777 -3.07767e-19)
(-0.0291126 -0.0425441 0)
(2.06535 -0.336086 1.2072e-19)
(1.3557 0.508883 0)
(1.44048 0.293511 0)
(-0.507422 -0.345186 1.18408e-19)
(0.797355 0.703166 1.28273e-19)
(1.71853 -0.0365078 0)
(-0.341148 -0.443246 7.15066e-20)
(0.902587 0.210273 1.89518e-19)
(2.1098 -0.345773 -5.90007e-20)
(1.22783 0.915149 4.53914e-20)
(0.928444 -0.836629 -4.07355e-20)
(1.60039 -0.142187 -1.69869e-20)
(0.784358 0.70794 1.31769e-19)
(1.16616 0.914791 0)
(2.50527 -0.16942 1.89218e-19)
(0.946136 0.626988 0)
(1.52353 -0.592332 4.40891e-20)
(1.01921 0.0926345 1.82302e-19)
(1.00646 -0.00526624 0)
(0.219753 0.541613 5.03945e-19)
(0.895832 -0.18448 4.85837e-20)
(0.643139 -0.425599 0)
(0.680972 -0.397808 2.13683e-19)
(1.2302 0.549209 -3.35235e-20)
(0.467494 0.440118 2.76055e-19)
(-0.168966 0.244433 3.75505e-20)
(0.0783039 -0.0752744 8.99091e-20)
(0.757711 0.0664238 0)
(1.33502 -0.915161 -9.47193e-20)
(1.03045 -0.0425986 4.07926e-19)
(1.50641 0.325173 1.37575e-19)
(-0.371266 -0.465347 6.18633e-20)
(-0.827098 -0.560381 0)
(1.23913 -0.248959 -1.1797e-19)
(-0.0141918 -0.013418 -1.43179e-19)
(0.168785 -0.157054 -6.41357e-20)
(-0.134006 0.0518965 -8.29451e-22)
(-0.203513 0.0982738 2.88291e-19)
(1.44286 -0.333261 -1.0862e-20)
(2.46246 -0.102505 3.99061e-19)
(1.1848 0.453264 -2.91545e-19)
(0.85091 -0.0526282 0)
(1.86815 -0.130572 2.10925e-19)
(1.92012 0.100068 1.06037e-19)
(0.925235 -0.778644 1.47572e-19)
(1.16218 -0.983042 -5.08922e-20)
(0.472183 0.437627 1.85215e-19)
(1.39516 0.371837 0)
(1.74757 0.563596 2.6847e-20)
(-0.0211292 -0.0266628 -2.9214e-19)
(0.873316 0.760802 0)
(1.36819 0.440258 0)
(0.296641 -0.296609 -3.66222e-21)
(0.315354 0.287645 0)
(-0.904375 -0.463411 -3.84824e-19)
(-0.230113 0.370361 -1.10364e-19)
(1.72289 -0.449644 0)
(1.23386 0.104819 1.83697e-19)
(-0.53406 -0.156689 1.75779e-19)
(0.542488 -0.515257 -4.73358e-19)
(2.07166 -0.0971053 -5.05275e-20)
(0.6209 -0.564397 0)
(1.02715 0.123578 0)
(1.32727 -0.26417 0)
(1.11279 0.221838 -2.33733e-19)
(1.34138 0.106246 3.31592e-19)
(-1.13221 -0.00868066 0)
(0.89486 -0.0626934 0)
(2.12477 -0.119043 -7.44649e-21)
(-0.0705329 0.136693 9.61439e-20)
(2.5262 0.039794 -2.7559e-19)
(1.04625 -0.514737 1.45374e-19)
(2.00633 0.0514293 -3.01748e-19)
(-0.785929 -0.17309 -1.48749e-19)
(1.93155 0.113752 -1.79415e-19)
(1.01713 -0.0253461 4.20698e-19)
(1.50941 0.594873 0)
(-0.243352 0.453392 2.9706e-20)
(1.01664 -0.84166 1.85242e-19)
(0.85959 -0.0283382 4.83469e-20)
(0.647416 -0.44841 0)
(1.91224 -0.566255 1.6391e-21)
(1.22055 -0.193909 1.55799e-19)
(1.79211 -0.514166 0)
(0.615494 -0.571826 4.63718e-19)
(0.717921 0.103831 -2.01632e-20)
(2.3364 0.0430391 4.36858e-19)
(-0.0923883 0.213105 -1.98345e-19)
(1.32535 0.611968 1.49795e-19)
(1.14018 0.396042 3.66915e-21)
(0.898716 0.362702 2.24436e-19)
(1.97578 -0.0281805 -2.74813e-19)
(-0.111808 -0.559952 -5.11509e-21)
(0.741607 -0.255257 0)
(-0.156357 -0.0963187 2.70312e-19)
(1.09364 -0.954214 0)
(1.07757 -0.667228 2.26519e-20)
(1.21875 -0.215025 -7.08639e-19)
(1.38442 0.0505794 -2.56598e-20)
(-0.573836 -0.314266 -3.37671e-19)
(0.981159 0.473108 1.74818e-19)
(-0.228108 0.767598 2.85131e-19)
(0.690804 -0.0381993 0)
(2.00818 -0.045378 0)
(1.67675 0.160792 2.47439e-20)
(0.783265 -0.0130817 0)
(1.38106 -0.214626 -1.60315e-19)
(-1.12696 -0.363681 4.72853e-19)
(1.91167 0.489806 8.20998e-21)
(1.0408 -0.0334957 0)
(0.563459 -0.367271 1.0581e-19)
(1.00981 0.0269972 1.99852e-19)
(0.192548 0.553919 -2.46673e-19)
(-0.282094 0.277252 0)
(1.12441 -0.49167 5.07639e-19)
(1.84547 -0.136675 -5.25218e-22)
(1.11295 -0.50968 -2.20874e-19)
(2.28685 0.248412 1.48333e-19)
(1.27811 0.781856 0)
(0.862698 0.0179666 0)
(-0.42744 -0.455685 -1.56766e-19)
(-0.00581533 0.00586086 1.42877e-19)
(0.941916 0.35711 -2.07437e-19)
(0.208192 -0.405637 -1.28146e-19)
(0.636202 0.393355 2.41536e-19)
(0.987691 0.0863033 0)
(0.545001 -0.506914 0)
(0.670573 -0.292974 5.57622e-21)
(1.24479 -0.521524 -1.04231e-19)
(0.596664 -0.0424599 9.91858e-21)
(0.737694 -0.168577 1.19009e-19)
(-0.0580506 0.0796349 -2.54964e-19)
(1.03623 0.0879374 2.01807e-19)
(0.653088 0.60821 0)
(1.26224 0.687187 0)
(1.6017 0.25953 0)
(-0.410281 -0.374621 -1.44457e-19)
(1.26607 0.554371 1.96812e-19)
(2.09556 0.0508958 4.92744e-20)
(0.923304 -0.00955161 0)
(1.92478 -0.509104 0)
(2.14448 -0.0778884 -3.13978e-19)
(0.543968 0.552479 2.85384e-19)
(1.00589 0.00422741 -1.99677e-19)
(1.47628 0.46419 0)
(-0.209848 0.36797 0)
(1.23763 0.311948 2.88043e-19)
(1.01684 0.51856 -1.2988e-19)
(1.06964 0.0222835 0)
(1.73169 0.131577 0)
(1.98455 0.656255 -2.85429e-19)
(-0.0804575 0.361997 -1.16734e-21)
(0.997204 0.0134682 0)
(0.696321 0.458349 -3.32527e-20)
(0.944303 -0.833853 0)
(1.00315 0.0165686 4.64435e-20)
(0.557096 -0.477466 6.00887e-22)
(0.91379 -0.334047 3.12066e-19)
(0.77098 -0.496998 -6.37868e-20)
(2.25049 -0.172091 3.05006e-19)
(1.41061 0.139275 9.9831e-20)
(0.793925 -0.0283538 0)
(1.01722 0.00895855 0)
(-0.602134 -0.536969 0)
(0.658742 0.63031 -1.88566e-19)
(-0.0348159 0.0463354 1.71977e-19)
(1.1608 0.338407 -4.61848e-19)
(-0.446138 0.304657 0)
(0.815545 0.62841 1.67559e-19)
(1.01835 -0.345069 0)
(1.00511 -0.0020048 1.16821e-19)
(0.572405 0.0149436 7.87579e-20)
(1.0262 0.395195 2.56752e-19)
(1.23919 0.162842 0)
(2.10894 0.162022 -7.1954e-20)
(0.830755 -0.123213 -3.66562e-19)
(-1.0211 -0.500284 -5.6317e-19)
(1.20006 0.287549 0)
(0.871056 0.230428 1.75092e-19)
(2.03903 -0.234047 0)
(0.763426 0.507252 3.61383e-19)
(-1.16975 -0.421947 2.16109e-19)
(-0.0422037 0.0807262 0)
(0.583343 0.554259 -7.04921e-20)
(1.04046 -0.654851 -1.58587e-19)
(0.488341 -0.266866 -1.22053e-19)
(1.01986 -0.017807 0)
(-0.287228 0.0296508 -1.79278e-19)
(0.649488 -0.580414 8.2604e-20)
(0.900801 0.278942 0)
(1.69995 -0.435821 1.53309e-19)
(0.971624 0.826545 2.43332e-20)
(0.932349 -0.559081 -3.68034e-21)
(0.198652 -0.246201 -1.96139e-19)
(0.236799 -0.0665841 -5.50504e-19)
(-0.115044 -0.229237 7.70353e-21)
(0.806907 0.345399 2.46178e-19)
(-0.183891 0.408557 -4.97684e-21)
(1.42625 -0.665203 3.48033e-21)
(1.0237 0.0073847 -3.47545e-19)
(-0.475425 -0.365397 0)
(1.03142 0.0303954 -4.07958e-19)
(2.25503 0.160887 2.28484e-19)
(0.873663 0.675682 2.81305e-19)
(1.13601 -0.0726806 1.62988e-19)
(1.00474 -0.0331892 1.6083e-19)
(1.40799 0.0646605 2.31381e-20)
(-0.317322 -0.359222 -1.46368e-22)
(1.72744 -0.887822 1.47366e-20)
(1.15507 -0.132991 -8.10185e-20)
(0.806429 0.0548887 9.31809e-20)
(0.919057 -0.304574 9.10006e-20)
(1.0497 0.237123 0)
(0.948231 0.720545 0)
(0.801303 0.109474 -9.38708e-20)
(2.06762 0.17807 -2.19025e-20)
(-0.919448 -0.44019 1.76905e-19)
(1.0417 -0.551288 -5.32057e-19)
(0.628638 -0.546848 3.94586e-19)
(1.18837 0.183512 -1.15558e-19)
(0.273222 -0.445453 1.46701e-20)
(1.48955 -0.590945 0)
(0.749441 0.102067 -6.74642e-21)
(1.58508 -0.560306 -7.63398e-20)
(1.0264 0.748082 0)
(1.25526 -0.636399 0)
(0.146538 0.0931111 0)
(-0.19306 -0.32551 -5.05525e-20)
(-0.0770307 0.152106 0)
(1.76737 0.593106 3.63329e-19)
(1.21967 0.179702 6.39349e-21)
(-1.04813 0.246676 2.4028e-19)
(1.94628 0.661553 1.28569e-20)
(1.81344 0.445771 -6.13418e-20)
(2.17117 -0.361861 -3.11225e-20)
(-0.175078 0.0187376 -2.02348e-19)
(-0.207401 -0.439776 3.95245e-21)
(1.07717 0.116135 0)
(0.675439 -0.0343878 0)
(1.00202 -0.000673083 1.66046e-22)
(-0.438018 -0.368512 0)
(1.58357 -0.00192441 -8.08814e-20)
(0.678327 -0.0304279 0)
(1.0648 0.00684372 1.30646e-19)
(0.991897 0.0146242 -4.54419e-20)
(0.954835 0.258173 1.19766e-19)
(1.06381 -0.0173274 -9.32751e-22)
(0.95623 -0.200372 -5.4887e-20)
(1.02423 -0.0350968 3.73982e-19)
(0.683179 -0.621773 1.87244e-19)
(-0.957951 0.385103 -2.72813e-19)
(1.14847 0.41274 1.42313e-20)
(-0.00773372 0.0121413 0)
(1.11331 0.78235 0)
(1.02932 -0.00993755 0)
(1.01635 -0.788156 -1.10934e-19)
(1.0446 -0.897472 5.4806e-20)
(0.980092 0.245216 -1.78687e-20)
(0.177091 0.258208 -1.10098e-18)
(1.22253 -0.543814 2.04261e-20)
(0.596304 -0.39935 -6.34929e-19)
(1.33652 0.419943 -3.88573e-20)
(0.765802 -0.253267 -1.13427e-19)
(2.08677 -0.368268 8.23463e-20)
(0.462332 0.0758512 -1.55642e-20)
(-0.315346 -0.454844 -1.06738e-19)
(1.10698 0.543254 1.97329e-19)
(-0.0876499 -0.342514 0)
(0.110746 -0.437081 3.25993e-19)
(-0.0912341 -0.119793 1.33001e-22)
(1.02628 -0.0436759 3.34431e-19)
(1.02364 -0.00129062 -8.62136e-21)
(1.11077 -0.0123827 -9.24799e-20)
(1.47974 0.0936653 1.86708e-20)
(1.61102 0.315389 5.92626e-20)
(0.406576 -0.382057 -3.16514e-19)
(0.797476 0.189026 3.15796e-20)
(1.03621 -0.000392488 -2.46552e-19)
(1.16229 0.303453 -1.46506e-20)
(1.471 0.168674 0)
(1.10154 0.582278 -3.70039e-19)
(1.00292 -0.00502369 9.53218e-20)
(0.664086 0.591924 2.57999e-19)
(1.34382 -0.498829 -1.26039e-21)
(1.06835 -0.0100776 -3.03435e-20)
(1.12976 0.0112575 8.6161e-22)
(2.42425 0.100046 1.62121e-20)
(0.442691 0.128639 0)
(1.04506 -0.0394297 0)
(1.05145 -0.0348686 5.8601e-19)
(1.00261 -0.00247167 0)
(-0.0532051 -0.0769739 0)
(0.938025 -0.577263 0)
(1.00084 0.000135328 -5.54431e-19)
(1.16931 -0.696362 9.01411e-20)
(1.02271 -0.00462672 1.16597e-20)
(1.33094 0.944141 -2.72796e-20)
(1.51522 0.992955 5.77956e-21)
(1.11878 -0.376516 -3.18224e-20)
(1.61016 0.136144 2.58356e-19)
(1.49852 0.26709 0)
(0.0246217 0.41146 0)
(2.1904 -0.14287 5.21929e-19)
(1.19229 -0.65409 0)
(1.00027 -0.00406709 -1.71579e-19)
(1.01041 -0.000545901 3.3344e-19)
(1.44026 0.141898 -6.94041e-20)
(-0.0078226 -0.123086 2.10638e-19)
(0.970634 -0.00205865 1.81253e-19)
(0.128129 0.0212379 1.82269e-20)
(0.281641 -0.0991018 3.15281e-22)
(1.58672 0.133848 8.82261e-23)
(0.926632 0.0163945 -1.83029e-19)
(1.00257 0.00394661 2.15605e-19)
(0.99994 0.000335867 1.2725e-20)
(0.790799 -0.0126657 0)
(0.729185 -0.0262648 0)
(0.724722 -0.0263948 7.61435e-22)
(0.69996 -0.0283257 0)
(1.2879 -0.16747 0)
(0.58032 -0.143829 0)
(-0.0346297 -0.0980338 3.32992e-20)
(0.156634 -0.0317048 -1.55995e-20)
(1.25519 -0.0514584 0)
(1.32498 -0.0775608 1.13441e-20)
(1.57712 0.0911264 0)
(-0.00351825 0.0897963 0)
(-0.0164319 -0.00431318 0)
(0.185267 0.0493049 -2.86073e-21)
(0.747451 0.145051 3.48954e-20)
(0.785802 0.0231117 0)
(0.792158 0.0201203 0)
(0.964372 0.0200123 -2.25514e-19)
(0.817116 0.00867586 4.20475e-19)
(1.00717 -0.00128726 0)
(1.00002 -0.000773573 3.98178e-19)
(1.00002 -0.000990458 -3.24258e-22)
(0.792497 0.0229308 3.5808e-19)
(0.991486 -0.00770645 -2.08127e-19)
(0.0778452 0.0725663 0)
(0.158007 -0.0337075 -3.15488e-22)
(1.00074 -0.000356482 -2.01186e-19)
(1.00063 0.00201214 -3.45372e-19)
(1.31039 0.0695288 0)
(0.999006 0.00182327 0)
(0.999594 -2.65086e-06 0)
(1.59615 -0.600609 -2.15671e-22)
(0.662949 -0.187546 3.44947e-20)
(0.921368 0.298268 0)
(-0.311856 0.341651 1.89373e-19)
(-0.510805 0.52508 -4.91385e-19)
(1.02001 -0.0187281 -2.68202e-19)
(-0.362177 -0.531224 -1.00027e-19)
(1.01975 0.00174821 -2.16051e-19)
(1.18171 -0.219724 -1.08653e-19)
(0.810829 -0.485772 3.08067e-19)
(-0.0526535 -0.0800636 -7.17787e-20)
(1.02889 0.013197 0)
(1.05279 -0.010749 -5.83397e-20)
(0.857724 0.0233652 0)
(-0.0514854 0.0528808 2.52084e-19)
(1.04273 -0.509687 0)
(-0.471932 -0.392136 -2.54199e-19)
(0.23215 0.0715378 -1.37884e-20)
(1.64681 0.672932 -9.95263e-21)
(-0.0624243 -0.0164602 0)
(1.05471 -0.0372831 1.8119e-19)
(1.1348 -0.370241 4.25457e-21)
(0.926748 -0.0177785 2.83957e-19)
(1.01278 -0.00824883 -1.82628e-19)
(1.66467 0.849475 3.47334e-20)
(0.513987 0.481278 0)
(0.435718 0.38624 2.02547e-19)
(1.82607 -0.529729 -1.04108e-21)
(1.15112 0.125965 1.94177e-19)
(1.10005 -0.725501 0)
(1.02072 0.00412485 0)
(0.998959 -0.018337 -4.20658e-19)
(1.01853 0.0154211 -4.10411e-19)
(-0.162141 -0.359903 0)
(1.21021 0.810192 -1.30522e-19)
(1.50604 -0.497053 1.34204e-21)
(1.01597 0.00389855 1.57887e-19)
(1.01109 0.0144697 -1.98113e-19)
(-0.543132 -0.336275 -2.5183e-20)
(1.14067 -0.227605 -1.04845e-19)
(1.01895 -0.016182 6.73289e-19)
(1.27914 -0.362429 0)
(1.84793 0.636643 -4.25808e-20)
(1.0158 -0.0125954 -2.09806e-19)
(2.08269 0.085122 -1.40522e-19)
(1.06133 0.00623798 -4.83226e-22)
(1.00932 -0.00913087 4.19503e-20)
(2.11037 -0.301799 -2.62902e-19)
(1.01486 0.00731415 2.03651e-19)
(0.935784 0.255141 1.02065e-21)
(1.01837 0.00321064 0)
(0.930274 0.143639 4.96586e-20)
(-1.04875 -0.0471854 6.68532e-21)
(0.997132 0.0212983 2.02356e-19)
(1.03926 0.0205141 -5.944e-22)
(1.30545 -0.380499 -9.75269e-21)
(1.24721 0.309888 4.12557e-19)
(0.998965 0.0147022 1.39179e-19)
(1.01735 -0.0145706 4.56573e-22)
(1.71449 0.252175 -2.34634e-20)
(1.77448 0.932402 -1.01609e-19)
(0.783244 -0.703808 6.11568e-20)
(0.459963 -0.341749 -3.06344e-19)
(1.00807 -0.0111294 0)
(1.02022 0.00183025 5.05907e-20)
(1.01004 -0.00915475 1.06602e-19)
(0.944774 0.00420506 6.70016e-21)
(1.01254 0.00559766 -2.12051e-19)
(1.02827 -0.0238757 2.43091e-19)
(1.00891 -0.00638034 -1.99261e-19)
(1.01383 0.00679548 -4.93385e-22)
(1.01228 0.00339544 -3.75093e-22)
(1.02447 0.0127933 2.0304e-19)
(0.897805 0.0786226 5.11358e-19)
(1.74919 0.680757 0)
(0.668549 -0.33773 3.06845e-19)
(1.01037 -0.00321391 0)
(1.02111 -0.0188952 -5.88047e-20)
(1.52774 0.44162 -8.22035e-20)
(2.00365 -0.0417436 0)
(2.33883 -0.253827 -1.26097e-19)
(1.22348 0.4977 -5.92307e-20)
(0.750554 -0.0146459 0)
(1.92908 -0.191974 0)
(0.0892033 0.358634 -2.15912e-19)
(1.28896 -0.057644 -2.52973e-20)
(1.01807 -0.00506527 -2.13585e-19)
(1.13005 -0.576652 -6.28202e-20)
(1.27607 -0.241743 -3.37837e-20)
(1.30455 0.462353 0)
(1.45321 -0.570692 0)
(1.91936 0.493123 0)
(0.101323 0.331654 8.03733e-20)
(0.995461 0.136451 1.11368e-19)
(-0.444414 0.301844 0)
(-0.0211705 0.291987 -2.47274e-19)
(1.68913 0.956483 -5.10339e-20)
(1.00919 -0.00392379 -4.17485e-19)
(0.989371 -0.0228324 2.9301e-20)
(1.02185 0.00588677 2.76453e-19)
(0.684693 -0.0397324 0)
(-0.142065 -0.318852 -2.17568e-20)
(0.602659 0.418149 -3.40506e-19)
(1.79702 0.586956 1.03369e-19)
(0.11117 0.402833 0)
(0.794866 0.0692149 8.12927e-20)
(0.512812 0.489426 5.15938e-20)
(1.17438 0.87392 -3.53702e-20)
(-0.0381375 -0.0251606 1.04892e-19)
(1.01859 0.0105474 0)
(1.15075 0.280077 5.86912e-20)
(1.0114 -0.00101178 1.56692e-19)
(2.33073 0.162903 0)
(1.0114 0.00788872 2.62845e-19)
(0.205164 -0.471134 -1.54548e-19)
(1.02052 0.00884677 -1.62691e-19)
(1.28081 0.272717 0)
(2.17467 -0.22753 5.68049e-22)
(1.00899 0.00370806 -1.09164e-19)
(0.994611 -0.0328668 2.88059e-19)
(1.09199 0.0959319 -2.94205e-21)
(1.05327 0.43467 -4.04187e-20)
(-0.145247 -0.0721098 2.733e-19)
(1.96993 0.266814 1.56454e-19)
(0.437178 0.149643 4.58801e-20)
(0.803239 0.0151393 -3.94416e-19)
(0.800736 0.0247415 0)
(0.439152 -0.0308139 5.96763e-20)
(1.02136 -0.0167263 -3.15995e-20)
(0.97405 0.0216838 0)
(1.05078 -0.00195288 -2.00383e-19)
(-0.0375864 -0.375811 -2.57415e-20)
(-1.18529 -0.306575 2.64539e-19)
(2.15805 -0.622195 0)
(-1.22211 0.0524308 -6.57669e-19)
(1.52976 -0.357054 0)
(1.03979 -0.017878 5.88227e-20)
(1.14032 0.0742731 9.56568e-22)
(1.01346 -0.00218256 1.69585e-19)
(-0.903966 -0.276769 3.7794e-19)
(1.01781 0.0023806 0)
(0.99293 0.00389657 -4.07438e-19)
(1.00801 0.00757567 2.15561e-19)
(0.772109 0.0211967 0)
(0.725529 -0.00935853 -6.97663e-21)
(0.957252 -0.00126527 -1.84344e-19)