/*--------------------------------*- C++ -*----------------------------------*\
| =========                 |                                                 |
| \\      /  F ield         | OpenFOAM: The Open Source CFD Toolbox           |
|  \\    /   O peration     | Version:  2306                                  |
|   \\  /    A nd           | Website:  www.openfoam.com                      |
|    \\/     M anipulation  |                                                 |
\*---------------------------------------------------------------------------*/
FoamFile
{
    version     2.0;
    format      ascii;
    arch        "LSB;label=32;scalar=64";
    class       volScalarField;
    location    "34";
    object      p;
}
// * * * * * * * * * * * * * * * * * * * * * * * * * * * * * * * * * * * * * //

dimensions      [0 2 -2 0 0 0 0];

internalField   nonuniform List<scalar> 
2186
(
0.84334
-0.334854
-0.0172843
1.13712
-0.774283
-0.0145937
0.728067
-1.01677
-0.975647
1.39197
1.14691
-0.948061
-1.02275
1.09881
-0.568427
1.1072
1.12868
-0.817222
0.224669
-0.766774
1.50416
-0.766772
1.10838
-1.02954
1.1002
1.11178
1.32172
0.95984
0.684535
1.09946
-0.748355
1.10026
-0.709477
-1.11223
-0.962111
0.204625
-0.975766
1.49536
-0.48568
-0.0950884
-1.02223
-0.731423
-0.686028
-0.894803
0.992317
1.37633
0.385261
0.564372
-0.79088
-0.753321
-0.752043
0.991826
-0.68172
1.43169
-0.797367
1.0115
-0.739456
1.03937
-0.505852
0.882813
-0.778824
0.7271
0.645398
-0.118383
0.665354
0.504735
0.760199
1.39117
1.28653
-1.00217
-1.0168
-0.813985
1.35588
1.06776
1.27791
1.22449
-0.786554
1.12356
-0.970372
-0.618318
-0.65538
-0.240827
1.09504
0.712756
1.08757
1.09578
1.40122
0.281591
-0.43332
-0.979788
1.01484
-0.75146
1.00703
1.25114
1.10908
0.510917
-0.146341
0.677504
-0.766103
1.05432
-0.663494
-0.676405
0.73128
1.03288
1.1307
-0.733091
1.32461
-0.714992
1.00147
-2.03226
-0.622286
-0.752175
0.588743
1.43247
-0.957788
-1.00909
-0.533993
-0.813534
-0.980356
1.3565
0.067779
-0.745132
0.951336
-0.873484
1.1118
-0.465525
-0.760968
1.21709
-0.8492
0.707988
1.46441
1.3109
0.272597
0.699844
-0.663189
-0.738247
0.981758
-1.00685
-0.386105
-0.990028
0.894717
-0.19392
-1.00983
0.754026
0.995586
1.03808
-0.663401
-0.783174
0.66496
-0.831057
-0.757946
0.628776
1.12652
1.25656
1.11425
0.575181
1.40011
0.536811
0.446685
0.464857
-0.989953
-1.14816
1.08221
1.05808
0.137147
-0.144042
-0.879003
-0.941529
-0.924887
-0.859125
0.451997
1.06086
1.12953
1.18101
0.518411
-0.136359
-0.792365
1.08256
-1.2721
0.955093
-0.93741
1.1146
-0.762228
0.637231
0.622765
-0.805518
-1.02895
1.24343
-0.340679
-1.02362
-0.914062
1.36022
-0.621105
1.05204
-0.986283
-2.14475
0.174322
1.27943
1.17681
-0.763309
-1.02694
-1.51725
0.108945
1.12929
-0.970558
-0.766245
-0.978782
-0.806588
1.04908
-0.621022
0.570752
-0.301963
1.41784
0.923135
1.0209
1.01733
1.29563
1.10419
0.960607
1.20724
0.423029
-1.01813
-0.745095
0.192676
0.220741
-0.799592
-0.771758
1.14459
1.22195
-0.993213
-0.898825
-1.24041
0.411004
0.709738
0.856911
0.961424
1.19129
-1.00955
0.953013
-0.998421
-0.759312
-1.00404
1.10418
0.823848
1.2627
1.27614
1.22089
1.19925
-1.00697
0.885575
1.21752
-1.0161
1.09083
0.871749
-1.26606
-0.972516
-0.955906
1.2647
1.12867
-1.02524
-1.20835
-1.11416
1.02013
-0.853414
0.843213
1.17583
0.946023
-0.971022
-0.742945
1.07657
0.720835
-0.689283
-0.298762
1.45596
-0.765178
-1.00955
0.928242
1.25982
1.08971
-0.774471
-0.625147
-0.874264
1.01189
-1.02267
0.594449
1.07275
1.09846
-0.187857
-0.530737
1.0664
-0.999868
1.00254
1.27006
1.1241
1.12114
-1.05933
-0.729222
-1.04343
-0.72335
-0.826006
-0.64699
0.418781
-0.567517
0.702213
1.24488
1.3217
1.01689
-0.731953
1.24808
-1.05089
-0.404845
-1.06788
-0.987335
-1.02471
0.393973
-0.758385
-0.755077
0.256527
1.02699
-0.253799
0.475127
-0.751429
-0.483641
-1.01755
-0.75784
1.32135
0.0751855
0.125909
-0.757272
0.848683
0.65307
-0.217022
0.582154
-1.35483
-1.03097
0.75568
1.12594
1.1836
-1.39944
1.25411
0.953041
0.469132
1.32234
1.10298
1.03239
0.416113
-0.811838
-0.995097
0.968163
-0.848602
-0.972417
-1.08026
-1.00775
-0.982056
1.48464
-1.19607
-0.749887
-1.01555
1.10223
-0.801442
-0.818015
-0.722078
0.819132
-0.681871
-1.21904
1.36323
1.42544
1.20026
-1.0135
0.111218
1.50135
1.10668
-0.908589
0.544181
-1.0025
0.20509
1.28722
1.08813
0.959822
1.39158
-0.524136
-0.822142
-0.191065
-0.862414
-1.23648
-0.752011
-0.211448
1.43035
-0.766779
-1.15596
1.09438
0.635108
-0.977459
-0.979512
-0.997306
-0.769113
-1.13657
-0.982687
-0.74985
-0.768138
1.28544
-1.12829
-1.02374
1.11634
-1.12507
1.34109
-1.22554
-1.76918
-0.670307
1.09949
-0.929054
1.12701
0.911624
-1.01368
1.1284
-0.720589
-0.98352
-1.03581
1.08311
1.03758
-0.986004
-1.00217
-1.08008
1.08787
-1.22569
-1.66654
0.605699
1.0496
0.968176
0.784805
-0.993531
-0.599426
0.927145
-0.930817
0.888511
-2.43028
1.12251
0.0522281
1.20976
-0.980346
0.916473
0.796366
1.13421
-1.04017
1.10046
-0.77478
-0.981702
1.10279
-1.23182
0.24787
-0.998919
-0.00663022
1.10902
0.125305
0.332713
1.10817
0.334775
-0.146398
-0.161464
-0.749731
0.276557
-1.02931
0.802001
-0.521313
1.18249
1.2089
-1.00814
-0.986528
-0.834563
-0.750811
0.526835
-1.01334
0.937469
-0.0332296
-1.0232
1.20625
-0.943804
0.466889
0.334447
-0.726422
0.899127
0.439075
-0.883038
-1.9246
-0.986111
-0.764569
1.11877
-2.44317
1.20007
1.30877
1.29683
0.747674
1.28297
-0.770068
-0.681748
0.988838
0.254101
1.09502
-0.773547
-1.02393
-1.37134
0.870363
-0.98127
-2.26897
-0.776855
-0.811948
-0.192825
-1.06481
0.834023
0.806235
-0.37953
-0.857866
0.810474
0.10366
1.25128
-2.18657
-0.0896297
-0.983024
0.861397
-0.147362
1.24929
1.51661
-1.36827
-0.76548
-0.870386
0.403391
-0.919678
1.10989
-0.896886
1.06445
0.858472
-1.01611
0.97136
0.932623
-1.51861
0.966595
-0.680604
-0.752748
-0.672042
-0.938802
-0.636001
-0.9344
-0.452278
1.10296
0.307596
-0.759606
0.643668
1.24941
1.29406
-0.347936
0.83138
-1.15821
0.838292
-0.151339
-0.683189
-0.755953
0.592914
0.913295
1.17041
-1.70274
-1.00075
-1.23719
-0.981101
-0.0942615
0.792452
-1.74671
-0.301793
-1.09008
1.04849
-1.32305
1.05758
-0.79852
-0.670714
1.04396
0.733144
-1.10141
-0.0845206
1.06852
1.37647
1.12445
-1.0824
-0.781951
0.868777
-0.820563
0.855988
-0.396414
0.541189
1.06584
-1.02439
-0.745659
1.12775
-1.06056
1.35794
-0.297051
0.942482
-0.394227
0.685827
-0.875451
1.33202
-0.750639
-0.58334
1.07085
0.619157
0.594083
-1.0721
-0.75967
-0.933629
0.875843
-0.690266
-0.533571
-1.1503
1.11925
0.49044
-0.759803
0.846602
0.999392
1.08779
-1.99314
-0.673223
-0.75253
1.11625
1.29128
0.540018
1.11222
-1.14775
1.13935
-0.672676
-0.82991
-0.560062
1.01815
1.06692
-1.28601
0.958017
-0.74653
0.909586
-0.799863
1.11181
1.03261
1.12002
-2.36416
1.02908
-0.592582
-0.452033
1.26578
-1.51947
-1.97979
1.22594
-1.14989
1.2197
-1.27528
-0.750263
1.15717
0.845787
1.44707
1.10201
-0.819093
1.1588
1.19514
-1.04761
0.738714
-0.787116
-0.917193
1.59243
-0.99494
1.24796
-0.755927
0.34763
1.10256
-1.11209
1.09363
-1.56805
1.0336
1.04708
1.11495
-0.502465
-1.01913
-0.610421
0.646552
0.745042
1.15412
-0.226059
0.935352
-2.30977
-0.21746
-1.1676
0.904196
1.22433
-0.613457
-1.00181
-0.723328
1.34503
-0.926156
0.839553
-0.949861
-0.669358
-1.0097
-0.780514
-1.01949
0.903258
-1.66169
0.19555
-0.219727
-0.559051
-0.793304
-1.06757
-0.314308
1.0746
1.12201
-1.08015
-0.430372
1.08827
1.03173
1.12142
-0.631338
1.08634
1.14703
1.09729
1.13442
-1.22896
0.000613125
-0.743284
0.721905
1.10331
0.768596
0.188786
-0.230014
-2.46729
-0.408618
1.34298
-0.144466
-0.53317
-0.687898
-0.0264368
-1.01655
0.89168
-0.983862
-1.14666
-0.977794
1.10516
1.1039
1.11528
-0.534984
0.449927
1.3168
-0.222886
1.09856
-0.0379221
-0.559296
0.866879
1.12198
1.20804
-0.729598
1.08107
1.08008
-0.578725
-0.047733
1.11578
1.12766
1.12372
-0.98434
-1.02166
1.1235
0.668429
1.1043
0.309142
-0.0276796
-0.479776
-1.92504
-0.440007
-0.741362
-1.45487
-1.32425
1.12981
1.13448
0.855129
-0.98735
1.10517
-0.0875251
-0.179086
-0.304776
1.1004
1.12752
1.12433
1.13804
1.11559
1.10905
1.10007
-0.544696
-0.221846
-0.173403
-0.19594
-0.0214912
-0.0100383
-0.155501
-0.0856728
-0.0420144
-0.0661001
-0.0799475
1.09475
1.11568
1.11019
1.13364
1.13204
1.12416
1.12796
1.1049
1.11331
0.00655973
-0.168568
1.12518
1.12363
-0.101866
1.12582
1.12486
-0.415795
-0.451077
-0.077248
-0.79062
-1.72015
1.10757
-1.02723
1.10436
0.704559
1.15725
-0.993739
1.10361
1.04954
1.04725
-0.745837
-1.26349
-1.04074
-0.0685374
0.0570649
-0.754669
1.12132
-0.600203
1.19547
1.11129
-0.0772424
1.30025
1.45215
-0.431741
0.982375
0.726973
1.10438
1.12238
1.11327
-0.993171
0.588185
-0.566002
1.10994
1.11874
-1.02458
-0.657492
1.11179
-0.17694
-0.234379
1.11096
-1.01831
1.09264
1.12367
-0.970429
1.11567
-0.748265
1.10699
1.18993
-2.08767
1.12061
1.12847
-0.783084
0.795553
1.10726
1.11365
0.270758
-0.658815
0.780036
1.43692
1.11993
1.10941
1.11478
-0.818635
1.11003
1.09472
1.1166
1.11065
1.11295
1.10843
1.21829
-0.162578
-1.97656
1.11123
1.10618
0.398724
-1.0322
-0.868601
-0.311563
0.982082
-1.35743
-0.926614
-0.182446
1.10772
0.796617
-0.217605
-0.177031
-0.612537
-0.451628
-0.694207
-0.794806
-1.00951
-0.741588
-0.239102
1.11457
-0.57527
1.1023
1.02908
-0.983726
1.37161
-0.0998026
-0.714325
0.837513
1.2595
0.562994
-0.980471
1.1071
-0.662751
1.11314
-0.498368
1.11305
-1.11138
1.10537
-0.730707
-0.800184
1.11544
1.1303
1.05952
-0.264821
-0.979171
-0.533696
-0.468877
1.12622
1.01333
-0.681981
1.10637
1.14894
1.0998
-0.796896
-1.47732
-0.67583
-1.30605
0.379305
1.11285
-0.319175
1.1088
-1.03297
1.1074
1.14593
1.11671
-0.0385976
0.00948766
1.14192
-1.02004
1.11856
1.1228
0.0450417
-1.01944
1.06588
1.26067
1.10287
1.10103
-0.289687
-0.753095
1.07498
0.463201
1.11742
0.915379
-0.827109
-1.01108
0.959596
1.34454
1.1081
0.392906
-0.294009
-0.475961
-0.905064
-0.619663
1.08948
-0.666382
1.09424
-0.962035
-0.988264
-0.771291
0.574326
-1.00555
0.410023
-1.05961
1.10397
-0.976756
1.03673
-0.999542
-0.149102
-0.77492
-0.226559
-0.917609
1.08129
-0.773438
-0.871155
-1.15127
-0.557406
1.09395
-0.905497
0.235849
-0.65943
1.20522
-0.116057
-0.998203
1.17634
1.09147
1.08109
0.546462
-0.935809
1.1127
1.14083
-1.37475
-0.758286
1.1031
0.863995
1.37818
1.12518
-0.886406
-1.13688
-0.755593
-1.10463
-0.845448
-0.981269
-0.760845
-1.02647
0.868966
0.00887021
1.11294
1.3294
1.10381
-0.980357
-1.02525
1.10569
-0.96854
-1.41704
1.08296
-0.286582
-0.822864
-1.18607
0.136118
1.06075
1.03245
-1.05122
0.924897
0.801115
-0.991862
1.08882
-1.26408
0.929351
-0.762394
1.07281
-0.957711
0.480281
1.10651
1.22406
-0.765165
-1.23512
0.946608
1.48238
1.12727
1.14774
-0.959636
1.32758
-0.948535
-1.42041
-0.831242
0.525095
-0.826723
1.2198
1.24563
-1.00451
-1.24914
1.10428
-0.465183
0.930984
1.13686
1.07916
-0.681751
1.10761
-0.0225239
1.13341
-0.133033
-0.453534
-0.0245794
1.11051
-0.400212
-0.363078
-0.0418955
1.09839
-0.614908
1.31913
0.307448
1.45391
1.11751
-0.49003
1.08524
-0.756406
1.0844
1.08321
-1.3781
-0.406336
1.25477
1.09716
1.35579
1.06618
0.124941
1.07056
1.09214
0.985958
1.1151
-0.991029
-0.783075
-1.09228
1.19822
-1.46146
-1.33639
-0.751804
-1.53592
-0.116148
-0.697054
0.999126
-0.0853106
1.05703
1.10825
-0.759687
-1.11584
-0.486363
-1.2352
-0.587927
-0.753585
1.1128
-0.90487
1.12455
1.32478
1.16383
-0.0527099
1.1312
1.04612
-1.45337
1.05965
1.09253
-0.84282
1.092
1.07425
-0.301741
-0.501954
1.55959
-0.88462
-0.998841
-1.03351
0.28047
1.08089
-0.920978
-0.215668
-0.7525
1.24946
-1.28245
0.987217
1.12517
1.08752
-1.26656
1.06901
-0.908945
1.12133
1.13576
-0.291176
1.12519
0.636544
1.09259
0.78351
-0.920247
-0.11632
-0.304885
-0.554698
1.36452
-0.231497
1.14151
1.51698
-0.616622
-0.142636
1.17203
-0.182341
1.16877
-0.00785013
0.0276748
1.17071
1.1753
0.477639
-1.21738
0.897559
-0.667263
-0.748091
-0.582798
1.13169
1.09846
1.51254
-0.98003
-1.17572
0.808786
-1.04123
1.19023
1.11651
1.0901
1.10031
1.06068
-1.69167
-0.979923
-1.14047
0.939846
1.0376
-0.972978
-0.75634
-0.997889
1.12191
1.13631
-1.19112
-1.18349
1.14545
-0.924408
0.364642
0.910986
1.05934
-0.0838452
-1.05089
-0.0648012
-1.0221
-0.76801
-1.96621
-0.850981
1.45842
1.50072
-0.800823
-1.02529
1.12223
1.09885
-0.815669
-0.0310039
-0.343319
0.790256
1.2084
-1.2671
1.11613
-0.911852
-1.04553
-0.519825
-0.94345
-0.848073
1.08515
-1.02744
-1.37713
1.48926
-1.02496
1.11682
1.35626
-0.756854
1.12512
1.33634
-0.776158
1.38175
-1.02523
-1.0528
1.14674
-0.254396
1.09447
1.11802
-1.02361
1.16075
0.191458
-1.96113
1.15319
1.11271
-0.914145
-1.18292
1.06422
1.10944
-1.01223
-0.765053
1.42151
-1.02096
1.02872
-0.51259
1.04021
-0.955986
-2.25518
-1.00205
-0.782141
1.2319
1.13447
1.37446
1.3452
1.11713
1.17213
1.20232
-0.998094
1.27231
1.22784
-0.76445
-1.01839
-0.854224
1.46185
-0.851834
-1.03897
-0.876967
1.07714
-0.767779
-0.818056
1.15994
1.10154
-1.00636
-0.75738
-1.02797
-0.217445
-0.930977
-0.771577
-0.994075
1.03092
0.970392
-0.750079
-0.328662
-0.878845
0.982886
-1.02004
-0.790036
-0.990696
1.02456
-1.34353
-0.759527
1.41512
0.995761
0.45867
1.28249
-1.08877
1.06071
1.1239
1.22506
1.29528
0.408022
0.825977
1.14625
0.314074
-0.987245
1.54038
1.0632
1.00161
1.16307
-0.761923
-1.54198
0.946186
0.935308
1.0686
-1.65558
-1.68352
1.09468
-0.987997
0.914434
0.335402
1.5501
-0.984892
0.879632
0.809989
-0.744737
-0.983054
-0.618326
1.14802
-0.745959
-0.977325
0.771739
0.764012
-1.0646
1.18132
0.922838
-0.747604
-0.847054
1.07529
-1.79225
-0.981671
-1.01835
-0.753659
-0.899983
1.10093
1.11448
-2.21539
0.686586
1.114
1.46509
0.332313
0.440947
0.172296
0.964949
-0.436412
-0.744766
-0.920026
-0.424361
-0.745303
1.10678
-0.755035
0.331874
-0.980355
0.696989
0.635608
-0.748611
0.707747
-2.11235
0.559652
-0.751352
0.623084
-0.746392
0.448122
-0.980198
0.540194
-0.754494
0.896124
-1.36179
-0.760048
-0.770918
-0.977373
1.12523
0.133181
-0.798436
-0.985275
0.199403
0.283847
-0.756296
-0.980607
-0.838476
-0.0859836
-0.99836
0.0366465
-1.03123
-0.170437
-0.914147
-0.263679
1.01111
-0.268114
-1.49944
1.09863
0.111108
-0.596885
0.516822
1.07592
-0.760029
-1.96339
-0.98186
-1.15893
0.985174
1.54476
-0.886072
0.20077
0.0632133
-1.0206
-0.180282
-0.343934
1.09232
-0.828058
1.05812
-0.581073
1.61371
0.525136
1.50851
-0.755087
1.27696
-0.410075
1.09961
-0.965165
-0.980439
1.15881
1.10109
-0.838835
-0.978929
-0.761649
1.09905
-0.619266
1.09734
-0.521942
-1.00789
-1.00296
1.42276
1.15943
1.19724
1.13661
1.12415
0.196279
-0.545237
1.3439
-1.8023
-1.02099
1.54826
-0.755116
1.0297
1.0471
1.481
1.52491
-0.74463
-1.24996
1.14375
0.280489
-0.443838
-0.7302
-0.726021
-2.42315
-0.757825
0.62953
-1.03842
1.28813
-1.22403
1.1813
1.25908
1.16164
-0.574736
-0.964562
-1.01649
1.19669
-0.983642
1.31249
-0.605119
-0.942961
1.37542
1.39367
-0.97361
0.239506
1.05053
-1.07223
-0.86922
0.74071
1.41097
1.32218
-0.76599
1.00056
0.983055
-0.974047
1.3323
0.433788
-0.752606
-0.995161
-0.570959
-0.471527
1.2498
-0.96209
0.41109
-0.907963
-0.885399
-0.94859
-0.974534
1.10625
-0.813375
1.14545
0.0542393
0.128435
0.771827
0.312699
-0.96832
-0.488103
-1.19925
-0.0667242
-0.864136
-0.546334
1.07215
-1.47923
-1.60842
1.13688
-1.05985
-0.763829
1.12239
-0.971126
1.10779
-0.698267
-0.986596
-0.321349
0.873321
-0.852354
-1.36743
0.975313
-1.00504
1.17838
-0.571743
-0.977123
-1.02793
-0.979254
1.57847
-1.26076
1.21887
-0.971642
1.06704
1.30412
0.800971
1.1246
1.29732
0.028327
-0.757542
1.07479
1.18294
1.45553
-1.02577
1.16507
0.812278
-1.02669
0.864019
1.29417
-0.456015
1.48147
0.288138
-0.807694
0.910231
-1.02441
-0.763293
1.0468
-0.342521
1.16466
1.13688
1.0828
-0.794353
1.03686
1.40128
-0.810024
-0.182569
-1.05588
-1.09698
-0.991526
-0.979929
1.43829
0.82096
-0.778798
0.986877
-1.02248
-0.960327
1.35642
1.36431
-0.769211
-1.17094
-0.980447
-0.998587
1.07422
-0.773703
0.11721
-0.718654
-0.283523
1.17276
-1.01536
1.52593
1.16238
0.967558
1.1425
1.44166
-0.978504
-1.02125
1.11283
1.23465
-0.907937
1.11303
-1.54711
-1.00023
-1.00855
1.22168
1.2519
-1.00463
-0.77427
0.618272
-0.0461541
-0.574925
1.09762
1.09944
-1.10492
1.1394
1.18185
-1.12996
-0.766163
-0.785629
-0.996522
-1.00917
1.40092
-1.28517
1.0532
-0.769389
1.39468
0.998682
1.00501
1.07475
-2.14598
-1.09039
-0.992621
0.666834
-0.758463
0.995571
0.341806
-0.397104
0.994911
1.08361
1.14955
1.12454
-0.135186
1.14793
0.00495546
0.476528
0.927422
-0.443986
-0.763179
-0.8504
-0.58902
1.12066
1.04561
1.12014
-1.41436
-0.81087
-0.989122
-0.708431
1.11956
1.42112
1.13285
-0.760752
-0.907916
-1.00992
-0.431665
-0.979403
-0.98102
-0.0798625
1.11069
-0.828269
-0.748546
-0.827582
-0.0668793
0.857203
-2.34151
-0.986983
-1.01351
1.06696
1.5377
-0.71313
1.20745
1.60294
0.796639
1.33159
-0.76608
-0.273134
1.48327
-0.984262
0.365341
-0.756246
-1.01049
-0.760018
-0.744372
1.07421
0.800239
1.32908
1.29091
-0.044678
0.84943
0.178691
-0.64988
-0.982148
1.21806
0.858897
1.12756
1.14416
0.00827112
-0.203734
1.13926
-1.12126
-0.980905
-0.746004
-0.770435
0.661352
-0.743111
1.06608
0.734605
-0.983552
1.31579
-0.760918
-0.208011
1.08876
-0.937205
-0.999469
-1.63142
0.732653
-0.751087
-0.67905
1.04891
1.13575
-0.746464
0.0728151
-1.72623
-0.980697
-1.53741
-0.72374
-0.181295
0.66349
-0.998632
-0.744231
1.39869
0.391644
0.493632
-0.746765
-1.01395
1.1103
1.12461
0.662013
0.595846
-0.74959
-1.02512
-0.79473
0.585024
0.49983
-0.752728
0.961585
0.273556
-0.755824
1.57516
-0.763122
-1.4812
-1.00731
-0.70309
0.914761
-0.780652
-0.778546
-0.988738
0.0409037
-0.815242
0.127797
-0.80894
-0.367446
1.30746
-0.869261
-0.151778
-1.01455
-0.0531692
1.47555
1.48515
1.36566
1.11679
1.3425
-0.63302
1.104
-0.763015
1.12266
-0.982779
-0.976036
1.34773
-1.04007
0.543892
-0.711375
1.49686
0.0914202
1.43241
0.730799
0.897203
-0.753814
-0.758332
-0.981218
-0.677633
1.41839
1.3226
1.10306
0.703518
1.10498
0.940367
0.945242
-0.752131
-0.993939
0.388846
-0.669086
0.920109
1.12052
0.001088
-0.755946
-0.753555
-1.20235
-0.980733
-0.753867
1.42926
1.13875
1.11493
-0.0296784
-0.25953
1.13567
-0.910065
-0.980632
-2.09697
-1.02299
0.90825
-0.750275
-0.748387
-0.2985
1.12107
-1.39501
-1.0071
1.10502
0.672253
0.799805
1.10497
-0.980607
0.9952
1.2828
0.910664
-0.97924
1.09787
0.405946
0.584191
-0.949407
-0.74757
1.56423
0.296408
-0.58775
0.0558683
1.0316
1.08936
-1.02078
-1.15623
-0.568333
-0.625305
-0.912674
-0.779534
-0.780847
1.10056
-0.779638
1.10492
1.37242
1.17197
1.1092
1.21196
1.27259
1.10859
-1.1082
-0.665126
-0.302434
-1.05672
-0.905852
-0.750942
1.27093
1.17714
-1.02059
1.0579
-0.870112
-1.29484
-0.758664
-0.175374
0.604324
-1.10586
1.09829
1.03142
-0.670412
-0.390496
1.44734
-1.34338
-1.28201
-1.02663
-0.784921
-0.732513
1.14679
0.894846
1.18342
-1.05896
-0.787851
-0.947301
-0.246437
-1.02189
-1.39346
-0.886621
-1.56292
1.03532
-0.78226
1.54175
-1.00326
-0.589652
-1.0107
-0.751424
1.02192
-1.03037
-1.03401
-0.958606
-0.346845
1.3248
1.31183
-1.94423
-1.11648
0.945041
-0.997624
-0.914245
1.19696
-0.608759
-0.717575
-0.619147
0.872082
-0.43748
-1.02299
1.10113
0.171779
-0.663074
1.11534
-0.879331
-1.02178
-0.794514
-0.831992
-0.0677886
-1.02072
1.44579
-0.985173
0.198041
-0.982871
0.91392
-0.677736
-0.940038
0.771241
0.841594
1.16266
1.06202
1.30048
-0.772291
0.934009
0.617363
-0.862952
1.05138
-0.266425
-0.692766
-1.50494
1.26985
1.25733
-0.614222
-0.910628
-1.03094
1.13997
-0.854568
0.230303
-1.13692
-0.754942
1.4092
1.13727
-0.756339
-0.794512
-0.757177
-0.751846
1.01555
-0.761412
1.10347
0.35238
0.830677
0.957323
-0.745312
-0.891507
1.06368
-0.752653
-0.824281
1.38731
-0.991379
-0.752369
0.943095
-0.829327
-0.7855
-0.191381
-1.0144
1.45754
-0.651942
0.174139
-0.757375
1.38853
-0.760409
-0.801286
0.766431
-1.11378
-0.982729
1.43432
0.796295
1.08478
-0.781446
1.36183
0.326058
-0.846657
-0.775761
-0.775284
-0.761634
1.39433
0.698907
-1.00614
-0.759566
-1.02409
1.24756
-0.827303
1.36459
-0.982319
0.83523
-0.747582
0.49474
0.661971
0.627584
0.546623
0.225411
-0.816905
1.13196
-0.77331
-0.586441
-1.06186
0.322929
1.40617
-0.319158
-0.790516
-0.761509
-0.749142
0.388382
-0.995923
-0.746569
0.915805
0.227103
-0.754347
1.4727
-1.02295
-1.08373
1.45964
-0.750814
0.274255
-0.849706
-0.754213
-0.746431
1.44722
-0.755516
1.37435
-0.745795
-0.861325
1.29598
-0.235302
-0.815145
0.688934
-1.01893
0.139635
-0.427767
-0.748592
0.888098
-1.00932
-0.750061
-0.753047
-0.756962
-0.98676
0.927955
-0.0339732
-0.479154
-0.755349
1.4038
-0.883012
-0.789057
-0.734262
-0.150808
-0.884321
-0.749284
-0.753167
-0.0940585
1.3766
-0.76104
-0.975719
-0.786665
-0.765756
-0.115329
-0.991883
1.49111
1.42773
0.537868
-0.899867
-0.984298
0.452939
-0.981758
1.50667
0.332535
1.15204
0.822373
1.3703
0.214705
-0.89552
-0.933718
0.0605173
-0.772465
0.0615859
-0.0922633
-0.748577
1.40164
-0.30464
0.343749
-0.437646
-0.965724
-0.887922
)
;

boundaryField
{
    frontback
    {
        type            empty;
    }
    Top
    {
        type            zeroGradient;
    }
    outlet
    {
        type            fixedValue;
        value           uniform 0;
    }
    bottom
    {
        type            zeroGradient;
    }
    Inlet
    {
        type            zeroGradient;
    }
    rectangle
    {
        type            zeroGradient;
    }
}


// ************************************************************************* //
