/*--------------------------------*- C++ -*----------------------------------*\
| =========                 |                                                 |
| \\      /  F ield         | OpenFOAM: The Open Source CFD Toolbox           |
|  \\    /   O peration     | Version:  2306                                  |
|   \\  /    A nd           | Website:  www.openfoam.com                      |
|    \\/     M anipulation  |                                                 |
\*---------------------------------------------------------------------------*/
FoamFile
{
    version     2.0;
    format      ascii;
    arch        "LSB;label=32;scalar=64";
    class       surfaceScalarField;
    location    "34";
    object      phi;
}
// * * * * * * * * * * * * * * * * * * * * * * * * * * * * * * * * * * * * * //

dimensions      [0 3 -1 0 0 0 0];

oriented        oriented;

internalField   nonuniform List<scalar> 
3181
(
-1.05943
0.414584
0.644844
-0.3987
0.375269
0.0234303
0.53588
-0.367971
-0.167909
0.126508
-0.208245
0.0817369
-0.00617844
0.00337838
0.00280006
0.805125
1.03718
-1.84231
0.153053
-0.146529
-0.00652343
0.0385589
0.00427338
-0.0428322
0.589966
-0.784915
0.194949
-0.0745498
0.142011
-0.0674611
-0.0103258
-0.0496048
0.0599307
0.126342
0.0503063
-0.176648
-0.0082969
-0.0322199
0.0405168
-1.10362
0.149293
0.954327
-0.336147
0.715955
-0.379808
-1.12095
0.635166
0.48578
0.0851146
-0.930856
0.845742
-0.134751
0.077339
0.057412
-0.858348
-0.167849
0.0203824
0.0152827
-0.0356651
0.029389
-0.0813373
0.0519483
-0.0444035
0.0469532
-0.0025497
1.07073
-1.0434
-0.0273282
0.0286174
0.0356128
-0.0642302
-0.957787
0.324124
0.633663
-0.110343
0.236851
0.310548
-0.239392
-0.0711564
0.0306147
0.0642968
-0.0949115
-0.402492
0.330451
0.0720402
-0.0328871
-0.0288255
0.0261248
0.00270071
-0.034166
-0.923621
-0.00504607
-0.0400986
0.0451446
0.115748
1.45344
-1.56919
-0.0509053
0.052954
-0.00204872
0.178166
0.267931
-0.446097
1.56757
-1.45182
0.0690795
-0.0396905
1.47592
-0.801274
-0.674651
-0.700022
1.50515
-0.0757984
0.0675016
-0.0360154
-0.00838811
-0.419808
0.0836617
-0.107719
0.071704
-0.625056
0.130277
0.494778
-0.154103
0.0795533
-0.173439
0.177864
-0.00442524
-0.278183
-0.0783807
0.356564
0.392509
0.952867
-1.34538
0.0242773
0.0412597
-0.065537
-0.00844308
-0.0976013
0.103515
-0.00591382
0.528166
0.187789
-0.0966072
0.134773
-0.038166
0.0924367
-0.0974827
-0.176343
0.203556
-0.0272128
0.168138
0.0577967
-0.225935
0.112498
-0.118596
0.00609781
1.14383
0.332092
-0.866419
-0.193008
-0.121711
-1.67673
1.79844
0.543147
0.224522
-0.767669
-0.439272
-0.198924
0.638196
-1.56721
0.867192
-0.263427
0.806574
-0.332056
-0.104374
0.43643
-0.204106
-0.198385
-0.194809
0.164196
0.030613
0.12378
0.288691
-0.412471
-0.204958
0.794924
-0.0187124
0.0572713
-2.14956
2.02785
0.195605
0.114943
-0.185324
-0.112438
0.297763
-0.270684
0.350345
-0.0796602
-0.0841805
0.0923167
-0.00813618
-1.75705
-0.919666
0.00931847
0.910348
-0.0507593
-0.000145938
-1.06629
0.758875
0.307411
0.208702
-0.149455
-0.0592475
-1.34706
-0.220157
1.102
-0.95271
-0.7027
1.15512
-0.200796
1.06784
0.161613
-0.17629
0.0146767
1.38465
-0.347469
1.75452
-1.75452
-0.00749029
-0.00156061
0.0090509
-0.219333
-0.0534911
0.272824
0.0165815
-0.0233087
0.00672723
-0.452456
0.842927
-0.39047
-0.0109943
-0.24629
0.257285
-1.08761
0.0442016
0.337323
0.0569505
-0.394273
0.13718
-0.846157
1.07068
0.0131521
0.0123881
-0.0255401
-0.0175175
-0.158825
-0.136281
-0.0612183
0.1975
-0.0764669
-0.0598144
0.114407
-0.960564
0.335452
-0.787909
0.925665
-0.84055
0.0464032
0.0332296
-0.0796329
0.07897
0.0508111
-0.129781
-1.40022
-0.112651
1.51287
-0.253631
0.419408
-0.165777
-0.862495
0.729752
0.132744
-0.456362
-0.609924
0.0392249
-0.0149476
-0.157295
0.151525
0.0057705
-0.0767788
-0.0107769
0.0875557
-0.564785
-0.22013
-0.0797098
0.0262061
0.0535037
-1.50929
0.143066
1.36622
1.47522
-0.522351
-0.0179126
0.0104223
0.0462201
0.149385
-0.195768
0.373934
0.0352495
0.0448466
-0.0800961
0.134841
0.0668575
-0.201699
0.172917
-0.0691442
-0.103773
-0.596013
-0.524933
-0.931411
-0.577876
-0.00410255
0.0172546
-0.110729
0.18946
-0.0787317
0.0381662
0.0255682
0.127484
-0.057633
0.0741829
-0.0165499
-0.0990229
-0.0229993
0.122022
0.0769407
-0.0769407
-0.189862
0.215431
0.132235
0.0765092
0.10816
0.0953957
-1.29138
1.08642
-1.47293
0.0808164
1.39212
0.0329312
-0.0299735
-0.00295767
-0.0260737
-0.0501583
0.076232
0.549825
-0.0225519
-0.527274
-0.026122
0.0262803
-0.00015824
-0.205576
0.0157137
0.159703
0.683223
-0.372967
0.53267
-0.150595
-1.24962
-0.00273306
-0.00344538
0.496784
-0.312388
-0.184396
0.00666575
-0.00491284
-0.00175291
0.0490932
-0.327276
0.0238089
-0.943475
0.050146
-0.160875
-0.295667
-0.410437
0.0650057
1.34607
-0.906013
-0.440057
1.04366
0.30241
0.0681051
0.288459
0.0302546
0.0026766
-0.12889
0.14675
-0.01786
-0.25783
-0.580241
0.83807
-0.366069
0.526303
-0.0660424
-0.101807
0.15496
0.0367864
-0.0444635
0.00767715
-2.19706
0.165445
2.03162
-0.119583
-2.07748
-0.303421
0.640745
-0.907047
-0.0187847
0.00346831
-0.261508
0.258039
1.38361
-1.50873
0.125117
-0.0161132
0.0133802
0.564316
-0.822146
0.00664729
-0.20191
0.195263
-0.291409
-0.113761
0.40517
0.191746
-1.01089
-0.0767126
0.0182763
-0.0539413
-0.545142
0.346218
-0.241754
0.0185847
0.22317
-0.0328116
0.0166984
0.0308217
-0.0308217
-0.116021
0.127022
-0.011001
-0.249198
-1.22374
0.0567198
0.0172568
-0.0739766
-0.0989978
0.0618967
0.0371011
-0.217534
0.0227254
1.31671
-0.368346
-0.948361
-0.199831
0.458529
-0.258698
0.0144284
-0.0142234
-0.000205005
-0.0734337
-0.789062
-0.183214
-0.00436236
0.187576
-0.180134
0.303914
-0.098905
0.0972346
0.0016704
0.0748959
0.0167176
-0.0916135
-0.109481
0.114339
-0.00485816
-1.29222
1.00806
0.284154
-0.224666
-0.05226
0.276926
-0.700524
0.661954
0.0385709
-0.0067033
0.0423161
-0.00483443
0.00525426
-0.000419833
-0.0172558
-0.0469744
1.09982
0.375403
0.176427
-0.880708
0.70428
0.047959
1.85951
-1.90747
0.392411
0.679178
1.07534
0.0579944
0.199641
-0.064799
-0.0695796
-0.0280217
0.244272
0.152362
-0.0733923
0.737164
-0.41304
0.0619464
0.210878
0.0451624
-0.159774
0.114611
-0.795896
-0.13985
0.935746
-0.023203
0.023203
0.00630466
-0.265871
0.533802
0.0129993
-0.237666
0.0142052
0.0631338
-0.000692828
-0.00340972
0.131889
-0.142215
-0.346259
0.335265
0.0260501
0.0694271
-0.0954772
0.394111
-0.343805
1.06422
-0.916954
-0.147262
-0.211845
0.27995
0.18978
-0.502168
-0.208688
0.623272
0.170106
-0.0345673
0.0345673
-0.259005
0.231578
0.0274269
0.393755
0.0256532
-0.0288914
0.031211
-0.00231964
-0.053149
-0.0661163
-0.0135935
-0.0485665
0.180455
-0.176177
0.236489
-0.0603124
0.124487
0.0278751
-0.396175
0.156784
0.185493
-0.0610061
-0.0447572
-0.0541479
-0.042108
0.0510826
-0.00897463
0.15174
-0.107606
-0.0441334
-0.00910161
0.387475
-0.378374
-0.079142
0.0604296
0.101737
-0.105984
0.00424633
0.0234639
0.500048
0.564169
-0.0747663
0.0019945
0.0727718
-0.0586951
0.0228514
0.0358437
-0.0881456
0.098219
-0.720531
0.622312
-0.0190786
-1.53087
-0.445947
1.97682
-0.0332803
1.56617
-1.53289
0.0852852
-0.245586
0.176442
0.269881
0.249247
-0.519128
-0.205255
0.250417
0.146622
-0.899522
0.7529
-0.00271536
-0.0559797
-0.00308122
0.0213575
-0.99561
0.445942
0.549668
0.906013
-0.791606
-1.70596
1.59331
-1.38361
1.46443
0.0413323
-0.0794983
0.000192011
-0.00502644
0.0151633
0.81509
-0.668468
0.126415
-0.0762689
0.417732
0.737391
-0.0289855
-1.60081
1.64877
-0.692254
-0.599124
-0.239602
-0.385454
-0.0116404
-0.170082
0.219175
-0.577879
-0.384114
0.184283
0.789343
-0.239518
-0.897517
-0.808447
0.740744
0.0990501
-0.101765
0.292752
0.0393106
-0.0393106
0.671338
0.148028
-0.819366
-0.224616
0.895954
0.850058
-0.86443
0.0143711
0.0714343
0.00507489
0.00739855
0.00547274
-0.0128713
-1.67673
-0.804538
0.282187
0.971041
0.345667
-0.0355234
-0.137916
-0.245627
0.773793
-0.193273
-0.0484817
-0.00320522
-0.0809753
-0.0509544
0.101766
0.372002
-0.241724
-0.842849
-0.279786
-0.108309
-0.0037482
0.112057
-1.17545
1.85462
-0.129823
0.129662
0.000160712
0.0402805
-0.0100259
-0.0951271
0.0629943
0.0321328
0.00926425
0.427166
0.00790703
-0.00124128
-0.00234316
-0.00430505
0.00664821
-0.0167947
-0.166419
-0.715803
0.364852
0.350952
0.823306
-1.59868
0.775371
0.135558
-0.156502
0.0209436
0.003518
0.0357069
-0.0750646
-1.67945
-0.0784313
-0.0166958
-0.0175576
0.00261
0.14322
-0.338988
-0.892303
1.10424
-0.211935
0.0228861
0.0953823
0.0563572
-0.795896
-0.553269
-0.738948
0.0944774
-0.0314831
0.0432162
-0.638097
-0.0624278
0.0599501
0.125543
0.934629
0.0519632
-0.464434
0.12601
0.342815
-0.285864
-0.122338
0.0233148
0.224486
0.83423
-1.05872
0.103136
-0.721567
0.618432
-0.963905
0.824055
-1.7971
-0.00193326
1.79904
-0.0138561
0.014197
-0.000340946
0.163543
-0.454952
0.210477
-0.124072
-0.0864056
0.0508606
-0.0280092
-0.00874888
-0.09956
0.00761877
0.0173219
-0.0345778
0.021349
0.0722201
-0.0935691
0.816778
0.0047454
-0.00533736
0.000591964
0.0710539
-0.0106244
0.859652
0.00147229
0.0119079
-0.361991
-0.442547
0.0197386
0.0516956
0.00794239
0.0874399
-1.79904
1.67945
0.151677
-0.111196
-0.0404808
-0.246979
0.0706894
0.119189
-0.104512
-0.00153809
0.0938548
-0.0218486
-0.511984
-0.380319
-0.0385947
0.0599437
0.73938
-0.2536
-0.0864953
-0.0125025
0.334775
-0.000742374
-0.028149
-0.00795984
0.0849005
0.148568
0.201776
0.155484
-0.32451
0.169026
0.113519
0.569704
-0.0453637
-0.108739
0.94635
-0.260371
-0.68598
-1.7971
-0.308045
1.13135
1.56757
-0.0954062
0.274177
-0.17877
0.374671
-0.0751406
-0.299531
-0.0280453
-1.31901
-0.0694508
0.0700025
-0.000551719
0.0506179
-0.161237
0.110619
0.472524
-0.973756
0.501231
0.0415524
0.65612
-0.697672
-0.0453485
-0.111947
-0.0238946
-0.0508717
0.132672
-0.391677
-0.0122235
-0.00163256
0.015273
0.0294664
-0.0447393
0.0116383
-0.140528
0.00697582
0.0333047
-0.0784005
0.11163
0.00467
0.000584266
0.192319
-0.43861
0.0174551
1.54871
0.0129978
0.0102052
-0.993225
-0.017669
0.138001
-0.0748928
-0.0474448
-0.118775
0.125422
0.560671
-0.702797
0.142126
0.0441215
-0.0243828
-0.936248
-0.0164619
-0.0184134
-0.648615
0.746834
-0.0184044
0.188511
-0.459862
-0.404568
0.18231
-0.451307
0.268997
-0.0617958
0.106642
0.00769982
-0.00811398
0.000414164
-0.0301021
-0.0793787
-0.0217696
-0.137056
0.751194
-0.648059
-0.0798742
0.0503402
-0.118185
0.305664
-0.15018
0.133817
1.23672
-0.323206
-0.91351
-0.118173
0.136758
-0.50387
-0.211933
-0.564069
0.62564
-0.606402
-0.0192381
-0.0739554
-0.0059189
-1.60081
0.534444
-0.534444
-1.80153
1.80153
0.81509
0.203642
-0.355722
0.152081
-0.899585
-0.0936397
0.622324
-0.358559
-0.263765
0.169642
-0.248374
-0.0127913
-0.00512131
-0.881695
-0.0788691
-0.933065
0.212534
0.0438764
-0.0476247
0.697609
-0.11384
-0.583769
1.09816
0.46941
-0.00160484
0.00930465
-0.963577
-0.0269541
-0.89
-0.0917347
-0.588228
0.679962
-0.0584975
-0.836215
-0.672514
0.216639
-0.812652
-0.935746
1.38293
-0.44718
-0.140861
0.284941
-0.14408
-0.0214845
0.719093
-0.103282
-1.02064
1.02064
-1.92061
1.31577
0.604836
-0.00151935
0.00626475
0.0753988
-0.432819
0.823789
-0.0649136
-0.0822646
-0.0361054
0.0620793
0.00697977
0.0074486
2.06002
-2.06196
-0.335974
0.41087
-0.630622
0.997221
-0.3666
-0.00844637
-0.0699849
0.121384
-0.0545261
0.362286
0.00453493
-0.0367548
0.352448
0.0350276
0.0424664
-0.243492
0.201025
0.142834
0.0350302
0.0953099
0.178025
1.94381
0.0840397
0.465998
0.619117
-1.08511
-1.51842
1.68387
0.253902
-0.182198
0.0775517
-0.767336
0.689784
0.669639
0.13763
-0.483889
-0.0745206
0.13756
-0.0630393
0.137942
-0.212463
-0.441628
-0.103513
-0.0696862
0.0726668
-0.00298059
0.00133942
0.00333058
-0.0585712
-0.0389115
0.668468
-0.618432
-0.0500368
-0.297723
0.310722
0.875782
0.63856
-0.263889
-0.0175654
0.0348222
-0.296073
0.0941631
0.17791
-0.590712
0.412802
-0.00768024
-0.00043375
0.282439
-0.0697774
-0.212662
0.00942058
-0.0149681
0.00554754
-0.0254062
0.0181181
0.00728807
-1.33525
0.987783
-0.155203
-1.37567
-0.192381
-0.791606
1.46443
1.59331
-0.197634
-0.177158
0.124898
-0.0616658
0.0672036
-0.00553778
-0.208157
1.10979
-0.901632
0.538828
0.0834958
0.000567185
-0.00824742
0.118774
0.172826
0.0361054
-0.0433838
0.0047891
-0.280855
-0.0152182
0.00214823
-0.00284106
-0.235779
0.62989
1.04366
-0.112914
-0.0631951
0.00147948
0.0617157
1.95673
-0.363421
-0.0626878
-0.055908
-0.952889
0.161283
0.404805
-0.213059
-0.473965
-0.125249
0.599215
0.809655
-0.358313
-0.451342
0.0190833
0.541588
-1.64877
-0.0279611
0.00599467
-0.00387976
-0.00211492
0.0744978
1.78501
-0.174643
0.182041
0.127805
2.04108
-0.57665
-0.682512
0.0591327
0.62338
0.374874
-0.000302989
-0.344212
0.543716
0.822753
0.0302886
0.0783405
-0.0219833
-0.786602
-0.101361
0.887963
1.04554
-0.00284747
0.000504314
-0.0480556
-0.355585
0.100357
-0.305612
0.833983
0.402732
-0.06513
-0.00882531
0.272896
-0.368302
-0.0239961
0.0172928
0.113547
-0.151316
0.0377686
-0.305619
0.320343
-0.0147245
0.401381
-0.724587
-0.746047
0.345022
0.401025
0.108707
-0.150365
0.0416575
0.26522
0.0404433
-0.672691
0.119423
-0.6539
0.6539
1.79844
1.09816
-0.721567
0.334631
0.488122
-0.177284
0.204711
0.907928
-0.3691
0.00654918
-0.868289
0.86174
0.137932
0.0040788
0.0260797
-0.972548
0.299857
0.0648231
-0.168953
-0.124638
0.293591
0.00133902
-0.522644
0.353691
-1.05047
-0.282396
-0.647351
-0.0418438
-0.00578395
0.000446589
-0.224152
0.0493849
0.0626722
0.0350553
-0.14123
0.106175
-1.42998
-0.490635
-0.00585318
0.07015
-0.329215
0.573718
-0.244503
-0.577524
0.393127
-0.10887
0.178297
0.238539
0.00889326
-0.0119745
-0.684774
0.316429
0.0334238
0.0683135
-0.135272
0.0170871
0.201065
0.00941249
-0.418444
1.95655
0.440265
-0.353432
0.86741
-0.789859
0.77475
-0.439975
-0.60194
0.169121
0.151459
-0.79136
0.761249
0.0301109
1.23563
-0.40165
-0.205841
-0.130134
-0.0104641
-0.0128446
0.952777
-0.838158
-0.114619
-0.177383
0.103991
0.0281929
0.123332
0.876064
0.296444
-0.758796
0.462352
-0.330005
-0.0541089
0.599174
-0.928389
0.139169
1.3737
1.09465
0.00351423
0.171899
0.554634
-0.726533
0.0840671
0.048989
0.00418105
0.00471221
-0.505818
-0.0961218
0.0100128
-0.0428244
-0.182425
0.133859
-0.54255
0.283852
-0.991951
-0.563879
-0.285926
-0.552539
1.42992
-0.0378071
-0.281826
-0.383256
0.102401
0.0246747
0.293449
0.0589984
1.33273
-0.860201
-0.184767
0.123761
-0.030046
-0.370337
0.400383
0.0059631
3.15718e-05
0.0476298
-0.0605404
-0.245078
-0.125094
0.697495
-0.416371
-0.281124
0.0152045
0.138297
-0.0994941
-0.0388026
0.240519
0.0529301
0.116807
-1.64969
-0.0939771
0.137193
0.657128
-0.360684
-0.0120921
0.0479358
-0.0194486
0.0222125
-0.00276385
-0.000395036
-0.0295785
-0.237551
0.0777776
-0.00230284
-0.567181
0.42632
0.0149824
0.0570825
0.0516246
-0.694081
1.69755
-1.29482
0.0158416
-0.188478
0.172636
-0.137088
-0.542782
0.67987
0.0811947
-0.719291
-0.292913
-0.453134
-0.0354626
8.77802e-05
0.0353748
-0.25167
-0.62564
-0.170256
-0.147695
-0.786602
-0.22599
0.161191
-0.281439
-1.09862
-0.207881
0.237384
-0.0295032
0.269117
0.118279
0.407192
0.264392
-0.671584
0.0445871
0.054463
1.10614
0.258156
-1.3643
-0.224254
0.252428
1.43144
-0.236629
0.176317
-0.733531
0.98596
-0.132992
0.0717739
-0.0164561
0.0316194
-0.0281874
0.994087
-1.34752
0.720413
0.0892421
-0.985063
0.473079
0.249757
0.658171
0.933439
0.0129109
-0.0159856
-1.09465
-0.647351
-0.713041
0.72236
-0.0781891
-0.897517
0.65612
0.614106
-0.931798
0.513928
-0.00804302
-0.783317
-0.313677
0.636672
-0.776741
0.140069
0.0829779
0.0553187
0.0446288
0.194355
1.51839
-1.71274
-0.00531514
-0.00046881
-0.258271
0.20979
0.717867
0.22759
-0.211877
-0.185118
1.71312
-1.57006
-0.0166376
0.168718
0.326803
0.285368
-0.612171
-1.34102
1.23966
-0.256085
0.829803
0.0905905
1.08232
-0.887963
-0.00231548
0.212789
-0.0446166
0.089338
0.0486627
0.00570297
-0.0389525
0.0332495
-1.02206
-0.0366514
0.320793
-0.805426
-1.10942
1.37864
-0.269221
0.369035
0.628187
-0.0513219
0.0549349
-0.00361306
-0.0862754
1.7994
-0.717608
1.69121
0.317176
-1.42659
0.30762
-0.0948305
-0.58506
-0.406892
-1.251
1.5778
-0.0608974
-0.876332
-1.74815
-0.159318
1.08232
0.0493728
-0.854799
0.830784
-0.645309
-0.185476
-0.981845
0.396786
0.0139556
0.116846
-0.000534048
-0.116312
-0.971528
0.564636
-0.220657
0.911244
-0.927706
0.188137
-0.204932
-0.0934356
0.236655
0.0408646
0.334001
-0.0279372
-1.45099
0.537481
1.16948
-1.1392
-0.553139
-0.518056
1.0712
0.446861
0.0164001
-0.0109274
-0.734324
0.697672
1.1172
-1.20347
-1.07534
0.714203
0.361139
1.40087
-0.0222307
0.778675
-0.811562
-0.493453
-0.450022
-0.471429
-0.500098
0.8035
-0.8035
0.684951
-0.684951
-0.734324
-0.494046
0.494046
-0.714203
-0.839336
-0.68226
0.411367
-1.09124
1.09124
1.1172
-1.20347
0.778675
0.76736
-0.76736
0.811562
0.758949
-0.758949
0.506547
0.528571
0.481944
0.025959
-0.499902
-0.549978
1.07855
-1.43716
-1.95439
0.703393
-0.461139
0.205054
0.121153
0.00527696
-0.00380467
-0.886712
0.0970707
0.789642
-0.0892512
0.0776108
-0.996847
0.583808
0.938665
-0.604034
-0.126025
0.0112393
-0.0123765
-0.800842
-0.0798654
-0.549668
0.00307985
0.0182776
0.435953
-0.119673
0.0881897
0.175242
-0.00709124
-0.00660656
0.0136978
-0.810843
0.0669262
0.743917
0.0132064
0.0276582
-0.535005
0.408247
0.126758
0.917288
-0.741104
-0.176184
0.0818691
0.292065
-0.0136199
-0.0560663
-0.054662
-0.0147888
0.848251
-2.0237
-0.832278
0.0996857
-0.739247
0.796545
-0.0572981
0.123018
-0.899833
0.776816
-0.802588
0.905692
-0.103103
-0.056562
0.056167
0.020322
-0.28183
0.270207
1.30759
-0.0969755
-0.789737
0.917208
-0.0929158
-0.824292
0.0921779
-0.100624
-0.447933
0.820313
-1.5721
0.45767
-0.374174
0.104216
-0.893953
1.45182
0.349708
-0.789832
0.00651529
1.01788
-0.894861
1.22559
-0.0222656
0.751659
-0.729394
-0.877773
-0.119074
-0.405124
0.0267504
-0.25056
0.392686
-0.785029
0.785029
-0.598548
-0.0875122
-0.864205
0.123101
-0.930597
0.838862
0.0719182
-0.19599
-0.0590892
0.0631874
0.0109954
0.189985
0.827894
0.81818
0.770853
0.140666
-0.911518
0.430505
-0.225451
-0.781091
-0.109059
0.89015
0.176102
-0.893711
-0.67422
0.8883
-0.784084
-0.109526
0.45992
-0.0306194
-0.429301
0.0602956
0.976099
-1.03639
0.281708
-0.332659
0.050951
-0.890617
-0.83098
0.0917333
0.512726
0.262023
-1.94515
1.05438
-0.567414
0.567414
-0.886778
-0.564213
-0.682784
0.982641
-0.193449
0.538471
0.779242
-0.208577
0.391401
0.596382
-0.541015
-0.259088
0.800104
-0.110161
-1.48852
-0.0342791
0.408239
-1.08802
0.349068
0.0488235
0.300347
-0.218478
0.780011
-0.883114
-0.244594
0.0191427
-0.15437
0.738178
0.574035
-0.574035
-0.0644386
0.0544126
0.107201
-0.0721462
0.867596
0.108502
0.0822596
0.00230393
0.00680121
-0.00910514
-0.664736
0.695131
-0.0303948
0.733217
0.0184423
0.110607
-0.894691
-1.01524
1.30789
-0.292646
0.138723
0.876312
-0.0102933
0.74351
-0.754025
0.598847
-0.661275
-0.650707
0.146837
-0.522573
0.0277442
0.149138
0.151463
-0.674036
0.00662092
0.10041
0.0736504
0.722895
0.696153
-0.0973058
0.0780394
0.781613
0.562027
-0.0255475
-0.53648
-0.413302
0.538014
0.519131
-0.96782
0.742109
0.225712
-0.685875
-0.126777
1.63295
-0.113527
-0.27815
-0.0413386
0.486204
0.513796
-0.769729
-0.113385
-0.665811
-0.790135
-0.195786
-1.00103
0.400501
0.599499
-0.0898173
0.0791929
-0.862645
-0.0734715
-0.587804
-0.158077
-0.252635
0.410711
-0.0200313
-0.00181733
0.10975
0.0707057
-0.128684
-0.108867
0.757238
-0.640294
0.718334
-0.280001
0.431465
-0.282026
0.0744215
0.207605
-0.747127
-0.196
0.943127
-0.247368
0.235724
-0.0248466
-0.00682124
0.0235196
0.00982421
0.696607
-0.129193
0.128976
0.109563
-0.736772
0.0720362
0.371599
-0.573627
-0.417249
0.269987
-0.105375
-0.290327
1.02772
-0.00821931
0.144374
-0.0165697
-0.0115468
0.00348765
-0.057889
0.00254936
0.369049
-0.189168
-0.153838
0.343005
0.848971
-0.0312008
-0.002221
0.0334218
0.125591
-0.0122628
3.92512e-05
0.222565
-0.109017
-0.289594
0.0961448
0.633454
-0.822621
0.00876886
0.295935
-0.0794162
-0.944058
1.17938
-0.235318
-0.777511
0.838255
-0.0607446
0.982522
0.185734
-0.318726
-0.065093
0.870146
-0.452149
-0.0828565
0.28059
0.461978
0.195496
-0.657474
0.416831
0.0454053
0.649725
-0.574255
0.556953
0.0173017
1.31187
-1.28719
0.00609241
-0.00643114
0.000338732
0.694601
-0.00912303
-0.0832361
0.0199414
1.18386
0.536399
0.446122
0.011425
-0.106629
-0.0437353
-0.00166329
0.0598546
-0.0581913
0.0202257
-0.0145228
0.883431
-0.625275
0.107259
0.226601
-0.0264177
-0.0959115
0.219258
0.099086
0.00374817
0.0667143
0.768251
-0.271909
-0.00469403
0.276603
0.476388
-0.249066
-0.227321
0.642255
0.123123
-0.0113306
0.0179281
-0.0065976
-0.483864
-0.290137
0.0310484
0.000268346
0.740475
0.710901
-0.0356505
0.593273
-0.548644
0.818358
0.118518
0.0152983
-0.869786
0.053059
-0.273554
0.176024
-0.17477
0.689217
0.0790345
0.0130557
0.302944
-0.11721
-0.223099
0.162162
0.0320647
-0.113402
0.422581
-0.0568818
0.820553
-0.0743211
0.166205
0.322844
0.153544
-0.156016
-0.0590473
-0.0561867
-0.110432
0.0145824
5.86857e-05
-0.0146411
-1.51209
0.224893
-0.0138774
0.853274
-0.229892
-0.615501
0.633372
-0.0178713
0.396718
0.761253
0.215394
-0.00778939
0.0781295
-0.171565
0.628609
0.132644
0.957873
0.896752
-0.259558
0.717228
0.712603
-0.343553
-0.608242
0.349729
0.258514
-0.607227
-0.071208
0.0422841
0.0614431
-0.046053
1.10603
0.735524
0.0828341
0.615232
0.222838
-0.867563
-0.0807758
-0.671701
0.678216
-0.0225797
-0.594782
0.436705
0.875593
0.674014
0.102399
-0.0189727
-0.168953
-0.314936
1.17808
0.519463
0.093939
-0.0140894
-0.133538
-0.210015
0.989908
0.376313
-0.0761077
-0.141328
-0.744882
0.932536
-0.187654
-0.412422
-0.195821
0.0043395
-0.178832
-0.161968
0.739284
-0.00576029
0.00145524
0.628241
0.220053
0.0499339
0.600543
-0.132909
0.244004
0.724572
0.252955
-0.977528
0.277521
-0.92283
0.167511
-1.46233
-0.18329
0.774044
-0.590754
-0.66397
-0.0437973
0.036976
-0.0546194
-1.60015
0.0266641
-0.0461128
0.50224
-0.0140151
-0.130778
0.144793
-0.0138524
-0.577879
0.10051
0.043864
-1.14656
-0.0110602
0.00396893
0.540061
-0.0533533
-0.58701
0.0127553
0.566554
0.309039
1.05197
0.924845
-0.251472
-0.383574
0.635045
-0.00911339
-0.618025
0.618025
-0.204511
-0.911126
1.11564
0.0297358
-0.147909
0.68768
-0.121126
-0.223833
-0.427913
0.149764
-0.143789
0.812392
0.27126
0.170919
-0.105913
-1.40402
0.484744
0.0722085
0.0522368
0.0168426
-1.485
-0.286343
-0.284759
0.693328
0.306672
-0.286343
0.693328
-0.593892
-0.101152
-0.593892
-0.696291
0.696291
0.303709
-0.014584
0.167181
-0.0754387
0.214991
0.0407818
-0.465399
0.641774
-0.041231
0.663893
-0.50439
-0.159503
-0.0610525
0.0614554
-0.00040285
-0.0163999
0.0187038
0.535367
0.0192513
-0.027495
-0.435743
-0.34648
0.122327
0.0466325
0.835713
-0.281079
-0.20576
0.308161
-0.00564783
-0.0889032
-0.0110399
0.676965
0.0635101
0.555056
0.00725326
-0.000605049
-0.00622179
0.086056
0.568571
-0.475809
-0.0927623
1.9729
0.544468
-0.183259
0.881761
0.0110262
-0.0611844
0.104129
-0.209672
0.105277
1.09837
-0.373793
0.00671353
-0.0485574
0.683089
-0.00723528
0.0231497
-0.0231497
0.0191551
-0.0191551
0.00408442
-0.00408442
0.0129978
0.365508
0.457054
-0.0444877
-0.732124
0.492606
0.192898
0.0296674
-0.0819542
-0.485488
0.774127
0.110882
-0.796757
-0.870407
0.465839
0.0914245
0.0189947
-0.000876525
-0.00891056
0.00891056
0.209914
-0.00899834
0.00899834
0.701117
0.0876826
0.00620716
0.0010461
0.00683799
-0.0700331
-0.0232108
0.0232108
0.00212042
-0.00212042
-0.0215464
0.0215464
-0.00721854
0.00721854
0.0915852
-0.29355
-0.0844574
0.221734
-0.0071698
0.0071698
-0.372751
0.517713
-0.144963
0.510778
-0.225836
-0.364655
0.158896
0.56177
-0.129384
0.070881
0.562491
0.566713
-0.00508768
0.00508768
0.23633
0.023885
-0.023885
-0.00706325
0.00706325
0.747846
-0.588169
0.0345406
-0.0342643
-0.0355131
0.00379987
-0.00379987
-0.00247627
0.00247627
0.0178327
-0.0178327
0.0240906
-0.0240906
-0.0227335
0.0227335
0.0341357
-0.0341357
0.478913
-0.0308884
0.0308884
-0.00383912
0.00383912
0.0233705
-0.0233705
0.00193049
-0.00193049
0.00524592
-0.00524592
0.0160573
-0.0244368
0.0244368
0.495004
0.0122065
-0.038382
0.038382
-0.00151066
0.00151066
-0.00640169
0.00640169
0.0325588
-0.0325588
0.0264244
-0.0264244
0.00374119
-0.00374119
0.00217865
-0.00217865
-0.148449
-0.191584
0.00209492
-0.00209492
-0.00349818
0.00349818
-0.0371159
0.0371159
-0.0287035
0.0287035
-0.00182231
0.00182231
-0.400988
0.650745
0.265703
-0.0312021
0.0312021
-0.0223468
0.00288445
-0.00288445
-0.00319074
0.00319074
0.0383298
-0.0383298
-0.151446
0.166744
-0.00217984
0.00217984
-0.0239539
0.0239539
-0.505842
0.0457532
-0.0741278
-0.032232
0.032232
-0.450779
0.0352221
0.0197128
-0.310861
-0.674202
-0.0357728
0.0357728
-0.194583
0.137702
-0.0419104
-0.00298573
0.00298573
0.00827727
0.043671
0.262078
-0.325266
-0.288104
0.61337
0.202777
0.0020834
-0.0020834
-0.138523
0.326618
-0.188094
0.781863
-0.405167
-0.376696
-0.451707
-0.662048
0.176618
0.131543
-0.0280308
-0.385271
-0.572918
-0.0082716
0.191152
-0.34927
0.014366
-0.014366
-0.00218691
0.00218691
0.0300329
-0.0300329
0.0268836
-0.0268836
0.000196892
-0.000196892
-0.00175316
0.00175316
-0.0865336
-0.062921
0.181786
-0.307811
-0.0008826
0.0008826
-0.0461348
0.0461348
-0.039303
0.039303
0.143106
-0.0443335
-0.0987722
-0.00657429
0.323531
-0.553423
0.00147975
-0.00147975
0.0113415
-0.0113415
-0.0882155
0.13829
0.0383281
-0.00216732
0.00216732
0.0743348
0.0177367
1.01028
-0.483241
-0.0738825
0.557123
-0.635312
0.050902
-0.301462
-0.0396114
0.0396114
-0.683715
0.283085
0.0484328
-0.0484328
-0.636897
0.373132
0.269925
0.123599
-0.000786233
0.000786233
-0.814436
-0.00123283
0.00123283
0.308851
0.410242
0.00879672
-0.0523762
0.0523762
-0.00236683
0.00236683
-0.0413089
0.0413089
-0.0551492
0.0551492
-0.00182479
0.00182479
-0.0609197
0.0609197
-0.00231745
0.00231745
-0.0445711
0.0445711
-0.00223529
-0.0463357
0.0463357
0.00404673
-0.00404673
0.0470601
-0.0470601
-0.00284038
0.00284038
0.0488669
-0.0488669
-0.0673788
-0.00401572
0.00401572
-0.00505577
0.00505577
-0.0564071
0.0849005
-0.0106033
0.0106033
0.00474736
-0.00474736
-0.0581227
0.0581227
0.293533
-0.0178914
0.0178914
-0.0584828
0.0584828
-0.00730962
0.00730962
-0.0659351
0.0659351
-0.0134053
0.0134053
-0.0790538
0.0790538
-0.0211357
0.0211357
-0.0962514
0.0962514
-0.685441
0.225706
-0.523405
0.505533
-0.836215
-0.0671448
-0.575799
0.401029
-0.0488096
0.0640142
0.00351048
-0.00351048
0.11861
-0.730434
0.0407476
-0.023905
-1.01749
1.4869
0.559285
0.258143
-0.028749
-0.000252625
-0.40236
-0.571456
0.0121891
0.389754
-1.10768
-0.0170021
0.0170021
-0.76841
0.0218096
-0.0218096
0.00215652
-0.00215652
0.31624
-0.365388
-0.00248612
0.00248612
0.0195864
0.0149809
0.596741
0.221538
-0.0186209
-0.0122375
-0.00374817
-0.0904542
0.485028
-0.394574
0.0187359
-0.053015
0.0142468
0.886731
0.00920472
0.059684
-0.406112
0.432862
-0.479994
-1.02384
-0.225778
-0.0684716
0.0175172
-0.142273
-0.190386
0.0364113
-0.00263614
0.000960955
0.774412
-0.561657
-0.0335521
0.0656168
-0.0343884
0.0573859
0.109795
0.42909
0.232863
-0.168462
0.216328
0.0261564
-0.00943876
-1.18221
-0.000223986
0.0278598
-0.158638
-0.0195978
-1.40168
-0.0708229
0.260775
-0.348976
0.384004
0.220949
-0.773488
0.0447626
-0.0628247
-0.0377995
-0.342683
0.469441
-0.0261744
-0.057404
0.0835784
-0.0263511
0.0263511
0.16369
-0.427579
0.0067398
0.0551569
-0.0755432
0.0529635
-0.0672663
-0.00721534
0.0744816
-0.0392972
-0.150851
0.0364763
-0.0706937
-0.292423
-0.365422
0.657845
0.0134792
0.0565233
0.153276
-0.0243
-0.0236826
0.062405
-0.151833
0.303293
0.00475661
0.0286652
-0.0314296
0.184706
0.00390627
0.254133
-0.0020982
0.0020982
-0.395384
1.38529
0.0849515
-0.165727
-0.010632
-0.0478655
0.0666057
0.676905
-0.033725
0.00290322
-0.531689
0.00828431
0.108624
0.0838859
-0.666666
0.297565
-0.0572488
0.389606
-0.682028
0.22006
0.522048
-0.088658
0.088658
-0.000534047
-0.474845
0.201075
0.273771
-0.206321
0.151702
0.158327
-0.184344
-0.540243
-0.105684
0.00371182
-0.0035198
0.930144
0.227587
-0.125188
-0.0686194
-0.894658
-0.531937
-0.0591433
-0.270495
0.814211
0.589255
-0.265724
-0.278863
0.574798
-0.0561522
0.330329
-0.269571
0.071284
-0.470513
0.32555
0.125919
-0.125919
0.0889991
-0.0418494
-0.0471497
0.00408721
0.00591257
0.0222125
-0.327548
-0.156317
0.235246
-0.18757
-0.0476764
0.552506
-1.04631
0.299838
-0.742384
0.698793
-0.126673
-0.181137
-0.0460048
-0.0790893
-0.47817
0.0424268
-0.280339
0.0017798
-0.0195978
0.372265
-0.00528167
-0.00231727
4.87348e-05
0.0160082
-0.00800966
-0.00799851
-0.108038
-0.0181776
-0.164007
0.182185
-0.134185
-0.336328
0.0195864
0.34519
-0.00119997
-0.365631
0.0797047
0.00233865
0.0242608
-0.0687485
-0.0115528
0.0115528
-0.000804195
-0.00035585
-0.0096263
0.000106561
-0.0680359
0.000879738
-0.00118711
0.173119
-0.0476971
-0.00208739
0.00208739
0.0650622
0.520592
-2.5495e-05
-0.295418
0.522402
1.11539
-0.476868
0.343799
-0.437567
-0.100459
0.107199
0.238829
-0.237105
-0.0223834
0.0122072
-0.002383
-3.13376e-05
-0.182672
-0.387027
0.879633
0.269523
-0.356056
0.146469
-0.00157681
0.121384
0.0173385
-0.000408174
0.00103651
0.0111707
-0.322417
0.00126605
-0.000136672
0.707624
-0.645219
-0.243304
0.123383
0.955413
0.000307434
-1.19299e-06
-0.0419104
-0.00580761
0.817505
-0.431282
0.50349
-1.07489
0.906172
-1.10218
0.590614
-0.189585
0.688457
0.000152902
0.00324429
0.0157504
-0.111339
0.140285
-0.194676
0.00960685
-0.00203106
0.0620639
-0.0466544
-0.0154096
9.64466e-05
0.0449623
-0.0344459
-0.0105164
-0.0931337
0.00708065
-0.000279439
0.00195934
0.467307
-0.422998
-0.00493984
-0.000342563
0.722355
-0.52128
0.395323
-0.00573992
0.000798823
0.14918
-0.0419204
-0.0378355
-0.125229
-0.019766
-0.00353024
0.113345
0.00087076
-0.00134008
0.422152
-2.21278e-05
-0.00270467
0.00270467
-0.00568814
-0.00654933
-0.000685706
-0.322829
-0.00361758
0.070492
-0.10721
0.497345
0.207703
-0.0656218
-0.000597151
0.00104005
0.475174
-0.000983126
-0.000915376
0.00525488
-0.00200589
-0.000275893
0.0729287
0.00933088
-0.710296
0.487467
-0.874494
-0.0520964
-0.000199516
-0.549738
-0.00476667
0.0535902
0.609137
-0.0155378
0.0653498
-0.00394339
-0.00137272
-0.551071
-0.0032622
-0.000492653
-0.0246618
0.956497
-0.539666
-0.00248895
-0.000522938
-0.00574646
-0.00117533
0.0709312
-0.0228503
0.0228503
0.00389598
-0.00425183
-0.00256226
-0.00781245
-0.00906975
0.00675248
-0.159158
0.0879497
-0.00609572
-0.0131187
0.0449055
-0.0155081
0.0596839
-0.0421667
-0.62446
0.567162