/*--------------------------------*- C++ -*----------------------------------*\
| =========                 |                                                 |
| \\      /  F ield         | OpenFOAM: The Open Source CFD Toolbox           |
|  \\    /   O peration     | Version:  2306                                  |
|   \\  /    A nd           | Website:  www.openfoam.com                      |
|    \\/     M anipulation  |                                                 |
\*---------------------------------------------------------------------------*/
FoamFile
{
    version     2.0;
    format      ascii;
    arch        "LSB;label=32;scalar=64";
    class       volVectorField;
    location    "34";
    object      U;
}
// * * * * * * * * * * * * * * * * * * * * * * * * * * * * * * * * * * * * * //

dimensions      [0 1 -1 0 0 0 0];

internalField   nonuniform List<vector> 
2186
(
(1.34013 -0.0735593 2.0326e-19)
(1.66239 -0.974652 -9.33123e-20)
(1.50409 -0.949524 1.34612e-21)
(0.773798 -0.61692 -1.35239e-19)
(-0.0261605 0.00781642 -1.59586e-19)
(1.51634 -0.39798 0)
(0.753953 -0.69685 0)
(-0.19454 -0.246459 1.22446e-19)
(1.48561 -0.231246 1.88302e-19)
(0.580167 -0.355007 -2.42704e-21)
(0.652556 0.586309 0)
(0.828786 -0.287414 -1.40761e-19)
(-0.222243 -0.288402 -4.93921e-20)
(1.21357 0.0206484 -3.49371e-19)
(1.8516 -0.714905 -1.00025e-19)
(1.01221 -0.00663042 1.6538e-19)
(0.978207 0.0121442 0)
(-0.342812 0.0402744 0)
(0.985735 -0.202806 0)
(-0.146542 0.155073 -6.14132e-20)
(0.480519 0.0369063 -1.09624e-19)
(-0.111477 0.191384 8.55305e-20)
(1.19845 0.0243709 2.88732e-19)
(-0.21406 -0.0519808 6.52567e-21)
(1.0356 0.00200346 -2.2724e-19)
(0.825365 -0.591966 0)
(0.76599 -0.0629868 1.36905e-19)
(0.639951 -0.619152 -1.54449e-19)
(1.18036 0.687934 0)
(0.966028 0.0224235 -3.10067e-19)
(-0.0875018 0.0851586 0)
(1.02777 -0.015882 1.07399e-20)
(-0.22469 0.00331459 0)
(2.415 0.176238 2.33009e-19)
(-0.121361 -0.200237 2.42323e-21)
(1.50384 0.74859 7.49799e-20)
(1.91307 0.133014 1.38674e-19)
(0.501645 0.0863832 -3.27245e-19)
(1.83106 0.169897 -2.18233e-19)
(1.50459 -0.0904179 1.43118e-20)
(-0.25194 -0.338746 0)
(-0.0474924 0.138183 0)
(1.93857 -0.917019 9.42713e-20)
(-0.343739 0.0789087 0)
(1.08992 0.26422 1.47727e-19)
(0.621006 -0.335306 2.64919e-19)
(0.958511 -0.817503 0)
(1.23021 -0.821069 9.50192e-20)
(2.04472 0.136888 0)
(-0.120698 0.160448 1.43024e-19)
(-0.0867601 0.0997463 9.0714e-20)
(0.608411 0.560691 7.80835e-20)
(2.13872 -0.796664 1.14367e-19)
(0.577838 0.228594 -2.64026e-19)
(-0.292151 -0.222083 3.39058e-20)
(0.798229 -0.682906 0)
(1.71726 -1.00616 1.92825e-20)
(0.609357 -0.568856 0)
(2.1551 0.172219 6.0358e-20)
(1.16568 -0.180202 -3.29146e-19)
(2.09403 -0.0450015 1.26623e-19)
(1.31648 0.291001 -1.73068e-19)
(1.31374 0.517791 0)
(1.67533 -0.255885 -1.56801e-20)
(1.33519 0.378234 -1.06447e-19)
(1.29291 -0.764246 -1.29739e-19)
(1.13986 0.638647 5.13534e-20)
(0.67616 0.0342139 -5.29373e-19)
(0.817478 0.0264383 0)
(2.23237 -0.215528 -6.91379e-20)
(-0.212097 -0.276258 -1.41924e-19)
(2.53797 0.109482 -1.39257e-19)
(0.730363 -0.076205 -2.32306e-19)
(0.908947 -0.549961 0)
(0.815469 0.149776 -8.63113e-20)
(0.578033 -0.540418 -2.75232e-19)
(2.14706 0.0880861 0)
(1.00737 0.00812556 3.40272e-19)
(-0.119918 -0.246295 0)
(1.98399 0.285362 0)
(0.377369 0.0585243 5.53146e-20)
(1.32895 -0.362852 -3.34672e-20)
(1.02413 0.00324788 3.77129e-20)
(1.28673 0.394004 2.674e-20)
(0.974294 0.0212511 3.95193e-19)
(1.04318 0.0241188 -9.38277e-21)
(0.657903 0.136405 -3.17323e-19)
(1.24085 -0.453541 6.77166e-21)
(1.63304 -0.273169 0)
(-0.0694917 -0.05998 1.03496e-19)
(0.897255 -0.656111 -1.49347e-19)
(-0.0831942 0.0355933 4.30048e-22)
(1.13145 -0.0867331 2.29829e-19)
(0.836221 -0.214394 0)
(0.974025 0.0224118 3.78072e-20)
(1.33156 0.622812 0)
(1.67814 -0.989301 0)
(1.27451 0.215032 0)
(-0.0790267 0.097908 0)
(0.828407 -0.70126 2.66252e-19)
(0.102018 0.214366 -1.37738e-19)
(0.259937 0.127584 9.97345e-20)
(1.53026 0.183415 0)
(1.16402 -0.111591 -2.10099e-19)
(1.12427 0.0226607 1.68436e-19)
(-0.178292 0.179698 1.11133e-19)
(0.608588 0.46978 0)
(2.28866 -0.164651 -1.29688e-19)
(0.99754 -0.508355 7.47576e-20)
(-0.867467 0.919575 3.06007e-19)
(1.7122 0.269116 1.14059e-19)
(-0.0748916 0.142217 -2.27067e-19)
(0.850256 -0.773276 0)
(0.540154 0.304392 1.60666e-19)
(1.747 -0.240091 -5.51102e-19)
(-0.262103 -0.382557 -5.04636e-19)
(1.34999 -0.272065 1.61734e-19)
(1.58719 0.114044 0)
(-0.0931892 -0.0826304 -3.09573e-19)
(0.717543 -0.110611 7.32761e-20)
(1.52606 0.854933 0)
(-0.158352 0.154562 -1.84834e-19)
(0.85724 0.73421 -2.62836e-19)
(-0.459572 0.00828488 2.63622e-19)
(1.0278 -0.0268308 0)
(1.36139 -0.437612 -2.03712e-19)
(-0.0461396 0.0705728 0)
(0.730777 -0.531486 -9.86196e-20)
(-0.391255 0.0223308 -1.43153e-19)
(0.822737 -0.751154 0)
(0.46509 -0.331301 3.85704e-19)
(0.574721 -0.494586 2.58287e-19)
(0.430232 -0.389698 0)
(1.02346 -0.815479 -1.10138e-19)
(0.260811 0.0645202 0)
(-0.112683 0.199323 -1.12069e-19)
(0.847738 -0.732085 1.26513e-19)
(2.47666 -0.253974 2.97422e-19)
(2.0532 0.152579 0)
(-0.135268 -0.170842 0)
(0.662443 0.614926 -3.27622e-19)
(1.84191 -0.652164 1.43096e-20)
(-0.125766 -0.145117 0)
(1.02433 -0.841697 -1.2087e-20)
(1.16875 -0.106277 0)
(1.09893 -0.136048 3.64714e-19)
(2.1337 -0.189432 -1.23599e-19)
(-0.0479415 0.0170408 0)
(1.26384 -0.579272 -4.80214e-20)
(-0.324423 0.127475 -4.23038e-20)
(0.00156188 0.0261423 0)
(1.13437 -0.848371 1.2713e-20)
(1.00714 0.00451318 -5.68421e-19)
(0.684328 -0.518012 -9.71209e-21)
(0.851163 -0.550565 0)
(1.24316 -0.761961 -8.04147e-20)
(0.639535 0.197445 2.47402e-19)
(1.17619 0.120839 0)
(1.45209 0.0698418 -2.47708e-19)
(1.23987 -0.890764 -1.62607e-19)
(-0.12788 -0.164492 -1.14157e-19)
(-0.0433528 -0.451274 -1.80516e-19)
(1.06221 0.000248078 2.13977e-19)
(0.952214 -0.495281 -9.40041e-20)
(1.12314 -0.257943 -6.26864e-21)
(0.272498 0.0963117 8.09954e-21)
(0.744098 -0.119107 1.25019e-19)
(-0.139867 -0.0888408 -2.81183e-19)
(2.06411 -0.24972 0)
(2.71635 -0.268782 1.43888e-19)
(1.41152 0.626516 1.32468e-19)
(0.844743 -0.648988 -1.94234e-19)
(0.995954 0.00783306 1.16468e-20)
(0.756019 -0.567085 2.71075e-19)
(1.27066 0.774294 1.21181e-19)
(1.73722 0.0535522 9.70449e-21)
(-0.0647524 -0.0429646 0)
(1.07756 0.0454342 -2.2191e-19)
(-0.386309 -0.297351 -2.3749e-19)
(1.04286 0.467009 7.61297e-20)
(0.0879665 -0.132444 1.69927e-19)
(1.16503 0.0257701 -4.03175e-20)
(-0.224386 -0.0100377 -1.47957e-19)
(1.2631 0.560122 -7.40158e-20)
(1.10526 0.858793 0)
(-0.112002 -0.075221 -8.83159e-20)
(-0.103981 -0.231547 0)
(0.625795 0.53265 -2.65115e-19)
(2.00751 0.132456 -1.4321e-20)
(-0.262315 -0.346679 1.67124e-19)
(-0.321687 -0.21228 -5.54088e-19)
(0.722059 0.0359189 2.32527e-19)
(1.78777 0.142998 -2.38999e-20)
(1.01179 -0.372893 -2.7708e-20)
(-0.0714874 -0.0818829 0)
(-0.731762 0.972744 4.31037e-19)
(1.29556 0.943992 -1.85811e-20)
(0.834914 0.043363 -1.27434e-19)
(0.533572 0.499391 1.84498e-19)
(0.482236 0.195093 0)
(-0.158364 -0.35677 -2.21318e-19)
(-0.933572 1.30186 2.60144e-19)
(1.34279 -0.993055 2.51909e-22)
(0.993894 -0.0499811 -1.76436e-19)
(-0.182357 -0.16502 6.80747e-21)
(0.0319902 -0.0328639 1.34831e-19)
(-0.250418 -0.20161 -1.99727e-19)
(1.66421 0.119512 0)
(1.11945 0.0382692 -2.98351e-19)
(2.35313 0.142546 1.27496e-19)
(1.31725 -0.647221 8.40728e-20)
(1.35184 -0.147802 2.25306e-20)
(0.570702 0.284427 0)
(0.912897 0.722315 -1.55558e-20)
(0.65989 0.605548 1.75837e-19)
(0.933425 -0.596769 1.35233e-19)
(0.656338 0.466199 0)
(1.02417 -0.00404068 7.57903e-21)
(0.919778 -0.697937 1.92281e-19)
(0.813838 0.392484 -4.33579e-19)
(1.24592 -0.109049 0)
(-0.094372 -0.135717 -3.68727e-19)
(-0.116967 0.0317847 -9.24183e-20)
(1.55109 0.695074 0)
(1.39883 -0.974236 -2.15627e-22)
(-0.31133 0.0524962 0)
(-0.013525 0.0238809 1.00585e-19)
(0.707345 0.623559 -9.34134e-20)
(0.869244 -0.248353 0)
(-0.205571 -0.172966 0)
(1.65308 -0.482543 0)
(-1.29639 0.487198 4.17967e-19)
(1.25862 -0.918681 1.06556e-19)
(1.21747 -0.633503 5.33191e-20)
(1.0856 -0.18271 -1.49004e-19)
(0.917871 -0.728231 -1.5121e-19)
(0.196007 -0.200655 0)
(-0.638059 -0.100277 0)
(1.03903 -0.540822 1.5805e-19)
(-0.151468 -0.185919 0)
(-0.120897 0.133919 0)
(-0.244096 -0.388873 4.33202e-19)
(0.762834 0.641213 8.1034e-20)
(0.981406 0.76609 0)
(0.667304 0.519693 -8.08276e-20)
(0.836248 -0.0745474 -2.08835e-19)
(0.716735 0.529869 -2.16071e-19)
(0.567266 0.525485 -1.58934e-19)
(-0.212849 -0.282626 4.92508e-22)
(0.750983 -0.67434 0)
(0.888373 0.147941 -3.03399e-19)
(-0.238587 -0.325751 6.31097e-20)
(0.580843 0.537444 3.58229e-19)
(0.92583 0.768959 0)
(-1.29702 0.4677 3.11652e-19)
(-0.133932 -0.264393 3.46323e-19)
(-0.0707814 -0.1205 -1.77731e-19)
(0.634811 0.537271 -1.40541e-20)
(0.969446 -0.00897715 5.50712e-20)
(-0.2585 -0.367325 0)
(2.35154 -0.0395051 -3.18932e-19)
(1.91682 -0.0350347 -3.81719e-19)
(0.683174 -0.633598 -6.81709e-20)
(-0.438762 0.0805327 8.27876e-21)
(1.16389 0.438235 1.71452e-19)
(0.861645 0.383703 0)
(1.07876 -0.187482 1.76365e-19)
(-0.00462503 -0.270889 -3.29675e-21)
(-0.133097 -0.0030619 3.42831e-19)
(0.928444 0.0162509 -4.8802e-20)
(1.08381 0.140313 0)
(1.93313 -0.0558519 -3.04695e-19)
(1.76922 0.0562171 0)
(0.529056 0.207257 -4.33809e-19)
(0.034413 -0.0345032 0)
(-0.204552 -0.259521 2.7843e-19)
(0.725324 0.109451 0)
(0.654986 -0.551977 -1.66907e-19)
(1.14842 0.0150284 1.93769e-19)
(-0.0986861 0.0459359 3.45922e-20)
(2.02512 -0.00546178 3.25018e-21)
(2.15867 -0.250423 -1.39385e-19)
(1.09202 0.213019 -2.05912e-19)
(-0.239879 -0.347747 -1.21709e-19)
(1.11697 -0.885961 0)
(0.818917 0.0176951 -1.41038e-19)
(0.957745 -0.406465 -2.65338e-19)
(1.77315 -0.599806 -7.72742e-21)
(1.80845 0.0193426 2.73353e-19)
(1.0684 -0.0107663 3.5702e-19)
(-0.0157597 -0.28301 -1.62374e-19)
(1.02821 -0.466555 -1.14269e-19)
(0.206837 -0.199326 2.35711e-19)
(1.00788 -0.00892404 0)
(1.00481 -0.00751625 0)
(1.01423 0.139523 1.4148e-19)
(-0.0985299 0.206772 -7.98976e-20)
(0.175706 -0.120686 -1.49674e-19)
(1.92373 0.09 -8.1756e-21)
(0.91715 0.141623 0)
(1.6515 0.133822 -8.23179e-20)
(0.981124 -0.854845 -6.46683e-20)
(1.84382 -0.588555 -8.63857e-20)
(1.07253 0.808379 0)
(0.498552 -0.481827 0)
(0.576009 0.484132 -1.68368e-19)
(1.07298 0.261399 -3.80188e-19)
(2.32785 -0.2529 4.36943e-22)
(0.852097 0.132713 1.30176e-19)
(-0.0778617 -0.3492 -4.55018e-19)
(1.63086 -0.481935 -5.61496e-20)
(-0.150009 -0.44107 0)
(-0.145241 -0.192492 0)
(-0.293015 -0.415653 0)
(1.38572 -0.753938 -6.52579e-20)
(-0.00290937 0.0290515 -1.92621e-19)
(0.0269963 -0.0394391 0)
(1.2559 0.945642 -3.20206e-20)
(1.09334 0.135021 -3.94558e-19)
(1.89895 0.178146 -2.42735e-20)
(1.04851 0.893633 7.90081e-20)
(-0.0720869 0.136032 1.1598e-19)
(1.61896 -0.146694 0)
(-0.289974 -0.414486 -3.50554e-19)
(-0.0377392 0.0869454 2.21664e-19)
(0.774768 -0.00024125 1.71275e-19)
(1.49829 0.915832 -2.59394e-21)
(0.844467 -0.415369 -1.71213e-20)
(-0.103556 0.0183759 -3.62771e-22)
(0.777962 -0.710351 -3.27602e-20)
(1.08686 -0.0289537 0)
(1.64024 -0.0414599 0)
(1.09493 0.0470798 0)
(-0.758802 0.870936 -2.80417e-19)
(-0.275411 -0.42708 1.19579e-19)
(1.01391 0.814925 0)
(1.0034 -0.0152676 4.74166e-19)
(0.737931 0.572218 -2.16761e-19)
(-1.06333 0.855036 -2.86515e-19)
(0.859635 -0.00896413 -3.83632e-20)
(0.746419 -0.682192 -1.95941e-19)
(1.35075 0.682209 -3.04045e-20)
(0.596438 -0.49247 -2.68752e-19)
(1.12417 -0.00226588 -4.28105e-19)
(0.824454 0.0396894 4.14199e-20)
(1.57724 -0.185877 5.24001e-20)
(2.00757 -0.096524 -1.2081e-19)
(-0.0800987 -0.0901091 7.08418e-23)
(1.05152 0.443805 -2.52919e-19)
(1.31388 0.595462 7.09664e-20)
(-0.13587 -0.20811 0)
(-0.0342322 -0.401168 1.68142e-19)
(-0.142188 -0.222928 1.55892e-19)
(-0.170222 -0.143815 -1.43372e-19)
(0.448354 0.264941 0)
(1.34163 0.108226 0)
(-0.0385689 0.0284043 -1.24477e-19)
(-0.22572 -0.328698 -6.46857e-20)
(1.04338 -0.0322968 1.69613e-19)
(-0.0198966 -0.0678403 -4.17997e-20)
(1.04652 0.188057 -2.44121e-19)
(-0.184274 0.169152 0)
(0.868496 -0.770603 -2.6461e-19)
(1.86862 -0.142051 2.08251e-19)
(-0.210602 -0.347823 1.57467e-19)
(0.708536 0.123141 3.09154e-19)
(0.613875 0.0915747 1.00164e-19)
(0.528069 -0.501732 1.8497e-19)
(-0.14215 -0.173885 -1.49333e-19)
(0.824644 -0.451854 0)
(0.364963 0.298181 -1.84929e-19)
(1.02675 -0.0182819 -2.69904e-19)
(-0.32286 -0.196092 2.18797e-19)
(1.3834 0.455922 -1.13325e-19)
(-0.16708 -0.213184 -5.64742e-20)
(0.716166 -0.654035 -3.11046e-20)
(0.800727 0.15636 -1.94152e-19)
(0.951335 0.399569 2.15955e-20)
(1.17294 -0.152407 3.15844e-20)
(0.626888 -0.272968 -2.77955e-19)
(2.0715 -0.37452 -1.78515e-19)
(2.04919 0.0387183 0)
(1.66853 0.267056 -1.4102e-20)
(1.72012 0.135501 -1.55991e-20)
(0.71865 -0.17393 1.20603e-19)
(0.985027 0.348754 -1.79312e-19)
(1.79481 -0.418964 6.09874e-20)
(0.392996 0.355394 -2.39766e-19)
(-0.256829 0.132599 1.46141e-19)
(2.04443 -0.181764 0)
(0.931928 0.00413793 0)
(0.90901 -0.80467 5.0009e-20)
(-0.137812 -0.285849 -3.79409e-19)
(-0.692524 -0.073852 -1.66726e-19)
(-0.0999838 -0.117102 -2.43006e-19)
(-0.215212 0.0998126 -1.17073e-19)
(-0.173368 -0.460239 0)
(-0.133453 -0.171215 4.31736e-20)
(-0.238643 0.170968 -8.53368e-20)
(0.0324585 -0.0315717 -3.06796e-19)
(0.816658 -0.143545 0)
(1.92139 -0.120038 1.74445e-19)
(-0.125402 -0.167108 0)
(0.994831 0.0236548 3.42112e-19)
(-0.0500676 -0.438635 2.17704e-20)
(0.57171 -0.464406 3.60179e-19)
(-0.43495 -0.331275 3.93098e-19)
(-1.11584 0.277006 0)
(-0.0575618 0.183466 8.42266e-20)
(1.0059 0.0198172 -1.02853e-20)
(-0.0793697 -0.153054 0)
(1.00506 -0.00945752 -5.33438e-20)
(0.897288 -0.759461 -2.55242e-19)
(0.907065 0.322788 0)
(0.957888 -0.297646 1.89922e-19)
(-0.122624 0.227245 1.54112e-19)
(-0.052291 -0.0525331 0)
(-0.151882 -0.385941 -6.19838e-21)
(0.75984 -0.666236 -3.84107e-19)
(0.974732 -0.0306247 -2.45511e-19)
(-0.138458 -0.284448 4.58759e-19)
(-0.199379 -0.260102 1.71138e-19)
(-0.161559 -0.469535 0)
(0.932215 0.448015 0)
(-0.137008 -0.448618 1.96908e-19)
(1.86818 -0.0714757 -2.31936e-19)
(1.04314 0.8674 1.7705e-20)
(1.055 0.197227 -1.15762e-19)
(1.15629 0.00581847 -2.02441e-19)
(1.07202 -0.0770402 -7.08445e-20)
(-0.152958 -0.301268 -4.18254e-19)
(1.74897 0.0761917 2.83088e-19)
(0.655476 0.0335956 1.94237e-19)
(1.89154 -0.066741 1.49624e-19)
(1.06816 -0.164115 0)
(0.0501519 0.581828 6.19459e-19)
(1.14476 0.0242656 -4.63616e-19)
(1.70864 0.592642 9.25951e-21)
(0.772462 -0.48999 -1.47508e-19)
(-0.0904642 -0.0806991 2.31424e-19)
(0.831657 -0.731114 3.3635e-19)
(1.21225 0.188966 6.98256e-20)
(1.0066 -0.00819484 2.36327e-19)
(-0.0528029 -0.333484 -1.75955e-19)
(1.0179 0.00948634 0)
(1.67028 0.117842 -2.15968e-19)
(-0.0719457 -0.0681916 0)
(1.01386 0.0109288 -1.39077e-19)
(-1.22313 0.659394 -4.99438e-19)
(1.69242 0.281744 3.50593e-20)
(-0.220244 -0.383206 1.89127e-19)
(1.55372 0.0156878 1.72998e-21)
(1.01319 -0.0204404 4.89558e-20)
(1.33756 -0.0824903 0)
(1.49065 -0.632573 -1.06523e-19)
(1.01685 0.0237802 -1.44982e-19)
(1.40597 0.762931 -5.41668e-20)
(1.36155 -0.044195 0)
(2.00334 0.453676 -1.50478e-20)
(-0.0509005 0.0338008 0)
(1.41722 0.0382203 0)
(-0.269839 -0.406333 0)
(1.21376 0.429149 0)
(1.82059 0.223526 3.92594e-20)
(0.71171 0.585705 3.79912e-19)
(0.306296 -0.308332 -2.1891e-19)
(-0.222943 -0.311 -4.02422e-19)
(-0.0779117 -0.0885486 0)
(2.67545 -0.0948157 1.40793e-19)
(1.34681 0.505945 0)
(1.4273 0.281219 0)
(-0.291136 -0.428195 1.52519e-19)
(0.781104 0.68838 1.22194e-19)
(1.74569 -0.032112 0)
(-0.206248 -0.254666 9.4835e-20)
(0.892973 0.194116 1.78103e-19)
(2.1394 -0.0741894 -1.25291e-19)
(1.20815 0.898844 4.29138e-20)
(0.958156 -0.862468 -2.57783e-20)
(1.9877 0.0241533 -9.68762e-20)
(0.767904 0.692774 1.25472e-19)
(1.14689 0.898086 0)
(2.19882 0.0452829 1.54574e-19)
(1.04019 0.894011 0)
(1.86357 -0.353895 1.62449e-19)
(1.11179 0.085973 1.98349e-19)
(1.00506 -0.0068507 0)
(0.50774 1.13938 5.54807e-19)
(0.906106 -0.199551 4.41358e-20)
(0.66043 -0.44703 0)
(0.697181 -0.419453 1.95131e-19)
(1.20826 0.535679 -3.18276e-20)
(0.453773 0.42614 2.63594e-19)
(0.0334119 -0.0303545 3.65816e-20)
(0.0462722 -0.150459 9.03924e-20)
(0.775683 0.0654409 0)
(1.36773 -0.934314 -4.71881e-20)
(1.02914 -0.0452835 3.76679e-19)
(1.52164 0.329165 1.42034e-19)
(-0.228075 -0.290786 8.1695e-20)
(-0.424307 -0.434968 0)
(1.25772 -0.253427 -1.01383e-19)
(-0.05305 -0.0549389 -1.98799e-19)
(0.231406 -0.242658 -6.60114e-20)
(-0.138397 0.0724341 -1.00099e-21)
(-0.199787 0.108111 2.8572e-19)
(1.20757 -0.440411 -6.97587e-21)
(2.46421 -0.0293571 4.27053e-19)
(1.16236 0.438859 -2.76475e-19)
(0.834528 -0.0583905 0)
(1.77901 -0.0829973 1.41308e-19)
(1.92961 0.0879369 1.27009e-19)
(0.948534 -0.798074 1.23777e-19)
(1.19826 -1.01121 -2.18345e-20)
(0.458811 0.424517 1.76776e-19)
(1.46539 0.513808 0)
(1.71969 0.547513 2.64185e-20)
(-0.0655835 -0.0749286 -4.05012e-19)
(0.856753 0.745578 0)
(1.27361 -0.463893 0)
(0.308055 -0.308121 -3.88516e-21)
(0.298508 0.260524 0)
(-0.528251 -0.421141 -3.45506e-19)
(0.0178079 -0.00889391 -1.04971e-19)
(1.7823 -0.448562 0)
(1.19012 0.0909308 1.82965e-19)
(-0.588544 -0.0025158 1.38852e-19)
(0.559962 -0.532425 -4.20219e-19)
(1.96451 -0.0845667 -5.41351e-20)
(0.639797 -0.582199 0)
(1.00176 0.121641 0)
(1.38845 -0.272503 0)
(1.10172 0.212668 -2.19712e-19)
(1.32242 0.098259 3.11001e-19)
(-0.816895 -0.0880746 0)
(0.897382 -0.0683756 0)
(2.06204 -0.0302289 -7.20636e-21)
(-0.0251441 -0.0310921 9.46764e-20)
(2.13659 0.116855 -1.66188e-19)
(1.1005 -0.535557 2.07076e-19)
(1.82584 0.0806577 -2.10288e-19)
(-0.534546 -0.0515436 -1.05906e-19)
(1.80153 0.0498352 -1.20388e-19)
(1.02006 -0.0315189 3.85615e-19)
(1.48295 0.576841 0)
(-0.0332966 0.0706896 2.83273e-20)
(1.04299 -0.862118 1.48569e-19)
(0.861872 -0.0433214 4.48424e-20)
(0.665724 -0.469456 0)
(1.96589 -0.558172 8.25482e-21)
(1.23983 -0.203205 1.31977e-19)
(1.93745 -0.209217 0)
(0.634504 -0.589731 3.90687e-19)
(1.09341 -0.0188695 -1.99137e-20)
(2.1155 0.127244 2.58873e-19)
(0.000224813 -0.0214971 -1.94986e-19)
(1.29977 0.59579 1.41985e-19)
(1.12278 0.387605 3.47739e-21)
(0.884007 0.346416 2.12507e-19)
(2.04803 0.0930201 -2.66695e-19)
(-0.159733 -0.307299 -1.57429e-21)
(0.683201 -0.217048 0)
(-0.144264 -0.112179 3.79468e-19)
(1.13158 -0.985367 0)
(1.10258 -0.68268 1.90317e-20)
(1.13293 -0.103885 -6.99553e-19)
(0.479761 0.457333 8.5412e-20)
(-0.353612 -0.376223 -3.75768e-19)
(0.962136 0.458899 1.66169e-19)
(-0.153906 1.03163 3.09939e-19)
(0.684514 -0.0393443 0)
(2.02281 0.0491485 0)
(1.27982 0.150143 1.78026e-20)
(0.790068 -0.0128931 0)
(1.39175 -0.216608 -1.35803e-19)
(-0.645055 -0.217667 4.02777e-19)
(1.88382 0.478477 9.4474e-21)
(1.03513 -0.0352453 0)
(0.581047 -0.391611 9.58773e-20)
(1.00899 0.0265653 1.836e-19)
(0.333241 0.86264 -2.22305e-19)
(-0.279241 0.117413 0)
(1.14543 -0.501197 4.32576e-19)
(2.07822 -0.0589363 -5.10235e-22)
(1.1336 -0.522897 -1.88446e-19)
(2.21277 0.22222 1.17808e-19)
(1.25651 0.765372 0)
(0.861387 0.0178635 0)
(-0.268054 -0.365051 -2.06423e-19)
(-0.0389776 0.0174835 1.40082e-19)
(0.927729 0.343564 -1.96291e-19)
(0.112138 -0.295575 -1.53061e-19)
(0.623427 0.372267 2.30132e-19)
(1.71626 0.413886 0)
(0.562942 -0.523523 0)
(0.11221 -0.615071 -1.13494e-20)
(1.26784 -0.531486 -8.60163e-20)
(0.73075 -0.0661869 1.52353e-20)
(0.742984 -0.190656 1.09895e-19)
(-0.0676128 -0.0274537 -2.49777e-19)
(0.864835 0.106536 1.10688e-19)
(0.637649 0.593325 0)
(1.23934 0.671766 0)
(1.57813 0.249774 0)
(-0.252968 -0.450879 -1.69838e-19)
(1.25065 0.542546 1.94591e-19)
(2.06794 0.0647099 5.28046e-20)
(0.909465 -0.0126875 0)
(2.7513 -0.374987 0)
(1.99122 -0.0323358 -2.14104e-19)
(0.653904 1.15841 2.60142e-19)
(1.00527 0.00250849 -1.83723e-19)
(1.463 0.464175 0)
(-0.19369 0.13442 0)
(1.21525 0.301102 2.73066e-19)
(0.996521 0.503391 -1.23422e-19)
(1.06581 0.0186541 0)
(1.75645 0.125684 0)
(1.96855 0.637875 -2.84256e-19)
(-0.0807189 0.0601222 5.87643e-22)
(0.997485 0.0114414 0)
(0.68267 0.439323 -3.16694e-20)
(0.972131 -0.857302 0)
(1.00065 0.0147154 4.26305e-20)
(0.831867 -0.551324 -3.57792e-19)
(0.92898 -0.348713 2.78998e-19)
(0.541945 -0.71643 2.38477e-19)
(2.19315 -0.143893 3.65782e-19)
(1.35802 0.0837298 9.43356e-20)
(0.799149 -0.0302364 0)
(1.02309 0.00658649 0)
(-0.326433 -0.3466 0)
(0.643542 0.61541 -1.79736e-19)
(-0.0414411 -0.0262219 1.68395e-19)
(1.14552 0.333053 -4.3757e-19)
(-0.159818 -0.0463974 0)
(0.800273 0.613289 1.59709e-19)
(1.03469 -0.358463 0)
(1.00564 -0.00231369 1.07547e-19)
(0.717847 0.150314 8.45675e-20)
(1.00998 0.383105 2.43353e-19)
(1.17238 0.07889 0)
(2.0867 0.103095 -4.92463e-20)
(0.834808 -0.140295 -3.37412e-19)
(-0.606061 -0.517902 -5.0453e-19)
(1.51794 0.7108 0)
(0.862944 0.215291 1.65187e-19)
(2.05355 -0.150284 0)
(0.749474 0.49046 3.4432e-19)
(-0.75878 -0.39348 1.89373e-19)
(-0.00110105 -0.0398819 0)
(0.56874 0.5397 -6.72311e-20)
(1.06368 -0.671015 -1.33834e-19)
(0.505064 -0.297045 -1.13101e-19)
(1.02175 -0.0222118 0)
(-0.381086 0.126819 -1.22868e-19)
(0.668507 -0.599164 7.40065e-20)
(0.888381 0.263402 0)
(1.81526 0.0160412 1.83024e-19)
(0.954056 0.810582 2.3154e-20)
(0.638171 -0.549363 3.1323e-19)
(0.183234 -0.0749279 -2.86154e-19)
(0.247104 -0.119451 -5.16097e-19)
(-0.156699 -0.202462 1.05053e-20)
(0.794734 0.327972 2.33661e-19)
(-0.00385131 0.0348857 -4.69555e-21)
(1.45611 -0.674746 3.49875e-21)
(1.0251 0.00132026 -3.18571e-19)
(-0.285823 -0.4466 0)
(1.02833 0.0247709 -3.77719e-19)
(2.32855 0.301056 2.21727e-19)
(0.858028 0.661106 2.68016e-19)
(1.14651 -0.0783827 1.46988e-19)
(1.00848 -0.0397251 1.47418e-19)
(0.613438 0.44887 -8.03165e-20)
(-0.185585 -0.214499 -5.26126e-22)
(1.78186 -0.904296 1.59115e-20)
(1.15743 -0.131592 -6.71093e-20)
(0.843592 0.0523607 7.67114e-20)
(0.932649 -0.318334 8.23903e-20)
(0.816987 -0.0237357 0)
(0.931812 0.705982 0)
(0.824698 0.0893968 -1.00789e-19)
(1.91367 0.163646 -1.47493e-20)
(-0.492893 -0.32105 1.55024e-19)
(1.06288 -0.566912 -4.59578e-19)
(0.647476 -0.566336 3.56337e-19)
(1.20526 0.0917093 -8.1332e-20)
(0.125539 -0.298363 1.80252e-20)
(1.58023 -0.50718 0)
(0.747205 0.0812725 -6.32719e-21)
(1.77647 -0.333752 -3.26743e-19)
(1.00901 0.733639 0)
(1.0388 -0.470195 0)
(-0.00692683 0.106389 0)
(-0.167985 -0.207406 -6.7577e-20)
(-0.0267131 0.17327 0)
(1.60785 0.887153 2.78697e-19)
(1.19958 0.1736 6.00805e-21)
(-0.760206 0.502548 2.15059e-19)
(1.25579 -0.182648 -5.78358e-21)
(1.78778 0.42047 -6.1083e-20)
(2.19086 -0.324622 -3.95669e-20)
(-0.174332 0.0432007 -2.01128e-19)
(-0.140457 -0.437946 4.61803e-21)
(1.09484 -0.0247404 0)
(0.670071 -0.034593 0)
(1.0006 -0.000316922 2.10666e-22)
(-0.254251 -0.455225 0)
(1.49064 0.0133781 -1.22448e-19)
(0.673706 -0.031279 0)
(1.06728 0.00408877 1.178e-19)
(0.988016 0.0144937 -4.17421e-20)
(0.803271 0.132976 6.94654e-20)
(1.05674 -0.0215167 -8.62946e-22)
(0.96782 -0.2121 -4.98615e-20)
(1.02995 -0.0399423 3.41674e-19)
(0.702682 -0.641487 1.66675e-19)
(-1.15086 0.862035 -2.37195e-19)
(1.63624 -0.356867 2.71985e-21)
(-0.0424232 0.0065364 0)
(1.09442 0.767331 0)
(1.03348 -0.0151104 0)
(1.03957 -0.806225 -9.12061e-20)
(1.0775 -0.923135 2.35172e-20)
(1.91667 -0.0643326 -4.04589e-20)
(0.262501 0.211705 -1.21783e-18)
(0.287152 -0.206162 -4.9825e-20)
(0.614786 -0.423643 -5.81398e-19)
(1.679 -0.14147 -2.3506e-20)
(-0.174322 -0.70335 2.08383e-19)
(2.12785 -0.33012 1.24147e-19)
(1.18097 -0.0140055 -8.67594e-21)
(-0.204587 -0.25346 -1.41831e-19)
(1.08513 0.529089 1.87491e-19)
(-0.135945 -0.293788 0)
(0.122059 -0.399686 3.64515e-19)
(-0.137897 -0.171631 -1.62539e-22)
(1.0251 -0.0458131 3.08646e-19)
(1.02592 -0.00520435 -7.90692e-21)
(1.10559 -0.0126681 -8.53043e-20)
(1.24738 0.697615 -1.90383e-19)
(1.58551 0.305734 5.77093e-20)
(0.423069 -0.398685 -2.87779e-19)
(2.02083 -0.011005 9.0232e-20)
(1.03891 -0.00525958 -2.25329e-19)
(1.74838 -0.151094 -2.80023e-21)
(1.48549 0.58507 0)
(1.08084 0.567662 -3.51595e-19)
(1.00242 -0.00504009 8.77702e-20)
(0.648272 0.575774 2.46232e-19)
(1.76035 -0.40735 1.22653e-20)
(1.05965 -0.0144321 -2.81132e-20)
(1.1204 0.0100205 7.97128e-22)
(2.11268 0.102508 9.19933e-21)
(1.21588 -0.132727 0)
(1.04248 -0.0410789 0)
(1.04907 -0.0352157 5.4069e-19)
(1.00264 -0.00313783 0)
(-0.107064 -0.126604 0)
(0.983228 -0.604589 0)
(1.00114 -0.0010521 -5.1038e-19)
(1.19609 -0.711836 7.10463e-20)
(1.02461 -0.00659366 1.06885e-20)
(1.31065 0.927261 -2.53755e-20)
(1.49347 0.974395 -6.39929e-22)
(0.154885 -0.203355 8.78436e-20)
(1.79474 0.35489 2.53689e-19)
(1.12739 0.172431 0)
(-0.163336 0.146144 0)
(2.23586 -0.0724783 5.05895e-19)
(1.2354 -0.208559 0)
(0.999914 -0.0052205 -1.5827e-19)
(1.01059 -0.000987915 3.07442e-19)
(1.42018 0.132679 -6.54785e-20)
(-0.0056463 -0.117379 2.93423e-19)
(0.972456 -0.000822924 1.67272e-19)
(1.38633 0.14058 1.41767e-20)
(1.01138 -0.139515 -2.78544e-20)
(1.18804 0.753759 -1.90497e-21)
(0.93351 0.0169526 -1.67576e-19)
(1.00399 0.00361006 1.98283e-19)
(1.00012 -0.00061844 1.17156e-20)
(0.789134 -0.0131931 0)
(0.726372 -0.026944 0)
(0.721474 -0.0273524 6.61616e-22)
(0.696412 -0.0293493 0)
(1.76191 -0.0935406 0)
(1.20101 -0.205908 0)
(0.533239 -0.0559837 6.09135e-20)
(0.710611 -0.0791767 -3.09156e-20)
(1.38684 0.014966 0)
(0.598276 0.717417 -2.36702e-20)
(0.993795 0.899722 0)
(1.22704 0.298044 0)
(1.32138 0.0745947 0)
(1.39002 -0.10518 -1.58272e-21)
(0.954503 -0.03885 2.78866e-20)
(0.780374 0.0221854 0)
(0.786893 0.0199726 0)
(0.970469 0.0195695 -2.06677e-19)
(0.814063 0.00823806 3.86565e-19)
(1.00846 -0.00133882 0)
(1.00027 -0.000600301 3.6642e-19)
(1.00018 -0.000739032 -3.63876e-22)
(0.78687 0.0216698 3.27992e-19)
(0.993479 -0.00697167 -1.9203e-19)
(1.18868 0.175295 0)
(0.797114 -0.156578 2.78705e-20)
(1.00063 -0.00158409 -1.85354e-19)
(0.999539 0.000750169 -3.17826e-19)
(1.41088 0.798556 0)
(0.998922 0.0016656 0)
(0.999769 0.000164567 0)
(1.86522 -0.625581 6.78266e-20)
(-0.356606 -0.238957 -8.53143e-20)
(1.84719 -0.275471 0)
(0.00295158 -0.057634 1.92958e-19)
(-0.169696 0.7777 -5.39164e-19)
(1.01898 -0.0199498 -2.4686e-19)
(-0.240122 -0.385475 -1.21158e-19)
(1.01924 -0.00244935 -1.9845e-19)
(1.20061 -0.224792 -8.60922e-20)
(0.828697 -0.504251 2.76065e-19)
(-0.0934645 -0.106055 -9.82995e-20)
(1.03229 0.00890944 0)
(1.04447 -0.0150226 -5.41469e-20)
(0.863014 0.0202336 0)
(-0.114448 0.0213915 2.48229e-19)
(1.34876 -0.297116 0)
(-0.28821 -0.445172 -3.09217e-19)
(1.35017 0.0475318 -1.1051e-20)
(1.62008 0.65641 -6.91397e-21)
(-0.0843865 0.0398546 0)
(1.05231 -0.0384642 1.67162e-19)
(-0.080813 -0.155531 -1.18452e-20)
(0.926488 -0.0294033 2.62624e-19)
(1.01144 -0.0102324 -1.68267e-19)
(1.64176 0.830968 3.60022e-20)
(0.499157 0.465612 0)
(0.419035 0.362662 1.93342e-19)
(2.5419 -0.43546 -1.22554e-20)
(1.13124 0.117907 1.82522e-19)
(1.12498 -0.742305 0)
(1.02099 -0.000145681 0)
(0.999541 -0.019207 -3.87849e-19)
(1.0195 0.0136578 -3.76961e-19)
(-0.187868 -0.254344 0)
(1.19008 0.794624 -1.23713e-19)
(1.57206 -0.583218 -1.30606e-20)
(1.01595 0.00213017 1.45315e-19)
(1.01248 0.0120141 -1.82093e-19)
(-0.313438 -0.430233 -3.05465e-20)
(-0.719091 -0.30784 2.28335e-19)
(1.01745 -0.0180604 6.20281e-19)
(1.59221 -0.611373 0)
(1.82455 0.612058 -4.19007e-20)
(1.01527 -0.0143788 -1.93107e-19)
(2.03211 0.128789 -1.35211e-19)
(1.05832 0.0031898 -4.46467e-22)
(1.00914 -0.0109328 3.86727e-20)
(2.11432 -0.227731 -3.11262e-19)
(1.01655 0.00561328 1.87092e-19)
(-0.0835094 -0.891915 -2.05567e-21)
(1.01905 -0.00114256 0)
(0.922273 0.12922 4.65364e-20)
(-0.639624 -0.186041 6.74479e-21)
(1.0018 0.0210073 1.85807e-19)
(1.0421 0.020036 -6.20824e-22)
(1.43852 -0.688568 4.25159e-20)
(1.23349 0.30525 3.90819e-19)
(0.998439 0.0136194 1.27611e-19)
(1.01643 -0.0164145 4.55837e-22)
(1.69324 0.235028 -2.31916e-20)
(1.75148 0.914963 -1.00252e-19)
(0.805687 -0.723574 5.10411e-20)
(0.478741 -0.370159 -2.82075e-19)
(1.00712 -0.0121569 0)
(1.02129 0.000931913 4.64882e-20)
(1.0107 -0.0109368 9.81458e-20)
(-0.256211 -0.553892 1.52001e-20)
(1.01469 0.00273876 -1.9479e-19)
(1.03282 -0.0299904 2.22384e-19)
(1.00777 -0.00941371 -1.83551e-19)
(1.01375 0.00301626 -4.74242e-22)
(1.0131 0.000851534 -3.39636e-22)
(1.02647 0.0112665 1.86392e-19)
(0.895669 0.0629663 4.76944e-19)
(1.377 0.405629 0)
(0.403178 -0.293638 2.72985e-19)
(1.01178 -0.0064369 0)
(1.02038 -0.0233711 -5.41184e-20)
(1.49703 0.419517 -8.01818e-20)
(1.80268 0.0341808 0)
(2.16162 -0.00852854 -1.47071e-19)
(1.00888 0.744548 -3.65273e-20)
(0.739911 -0.0176069 0)
(1.95527 -0.123437 0)
(0.475216 1.44579 -1.62235e-19)
(0.554724 0.363815 3.70456e-20)
(1.01728 -0.00770868 -1.96429e-19)
(1.15334 -0.589993 -5.31152e-20)
(0.161792 -0.92571 4.4305e-20)
(0.182245 -0.638564 0)
(1.87051 -0.455045 0)
(1.7089 0.315025 0)
(-0.185632 -0.0585584 7.37812e-20)
(-0.0731797 -0.432984 -3.17147e-19)
(-0.835304 1.40378 0)
(-0.181513 0.218693 -1.71105e-19)
(1.66798 0.937349 -5.2902e-20)
(1.00827 -0.0047652 -3.83747e-19)
(-0.241828 -0.172344 -4.9253e-20)
(1.02211 0.00195588 2.53931e-19)
(0.675459 -0.0413241 0)
(-0.176365 -0.254979 -3.01353e-20)
(0.588789 0.397073 -3.24327e-19)
(1.12078 0.554363 2.29119e-20)
(-0.0301144 0.196459 0)
(0.822345 0.072569 6.94698e-20)
(0.49878 0.474847 4.92627e-20)
(1.15547 0.857759 -3.34422e-20)
(-0.070247 -0.0672973 1.46912e-19)
(1.01798 0.00573741 0)
(-0.181475 -0.891201 -1.32965e-19)
(1.01179 -0.00474458 1.44141e-19)
(2.13763 0.121537 0)
(1.01217 0.0055213 2.41598e-19)
(0.11302 -0.349481 -1.7273e-19)
(1.01882 0.00695631 -1.49567e-19)
(0.593352 -0.686921 0)
(2.63594 0.059486 5.51836e-22)
(1.00911 0.00203918 -1.00377e-19)
(0.994624 -0.0416791 2.65089e-19)
(1.07864 0.0855649 -2.44467e-21)
(-0.0111629 -0.849008 6.97452e-20)
(-0.130944 -0.116161 3.85611e-19)
(1.95839 0.172887 1.29783e-19)
(-0.370904 -0.648547 -7.75047e-20)
(0.799364 0.0148714 -3.6227e-19)
(0.794361 0.0245081 0)
(-0.257405 -1.02094 -8.6459e-20)
(1.02014 -0.0216326 -2.90952e-20)
(0.973883 0.0119598 0)
(1.04894 -0.00270907 -1.84902e-19)
(0.137283 -0.383926 1.7621e-19)
(-0.737747 -0.423044 2.40883e-19)
(2.22521 -0.608308 0)
(-1.1182 0.0963699 -5.58068e-19)
(1.55911 -0.360294 0)
(1.03875 -0.0194402 5.42248e-20)
(1.64526 0.666047 5.40241e-21)
(1.01436 -0.00600982 1.5578e-19)
(-0.724097 -0.249737 3.07978e-19)
(1.01822 7.50852e-06 0)
(0.993797 0.00372104 -3.76144e-19)
(1.00862 0.00643811 1.98158e-19)
(1.45386 0.0128527 0)
(1.17835 0.446574 1.17366e-21)