/*--------------------------------*- C++ -*----------------------------------*\
| =========                 |                                                 |
| \\      /  F ield         | OpenFOAM: The Open Source CFD Toolbox           |
|  \\    /   O peration     | Version:  2306                                  |
|   \\  /    A nd           | Website:  www.openfoam.com                      |
|    \\/     M anipulation  |                                                 |
\*---------------------------------------------------------------------------*/
FoamFile
{
    version     2.0;
    format      ascii;
    arch        "LSB;label=32;scalar=64";
    class       volScalarField;
    location    "8";
    object      p;
}
// * * * * * * * * * * * * * * * * * * * * * * * * * * * * * * * * * * * * * //

dimensions      [0 2 -2 0 0 0 0];

internalField   nonuniform List<scalar> 
2186
(
0.688001
-0.379308
-0.0812777
0.999719
-1.18977
0.00635254
0.615599
-1.09961
-1.04621
1.23828
0.926684
-0.985766
-1.12422
0.934567
-0.603063
0.930308
0.956367
-1.82724
0.00267146
-1.10218
1.31335
-1.03953
0.936542
-1.07556
0.927934
0.975811
1.14715
0.832579
0.446152
0.933822
-1.08784
0.930951
-1.01029
-0.590743
-0.987949
-0.0604428
-0.480687
1.30006
-1.03709
0.00696915
-1.14637
-1.05209
-0.715435
-1.15668
0.780628
1.22095
0.299266
0.461264
-0.554836
-1.41732
-1.09708
0.766039
-0.709123
1.22839
-0.984361
0.880763
-0.764534
0.907659
-1.17079
0.723576
-0.294144
0.496954
0.403696
0.0109875
0.428181
0.403886
0.526096
1.20661
1.10581
-1.14361
-1.10357
-0.340656
1.18193
0.932902
1.08565
1.08351
-0.500367
0.951573
-0.993606
-0.973595
-2.24987
0.00775186
0.919742
0.480472
0.921063
0.927957
1.20692
0.0078442
-0.00602364
-0.991877
0.883272
-1.10484
0.856997
1.09073
0.936779
0.264428
-0.20348
0.453374
-1.33194
0.921223
-2.10309
-2.30189
0.525906
0.877036
0.955946
-1.1339
1.10887
-0.790273
0.867499
0.0170869
-0.916299
-1.29871
0.486656
1.22185
-0.992975
-1.04688
0.0126314
-0.418973
-0.998278
1.18523
-0.201489
-1.7369
0.724339
-2.01975
0.933871
0.0148803
-1.26057
1.07535
-1.86796
0.597368
1.30993
1.16671
0.192352
0.589448
-2.17287
-1.47771
0.85267
-1.06397
-0.69907
-1.03396
0.665528
-0.252757
-1.07364
0.639077
0.843254
0.888507
-0.725016
-1.2195
0.55225
-1.14005
-1.17282
0.521742
0.954175
1.11307
0.977297
0.47094
1.19959
0.298791
0.192688
0.369642
-1.03641
-1.8754
0.902348
0.922196
0.00593642
0.00306856
-0.926229
-0.939654
-0.040213
-0.0737181
0.203274
0.927013
0.956467
1.04132
0.272089
-0.481825
-1.17404
0.903197
-2.25497
0.733122
-0.932417
0.943896
-1.08624
0.397055
0.380847
-1.21803
-0.897828
1.02533
-0.686249
-1.13164
-1.34284
1.17556
-1.41961
0.910732
-1.02921
0.0317326
-0.0915121
1.09462
0.957289
-1.06122
-1.30536
0.221677
0.0389061
0.960996
-0.988846
-1.15965
-1.00584
-0.254165
0.868378
-0.769021
0.464154
4.80849e-06
1.20987
0.695107
0.796417
0.885165
1.08008
0.928729
0.832071
0.995293
0.31113
-0.975843
-1.05973
-0.072715
0.143438
-1.86753
-1.23554
0.924401
1.06394
-0.942473
-0.925297
-0.338512
0.320421
0.595525
0.722381
0.833169
1.05152
-1.88231
0.822601
-1.04774
-1.4172
-1.03705
0.882749
0.591843
1.04613
1.10546
1.00369
0.980119
-1.08056
0.762314
1.02382
-1.13006
0.868766
0.641868
-0.6619
-0.998272
-0.914047
1.0473
0.953142
-1.1608
-1.07153
-0.0178365
0.889294
-2.23878
0.618068
0.963018
0.799944
-1.0162
-1.08821
0.907997
0.507586
-0.619645
-0.67857
1.25437
-1.16219
-1.08185
0.790576
1.11698
0.923197
-1.30178
-0.667499
-0.909426
0.806002
-1.16396
0.491095
0.90567
0.956257
-0.250228
-0.489799
0.887322
-1.11208
0.866701
1.12649
0.947797
0.948078
0.041585
-1.40818
-1.05669
-0.355196
-0.484203
-1.16026
0.329628
-0.600331
0.464273
1.10288
1.10495
0.806392
-0.759961
1.05856
-1.44636
0.00736517
-1.52116
-1.03334
-1.17143
0.30101
-1.1746
-1.11677
-0.00393559
0.826826
-0.130954
0.226185
-1.28355
-0.0396067
-1.13778
-1.26006
1.14169
-0.193933
0.0123467
-1.08214
0.728313
0.418113
-0.605463
0.447739
0.329872
-1.22581
0.520384
0.955165
0.964796
0.326542
1.07733
0.825672
0.221044
1.17724
0.923108
0.881843
0.312215
-0.170865
-1.04111
0.748171
-1.17088
-0.948319
-1.59166
-0.938698
-1.00052
1.27326
0.011042
-1.08543
-1.13883
0.928639
-1.12895
-0.786009
-1.41049
0.700333
-0.10071
-2.14189
1.17068
1.23145
1.0604
-1.08281
0.0115391
1.28746
0.92832
-1.42535
0.300192
-1.05769
0.129675
1.09061
0.873987
0.810247
1.23121
-0.553621
-0.189021
-0.159602
-0.382797
-1.95999
-1.02734
0.00931255
1.21403
-2.03218
-1.42264
0.917962
0.529318
-1.00978
-2.05588
-1.0474
-1.6894
-1.81866
-1.02522
-1.09435
-1.15345
1.12156
-0.0475976
-0.99912
0.948952
-1.81244
1.19499
-2.01256
-0.509306
-1.45858
0.925869
-0.936956
0.951888
0.786099
0.0238378
0.976496
-1.83979
-1.01644
-1.31958
0.948252
0.878577
-1.04575
-1.06263
-1.58691
0.871781
-2.1608
-1.64496
0.362916
0.852428
0.833458
0.677301
-1.08094
-0.71151
0.741981
-0.777549
0.747227
-0.561944
0.953844
-0.214364
1.06738
-0.999072
0.790901
0.591631
0.9607
-1.36685
0.921013
-0.312456
-1.01415
0.930332
-0.0468635
-0.0261267
-0.990453
-0.308839
0.931261
0.040891
0.241619
0.929023
0.0782986
-0.188327
0.00593952
-1.08641
0.168325
-1.21268
0.576607
-0.929774
0.963178
1.06849
-1.10178
-1.02949
-0.133013
-1.05066
0.263466
-1.16162
0.709626
-0.0879087
-1.11682
1.00763
-0.0830877
0.217452
0.25148
-0.123328
0.66995
0.188381
-0.260609
-0.220717
-0.0116363
-0.934632
0.947097
-0.278057
1.04166
1.16212
1.14901
0.515207
1.06499
-1.16166
-0.930352
0.838789
0.172703
0.917733
-0.998455
-1.11158
-2.31259
0.736194
-1.02022
-1.57825
-1.0834
-1.13301
0.0110255
-0.986792
0.608375
0.595447
-0.723638
-0.714866
0.691908
0.0347703
1.03293
-0.768194
-0.358493
-1.02231
0.630922
0.00384986
1.107
1.30273
-2.07126
-1.19688
-0.88007
0.110865
-2.25454
0.974161
-0.69089
0.93118
0.646175
-0.993589
0.769905
0.728934
-0.710218
0.825711
-0.47099
-1.0912
-0.726281
-0.954472
-0.534483
-1.92569
-0.791492
0.930021
0.0536526
-1.24138
0.537235
1.0772
1.1487
-0.397667
0.706384
-0.00200886
0.718506
-0.0898704
-0.856438
-1.11272
0.349933
0.692452
0.959865
-1.27093
-1.09486
-1.801
-1.00358
-0.151511
0.674213
-1.9917
0.00615086
-1.62434
0.829435
0.140506
0.88166
-0.256045
-0.279897
0.887305
0.623566
-1.88589
-0.344946
0.890703
1.22605
0.952832
0.163747
-1.9691
0.743474
-0.225552
0.730401
-0.807491
0.296065
0.887431
-1.12809
-1.08674
0.916596
-1.46826
1.14729
0.00736189
0.816448
0.0319989
0.570874
-0.79521
1.16493
-1.08781
-1.74229
0.848086
0.377044
0.36102
-1.52088
-1.07781
-0.728312
0.682261
-0.0308815
-0.772474
0.0239181
0.949275
0.244324
-1.8016
0.626487
0.778655
0.910125
-1.31397
-0.976172
-1.10568
0.946951
1.07723
0.441794
0.945092
0.0660059
0.991933
0.0423404
-0.902196
-0.24437
0.862866
0.896485
-2.3458
0.730784
-1.09646
0.693552
-1.30154
0.890951
0.889144
0.947285
-0.848707
0.813135
-1.9058
-0.851337
1.09945
-1.92961
-0.401092
1.02511
-1.35466
1.00364
-1.6733
-1.10558
0.937122
0.723567
1.29105
0.929726
-2.27086
1.02059
0.990971
-0.0787147
0.502496
0.0491354
-0.857734
1.41526
-1.04651
1.03852
-1.18857
0.253832
0.928226
-1.70412
0.917658
-0.932735
0.810257
0.892978
0.946774
0.0100827
-1.08284
-0.64282
0.528829
0.662647
1.0024
-0.141886
0.708068
-1.45805
-0.525899
-1.91678
0.776209
1.08304
-1.37063
-1.14353
0.0122833
1.1568
0.012759
0.608414
0.0315498
-2.02539
-1.07591
-1.05469
-0.0563341
0.69984
-0.225
-0.00778376
-0.480772
-0.59404
-1.10498
-1.54797
-0.159199
0.897795
0.946576
-1.56702
-0.432618
0.911782
0.869638
0.952871
-1.81266
0.909807
0.990589
0.931081
0.997572
0.128016
-0.0221781
-1.08955
0.485177
0.935408
0.651928
0.11436
0.00228444
-0.6557
0.0260589
1.19512
-0.0676246
0.029638
-0.713385
-0.0370809
-1.10091
0.666703
-0.942182
-1.9171
-1.01717
0.927085
0.930436
0.938045
0.00519834
0.172539
1.17292
0.00461384
0.929298
-0.00690379
0.00679592
0.639016
0.945497
0.989249
0.0198706
0.902295
0.902483
-0.85451
-0.0189823
0.938518
0.954635
0.94731
-1.02688
-1.03712
0.947833
0.558571
0.932164
0.0519039
-0.304035
0.0268727
-0.868827
-0.199567
-1.1625
-1.42534
0.0335135
0.951985
0.958365
0.651029
-1.00513
0.928949
-0.00175191
0.00524856
0.00107799
0.933108
0.95396
0.9503
0.960831
0.940049
0.934412
0.920714
-0.0609366
0.00491481
0.00679241
0.00425717
0.00191577
0.000295659
0.00111044
0.0071066
0.00391417
-0.00168412
-0.0578497
0.930011
0.945323
0.94071
0.964029
0.958127
0.949984
0.953059
0.935143
0.937208
0.00536782
0.00573553
0.950692
0.95008
0.000317087
0.950673
0.95143
0.0140406
0.0227377
-0.000944712
-1.11073
0.0857536
0.933309
-1.22349
0.932364
0.600689
1.0176
-1.04227
0.931387
0.869523
0.886951
-1.08403
0.0564297
-1.31142
-0.00902875
-0.213397
-1.07523
0.945767
0.0211823
1.02059
0.936116
-0.352498
1.08252
1.23684
0.00496972
0.78301
0.613257
0.928519
0.949468
0.939438
-1.04174
0.345032
0.0171421
0.932884
0.949028
-1.25697
0.0197354
0.935584
0.00958655
-0.524649
0.935214
-0.6408
0.914325
0.947193
-0.992571
0.945343
0.0259269
0.936762
0.998253
-0.78843
0.951731
0.958408
0.0165126
0.572816
0.936319
0.944564
-0.0263978
-0.968214
0.663807
1.28518
0.944829
0.9359
0.942189
0.0210763
0.936368
0.927496
0.948733
0.936657
0.941594
0.937758
1.03381
-0.0579875
-2.23897
0.938376
0.931361
0.147351
-0.572387
-0.134194
0.00392089
0.797138
-1.5299
0.15525
0.00445614
0.932913
0.676152
0.0126425
0.0326783
0.00782373
-0.162964
-1.26485
0.0211082
0.218015
-2.1526
-0.522631
0.943957
0.0171812
0.928052
0.851231
-1.02427
1.15932
-0.041724
-1.66965
0.715139
1.0411
0.318146
-1.00588
0.930209
0.0284863
0.940178
-1.02253
0.94077
-1.72055
0.93032
0.0205721
-0.210339
0.942396
0.956521
0.866717
0.0372658
-0.990943
-1.01435
0.0472016
0.95619
0.833078
0.0338115
0.930272
0.973144
0.925431
0.0685669
-1.69119
-0.698299
-0.832651
0.277664
0.943118
0.00431846
0.936374
-1.86887
0.931624
0.969049
0.945465
0.000192904
0.00111531
0.966512
-1.20289
0.946119
0.948588
-0.028595
-1.09724
0.842993
1.05437
0.924944
0.924159
0.0619967
0.11263
0.909701
0.369694
0.946509
0.789483
-1.17029
-1.07677
0.77614
1.18023
0.931306
0.301519
0.0677088
0.0465118
-0.259309
0.231835
0.918038
-0.578192
0.91442
-1.78029
-1.03332
-1.17999
0.327164
-1.18094
0.0664651
0.171466
0.926971
-1.01178
0.813152
-1.05042
-0.204332
0.0788328
0.00806185
0.177306
0.904365
0.0513978
-0.798493
0.117389
-1.29043
0.923158
0.273804
0.00871972
-1.67611
0.998568
0.0177048
-1.04689
1.00028
0.919907
0.912135
0.431427
-0.929407
0.937659
0.961731
-0.304274
-1.13356
0.928274
0.741623
1.17037
0.950628
-0.230733
0.228183
-1.1905
-1.70717
-1.33477
-1.01994
0.0249903
-1.28695
0.746018
-0.0542512
0.945
1.13327
0.926187
-0.994831
-1.30728
0.931714
0.180523
0.117877
0.914727
-0.294411
-1.03581
-1.56529
0.0450442
0.879233
0.853235
-0.136614
0.769089
0.569975
0.215453
0.920816
-2.32838
0.736375
-1.00711
0.925026
0.0241269
0.378588
0.934365
1.00546
-1.51039
-1.89356
0.757344
1.29697
0.950953
0.92819
0.34723
1.18337
-0.883457
0.091756
-0.860409
0.427213
-1.0763
1.04209
1.09969
-1.05792
-0.411595
0.929174
-0.862703
0.798265
0.960322
0.890804
-1.49713
0.931872
0.00239244
0.959728
0.000808891
0.116885
-0.301092
0.934907
0.00797919
-0.660493
0.0989363
0.944298
0.173449
1.1076
0.224682
1.24247
0.896368
-1.13539
0.921036
-1.10576
0.902423
0.907166
0.0660704
0.147573
1.04064
0.92017
1.14114
0.888283
0.0439434
0.887253
0.927323
0.783612
0.941429
-1.02022
-1.36615
0.221593
1.03651
-0.687617
0.161634
-1.0939
-0.66641
0.0769999
0.0107066
0.774206
0.0879084
0.894797
0.949423
-1.14678
-1.34725
-1.00986
-1.35188
-1.37031
-1.10291
0.935414
-0.488398
0.950361
1.17267
0.989519
-0.352184
0.954067
0.86771
-0.926995
0.89799
0.915534
-1.16955
0.913587
0.85243
0.00832615
-0.883994
1.38604
-0.367813
-1.59862
-1.25788
0.20029
0.921172
-1.68607
-0.123162
-1.07374
1.06337
0.217648
0.762173
0.944233
0.92213
-0.969403
0.91145
-0.934517
0.944653
0.961577
-0.564308
0.947121
0.395251
0.928199
0.661417
-1.83918
0.00257919
0.0031974
0.0322632
1.16178
0.0101771
0.959262
1.31502
-0.236227
-0.00459569
1.00127
-0.001161
0.997235
-0.00563343
-0.00362408
0.992858
0.995681
0.384045
-2.13979
0.669004
-0.933454
-1.30936
-0.876699
0.953945
0.936896
1.35672
-1.0085
0.17521
0.690949
-1.3365
1.0029
0.90678
0.929741
0.927304
0.895113
-2.07751
-1.02478
-1.82573
0.726511
0.852342
-0.996079
-1.11242
-1.05517
0.951208
0.971296
-0.537411
-1.90626
0.969139
0.0866376
0.107184
0.682337
0.836086
-0.0839582
-1.39084
-0.36376
-1.10102
-0.948793
-2.07094
-0.0182705
1.31055
1.28341
-1.05195
-1.02777
0.948616
0.926785
-1.36877
-0.106592
-0.387793
0.556997
1.02715
-1.68433
0.945585
-0.0371428
-1.34788
-1.19863
-1.56629
-1.17495
0.923335
-1.0717
-1.76503
1.28359
-1.09202
0.940785
1.15037
-1.11686
0.988826
1.19242
-1.15572
1.16392
-1.10604
-1.39322
0.940904
0.0637639
0.959268
0.946056
-1.1078
0.997727
0.109926
-1.67529
0.976079
0.977048
-0.931229
-1.9998
0.875065
0.932995
-1.08275
-1.43047
1.20372
-1.10309
0.840123
0.0187462
0.887806
-0.974896
-1.2973
-1.05617
-1.13525
1.01277
0.970598
1.22945
1.12753
0.895931
0.994425
0.983619
-1.04817
1.05403
1.08655
-1.15864
-1.09806
-1.24639
1.24434
-0.188875
-1.31581
0.0405792
0.854872
-1.16946
-0.985628
0.939969
0.966301
-1.06506
-1.12968
-1.24813
0.0132153
-1.52221
-1.16344
-1.04182
0.80708
0.842708
-1.10684
-0.601783
-0.896524
0.756979
-1.10225
-1.10383
-1.03631
0.893027
-2.53684
-1.13963
1.26887
0.84223
0.350266
1.13906
0.0782749
0.927538
0.944719
1.05968
1.15162
-0.0145939
0.594067
0.927367
0.232581
-1.02973
1.35066
0.909917
0.854904
1.00195
-1.15105
-2.59473
0.804134
0.718979
0.904244
-2.3983
-1.38027
0.925669
-1.03109
0.776036
0.0336201
1.33506
-1.02413
0.650058
0.693151
-1.09449
-1.01811
-2.01549
1.00712
-1.09806
-1.01907
0.656018
0.529096
-1.63647
0.999682
0.787136
-1.10164
-0.869987
0.885503
-2.41616
-1.01192
-1.20998
-1.09364
-0.89997
0.908827
0.948372
-0.897905
0.578121
0.942597
1.26877
0.243019
0.189274
-0.0873473
0.835374
-0.477513
-1.09128
-0.21803
-0.736231
-1.08788
0.925884
-1.09425
0.0744521
-1.00626
0.458707
0.530603
-1.08097
0.594672
-1.62673
0.460377
-1.07334
0.381078
-1.09405
0.357781
-0.99578
0.293827
-1.06479
0.771009
-2.55371
-1.06413
-1.07115
-1.01057
0.950383
0.0626057
-1.10743
-0.996214
-0.0649381
0.0194851
-1.08511
-1.01954
-1.15609
-0.142417
-1.01267
-0.236185
-1.04624
-0.453392
-1.23779
-0.312511
0.816681
0.00854942
-2.51647
0.91136
-0.186617
-0.00763968
0.412285
0.903809
-2.3975
-1.23834
-0.991909
-1.92429
0.838567
1.34041
-0.356945
0.0195292
-0.0098806
-1.07949
-0.49736
-0.393501
0.903313
-1.06656
0.897948
-1.37021
1.40434
0.412739
1.35753
-1.12129
1.1339
-0.703258
0.960244
-0.957565
-0.990143
1.02114
0.934439
-2.11283
-1.01159
-1.07982
0.894944
-1.29673
0.917659
-1.29209
-1.12545
-1.05815
1.23385
0.96561
1.05721
0.944759
0.954017
0.0431527
-0.581785
1.12707
-2.51928
-1.02367
1.33605
-1.13515
0.845688
0.897795
1.30101
1.36035
-1.18037
-2.15811
0.975601
0.191003
-0.482015
-1.01502
-0.180961
-1.00875
-1.12307
0.531797
-1.72647
1.14471
-0.770802
0.964381
1.05867
0.962719
-1.75188
-0.973316
-1.2826
1.0257
-1.11323
1.09499
-0.878053
-1.33526
1.15987
1.24585
-0.998829
-0.020691
0.889967
-1.61993
-1.44161
0.620419
1.19471
1.16073
-1.50284
0.812696
0.759896
-1.00488
1.17332
0.183068
-1.1124
-0.128243
0.00787969
0.0114695
1.03725
-0.992535
0.15897
0.0160798
0.0396316
-0.89147
-0.987047
0.922778
-2.3305
0.948036
-0.216433
0.0540863
0.646123
0.217171
-0.989247
-0.785851
-1.21196
-0.0305917
0.0124909
-1.46074
0.850761
-2.66911
-2.19037
0.934029
-1.45265
-1.16973
0.947701
-1.02994
0.88784
0.0063225
-1.03428
-0.370589
0.740966
-0.810475
-2.20599
0.833868
-1.0958
1.01339
-0.605989
-1.23708
-1.05391
-1.0013
1.42038
-1.27432
1.06687
0.0165049
0.89916
1.11604
0.676581
0.966781
1.08002
-0.268976
-0.93862
0.911484
1.03864
1.29481
-1.08327
0.979659
0.580551
-1.10304
0.739874
1.15173
-0.748364
1.26397
0.0339342
-1.0199
0.784377
-1.10797
-1.06994
0.889845
-0.632519
0.996278
1.00086
0.886616
-1.08118
0.823731
1.18335
-1.4975
-0.457024
-1.22892
-1.42219
-1.20164
-1.01511
1.29125
0.701012
-1.14868
0.857955
-1.10733
-1.06518
1.21202
1.14658
-2.44586
-1.92442
-0.99904
-1.07285
0.920014
-1.16146
0.0327607
-0.995417
-0.576659
1.00259
-1.09354
1.30951
0.979011
0.82307
0.954315
1.22377
-1.38405
-1.10512
0.956222
1.08704
-0.883332
0.944942
-1.16633
-1.05529
-1.07
1.00302
1.03321
-1.06297
-1.20284
0.508003
-0.120055
-1.77799
0.916383
0.877751
-1.81682
0.918838
0.962513
-1.74096
-1.16366
-1.12133
-1.0482
-1.06926
1.25097
0.0526447
0.83008
-1.17365
1.24911
0.814728
0.780092
0.864306
-1.76298
-0.386131
-1.04066
0.427527
-1.13755
0.865905
0.259578
-0.762673
0.782243
0.949316
0.975805
0.941128
-0.00104663
0.972786
-0.00176063
0.374617
0.721882
-0.73245
-1.15753
-1.17642
-0.873934
0.948353
0.913227
0.94543
-2.42019
-0.835894
-1.03403
-0.99309
0.944771
1.20789
0.960471
-1.14797
-0.993355
-1.51705
-0.718925
-1.0045
-0.999676
-0.355865
0.929903
-0.942342
-1.10589
0.0118047
-0.129139
0.626667
-0.212448
-1.02752
-1.30793
0.858888
1.35719
0.0129935
1.03999
1.40925
0.56327
1.13068
-1.18387
0.0191669
1.33406
-1.02121
0.269707
-1.1277
-1.07642
-1.0718
-1.09669
0.921443
0.683514
1.11153
1.07294
0.00116568
0.728269
-0.0855059
0.0100591
-1.01497
1.04858
0.628475
0.94989
0.965929
0.00241158
0.00512913
0.96587
-0.744642
-1.00664
-1.10102
-1.07844
0.548116
-1.09364
0.903106
0.621789
-1.02267
1.17256
-1.14856
-0.492022
0.922617
-0.951051
-1.09996
-2.4862
0.496194
-1.11243
-1.73236
0.825536
0.96062
0.00893259
-0.0131071
-2.67609
-1.00835
0.107861
-2.18968
-0.24056
0.556938
-1.35411
-1.08963
1.18342
0.137365
0.244783
-1.08543
-1.08509
0.937782
0.988543
0.421954
0.493933
-1.07744
-1.06657
-0.784905
0.341045
0.405156
-1.06848
0.776006
0.0130468
-1.05914
1.36347
-1.06163
-2.09333
-1.06968
-1.01606
0.79091
-1.08388
-1.14924
-1.00168
-0.0237844
-1.12899
-0.140319
-1.04655
0.00646331
1.0978
-1.19027
-0.20527
-1.03005
-0.33063
1.26002
1.33055
1.14909
0.942723
1.1253
-0.909082
0.929336
-1.14951
0.986212
-0.991956
-0.942894
1.20286
-1.1289
0.434055
-2.31274
1.33081
-0.193545
1.26929
0.494277
0.6863
-1.11871
-1.1268
-0.991962
-1.57021
1.23978
1.11573
0.925207
0.58215
0.932152
0.814586
0.717561
-1.07918
-1.06629
0.0936147
0.0173868
0.690964
0.948973
-0.0628703
-1.12084
-1.06766
-1.99296
-0.989912
-0.774522
1.28123
0.963267
0.936595
-0.00058741
0.00468692
0.960872
-0.235704
-1.01064
-2.02842
-1.09712
0.679335
-1.0991
-1.08548
-0.348683
0.933631
-2.60184
-1.06648
0.931984
0.564431
0.68317
0.928416
-1.00241
0.770962
1.12379
0.786003
-0.994546
0.927101
0.319054
0.340392
-1.18565
-1.09348
1.36644
0.203226
-1.4584
-0.0342584
0.809742
0.887674
-1.05394
-1.90007
0.00902131
-1.16673
-0.932955
-1.15915
0.00971369
0.924699
-1.47767
0.917565
1.21091
1.03343
0.910784
0.998782
1.06227
0.929922
-1.7823
-0.693485
-0.591923
-1.07263
-0.920728
-1.07963
1.06799
0.961458
-1.10132
0.904366
-0.950902
0.100838
-1.06853
-0.0775151
0.493117
-1.5607
0.919537
0.807582
-1.96972
-0.432592
1.26232
-2.38618
0.111647
-1.21886
-1.16738
-1.04757
0.979251
0.667597
1.03558
-1.47727
-0.283958
-0.967661
-0.532526
-1.10502
-1.07345
-1.72549
-2.77099
0.812856
-0.765647
1.38649
-1.32917
-0.613756
-1.02884
-1.08056
0.870462
-1.05565
-1.38548
-0.916102
-0.386143
1.10741
1.15766
-2.19661
-0.383762
0.719621
-1.01291
-0.888196
1.04352
-1.67914
-1.25803
-1.54949
0.643325
-0.475075
-1.10568
0.92345
-0.131324
-1.25869
0.934398
-0.993952
-1.78377
-1.54329
-1.15819
-0.156332
-1.10727
1.23209
-1.02497
0.105767
-0.994144
0.686578
-0.908593
-1.09161
0.536604
0.708924
0.992406
0.897825
1.09754
-1.09395
0.791519
0.501231
-1.57087
0.850431
-0.552777
-1.01523
-2.73698
1.11752
1.10313
-1.07881
-1.05854
-1.43694
0.91947
-1.06262
-0.0490513
-1.54442
-1.09157
1.19719
0.920346
-1.12188
-1.09141
-1.13403
-1.1071
0.832124
-1.19613
0.88441
0.0973377
0.599017
0.731844
-1.05149
-1.1164
0.843516
-1.08664
0.00769507
1.20801
-1.03577
-1.10138
0.715302
-1.59611
-1.12681
-0.246643
-1.08843
1.28197
-0.664999
0.0784581
-1.12731
1.24256
-1.13609
-1.08075
0.531671
-1.38767
-0.993142
1.26693
0.563018
0.950233
-1.14346
1.1445
-0.0566268
-0.872437
-1.15742
-1.17115
-1.14409
1.17735
0.460801
-1.06258
-1.13623
-1.10173
1.04254
-0.975527
1.21908
-0.995825
0.621586
-1.09796
0.246277
0.422082
0.386039
0.300957
0.142802
-1.02577
0.91668
-1.16033
-0.890436
-1.26481
0.226922
1.25871
-0.359194
-1.13553
-1.18562
-1.1014
0.134262
-1.3188
-1.096
0.790746
0.136106
-1.10965
1.32214
-1.10413
-1.86522
1.28819
-1.10338
0.0137083
-0.986331
-1.07296
-1.09314
1.29728
-1.07064
1.20945
-1.09178
-1.11293
1.09066
-0.314111
-1.06572
0.4502
-1.0815
-0.127513
-0.462504
-1.09564
0.755541
-1.17216
-1.09344
-1.07764
-1.07301
-1.00078
0.785988
-0.309896
-0.511596
-1.11561
1.23562
-0.909976
-1.1136
-1.04252
-0.209579
-1.21202
-1.04959
-1.11161
-0.192109
1.15966
-1.16037
-0.990852
-1.67413
-0.781137
-0.394555
-1.00735
1.32021
1.25209
0.291829
-1.19032
-0.998337
0.202474
-1.00014
1.32961
0.0753793
1.01471
0.590071
1.22364
-0.0492053
-1.21882
-1.2292
-0.210313
-1.16684
-0.210177
-0.156708
-1.0894
1.22961
-0.356951
0.0877241
-0.467679
-0.997812
-1.25623
)
;

boundaryField
{
    frontback
    {
        type            empty;
    }
    Top
    {
        type            zeroGradient;
    }
    outlet
    {
        type            fixedValue;
        value           uniform 0;
    }
    bottom
    {
        type            zeroGradient;
    }
    Inlet
    {
        type            zeroGradient;
    }
    rectangle
    {
        type            zeroGradient;
    }
}


// ************************************************************************* //
