/*--------------------------------*- C++ -*----------------------------------*\
| =========                 |                                                 |
| \\      /  F ield         | OpenFOAM: The Open Source CFD Toolbox           |
|  \\    /   O peration     | Version:  2306                                  |
|   \\  /    A nd           | Website:  www.openfoam.com                      |
|    \\/     M anipulation  |                                                 |
\*---------------------------------------------------------------------------*/
FoamFile
{
    version     2.0;
    format      ascii;
    arch        "LSB;label=32;scalar=64";
    class       surfaceScalarField;
    location    "8";
    object      phi;
}
// * * * * * * * * * * * * * * * * * * * * * * * * * * * * * * * * * * * * * //

dimensions      [0 3 -1 0 0 0 0];

oriented        oriented;

internalField   nonuniform List<scalar> 
3181
(
-1.05667
0.434655
0.622015
-0.385486
0.360694
0.0247922
0.51309
-0.354378
-0.158711
0.118821
-0.195832
0.0770115
-0.0962325
0.113815
-0.0175829
0.712354
0.479115
-1.19147
0.143719
-0.137685
-0.00603413
0.0812628
-0.00103755
-0.0802252
0.591572
-0.775011
0.183438
-0.0746902
0.132681
-0.0579908
-0.0108347
-0.0518026
0.0626373
0.132328
0.0439328
-0.176261
-0.00334407
-0.0662696
0.0696137
-1.06959
0.159539
0.910056
-0.321239
0.692488
-0.371248
-1.12481
0.633566
0.491248
0.0855174
-0.93656
0.851043
-0.386128
0.30123
0.084898
-0.631477
-0.411922
-0.00596773
0.0755686
-0.0696008
0.0417588
-0.0881983
0.0464396
-0.0812256
0.0603229
0.0209027
1.03613
-1.02401
-0.0121284
0.0205944
0.0378722
-0.0584666
-0.967911
0.331151
0.63676
-0.105037
0.223858
0.300801
-0.24715
-0.0536512
0.0286574
0.059971
-0.0886283
-0.415825
0.341896
0.0739293
-0.0334603
-0.00317018
0.00291332
0.000256863
-0.0399818
-0.927929
0.12149
-0.0807796
-0.0407108
-0.0890674
1.24682
-1.15775
-0.0509262
0.0465333
0.00439289
0.182238
0.278206
-0.460444
1.06949
-1.15856
0.0726558
-0.030897
1.61627
-0.874076
-0.742191
-0.310326
1.02268
-0.139598
0.136254
-0.0895903
0.00836478
-0.405885
0.0846455
-0.172576
0.0829855
-0.632957
0.125413
0.507544
-0.142577
0.0678871
-0.164756
0.168716
-0.00395928
-0.262821
-0.0769522
0.339773
-0.325198
1.33951
-1.01431
0.100749
0.191711
-0.29246
-0.0091379
-0.102094
0.108279
-0.00618562
0.505396
0.187091
-0.0947667
0.143827
-0.0490605
0.0970073
0.0244832
-0.16599
0.191473
-0.0254826
0.160504
0.057496
-0.218
0.105153
-0.110869
0.00571663
1.24225
0.374014
-0.859828
-0.196842
0.204047
-0.98458
0.780533
0.552386
0.227249
-0.779635
-0.446403
-0.20814
0.654543
-0.998727
0.688401
-0.270189
0.822575
-0.315479
-0.10471
0.420189
-0.210248
-0.205577
-0.184503
0.166505
0.0179986
0.143799
0.276854
-0.420653
-0.228032
0.819604
-0.0119446
0.0932073
-1.2332
1.43724
0.178179
0.122623
-0.173744
-0.108914
0.282658
-0.268524
0.361147
-0.0926234
-0.0785111
0.0862247
-0.0077136
-1.55839
-0.91753
0.0103355
0.907194
-0.0522956
0.00136938
-1.10835
0.813392
0.294961
0.652403
-0.512284
-0.140118
-0.993209
-0.00551827
1.1239
-0.96436
-0.716592
1.10351
-0.193454
1.08392
0.170896
-0.171333
0.00043718
1.15417
-0.675054
0.895566
-0.895566
-0.00696381
0.00142115
0.00554266
-0.207291
-0.0510373
0.258328
0.152999
-0.0997073
-0.0532913
-0.44251
0.815852
-0.373342
-0.0228292
-0.225772
0.248601
-1.07554
0.0515349
0.350434
0.0571987
-0.407633
0.127603
-0.84209
1.06934
0.109298
0.0870381
-0.196336
-0.0165669
-0.149423
-0.552968
0.517261
0.035707
-0.530677
-0.0222914
0.105775
-0.947865
0.311089
-0.753599
0.917707
-0.83219
-0.0299934
0.245524
-0.215531
0.0848987
0.0527818
-0.13768
-1.3357
-0.152515
1.48821
-0.23895
0.401198
-0.162248
-0.0647797
0.135967
-0.0711871
-0.483175
-0.625178
0.201591
-0.100842
-0.148578
0.142988
0.0055897
-0.0778361
-0.0151006
0.0929367
-0.556185
-0.218826
-0.12075
0.05047
0.0702802
-1.00454
0.0159207
0.988617
1.32519
0.0143194
-0.00606047
-0.000903336
0.0307393
0.147439
-0.203361
0.3856
0.0481006
0.250188
-0.298289
0.140323
0.0698425
-0.210166
0.391011
-0.098548
-0.292463
-0.592644
-0.532169
-0.810013
-0.194526
-0.0643148
0.173613
-0.102228
0.178527
-0.0762994
0.0048827
0.0236476
0.120071
-0.0562002
0.0675749
-0.0113747
-0.0925379
-0.0209627
0.113501
0.0730806
-0.0730806
-0.179678
0.203326
0.121726
0.239811
0.101749
0.0897236
-1.24995
1.02191
-1.47792
0.0435681
1.43435
0.0171935
-0.0123559
-0.00483767
-0.0273272
-0.0525322
0.0798594
0.523451
-0.0155859
-0.507865
-0.0356351
0.0375893
-0.00195422
-0.19368
0.0140019
0.162445
0.653407
-0.356974
0.519419
-0.128267
-1.20743
-0.133091
0.0368587
0.478389
-0.298203
-0.180186
0.177114
-0.148741
-0.0283733
0.0480181
-0.310839
0.0228726
-0.940402
0.0476836
-0.149912
-0.278782
-0.392432
0.076129
1.41778
-0.99322
-0.424559
1.0975
0.320278
0.0667395
0.273034
0.0213161
-0.00412255
-0.164698
0.251164
-0.0864667
-0.241228
-0.591672
0.8329
-0.347864
0.522692
0.689943
-1.10187
0.152923
0.0207294
-0.0598572
0.0391278
-0.889139
-0.0899203
0.979059
0.0586124
-0.947752
-0.307939
0.658373
-0.913688
-0.0173049
0.00459332
-0.270914
0.266321
1.45248
-1.59072
0.138242
-0.140351
0.00725974
0.561206
-0.802433
0.216831
-0.537948
0.321117
-0.299104
-0.120408
0.419512
0.173652
-0.99693
-0.0786115
-0.0233254
-0.0462754
-0.564657
0.356518
-0.251072
0.0191065
0.231966
-0.0368072
-0.103544
0.0329334
-0.0329334
-0.1214
0.133008
-0.0116075
-0.21364
-1.26428
0.102702
0.0295047
-0.132206
-0.19858
0.0361267
0.162453
-0.223202
0.0386991
1.59308
-0.17645
-1.41663
-0.183393
0.439483
-0.25609
-0.00234898
0.00307623
-0.000727255
0.196775
-0.261554
-0.189863
-0.00481213
0.194675
-0.165877
0.309676
-0.103379
0.101602
0.00177782
0.0762026
0.016416
-0.0926186
-0.207228
0.265066
-0.0578378
0.0881647
-0.291996
0.203831
-0.215274
-0.0490109
0.264284
-0.67649
0.653963
0.0225265
-0.00118566
0.0390579
0.051355
-0.0517913
0.000436282
0.00654694
-0.0650136
0.471589
0.853602
0.164875
-0.871386
0.706511
-0.198648
1.80281
-1.60416
0.373679
0.178998
0.716568
0.0659911
0.207739
-0.0674161
-0.0727531
-0.0293406
0.231621
0.160059
-0.0751599
0.735867
-0.404716
0.0585686
0.19976
0.0522667
-0.169457
0.11719
-0.815942
-0.108899
0.924841
-0.0429367
0.0429367
-0.110773
-0.27097
0.549176
0.0102389
-0.225512
0.13387
0.16736
0.0542659
-0.118581
0.137735
-0.14857
-0.342908
0.320079
0.0561322
0.056082
-0.112214
0.381904
-0.337972
0.113493
0.192142
-0.305635
-0.200036
0.266775
0.183439
-0.481642
-0.184597
0.619252
0.160318
-0.0322316
0.0322316
-0.427458
0.535335
-0.107876
0.376031
0.0251673
-0.0206383
0.0271748
-0.00653653
-0.205422
-0.0650536
-0.0556966
-0.0504926
0.188227
-0.183265
0.245882
-0.0626175
0.131543
0.0285157
-0.384105
0.136955
0.194222
-0.0626789
-0.0467715
-0.0566079
-0.0839941
0.0683876
0.0156065
0.142424
-0.101216
-0.0412088
-0.0230545
0.404244
-0.381189
-0.144065
0.132121
0.106294
-0.110766
0.0044717
0.0244746
0.456558
-0.343065
-0.103583
-0.0200972
0.12368
-0.109793
-0.0128355
0.122629
-0.0928846
0.0947999
-0.723427
0.628627
-0.0368964
-1.49164
-0.284941
1.77658
0.204299
0.888683
-1.09298
0.07967
-0.374791
0.276243
0.277724
0.256388
-0.534112
-0.209204
0.261471
0.124318
-0.877769
0.753451
0.0470466
-0.15684
-0.0225004
-0.000824981
-0.987327
0.44121
0.546117
0.99322
-0.887444
-1.63745
1.48493
-1.45248
1.49605
0.0384463
-0.0875068
0.015596
0.035759
0.00921321
0.81232
-0.688002
0.118397
-0.0707138
0.392675
0.710836
-0.159477
-1.49139
1.29275
-0.667535
-0.58241
-0.238574
-0.394383
-0.00781117
-0.16011
0.208128
-0.594652
-0.364247
0.180854
0.762379
-0.238928
-0.877564
-0.759884
0.726081
0.258186
-0.21114
0.277235
0.0366557
-0.0366557
0.669654
0.147713
-0.817368
-0.230819
0.900474
0.582568
-1.07009
0.48752
0.290422
-0.0506105
0.00610475
0.00729844
-0.0134032
-0.98458
-1.13564
1.14996
0.677983
0.915094
-0.0342468
-0.13051
-0.24662
0.752016
-0.20092
-0.0501521
-0.00298542
-0.0755257
-0.0541934
0.106975
0.377154
-0.25174
-0.795802
-0.291578
-0.199535
-0.095482
0.295017
-0.76528
0.944279
-0.25304
0.248861
0.00417872
0.0150548
0.00626126
-0.151648
0.0870957
0.0645524
0.0123407
0.407849
0.127145
0.0499689
0.0292268
0.00970909
-0.0389359
-0.0167833
-0.173079
-0.71947
0.370046
0.349424
0.561688
-1.01503
0.453342
0.141304
-0.163033
0.0217291
-0.0108244
0.212415
-0.221845
-0.673721
-0.146693
-0.0049555
-0.155979
0.0551378
0.147095
-0.350456
-1.14652
0.734971
0.411553
0.0422256
0.0895347
0.0528897
-0.815942
-0.51614
0.604305
0.17364
-0.0865438
0.044962
-0.630262
-0.046228
0.0623332
0.131889
-0.0952209
0.0343395
-0.454992
0.118381
0.352572
-0.295374
-0.11295
0.0204123
0.217794
0.84068
-1.05847
0.0995868
-0.717125
0.617539
-0.916076
0.807177
-0.61637
0.00126092
0.615109
-0.00385294
0.00495552
-0.00110258
0.171206
-0.47031
0.217291
-0.127528
-0.0897625
0.0563018
-0.0691373
0.0054152
-0.204951
-0.0100034
0.0283941
-0.0218471
0.0202554
0.0807232
-0.100979
0.786866
-0.00743977
0.00854305
-0.00110328
0.121561
0.0105592
0.85136
0.0737395
-0.0664798
0.0431076
-1.17875
0.276676
0.0137458
0.00714896
0.0823858
-0.615109
0.673721
0.252112
-0.308058
0.0559463
-0.255752
0.084419
0.118404
-0.117967
-0.00143874
0.0876634
-0.0366726
-0.719639
-0.426885
-0.0449745
0.0652299
0.74383
-0.252582
-0.304447
0.105867
0.346604
0.017265
-0.0379032
-0.00785043
0.080931
0.144515
0.216632
0.156329
-0.336296
0.179967
0.106376
0.547031
-0.0347222
-0.107855
0.89847
-0.248378
-0.650092
-0.61637
-0.114162
0.67585
1.06949
-0.249333
0.581984
-0.332651
0.377076
-0.0679016
-0.309174
-0.257763
-0.735446
-0.0741099
0.0750229
-0.000913023
0.00965605
-0.20022
0.190564
0.414817
-1.01173
0.596909
0.0259929
0.678705
-0.704698
-0.0432159
-0.105362
-0.00328505
-0.100298
0.191913
-0.619371
-0.00740854
0.0035556
0.154763
0.037421
-0.192184
0.065816
-0.230514
-0.00318756
0.0182424
0.107847
0.137677
-0.0449113
-0.00688
0.194673
-0.420445
-0.000918813
0.889602
0.030515
0.0124218
-0.976614
-0.0203154
0.25658
-0.0701566
-0.0427937
-0.136399
0.35323
0.405334
-0.346352
-0.0589823
0.191032
0.085644
-0.956889
-0.00747086
-0.00372498
-0.648122
0.742921
-0.0171654
0.177483
-0.159006
-0.911082
0.185908
-0.437735
0.251826
0.0178249
0.232363
-0.00531705
0.00564309
-0.000326037
-0.0439105
-0.163318
-0.0204471
-0.128976
0.756966
-0.657379
-0.160125
0.0856525
-0.187224
0.315903
-0.159574
0.165645
1.26186
-0.0022635
-1.2596
-0.123232
0.142338
-0.500458
-0.219012
-0.56668
0.668395
-0.627722
-0.0406722
-0.107376
-0.0527493
-1.49139
0.609347
-0.609347
-1.57906
1.57906
0.81232
0.36121
-0.817249
0.456039
-0.889509
-0.0871051
0.636607
-0.369827
-0.266781
0.156498
-0.232798
-0.00871661
0.00265614
-0.865405
-0.0824598
-0.940137
0.216711
0.0468769
-0.142359
0.695458
-0.0940853
-0.601372
0.628783
0.44071
-0.000873887
-0.00444317
-0.969017
0.210385
-0.0182431
-0.0911219
-0.59991
0.691032
-0.075057
-0.89158
-0.699144
0.218116
-0.81076
-0.924841
1.34522
-0.42038
-0.141929
0.276766
-0.134837
-0.0357405
0.731198
-0.107872
-0.98993
0.98993
-1.06889
0.487897
0.580997
0.00118321
-0.00862298
0.136743
-0.438869
0.875689
-0.0622969
-0.0862363
-0.0336703
0.137168
0.00134073
-0.00368971
0.94867
-0.947409
-0.345549
0.421751
-0.64478
1.02152
-0.376742
-0.0691377
-0.0775549
0.126754
-0.0569114
0.355291
0.00520106
-0.0714707
0.358315
0.0459285
0.0437483
-0.252539
0.208791
0.135369
0.0333468
0.0994268
0.185053
0.948815
0.488429
0.3113
0.90145
-1.21275
-0.970013
0.880093
0.243846
-0.16086
0.0715195
-0.764907
0.693388
0.67251
0.128627
-0.471535
-0.0732513
0.129499
-0.0562479
0.124726
-0.197977
-0.456645
-0.108012
-0.0730029
0.0761311
-0.00312828
-0.00334941
-0.0415619
0.0515724
-0.0270892
0.688002
-0.617539
-0.0704637
-0.285374
0.295613
0.866673
0.644036
-0.26696
-0.0358326
0.0653373
-0.340757
-0.197191
0.164485
-0.557241
0.392756
0.00522948
0.000413613
-0.141409
0.443005
-0.301596
0.00303225
-0.0101754
0.00714318
-0.0258855
0.0177213
0.00816419
-1.03021
0.355156
-0.203405
-1.28823
-0.200257
-0.887444
1.49605
1.48493
-0.186531
-0.168781
0.11977
-0.0645236
0.070297
-0.00577336
0.186472
1.05798
-1.24446
0.552572
0.0840353
0.00137956
0.00384992
0.123901
-0.0750419
0.0336703
-0.0494513
0.00447683
-0.663297
0.32254
-0.0750207
0.129287
-0.236178
0.618083
1.0975
-0.182878
-0.0589593
0.00136495
0.0575944
1.78247
-0.297535
-0.0586851
-0.0521842
-1.04472
0.157271
0.392147
-0.218495
-0.474396
-0.131472
0.605868
0.794844
-0.354521
-0.440323
-0.10633
0.511665
-1.29275
0.308165
-0.017812
-0.0398594
0.0576713
0.552582
1.25023
-0.170439
0.176544
0.242872
2.01057
-0.514522
-0.678202
0.0624478
0.615754
0.387403
0.0176333
-0.349766
0.515759
0.7865
-0.0804111
0.0733173
-0.0204276
-0.512554
-0.0651715
0.577725
1.23057
0.0931507
-0.0639239
-0.0511155
-0.362905
0.110364
-0.319568
1.22751
0.0343452
-0.148932
0.0415558
0.319695
-0.569028
-0.0194794
0.0182937
0.108371
-0.144772
0.0364015
-0.291367
0.304742
-0.013375
0.873601
-0.875865
-0.969785
0.042344
0.927441
0.163943
-0.320635
0.156691
0.275838
0.0400647
-0.105185
-0.410956
-0.704217
0.704217
0.780533
0.628783
-0.717125
0.313035
0.473465
-0.553072
0.445196
0.926584
-0.374012
0.0191838
-0.866015
0.846831
0.126404
0.00627653
0.0281978
-0.940521
0.835337
0.143526
-0.163941
-0.118874
0.282815
0.164163
-0.502014
0.338073
-1.08772
-0.29078
-0.685033
-0.0676541
0.0082022
0.000340853
-0.225933
0.180002
0.115015
0.0336399
-0.148936
0.115296
-0.62365
-0.445244
-0.00543635
0.0654073
-1.02933
0.461118
0.568208
-0.555132
0.374945
-0.110357
0.166439
0.225412
-0.00958971
-0.0129107
-1.142
0.965555
0.0348416
0.0714528
-0.253352
0.0661284
0.208543
0.00874757
-0.435369
0.757215
0.519179
-0.0390711
0.854344
-0.782825
0.792437
-0.445833
-0.613264
0.174395
0.155431
-0.770017
0.756695
0.0133214
1.19592
0.0315905
-0.209875
-0.135674
-0.139687
0.0399801
0.96574
-0.850312
-0.115427
-0.186764
0.111604
0.0261544
0.116834
0.887128
0.874905
-0.714643
-0.160262
-0.320526
-0.0437206
-0.574079
-0.455247
0.187481
1.30073
0.626716
0.00206723
0.171009
0.551683
-0.722691
0.0130592
0.0513678
-0.00659025
-0.00299946
-0.512422
-0.100841
0.163764
-0.200571
-0.190507
0.140015
-0.522513
0.266423
-0.995727
-0.630777
-0.290343
-1.02028
1.44401
-0.0096542
-0.28349
-0.2723
-0.390997
-0.154765
0.307108
0.0512078
1.33917
-0.924354
-0.193876
0.131197
-0.433549
-0.405683
0.839232
-0.0184689
0.000656968
0.049799
-0.0583296
-0.233037
-0.114191
0.698397
-0.42908
-0.269317
0.0760223
0.129732
-0.0933788
-0.0363531
0.244395
0.0627124
-0.165569
-0.927413
-0.0980108
0.142973
0.856518
0.0183872
-0.00243066
0.12506
-0.0229914
0.0171138
0.0058776
0.0183745
-0.0307304
-0.247444
0.0779879
-0.093603
-0.547688
0.405759
0.0201954
0.160163
0.00377983
-0.685758
1.35529
-1.32095
0.0164372
-0.196354
0.179917
-0.119822
-0.52265
0.642471
0.0728235
-0.703085
-0.867877
-0.101909
-0.069383
-0.00140779
0.0707908
-0.245381
-0.668395
-0.147547
-0.134618
-0.512554
-0.235045
0.167628
-0.772186
-1.12604
-0.608699
0.507485
0.101214
0.257157
0.110684
0.529619
0.287234
-0.816853
0.176714
0.081472
0.849923
-0.118754
-0.73117
-0.217053
-0.0751263
0.955219
-0.24569
0.183073
-0.8508
0.775673
0.338547
0.178715
-0.027877
0.0370902
-0.00757867
0.973424
-1.0125
0.708134
0.0867105
-0.973312
0.253673
0.255291
0.671293
0.889191
0.00927884
-0.0228533
-0.626716
-0.685033
-0.717459
0.727794
-0.093189
-0.877564
0.678705
0.637144
-0.937417
1.00126
0.00224015
-0.772257
-0.309108
0.635648
-0.777271
0.141623
0.0777673
0.0519646
-0.113464
0.0538013
0.971286
-1.02509
0.00479792
0.00340427
-0.26771
0.217558
0.708471
0.21509
-0.201088
-0.176632
0.889449
-0.873528
0.0860419
0.369997
0.611934
0.464645
-1.07658
-0.836586
0.771414
1.0158
-0.554684
0.0933897
0.631526
-0.577725
-0.0106115
0.219254
-0.0559124
0.129398
0.127182
-0.000439909
-0.0144643
0.0149042
-1.01479
-0.0436845
0.306787
-0.796673
-0.461952
1.17319
-0.71124
0.373894
0.647628
-0.0477103
0.0510613
-0.00335096
0.00802489
0.881424
-0.714823
0.896244
0.532113
-0.994064
0.31826
-0.0990054
-0.58836
-0.407367
-0.390942
1.00288
-0.045738
-0.863775
-1.72628
0.122121
0.631526
0.0591418
-0.855815
0.830147
-0.646961
-0.183186
-0.981494
0.393134
-0.00184683
0.112943
0.000124339
-0.113067
-0.969343
0.561977
-0.208992
0.914547
-0.922018
0.195376
-0.21216
-0.0975689
0.244664
1.03285
-0.0485334
-0.201785
-1.54121
0.281615
0.906261
-0.986672
-0.552072
-0.520283
1.07236
0.447928
0.0184707
-0.0111722
-0.748383
0.704698
0.662268
-0.654243
-0.716568
0.681636
0.0349313
0.641914
0.531278
0.788106
-0.821566
-0.491974
-0.448428
-0.471121
-0.498223
0.804366
-0.804366
0.689241
-0.689241
-0.748383
-0.676118
0.676118
-0.681636
-0.526278
-0.359937
-0.405169
-0.768304
0.768304
0.662268
-0.654243
0.788106
0.770031
-0.770031
0.821566
0.762149
-0.762149
0.508026
0.528879
0.479717
-0.106036
-0.501777
-0.551572
1.08045
-0.521143
-1.06591
0.674965
0.539456
0.476345
0.0227163
-0.0134014
0.0871409
-0.882988
0.0921207
0.790868
-0.170038
0.162227
-0.977218
0.572501
0.891615
-0.57858
-0.122283
0.000117849
-0.0133823
-0.801093
-0.0702925
-0.546117
-0.00324693
0.00242195
0.055461
-0.221038
0.134494
0.179349
0.0143971
-0.0188555
0.0044584
-0.80915
0.0680608
0.741089
0.475015
0.557838
-0.532962
0.419862
0.1131
0.915797
-0.743888
-0.171909
0.0826802
0.302919
-0.0140907
-0.0589122
-0.0600718
-0.0140381
0.215984
-0.981264
-0.828917
0.0957493
-0.748026
0.794865
-0.0468398
0.131129
-0.901801
0.770672
-0.804556
0.90027
-0.0957145
-0.0622303
0.0806048
0.0205738
-0.291488
0.530503
0.472372
-0.0949886
-0.788
0.919983
-0.0991637
-0.82082
0.112925
-0.182063
1.01447
0.820809
-0.660966
0.472063
-0.388028
0.102737
-0.890736
1.15856
0.420503
-0.774483
0.00222642
1.02176
-0.890635
1.20939
0.982982
-0.523226
-0.459757
-0.86904
-0.108177
-0.418626
0.0374363
-0.53026
0.471278
-0.790347
0.790347
-0.60524
-0.0818891
-0.864249
0.120361
-0.967905
0.876784
0.0757864
-0.203315
-0.0552988
0.0562182
0.0113567
0.183869
0.837894
0.818381
0.770375
0.143106
-0.913481
-0.497168
0.973514
-0.783616
-0.0988065
0.882423
0.173407
-0.88823
-0.68038
0.887995
-0.785258
-0.103637
0.457455
-0.0141993
-0.443256
-0.158548
0.972613
-0.814065
-0.133006
-0.395853
0.528859
-0.887253
-0.825143
0.0771171
0.526775
0.265662
-1.11298
0.814877
-0.634956
0.634956
-1.05423
-0.486982
0.159886
0.67545
-0.844479
0.886823
0.789188
-0.198827
0.927803
-0.572648
0.531508
-0.967424
0.435916
-0.13819
-0.87684
0.298879
0.485814
0.183477
0.420828
0.208389
0.309188
-0.226508
0.777681
-0.873395
0.576717
0.396797
-0.153082
0.725583
0.633924
-0.633924
-0.0623534
0.0686147
0.112446
-0.078806
0.629842
0.342771
0.318007
-0.00387491
-0.000932425
0.00480733
-0.671605
0.689629
-0.018024
0.444424
-0.96765
0.109572
-0.89483
-1.04323
1.20711
-0.16388
0.3094
0.881309
-0.652943
1.09737
-0.751724
0.602894
-0.649122
-0.649501
0.149043
-0.436141
0.0274907
0.133498
-0.968409
0.532268
-0.00103185
-1.01444
0.0704041
0.724461
0.693142
-0.0902476
0.0734463
0.777913
-0.467376
1.05625
-0.588876
-0.705848
0.515838
0.350228
-0.922039
0.69956
0.222479
-0.676944
-0.133816
1.02001
-0.23305
-0.386321
-0.034275
0.492209
0.507791
-0.770775
-0.102621
-0.496403
-0.553829
-0.498866
-0.539816
0.405662
0.594338
-0.170416
0.180975
-0.869939
-0.0617999
-0.587322
-0.16077
-0.238924
0.399695
-0.032213
-0.0044596
0.114407
0.0738201
-0.129179
-0.118265
0.773132
-0.647844
0.72129
-0.419305
-0.549105
0.88668
-0.365772
-0.520908
-0.716017
-0.196046
0.912063
-0.234282
0.223511
-0.023751
-0.112149
0.00860568
0.00971224
0.777166
-0.14221
0.115047
0.110366
-0.739243
0.0676382
0.974763
-0.482173
0.512212
-0.817847
0.858928
-0.286662
0.997498
0.00342989
0.427487
-0.184615
-0.00104631
-0.0783702
-0.164263
0.349043
0.625721
-0.425605
0.838306
-0.412701
0.850249
-0.0192971
0.00625283
0.0130443
0.130844
-0.00627103
-0.00113751
0.213944
-0.105573
0.174062
-1.01854
-0.764329
0.338724
-0.00632756
0.28179
0.472534
-1.11886
1.34123
-0.222371
-0.797254
0.852571
-0.0553168
-0.343501
-0.0893666
0.427913
-0.0751726
0.978884
-0.461618
-0.0713441
0.281482
0.443837
0.172008
-0.615845
0.399588
0.0300421
0.659587
-0.568247
0.557325
0.0109218
1.03122
-1.18598
-0.0480124
0.0618702
-0.0138579
0.697167
-0.00904806
-0.0829453
0.0209972
0.960018
-0.621038
0.277536
0.116321
-0.133707
-0.186928
0.154943
0.0604891
-0.215432
-0.000907184
0.000467275
0.675307
-0.794061
0.29173
0.214463
-0.0250021
-0.0873311
0.228934
0.0959856
0.00801131
0.122707
0.767571
-0.081037
0.783237
-0.702199
0.935786
-0.364966
-0.57082
0.656525
0.112366
-0.0888067
0.00576709
0.0830396
-0.638734
-0.377102
-0.590323
-0.0168592
0.74294
0.705479
0.0187218
-0.611708
0.498244
0.829931
0.135655
0.02999
-0.875692
0.189249
-0.270686
-0.0994958
-0.174009
0.694922
0.0726495
0.013689
0.864494
-0.953861
-0.286159
0.167819
0.0212225
-0.109421
0.424234
-0.0586186
-0.417207
-0.068673
0.164008
0.659182
0.276604
-0.15088
0.907602
-0.03513
-0.108072
0.0128076
-0.00103275
-0.0117748
-1.17522
-0.0107662
-0.0147816
0.929484
-0.224779
-0.611784
0.640546
-0.0287625
0.0474009
0.76256
-0.895724
0.374816
0.0806638
-0.178233
0.637017
0.125542
0.700515
0.243764
-0.269341
0.741404
-0.301928
0.927648
-0.584659
0.342218
0.242441
-0.557
-0.0714679
0.0412627
0.0656226
-0.0481288
1.2326
0.744024
0.0859076
0.628643
0.204257
-0.870102
-0.0822713
-0.67508
0.677306
-0.0252345
-0.575153
0.414383
0.885647
0.667059
0.206532
0.00428689
-0.157524
-0.314011
1.22375
0.131542
-0.777667
0.0447606
0.551391
0.376258
0.667545
0.321072
-0.0793211
0.926207
-0.722663
0.892274
-0.169611
-0.40601
-0.178649
-0.0763856
-0.192121
-0.113741
0.903633
0.0158514
-0.00614229
0.623846
-0.164383
-0.653465
0.60526
-0.13009
0.231524
0.754649
0.249414
-1.00406
0.273174
-0.920135
-0.0752646
-1.24568
-0.179189
0.751597
-0.572408
-0.672436
-0.14589
0.0337407
-0.0563391
-0.918728
0.0167904
-0.0397818
0.985576
0.130911
-0.425932
0.295021
-0.033295
-0.594652
0.173537
0.25395
-0.952255
0.00901536
0.0053817
-0.500131
-0.055128
-0.591713
0.023466
0.571736
0.313911
0.812514
0.964067
-0.240051
-0.378255
0.618306
0.254137
-0.62118
0.62118
-0.217134
-0.920707
1.13784
0.0309858
-0.154218
0.679896
-0.108159
-0.217059
-0.315208
-0.0711126
0.526887
0.522272
-0.401271
0.180106
-0.103977
-0.729686
0.477031
0.0802947
0.0625323
0.0101235
-0.874772
-0.557271
-0.25342
0.695124
0.304876
-0.557271
0.695124
-0.551229
-0.258256
-0.551229
-0.696586
0.696586
0.303414
-0.013676
0.262837
-0.0780615
0.216757
0.161805
-0.479216
0.637392
-0.0321329
0.646061
-0.500707
-0.145354
-0.0535604
0.0517599
0.00180052
-0.00447175
0.000596846
0.283105
0.0180185
-0.108113
-0.432825
-0.358897
0.132964
0.0462104
0.82699
-0.275308
-0.481032
0.090035
0.00377808
-0.226734
-0.00487898
0.66843
0.0745095
-0.0889279
-0.0357302
-0.00320563
0.0234222
0.0863746
0.555115
-0.477484
-0.0776308
1.37836
0.547145
-0.861205
0.900669
0.0116239
-0.0641561
0.108662
-0.160736
0.200623
1.13821
-0.38356
0.0136481
-0.0813022
0.740595
-0.960701
0.0209323
-0.0209323
0.0208456
-0.0208456
-0.02789
0.02789
0.030515
0.362993
0.456266
-0.045628
-0.704484
0.465556
0.184765
0.0291793
-0.084638
-0.478386
0.916604
0.114726
-0.791669
-0.878477
-0.0326047
0.167328
0.0202138
-0.0024925
-0.0216944
0.0216944
0.429622
-0.0202866
0.0202866
0.704078
0.0971606
-0.0245487
-0.0111816
0.00630699
-0.0652663
-0.0216843
0.0216843
-0.0187962
0.0187962
-0.0225106
0.0225106
-0.0150065
0.0150065
0.171507
-0.296184
-0.0791322
0.220093
-0.0134356
0.0134356
-0.376466
0.506642
-0.130177
0.491012
-0.214246
-0.0123656
-0.468667
0.558067
-0.170788
0.0815383
0.559008
0.568226
-0.00507412
0.00507412
0.338985
0.0250907
-0.0250907
-0.0114879
0.0114879
0.749969
-0.847469
0.0428083
0.145408
0.297597
0.0011658
-0.0011658
0.0229089
-0.0229089
0.018587
-0.018587
0.0224026
-0.0224026
-0.023717
0.023717
0.035724
-0.035724
0.486723
-0.032276
0.032276
-2.8293e-05
2.8293e-05
0.0243603
-0.0243603
-0.0099241
0.0099241
0.00702833
-0.00702833
-0.085401
-0.0260037
0.0260037
0.024875
0.00818903
-0.0401957
0.0401957
0.00948781
-0.00948781
0.0279667
-0.0279667
0.0340539
-0.0340539
0.0245826
-0.0245826
0.00219856
-0.00219856
-0.00331128
0.00331128
-0.441824
0.0237771
-0.0163678
0.0163678
0.00107428
-0.00107428
-0.0388954
0.0388954
-0.0267512
0.0267512
-0.000256352
0.000256352
-0.413714
0.669005
0.261189
-0.0327098
0.0327098
-0.0428245
-0.0246843
0.0246843
0.00200275
-0.00200275
0.0357095
-0.0357095
-0.149652
0.179642
0.00537525
-0.00537525
-0.0220905
0.0220905
-0.478202
0.0427868
-0.749138
-0.0299928
0.0299928
-0.441014
0.0327389
0.0183224
-0.337934
-0.635378
-0.0375952
0.0375952
-0.203481
0.144862
-0.0397339
0.00273
-0.00273
-0.00337948
0.049819
0.261332
-0.318353
-0.271123
0.589476
0.192631
-0.00763417
0.00763417
-0.397608
0.501023
-0.103415
0.73896
-0.388771
-0.350189
-0.463746
-0.636755
-0.23507
0.325105
-0.458912
-0.246936
-0.581443
0.0182514
0.181719
-1.01721
0.0163688
-0.0163688
0.00256979
-0.00256979
0.0315454
-0.0315454
0.0250857
-0.0250857
0.0020547
-0.0020547
0.00215618
-0.00215618
-0.179754
-0.33253
0.16701
-0.289293
-0.00162752
0.00162752
-0.0431043
0.0431043
-0.0412857
0.0412857
0.287423
0.0150407
-0.302464
0.00833692
0.306159
-0.530937
0.000935707
-0.000935707
-0.0232412
0.0232412
-0.0904929
-0.178877
-0.0561931
0.00248222
-0.00248222
0.123137
0.0112781
1.00319
-0.482427
-0.0805696
0.562997
-0.622838
-0.23145
-0.29881
-0.0370701
0.0370701
-0.674654
0.273012
0.0507461
-0.0507461
-0.653065
0.386285
0.256788
0.115313
0.00277193
-0.00277193
-0.842312
0.00243107
-0.00243107
0.324975
0.406223
0.0869863
-0.0548293
0.0548293
0.00211805
-0.00211805
-0.0433786
0.0433786
-0.0517795
0.0517795
0.00353435
-0.00353435
-0.0573691
0.0573691
0.0036866
-0.0036866
-0.0467714
0.0467714
0.001551
-0.0436931
0.0436931
-0.00039434
0.00039434
0.049352
-0.049352
0.00224133
-0.00224133
0.0455134
-0.0455134
-0.136592
-0.00124024
0.00124024
-0.00449145
0.00449145
-0.0485175
0.080931
-0.0116346
0.0116346
0.00502121
-0.00502121
-0.0607776
0.0607776
0.30076
-0.0197988
0.0197988
-0.055929
0.055929
-0.00764165
0.00764165
-0.0688131
0.0688131
-0.0132789
0.0132789
-0.0823241
0.0823241
-0.0225739
0.0225739
-0.0923304
0.0923304
-0.679874
0.127914
-0.531835
0.503073
-0.89158
-0.224049
-0.55434
0.380331
0.0975671
-0.0215448
0.00276624
-0.00276624
0.371086
-0.707124
0.0443992
-0.0342758
-0.538031
0.978741
0.64095
0.252088
-0.0557349
0.012171
-0.386834
-0.57292
-0.080201
0.369625
-1.29451
-0.0214209
0.0214209
-0.744068
0.0189143
-0.0189143
-0.00176292
0.00176292
0.32769
-0.28504
-0.00102681
0.00102681
0.0182756
0.0139559
0.600312
0.107602
0.00178107
-0.00963649
-0.0132168
-0.101029
0.495712
-0.394683
0.316491
-0.0176119
0.0048701
1.17735
-0.0257942
0.0485381
-0.409506
0.446942
-0.490076
-0.968629
-0.238801
-0.0724335
0.0182401
-0.512505
0.116652
0.0628918
-0.0050521
-0.0233666
0.779988
-0.541809
-0.0400638
0.0612863
-0.0367701
-0.00518865
0.268025
0.414137
0.239827
-0.169394
0.209557
0.0171345
-0.000718455
-0.933533
0.0373216
-0.0641366
-0.361795
-0.0183333
-1.23302
-0.072284
0.26784
-0.351285
0.397213
0.117158
-1.13744
0.054543
-0.0398531
-0.14221
-0.348736
0.461836
-0.107146
-0.0261054
0.133251
-0.0274886
0.0274886
0.173307
-0.440267
-0.119971
0.156097
-0.0809132
0.0556787
-0.0624947
-0.00573901
0.0682337
-0.0258857
-0.15508
0.153716
-0.109565
-0.283079
-0.345024
0.628103
0.015198
0.0598249
0.14815
-0.0331027
-0.168001
0.0700947
-0.158358
0.313789
-0.0169226
0.0299669
-0.0220662
0.170216
0.00336854
0.262952
0.000762802
-0.000762802
-0.151738
0.819283
0.0915891
-0.17386
-0.06501
-0.010047
0.459836
0.637531
0.00613016
-0.0390635
-0.529232
-0.00260325
-0.0752757
0.0956575
-0.687044
0.313032
-0.0587653
0.360433
-0.643512
0.199704
0.499856
-0.092037
0.092037
0.000124339
-0.945651
0.474571
0.47108
-0.215011
0.158672
-0.00867797
0.0114818
-0.887347
-0.201302
-0.0547906
0.0703867
0.924969
0.31442
-0.107889
-0.0701485
-0.374039
-0.620025
-0.0820467
-0.263436
0.779195
0.562083
-0.255924
-0.269461
0.551251
0.12426
0.457724
-0.264515
0.111374
-0.45912
0.328943
0.12151
-0.12151
0.146999
-0.156987
0.00998811
0.00882057
-0.00811976
0.0171138
-0.374005
-0.264729
0.220092
-0.185462
-0.0346308
0.534849
-1.0827
-0.216252
-0.962495
0.683536
-0.112922
-0.176372
-0.0354043
-0.0787867
-0.485368
0.0525426
-0.290215
0.00528007
-0.0183333
0.384974
-0.00515808
7.67592e-05
0.00157093
0.0134266
-0.017703
0.0042764
-0.111127
-0.0181564
-0.1703
0.188457
-0.122614
-0.336506
0.0182756
0.343985
0.0032057
-0.376936
0.0865928
0.0025801
0.188538
-0.234166
-0.0125835
0.0125835
-0.00115825
0.00411275
-0.00895829
0.00194766
-0.0911155
0.000718353
-0.00120641
0.357715
-0.00448558
0.00133012
-0.00133012
0.134796
0.503773
0.00242834
-0.290101
0.511718
1.15001
-0.471351
0.324961
-0.437533
-0.310062
0.190091
0.225741
-0.220994
-0.017111
0.0127944
-0.00308214
-0.00476539
-0.179394
-0.371563
0.837119
0.456174
-0.635928
0.30695
-0.00167015
0.33784
-0.0284395
0.00177538
0.000206588
0.0125878
-0.199806
0.0013003
-0.000312074
0.707873
-0.637778
-0.243972
-0.17107
0.840331
0.000928465
0.00206398
-0.0397339
-0.00541018
0.811205
-0.427086
0.507381
-0.807248
0.899214
-0.798072
0.56889
-0.188559
0.692578
0.00228993
0.0027751
0.0174387
-0.112577
0.142145
-0.273349
0.00844252
0.0095558
0.0657152
-0.0515845
-0.0141307
0.00225891
0.0491105
0.0333171
-0.0824276
-0.0942414
-0.00172036
0.000787936
0.000935778
0.482269
-0.429689
-0.00472555
0.000679356
0.813149
-0.338578
0.379692
-0.00604974
-0.000160213
0.340253
-0.0485239
-0.0431612
-0.112071
-0.0155433
-0.00369052
0.124957
0.074496
-0.00201796
0.399495
0.00154835
-0.00199197
0.00199197
0.0132446
-0.0228811
0.000427175
-0.316068
-0.00377166
0.0738097
-0.10778
0.217075
0.118847
-0.0670246
0.000691816
0.0032512
0.448708
0.000717228
-0.00747259
-0.068913
-0.00209292
0.00101916
0.0322032
0.285804
-0.703425
0.460167
-0.83173
-0.062225
-0.000364166
-0.770626
0.161663
0.0467262
0.573683
-0.0147093
0.033104
-0.0040832
-0.00139417
-0.549111
-0.00339277
0.000152252
-0.0469143
0.926122
-0.526534
-0.00258058
-0.00144526
-0.00594822
-0.00348158
0.0728696
-0.0213148
0.0213148
-0.0521057
0.0562184
-0.00262044
-0.00803551
0.0570186
-0.0569419
-0.16734
0.0958725
-0.0056372
-0.013511
0.0403852
-0.0167548
0.0626839
-0.0444438
-0.629937
0.583097
0.0380489
-0.00225497
0.326715
-0.162707
-0.0679547
-0.666761
-0.0721744
-0.113509
-0.0960097
0.0939168
0.687699
0.00100012
0.0210413
-0.0189773
0.348694
0.0608827
-0.140621
0.0797385
-0.0701798
-0.619396