/*--------------------------------*- C++ -*----------------------------------*\
| =========                 |                                                 |
| \\      /  F ield         | OpenFOAM: The Open Source CFD Toolbox           |
|  \\    /   O peration     | Version:  2306                                  |
|   \\  /    A nd           | Website:  www.openfoam.com                      |
|    \\/     M anipulation  |                                                 |
\*---------------------------------------------------------------------------*/
FoamFile
{
    version     2.0;
    format      ascii;
    arch        "LSB;label=32;scalar=64";
    class       volVectorField;
    location    "8";
    object      U;
}
// * * * * * * * * * * * * * * * * * * * * * * * * * * * * * * * * * * * * * //

dimensions      [0 1 -1 0 0 0 0];

internalField   nonuniform List<vector> 
2186
(
(1.317 -0.0891716 1.66288e-19)
(1.60786 -0.922386 -1.0354e-19)
(1.45049 -0.896706 -1.64339e-22)
(0.730395 -0.580063 -1.18827e-19)
(-0.527131 0.571407 -2.48483e-19)
(1.04487 0.00415226 0)
(0.709294 -0.653772 0)
(-0.28616 -0.483961 1.31978e-19)
(1.52715 -0.240432 1.98295e-19)
(0.546096 -0.304141 -2.23453e-21)
(0.682393 0.612708 0)
(0.861099 -0.274004 -1.45749e-19)
(-0.361833 -0.585224 -5.39576e-20)
(1.12178 0.0281863 -2.96309e-19)
(1.80252 -0.673803 -1.0992e-19)
(1.01608 -0.00277556 1.38821e-19)
(0.996942 0.0201746 0)
(-0.822477 0.366386 0)
(1.04353 -0.00268514 0)
(-0.0473109 0.27133 -8.88736e-20)
(0.479482 0.0974074 -9.55015e-20)
(-0.253289 0.140979 1.19076e-19)
(1.12401 0.0306267 2.44655e-19)
(-0.241549 -0.00186485 4.639e-21)
(1.04413 0.00530186 -1.91791e-19)
(0.780141 -0.556586 0)
(0.752686 -0.0236724 1.18931e-19)
(0.598292 -0.578367 -1.34093e-19)
(1.2187 0.714215 0)
(0.985626 0.0328455 -2.62674e-19)
(-0.00455809 0.0105801 0)
(1.03969 -0.022295 9.09102e-21)
(0.0210584 0.373183 0)
(1.89617 0.377386 1.13748e-19)
(-0.136195 -0.170311 5.0114e-21)
(1.54648 0.777865 3.7085e-21)
(1.43709 0.15379 6.51227e-20)
(0.506913 0.144568 -2.8361e-19)
(2.02811 0.176849 -4.44196e-19)
(1.04248 0.0112707 -1.21002e-21)
(-0.437944 -0.660074 0)
(-0.228559 0.143684 0)
(1.88089 -0.872501 9.5735e-20)
(-0.474267 0.24465 0)
(1.10546 0.283152 1.16802e-19)
(0.587824 -0.283263 2.34731e-19)
(0.910642 -0.772517 0)
(1.17402 -0.771049 7.82982e-20)
(1.7443 -0.680289 0)
(-0.479179 0.702081 2.76331e-19)
(0.0240636 0.0882163 1.31445e-19)
(0.636774 0.586211 5.91768e-20)
(2.06857 -0.752997 1.19776e-19)
(0.593833 0.274428 -2.26354e-19)
(-0.284957 0.233509 4.44022e-20)
(0.751211 -0.642734 0)
(1.66769 -0.961461 1.84295e-20)
(0.569747 -0.531702 0)
(2.34998 0.158365 1.40343e-19)
(1.16391 -0.186971 -2.69988e-19)
(1.09187 -0.104389 5.46825e-20)
(1.34213 0.295135 -1.21731e-19)
(1.33544 0.540762 0)
(1.07294 0.00940428 1.32571e-21)
(1.35347 0.376182 -6.58519e-20)
(1.24607 -0.719486 -1.04067e-19)
(1.17773 0.66152 3.62617e-20)
(0.670959 0.0775166 -4.58774e-19)
(0.811961 0.0661355 0)
(2.19463 -0.152098 -7.05546e-20)
(-0.281138 -0.561661 -1.52756e-19)
(1.4681 -0.429696 -4.88827e-20)
(0.715656 -0.0317597 -2.0234e-19)
(0.864268 -0.51659 0)
(0.828946 0.184768 -7.36141e-20)
(0.540141 -0.50439 -2.43516e-19)
(1.73336 -0.396161 0)
(1.00866 0.00589395 2.88201e-19)
(-0.113874 -0.259662 0)
(2.03517 0.398458 0)
(1.16911 0.124262 1.8363e-19)
(0.996926 -0.0028573 1.27798e-21)
(1.04987 0.0210118 3.18792e-20)
(1.32013 0.412626 1.76594e-20)
(0.965528 0.0313036 3.35313e-19)
(1.04818 0.0425769 -7.94217e-21)
(0.666158 0.179317 -2.72957e-19)
(1.05471 0.0075482 2.2108e-22)
(0.684675 0.000729909 0)
(-0.0498073 -0.00789855 1.04989e-19)
(0.849614 -0.620479 -1.29635e-19)
(-0.0807065 0.573602 -2.1407e-21)
(1.0925 -0.0719812 1.95374e-19)
(0.802582 -0.177762 0)
(1.01063 0.00556155 3.19871e-20)
(1.37741 0.649288 0)
(1.61513 -0.933688 0)
(1.3002 0.216818 0)
(-0.528893 0.655717 0)
(0.779594 -0.659779 2.32692e-19)
(0.859555 -0.414319 -4.17527e-19)
(1.06743 -0.181412 3.26647e-19)
(1.47742 0.173666 0)
(1.09047 -0.087172 -1.78615e-19)
(1.08381 0.0147989 1.42467e-19)
(0.0203536 0.656822 1.66881e-19)
(0.638418 0.503653 0)
(2.15719 -0.145578 -1.41557e-19)
(0.955182 -0.478701 6.49841e-20)
(-0.183223 0.305372 1.83271e-20)
(1.7992 0.255174 1.51571e-19)
(-0.329129 0.730494 -3.86264e-19)
(0.804319 -0.728194 0)
(0.565424 0.348082 1.36765e-19)
(1.69662 -0.258346 -5.67731e-19)
(-0.520674 -0.425361 -5.25148e-19)
(1.04363 -0.0154982 -4.53024e-21)
(1.54466 -0.622838 0)
(-0.0778111 -0.00122117 -3.1531e-19)
(0.69749 -0.0665566 6.41887e-20)
(1.57447 0.888895 0)
(-0.425751 0.755016 -4.48091e-19)
(0.893769 0.76462 -2.02446e-19)
(-0.996468 0.227959 5.78625e-19)
(1.03936 -0.0187053 0)
(1.06388 -0.0074043 5.70764e-21)
(-0.447963 0.681422 0)
(0.689819 -0.492715 -8.70156e-20)
(-0.99215 0.342853 -3.22211e-19)
(0.775702 -0.70502 0)
(0.431852 -0.273176 3.44558e-19)
(0.536494 -0.455427 2.29637e-19)
(0.409281 -0.369627 0)
(0.968376 -0.766028 -9.21679e-20)
(1.11319 -0.0592042 0)
(-0.191376 0.807829 -2.1681e-19)
(0.797435 -0.688079 1.09721e-19)
(2.31607 -0.221895 3.15971e-19)
(2.13987 0.0897173 0)
(-0.0263885 -0.123984 0)
(0.693772 0.643563 -2.43887e-19)
(1.78611 -0.610936 2.10812e-20)
(-0.161958 -0.237752 0)
(0.968907 -0.791189 -1.02066e-20)
(1.12323 -0.0783943 0)
(1.07582 -0.128409 3.11906e-19)
(2.07715 -0.140067 -1.35817e-19)
(-0.562136 0.561794 0)
(1.21404 -0.548805 -4.01049e-20)
(-0.21833 0.440211 -5.5431e-20)
(-0.296766 0.662918 0)
(1.08087 -0.799142 1.18249e-20)
(0.998124 0.00817982 -4.81352e-19)
(0.643753 -0.477962 -8.598e-21)
(0.80622 -0.513242 0)
(1.1916 -0.720827 -6.65321e-20)
(0.656355 0.239046 2.1207e-19)
(1.23996 0.0821964 0)
(1.5376 0.0825647 -8.50566e-20)
(1.18627 -0.838694 -1.27529e-19)
(-0.0152769 -0.103944 -1.19492e-19)
(-0.164792 -0.674082 -2.92775e-19)
(1.05851 0.0102112 1.79027e-19)
(0.909583 -0.459573 -8.17215e-20)
(1.03777 0.00443518 -2.04676e-22)
(1.05474 -0.00131646 -1.23868e-21)
(0.742203 -0.113412 1.31048e-19)
(-0.206088 -0.00180766 -2.80525e-19)
(1.04146 0.0449071 0)
(1.08218 0.0013001 1.25151e-20)
(1.44002 0.655738 6.64015e-20)
(0.798672 -0.612995 -1.69724e-19)
(0.996911 0.00688648 9.86355e-21)
(0.712476 -0.530475 2.39196e-19)
(1.31182 0.803301 6.76331e-20)
(1.84895 -0.0387969 2.66274e-20)
(-0.611201 0.45086 0)
(1.0527 0.0609565 -1.84887e-19)
(-1.06816 -0.167443 -4.02828e-19)
(1.0797 0.490172 5.89947e-20)
(0.0936351 -0.0794513 1.6944e-19)
(1.10406 0.0283557 -3.42026e-20)
(-0.132448 0.284098 -2.1412e-19)
(1.31236 0.584299 -4.45589e-20)
(1.14843 0.892761 0)
(-0.656421 0.45623 -1.27357e-19)
(-0.225216 -0.136885 0)
(0.65481 0.559499 -2.17855e-19)
(2.02815 0.127848 -2.90521e-20)
(-0.479652 -0.614606 1.84172e-19)
(-0.999321 0.089386 -8.33631e-19)
(0.716954 0.0823553 2.01353e-19)
(2.12275 -0.512696 -4.82698e-20)
(0.974648 -0.341656 -2.40648e-20)
(0.0283444 0.00662759 0)
(0.165625 0.373982 -4.47996e-20)
(1.34399 0.982838 2.75645e-20)
(0.835249 0.0823302 -1.09054e-19)
(0.557905 0.521759 1.5048e-19)
(0.475609 0.189191 0)
(-0.111776 -0.83639 -2.74378e-19)
(0.486066 0.0719809 -6.14458e-20)
(1.28756 -0.941347 1.36575e-22)
(0.979007 -0.0240794 -1.49488e-19)
(-0.178856 -0.129612 7.17375e-21)
(-0.25033 0.31994 2.02354e-19)
(-0.36898 -0.100955 -2.06995e-19)
(1.46728 -0.645166 0)
(1.09323 0.0491082 -2.47052e-19)
(1.95122 -0.365694 1.47322e-19)
(1.27585 -0.614484 6.7788e-20)
(0.907028 0.0159682 -2.50557e-22)
(0.59261 0.32872 0)
(0.949909 0.751035 -1.17831e-20)
(0.689956 0.632881 1.37177e-19)
(0.88648 -0.563854 1.17362e-19)
(0.687351 0.499207 0)
(1.02116 0.00548863 6.3815e-21)
(0.871168 -0.660832 1.66863e-19)
(0.844967 0.4255 -3.58247e-19)
(1.22874 -0.0929012 0)
(-0.22069 -0.226788 -3.51296e-19)
(0.0088252 0.556071 -1.31446e-19)
(1.58944 0.72733 0)
(1.33819 -0.91956 -1.1688e-22)
(-0.884955 0.502543 0)
(-0.506901 0.668095 1.5739e-19)
(0.738928 0.65134 -7.50952e-20)
(0.847831 -0.219433 0)
(-0.207035 -0.191971 0)
(1.63368 -0.455111 0)
(-0.131271 -0.485654 8.60741e-20)
(1.19962 -0.86549 8.38495e-20)
(1.17184 -0.60488 4.45397e-20)
(1.06993 -0.217502 -1.26496e-19)
(0.864981 -0.685579 -1.30911e-19)
(0.182535 -0.186575 0)
(-1.17506 -0.0466237 0)
(0.995029 -0.512555 1.35209e-19)
(-0.0902759 -0.219543 0)
(-0.431439 0.698197 0)
(-0.512558 -0.398463 4.47933e-19)
(0.796052 0.669211 6.51559e-20)
(1.01986 0.796068 0)
(0.698569 0.551063 -6.67227e-20)
(0.82282 -0.0376481 -1.81115e-19)
(0.74869 0.560016 -1.77484e-19)
(0.592936 0.549235 -1.29571e-19)
(-0.229014 -0.564255 3.08229e-21)
(0.705832 -0.632564 0)
(0.909117 0.177881 -2.54948e-19)
(-0.359142 -0.671722 7.04905e-20)
(0.607145 0.561278 2.86433e-19)
(0.96445 0.800162 0)
(-0.304054 -0.409656 2.01454e-19)
(-0.0813926 -0.483617 3.568e-19)
(0.0192406 -0.400245 -1.78195e-19)
(0.664671 0.566724 -1.16103e-20)
(0.989055 -0.0068465 4.5979e-20)
(-0.458308 -0.690176 0)
(2.18752 0.250925 -2.89784e-19)
(1.15608 -0.201579 -1.40012e-20)
(0.638803 -0.59205 -5.93418e-20)
(-0.796056 0.0999597 2.09669e-20)
(1.19686 0.455292 1.25298e-19)
(0.891749 0.417091 0)
(1.05741 -0.152315 1.50591e-19)
(0.13377 -0.59741 -1.34541e-20)
(-0.0200205 0.128131 4.96689e-19)
(0.946846 0.0101804 -4.118e-20)
(1.14281 0.120296 0)
(1.85133 0.0572056 -2.70101e-19)
(1.87633 0.00184847 0)
(0.542365 0.255482 -3.74102e-19)
(-0.261827 0.378091 0)
(-0.249562 -0.495963 2.99257e-19)
(0.792322 0.117962 0)
(0.613885 -0.513012 -1.47699e-19)
(1.06268 0.0141845 1.63884e-19)
(-0.585362 0.580773 5.91267e-20)
(1.72022 -0.0865658 -1.57526e-20)
(2.13609 -0.241862 -1.44251e-19)
(1.10789 0.231404 -1.65344e-19)
(-0.382638 -0.722621 -1.41717e-19)
(1.0609 -0.833264 0)
(0.787606 0.0182564 -1.19373e-19)
(0.924918 -0.367897 -2.3111e-19)
(1.70666 -0.55203 -9.32672e-21)
(1.71397 -0.0276704 2.54849e-19)
(1.06002 -0.00488474 2.97089e-19)
(0.141784 -0.65678 -1.86954e-19)
(0.992757 -0.435971 -9.84151e-20)
(0.193149 -0.18649 2.09018e-19)
(1.00275 -0.0139545 0)
(1.01351 0.008081 0)
(1.16403 -0.333798 -9.58162e-21)
(-0.0987307 0.791543 -1.45732e-19)
(0.189626 -0.117374 -1.51774e-19)
(1.07848 -0.188227 1.46895e-20)
(1.36244 -0.885147 0)
(2.08365 -0.462049 -8.44298e-20)
(0.932874 -0.807175 -5.12271e-20)
(1.80578 -0.542736 -9.04527e-20)
(1.1129 0.83997 0)
(0.465401 -0.44942 0)
(0.604679 0.514609 -1.40445e-19)
(1.09161 0.280652 -3.00452e-19)
(2.15252 -0.222594 4.61883e-22)
(0.866518 0.164085 1.09995e-19)
(0.0665874 -0.794352 -6.30976e-19)
(1.0076 0.01656 8.64594e-22)
(-0.314898 -0.770321 0)
(-0.0367713 -0.138217 0)
(-0.594902 -0.617565 0)
(1.33468 -0.70879 -4.7537e-20)
(-0.318411 0.676546 -3.00486e-19)
(-0.0931365 0.260592 0)
(1.3023 0.984434 -5.65799e-21)
(1.10059 0.146509 -3.17201e-19)
(1.12378 0.104958 -1.17197e-20)
(1.09139 0.931747 3.62485e-20)
(-0.291077 0.783119 1.99157e-19)
(0.904991 0.052722 0)
(-0.603993 -0.539731 -3.89497e-19)
(-0.375242 0.740001 3.71384e-19)
(0.768519 0.0397921 1.48285e-19)
(1.54638 0.951396 6.08405e-20)
(1.07622 -0.0193108 2.82257e-21)
(-0.149789 0.545868 -3.70258e-21)
(0.730537 -0.666041 -2.80481e-20)
(1.2554 -0.00821236 0)
(1.69578 0.0721824 0)
(1.16426 0.0691071 0)
(0.613286 0.251542 4.83483e-20)
(-0.556762 -0.690668 1.46202e-19)
(1.05484 0.847497 0)
(0.982544 0.00724085 4.02688e-19)
(0.770799 0.602418 -1.76842e-19)
(0.186535 0.0717044 1.87695e-20)
(0.85764 0.0241638 -3.30196e-20)
(0.701519 -0.640606 -1.69573e-19)
(1.38871 0.70825 -1.12661e-20)
(0.55744 -0.449188 -2.39475e-19)
(1.10362 0.000716157 -3.58674e-19)
(0.848207 0.035471 3.52127e-20)
(1.53412 -0.127291 3.77096e-20)
(0.824652 0.0251119 -2.31504e-20)
(-0.00632638 -0.0333791 -9.41637e-23)
(1.08239 0.469261 -1.97709e-19)
(1.35868 0.623398 1.09687e-19)
(-0.0971128 -0.439983 0)
(0.0618811 -0.826258 2.36787e-19)
(-0.311638 -0.307264 1.47672e-19)
(-0.226733 -0.060936 -1.45696e-19)
(0.474144 0.315039 0)
(1.15952 -0.198304 0)
(0.0575148 -0.0452499 -1.80984e-19)
(-0.294569 -0.734552 -8.26069e-20)
(1.04269 -0.0328978 1.42807e-19)
(-0.542998 0.458226 -5.86802e-20)
(1.59377 -0.866947 -2.74392e-19)
(-0.0293093 0.83469 0)
(0.817991 -0.723529 -2.25961e-19)
(0.843406 0.0364399 3.3162e-20)
(-0.638196 -0.409809 2.64633e-19)
(0.71747 0.166514 2.65666e-19)
(0.618496 0.141548 8.66557e-20)
(0.493103 -0.468578 1.63399e-19)
(-0.183029 -0.307288 -1.60056e-19)
(1.06438 -0.0357875 0)
(0.390491 0.342937 -1.58175e-19)
(1.03702 -0.0223946 -2.26548e-19)
(-1.09814 0.0481159 3.24749e-19)
(1.42506 0.481113 -5.68126e-20)
(-0.117537 -0.29985 -5.95304e-20)
(0.683451 -0.621675 -1.75692e-20)
(0.822126 0.1907 -1.63877e-19)
(0.980431 0.430391 1.72228e-20)
(1.1377 -0.140641 2.65038e-20)
(0.597275 -0.219525 -2.46279e-19)
(1.99438 -0.353247 -1.88228e-19)
(0.555344 -0.0448575 0)
(1.04156 0.00878676 -1.25522e-20)
(1.13001 0.197022 -1.30472e-20)
(1.31467 -0.278622 1.95945e-19)
(1.01945 0.354251 -2.38873e-19)
(1.0601 0.00538256 -2.2491e-21)
(0.416525 0.385291 -2.03309e-19)
(-0.306045 0.215043 4.06882e-19)
(2.1298 -0.0879664 0)
(0.944467 0.0146968 0)
(0.859482 -0.756539 4.1855e-20)
(-0.0784522 -0.574884 -3.90084e-19)
(-1.30816 -0.121602 -3.69121e-19)
(-0.0243505 -0.0741995 -2.54837e-19)
(-0.640419 0.726437 -2.51372e-19)
(-0.467186 -0.691805 0)
(-0.0135749 -0.0860551 4.50437e-20)
(0.321737 0.606619 -1.26866e-19)
(-0.28195 0.364046 -4.629e-19)
(0.785305 -0.110189 0)
(1.1555 -0.0985925 4.35512e-21)
(-0.280501 -0.327603 0)
(1.01795 0.02598 2.90762e-19)
(-0.109741 -0.757163 3.01565e-20)
(0.533735 -0.420546 3.20955e-19)
(-1.11683 -0.321191 6.67854e-19)
(-0.736611 -0.0330659 0)
(0.332919 0.800016 1.67068e-19)
(1.01233 0.0340272 -8.67183e-21)
(-0.225934 -0.113457 0)
(0.99923 -0.00460942 -4.50515e-20)
(0.845754 -0.715265 -2.19767e-19)
(1.1527 -0.381578 0)
(0.937528 -0.272856 1.64086e-19)
(0.118301 0.690515 3.74352e-19)
(0.0352207 0.0398927 0)
(-0.206249 -0.797114 -8.35468e-21)
(0.71453 -0.627536 -3.37036e-19)
(0.992659 -0.0402894 -2.0764e-19)
(-0.101349 -0.668559 4.8574e-19)
(-0.177757 -0.455871 1.82382e-19)
(-0.431139 -0.793097 0)
(0.961031 0.476649 0)
(-0.471968 -0.639427 3.46711e-19)
(2.25874 0.566384 -2.03349e-19)
(1.08524 0.904579 1.08482e-20)
(1.05469 0.20552 -9.51272e-20)
(1.13073 0.00114848 -1.72854e-19)
(1.06455 -0.13548 -6.08012e-20)
(-0.0535391 -0.701559 -4.52313e-19)
(1.67809 -0.0661577 3.53775e-19)
(0.771449 0.0438736 1.55409e-19)
(1.73734 0.0952229 1.0722e-19)
(1.02062 -0.119643 0)
(0.462491 0.936576 1.60523e-19)
(1.09476 0.0288806 -3.93801e-19)
(1.73741 0.619363 -3.60578e-20)
(0.729604 -0.448588 -1.30199e-19)
(-0.0544301 0.0107972 2.3594e-19)
(0.782259 -0.685957 2.90452e-19)
(1.2217 0.199702 5.25192e-20)
(0.99898 -0.00395913 1.99884e-19)
(0.170658 -0.821956 -2.10914e-19)
(1.03077 0.028357 0)
(1.0995 0.130934 -9.06554e-20)
(0.0284203 0.0384114 0)
(1.02722 0.0325679 -1.1748e-19)
(-0.23631 -0.271375 -7.34073e-20)
(1.69906 0.305153 -3.57911e-21)
(-0.462817 -0.314503 1.91579e-19)
(1.60927 0.0710998 -3.66045e-20)
(1.01327 -0.0103762 4.09716e-20)
(1.31483 -0.0805348 0)
(1.44193 -0.590053 -7.90121e-20)
(1.02441 0.0389936 -1.21389e-19)
(1.44782 0.793443 7.34889e-21)
(1.34906 -0.00471417 0)
(1.06073 0.00564215 3.97186e-22)
(0.0638743 -0.0504165 0)
(1.41307 0.0445326 0)
(-0.535084 -0.718905 0)
(1.22709 0.440449 0)
(1.94802 0.240866 7.20417e-20)
(0.743633 0.613434 3.09549e-19)
(0.285739 -0.287618 -1.93445e-19)
(-0.251777 -0.668927 -4.41705e-19)
(0.0312702 0.00898394 0)
(1.13498 -0.105852 2.20859e-20)
(1.38836 0.51785 0)
(1.47096 0.279642 0)
(-0.657603 -0.514388 1.7286e-19)
(0.815439 0.717764 9.17781e-20)
(1.68958 -0.021357 0)
(-0.370396 -0.515827 1.03093e-19)
(0.916319 0.224517 1.4959e-19)
(1.06969 -0.0296455 -1.14232e-20)
(1.25295 0.934312 2.206e-20)
(0.910999 -0.816576 -1.92133e-20)
(0.517425 0.00694949 -1.16493e-20)
(0.802591 0.723159 9.25461e-20)
(1.19092 0.935223 0)
(1.43497 -0.358768 5.42879e-20)
(1.26208 0.939712 0)
(1.12406 0.00550839 -1.73205e-22)
(1.01988 0.0689732 2.43563e-19)
(1.00707 0.00412789 0)
(0.492402 0.821578 2.96864e-20)
(0.8852 -0.181769 3.82076e-20)
(0.621238 -0.401721 0)
(0.658273 -0.371531 1.72809e-19)
(1.24379 0.556856 -2.23777e-20)
(0.475182 0.446982 2.1895e-19)
(-0.326956 0.455285 5.48903e-20)
(0.18401 0.0108086 1.24856e-19)
(0.816016 0.0471222 0)
(1.314 -0.879917 -2.79477e-20)
(1.04258 -0.0247867 3.15455e-19)
(1.54263 0.304814 1.89178e-19)
(-0.408194 -0.562701 8.94685e-20)
(-1.05101 -0.207602 0)
(1.17011 -0.222936 -8.55503e-20)
(0.0394168 0.0368536 -2.06337e-19)
(0.505438 0.838152 -4.2072e-20)
(-0.141735 0.0342185 -5.08388e-22)
(-0.220268 0.0998762 3.97172e-19)
(1.04967 -0.00135532 -6.85976e-22)
(2.26704 0.0331143 3.88112e-19)
(1.20575 0.457902 -2.02057e-19)
(1.03871 -0.049909 0)
(1.76152 0.0437728 2.56511e-19)
(1.76448 0.117806 1.1016e-19)
(0.895493 -0.751037 1.05781e-19)
(1.14892 -0.961692 -1.1226e-20)
(0.480376 0.444706 1.45419e-19)
(1.63833 1.02278 0)
(1.77874 0.565837 6.81567e-20)
(0.0391552 0.0293882 -4.21374e-19)
(0.893262 0.77719 0)
(1.05094 -0.019929 0)
(0.287225 -0.287475 -3.67669e-21)
(0.323142 0.303196 0)
(-1.35913 0.0792794 -5.34998e-19)
(-0.415121 0.615512 -1.64818e-19)
(1.75406 -0.408752 0)
(1.30305 0.00129098 5.68679e-20)
(-0.734303 -0.0384816 3.14386e-19)
(0.52226 -0.496962 -3.68876e-19)
(1.79466 0.0115748 -4.19689e-20)
(0.598517 -0.544059 0)
(1.06146 0.121013 0)
(1.36312 -0.222965 0)
(1.11066 0.225424 -1.74587e-19)
(1.28216 0.0971725 2.44708e-19)
(-0.497091 0.320689 0)
(0.884551 -0.0809629 0)
(1.44419 -0.122563 1.48095e-20)
(-0.0880307 0.275028 1.37422e-19)
(1.99631 -0.35994 -1.93217e-19)
(1.07691 -0.511419 2.10913e-19)
(1.44951 -0.137737 -1.81104e-19)
(-1.32966 0.0122543 -2.56567e-19)
(1.85309 -0.0199956 -2.18463e-19)
(1.01561 -0.0304161 3.25368e-19)
(1.5314 0.603835 0)
(-0.435459 0.672828 4.38185e-20)
(0.987151 -0.811042 1.24579e-19)
(0.85221 -0.013503 3.85955e-20)
(0.626089 -0.426809 0)
(1.90666 -0.529275 9.96075e-21)
(1.19977 -0.206077 1.12187e-19)
(1.10637 -0.0233643 0)
(0.594236 -0.550578 3.34394e-19)
(0.786189 -0.0509887 -1.28297e-20)
(1.96477 -0.553651 3.78105e-19)
(-0.146149 0.430769 -2.86127e-19)
(1.33792 0.622607 8.54954e-20)
(1.15079 0.401753 2.66321e-21)
(0.912601 0.380124 1.75186e-19)
(2.04403 0.631014 -1.81577e-19)
(-0.0755392 -0.733473 -9.0889e-21)
(1.37271 -0.152067 0)
(-0.159345 -0.086002 3.87638e-19)
(1.08707 -0.941136 0)
(1.05097 -0.647582 1.62305e-20)
(1.62084 0.407959 -7.57441e-19)
(1.04523 -0.00585894 -1.73455e-21)
(-0.954484 -0.418595 -5.71112e-19)
(0.993565 0.486614 1.31656e-19)
(0.59533 0.491536 -5.32725e-20)
(0.75285 -0.0379647 0)
(0.780293 -0.125217 0)
(0.653932 0.115869 5.64444e-21)
(0.759029 -0.00660165 0)
(1.32185 -0.185244 -1.15441e-19)
(-1.71531 0.0208397 6.77858e-19)
(1.89955 0.479203 7.41088e-20)
(1.05378 -0.0194534 0)
(0.544864 -0.342654 8.49111e-20)
(1.02721 0.0316584 1.55787e-19)
(1.00015 0.564635 1.62698e-20)
(-0.507483 0.539582 0)
(1.10451 -0.48104 3.69606e-19)
(0.895043 -0.0168424 -1.37109e-22)
(1.09419 -0.499961 -1.61111e-19)
(2.28235 0.126222 2.4517e-19)
(1.29395 0.794894 0)
(0.908852 0.0269461 0)
(-0.496446 -0.607314 -2.27232e-19)
(0.0554655 -0.0410057 2.03539e-19)
(0.952944 0.372673 -1.5948e-19)
(0.39114 -0.760813 -1.93196e-19)
(0.650446 0.409957 1.94654e-19)
(0.997576 0.00822417 0)
(0.524495 -0.487652 0)
(1.07387 0.00203377 7.95251e-22)
(1.22683 -0.505134 -7.21049e-20)
(0.608409 -0.00370887 1.40273e-20)
(0.71766 -0.144593 9.63367e-20)
(-0.0261144 0.135098 -3.64087e-19)
(1.67251 -0.276135 3.23959e-19)
(0.667012 0.619673 0)
(1.27793 0.696208 0)
(1.56159 0.231099 0)
(-0.636331 -0.670154 -2.31671e-19)
(1.2922 0.572826 2.78166e-19)
(1.83368 0.177667 4.0957e-20)
(1.02211 -0.0184697 0)
(1.08285 0.0502913 0)
(1.89236 -0.0584449 -2.82648e-19)
(1.08095 0.717498 -2.15418e-20)
(0.990984 0.00205812 -1.55635e-19)
(1.47987 0.479419 0)
(-0.481147 0.652494 0)
(1.24082 0.31234 2.05322e-19)
(1.02779 0.528112 -9.56222e-20)
(1.03923 0.0356949 0)
(2.00911 0.89171 0)
(2.02992 0.666951 -4.17629e-19)
(-0.112056 0.68478 -6.53816e-21)
(1.01425 0.0152628 0)
(0.713161 0.474631 -2.63416e-20)
(0.921205 -0.807454 0)
(1.01357 0.00689561 3.61646e-20)
(1.06515 -0.0176431 2.19534e-20)
(0.899693 -0.311105 2.42663e-19)
(1.05563 0.00199433 -1.5528e-20)
(2.14639 -0.0229379 3.96676e-19)
(0.863116 0.0353795 4.01302e-20)
(0.769458 -0.0258073 0)
(1.01325 0.0111125 0)
(-0.83687 -0.499459 0)
(0.673542 0.643537 -1.37956e-19)
(0.0116902 0.0520773 2.45489e-19)
(1.16042 0.342765 -3.31369e-19)
(-0.728557 0.428586 0)
(0.834592 0.642585 1.28565e-19)
(1.00725 -0.32819 0)
(1.00576 -0.00462593 9.0813e-20)
(0.769305 0.967646 4.27439e-20)
(1.03804 0.405664 1.90002e-19)
(1.89246 -0.238516 0)
(2.1032 0.0838811 -9.28808e-20)
(0.813685 -0.11042 -2.92478e-19)
(-1.1118 0.118664 -6.19618e-19)
(1.28722 0.967532 0)
(0.88883 0.247045 1.38554e-19)
(2.24011 0.0306672 0)
(0.781924 0.522635 2.83013e-19)
(-1.53198 -0.00351137 2.31166e-19)
(-0.0265531 0.138924 0)
(0.59463 0.563501 -5.43482e-20)
(1.01391 -0.637324 -1.14108e-19)
(0.472481 -0.238766 -1.01361e-19)
(1.01621 -0.00729543 0)
(-0.493644 0.269015 -3.64568e-19)
(0.627053 -0.562294 6.52447e-20)
(0.913815 0.296315 0)
(1.20167 -0.305729 8.12284e-21)
(0.993865 0.84494 1.65089e-20)
(1.06679 -0.00566742 -1.81289e-20)
(0.215787 -0.274909 -2.66987e-19)
(0.227263 -0.0304113 -4.59695e-19)
(-0.0586819 -0.203159 1.10145e-20)
(0.825545 0.362544 1.93606e-19)
(-0.340609 0.69297 -7.49443e-21)
(1.41488 -0.635487 3.47217e-21)
(1.02506 0.010885 -2.6839e-19)
(-0.776736 -0.613288 0)
(1.02901 0.0503905 -3.1626e-19)
(1.97618 0.6134 1.50973e-19)
(0.893686 0.689711 2.1005e-19)
(1.08559 -0.101168 1.247e-19)
(0.982433 -0.0296657 1.25235e-19)
(1.04701 -0.0114487 1.62108e-21)
(-0.361763 -0.437212 -3.5715e-22)
(1.72965 -0.857465 1.51732e-20)
(1.18413 -0.1056 -5.77603e-20)
(0.934178 0.0575168 6.55024e-20)
(0.908346 -0.286223 7.17153e-20)
(0.466823 0.0023127 0)
(0.969131 0.734893 0)
(1.07961 0.996837 -5.09636e-20)
(2.01095 0.207516 -4.04728e-20)
(-1.36318 -0.124583 2.62027e-19)
(1.01708 -0.539615 -3.95391e-19)
(0.607294 -0.529453 3.15546e-19)
(1.59762 0.170613 -2.09533e-19)
(0.380764 -0.660858 2.15807e-20)
(1.05514 0.0107141 0)
(0.750423 0.123079 -5.45569e-21)
(1.0745 0.0205558 2.12991e-21)
(1.04785 0.762421 0)
(1.08821 -0.0145292 0)
(0.670014 -0.517083 0)
(-0.169847 -0.340445 -7.23199e-20)
(-0.14382 0.127904 0)
(1.24632 0.472442 2.41906e-20)
(1.1938 0.17664 4.67358e-21)
(-0.195472 -0.106499 2.05437e-20)
(1.09367 -0.0346488 1.6883e-21)
(1.8508 0.446028 -1.23653e-19)
(2.04373 -0.29373 -4.07967e-20)
(-0.189187 -0.00554787 -2.82537e-19)
(-0.266965 -0.874756 6.22528e-21)
(0.770018 -0.0110261 0)
(0.720257 -0.0274826 0)
(1.01683 0.00239518 3.04395e-22)
(-0.669166 -0.651537 0)
(1.48433 0.0888492 -1.17554e-19)
(0.706481 -0.0242742 0)
(1.07463 0.00938134 9.90507e-20)
(0.996976 0.0191542 -3.54693e-20)
(1.76711 -0.493498 1.92483e-19)
(1.03938 -0.0127364 -7.21917e-22)
(0.941457 -0.196355 -4.31649e-20)
(1.03228 -0.0445537 2.89616e-19)
(0.659227 -0.601981 1.46454e-19)
(0.127801 -0.223391 3.39994e-20)
(1.0334 -0.0439816 2.07509e-21)
(0.0576251 -0.0284927 0)
(1.13446 0.796432 0)
(1.02656 -0.00569905 0)
(0.986966 -0.759748 -7.7055e-20)
(1.02904 -0.877175 1.20863e-20)
(1.00141 -0.0125152 6.10851e-22)
(0.583334 1.08614 -3.0956e-19)
(1.05636 0.0103022 2.9425e-21)
(0.576844 -0.376167 -5.17441e-19)
(1.01341 -0.0451108 -1.59153e-20)
(1.05198 -0.000260982 -1.08802e-20)
(2.06459 -0.31003 1.30114e-19)
(0.848565 -0.0379097 -7.74052e-21)
(-0.325805 -0.520504 -1.53573e-19)
(1.11966 0.553125 1.39107e-19)
(-0.0992564 -0.378036 0)
(0.340929 -0.732683 5.94569e-19)
(-0.037726 -0.0701915 3.14833e-22)
(1.05029 -0.0386047 2.58632e-19)
(1.0251 0.0157244 -6.65767e-21)
(1.06543 -0.012143 -7.16863e-20)
(1.05774 -0.00812945 2.55241e-21)
(1.62027 0.295246 1.9582e-20)
(0.393042 -0.369388 -2.55943e-19)
(1.03597 -0.0330466 -1.54518e-21)
(1.03034 -0.0153301 -1.90933e-19)
(1.01018 -0.0348847 -2.1356e-21)
(1.06163 -0.000487397 0)
(1.11763 0.590336 -2.58926e-19)
(1.01018 -0.0052074 7.38964e-20)
(0.677774 0.603005 2.02372e-19)
(1.05591 0.00661202 -3.50934e-22)
(1.04811 0.00183444 -2.34435e-20)
(1.08408 0.0231802 6.66856e-22)
(2.11771 -0.299513 1.83355e-20)
(0.597504 -0.00405254 0)
(1.07045 -0.0224429 0)
(1.06832 -0.0336453 4.57048e-19)
(1.00513 0.000178305 0)
(0.0151324 -0.0204698 0)
(0.961709 -0.579341 0)
(0.99939 -0.00409946 -4.30636e-19)
(1.14672 -0.672677 5.87776e-20)
(1.03585 -0.00226478 9.01176e-21)
(1.35737 0.964076 -1.71553e-21)
(1.54172 1.0128 -1.58076e-19)
(1.05016 0.0040904 -5.04343e-21)
(1.63378 0.952078 1.12634e-19)
(0.532464 0.0625519 0)
(0.116741 0.709374 0)
(2.21638 0.226688 4.97472e-19)
(1.12308 -0.0515876 0)
(1.00502 -0.00607878 -1.33499e-19)
(0.998728 -0.000532394 2.59382e-19)
(1.36721 0.133316 -4.92496e-20)
(0.00995868 -0.119942 2.98672e-19)
(0.983324 -0.0189945 1.40778e-19)
(0.872406 -0.0110688 2.89451e-22)
(0.891741 0.00269478 8.79842e-22)
(1.05329 -0.00438713 1.45416e-23)
(0.911346 0.0101208 -1.41965e-19)
(1.00781 0.00465239 1.67851e-19)
(0.996927 -0.000725041 9.89356e-21)
(0.793211 -0.00591337 0)
(0.725023 -0.0195201 0)
(0.733556 -0.0249447 6.65437e-22)
(0.709069 -0.0231822 0)
(0.557753 0.0114576 0)
(0.672229 0.0131804 0)
(0.710032 -0.0161485 -1.83481e-21)
(0.876733 0.00708889 9.20646e-22)
(1.04903 -0.000496388 0)
(1.05058 -0.00282727 5.19522e-22)
(1.04732 0.000607454 0)
(0.73285 0.017076 0)
(0.670802 0.0015124 0)
(0.633432 -0.00506052 5.89531e-22)
(0.528055 -0.00909127 1.99485e-20)
(0.824987 0.0205887 0)
(0.817642 0.0184257 0)
(0.947512 0.0213479 -1.74993e-19)
(0.827663 0.0201707 3.28338e-19)
(1.00069 -0.00182599 0)
(1.00109 0.00121311 3.09729e-19)
(0.996941 0.00292092 -1.12165e-22)
(0.829266 0.018448 2.77814e-19)
(1.0102 -0.00863249 -1.6172e-19)
(0.880093 -0.00182293 0)
(0.690324 -0.00701722 -8.80597e-22)
(1.00007 -0.00188548 -1.56612e-19)
(1.00381 0.00081394 -2.68653e-19)
(1.05355 -0.00412386 0)
(0.996583 0.00436872 0)
(1.00132 0.00353977 0)
(1.04342 0.0247645 -1.90374e-21)
(1.05311 -0.00430827 3.76348e-21)
(1.02996 -0.0184985 0)
(-0.506138 0.473237 2.75433e-19)
(0.406734 0.662076 -2.38722e-20)
(1.01532 -0.0222497 -2.0778e-19)
(-0.428523 -0.776273 -1.50527e-19)
(0.989607 -0.00518267 -1.67279e-19)
(1.15113 -0.220377 -7.26137e-20)
(0.786023 -0.464944 2.42475e-19)
(-0.0019992 -0.0395222 -1.02829e-19)
(1.02602 -0.00199095 0)
(1.06226 0.00109417 -4.48855e-20)
(0.875555 0.015535 0)
(0.0194358 0.0354019 3.59627e-19)
(1.0803 -0.0331342 0)
(-0.679282 -0.65717 -3.88361e-19)
(0.868391 -0.0190354 -8.8662e-22)
(1.67027 0.681305 1.06763e-19)
(-0.052545 -0.107041 0)
(1.07549 -0.0336611 1.41192e-19)
(1.06019 0.00289288 5.25592e-22)
(0.933826 -0.00434313 2.23781e-19)
(1.01181 0.00533402 -1.41049e-19)
(1.68793 0.864768 9.39563e-20)
(0.523167 0.489401 0)
(0.444846 0.399817 1.64915e-19)
(1.06183 0.0387317 -3.83702e-23)
(1.13467 0.117935 1.45039e-19)
(1.07225 -0.703138 0)
(1.02255 0.0100952 0)
(0.997084 -0.0175993 -3.28234e-19)
(1.01423 0.0243192 -3.18404e-19)
(-0.115345 -0.370594 0)
(1.23095 0.825103 -6.90401e-20)
(1.04067 0.000335981 3.73621e-22)
(1.01027 0.00413981 1.22323e-19)
(1.01264 -0.000431476 -1.54429e-19)
(-0.773043 -0.516622 -3.8283e-20)
(1.05449 -0.000164849 -8.4594e-21)
(1.02022 -0.0163873 5.22041e-19)
(1.04636 0.00373699 0)
(1.88655 0.648227 -1.08096e-19)
(1.01774 -0.01496 -1.62976e-19)
(1.69146 0.158875 -1.00231e-19)
(1.03487 0.00731513 -3.74051e-22)
(1.00742 -0.0281321 3.26601e-20)
(2.13657 -0.150714 -3.24552e-19)
(1.01755 0.00478493 1.58203e-19)
(1.05958 -0.0037452 4.64683e-22)
(1.00794 0.00660832 0)
(0.938993 0.154061 3.89015e-20)
(-0.475056 0.545042 3.42829e-21)
(0.977051 0.0242546 1.57781e-19)
(1.02867 0.0108608 -6.55773e-22)
(1.05362 0.00407041 -1.15973e-21)
(1.24789 0.311811 2.80615e-19)
(1.00996 0.0184105 1.07791e-19)
(1.00598 -0.00965173 1.07187e-21)
(1.75227 0.216003 2.36757e-21)
(1.81161 0.954674 -1.36287e-19)
(0.758158 -0.678572 4.35546e-20)
(0.443969 -0.317183 -2.52102e-19)
(1.0095 -0.00890739 0)
(1.01862 0.00588872 3.9061e-20)
(1.01578 -0.0128443 8.30518e-20)
(1.05175 -0.0010258 6.1424e-22)
(1.01676 0.0152747 -1.64398e-19)
(1.03157 -0.020411 1.88222e-19)
(1.02659 -0.00340316 -1.5581e-19)
(1.0083 0.00599908 -6.35671e-22)
(1.00447 -0.000251017 -6.18764e-22)
(1.0162 0.0246297 1.57468e-19)
(0.898959 0.101589 4.05183e-19)
(1.2021 0.220136 0)
(0.948657 0.626674 2.69526e-19)
(1.00582 -0.00950209 0)
(1.01881 -0.00104442 -4.55044e-20)
(1.5414 0.441135 -2.70319e-20)
(1.41984 0.108297 0)
(1.17458 -0.196681 -2.30697e-20)
(1.19871 0.382417 -1.46926e-21)
(0.863899 -0.022916 0)
(2.26844 0.246652 0)
(1.01072 0.397265 2.89064e-20)
(1.05168 -0.00545526 -1.17684e-21)
(1.02564 0.00228317 -1.65543e-19)
(1.10724 -0.562137 -4.52867e-20)
(1.04992 0.00367801 -2.47146e-21)
(1.06882 -0.00756338 0)
(1.06518 0.00842208 0)
(1.14518 0.152808 0)
(0.311447 0.599716 1.43462e-19)
(1.05152 -0.00341778 7.47003e-21)
(0.808471 0.171408 0)
(-0.0159518 0.549092 -4.76622e-19)
(1.71638 0.973898 -1.38034e-19)
(0.994518 -0.000402709 -3.24814e-19)
(1.05417 0.00597773 2.10397e-21)
(1.00857 0.0033208 2.14045e-19)
(0.78064 -0.0403448 0)
(-0.0958152 -0.324328 -3.13488e-20)
(0.616538 0.434661 -2.73716e-19)
(1.20431 0.14235 2.49607e-21)
(0.25606 0.64777 0)
(0.864726 0.009831 5.96291e-20)
(0.521657 0.497116 4.06865e-20)
(1.19721 0.891659 -1.71881e-20)
(0.00700597 0.0325276 1.51107e-19)
(1.02113 0.0141558 0)
(1.05858 -0.0089663 5.13412e-21)
(1.01701 -0.00493652 1.21606e-19)
(2.25946 -0.196666 0)
(1.01377 0.00992957 2.04352e-19)
(0.476144 -0.698824 -2.78046e-19)
(1.02295 0.020347 -1.25557e-19)
(1.06419 -0.00623649 0)
(1.26356 -0.301692 1.48312e-22)
(1.00384 -0.000805968 -8.50091e-20)
(0.989026 -0.0232193 2.24073e-19)
(1.07777 0.0941124 -3.15442e-21)
(1.06478 -0.0204343 -8.03978e-21)
(-0.168447 -0.0394518 3.91359e-19)
(2.08312 0.286016 2.66681e-19)
(1.05734 -0.0037046 9.19262e-21)
(0.827997 0.0253593 -3.07627e-19)
(0.852188 0.0285228 0)
(1.05136 -0.00467106 5.83328e-21)
(1.02141 -0.0148855 -2.44911e-20)
(0.969096 0.02431 0)
(1.02306 0.00183152 -1.5568e-19)
(1.05681 -0.00641408 -1.35382e-20)
(-1.45115 0.155532 2.88989e-19)
(2.14789 -0.578148 0)
(-0.432272 -0.687175 -3.28946e-19)
(1.49071 -0.328487 0)
(1.02816 -0.0239322 4.57555e-20)
(1.05261 -0.0115541 -6.19615e-23)
(0.998851 0.00278768 1.31474e-19)
(-0.915519 -0.301887 4.90263e-19)
(1.01956 0.0110797 0)
(0.985467 0.0033852 -3.18352e-19)
(1.00442 0.0160425 1.67798e-19)
(1.05002 -0.00414397 0)
(1.03798 -0.0126133 -8.93301e-23)