/*--------------------------------*- C++ -*----------------------------------*\
| =========                 |                                                 |
| \\      /  F ield         | OpenFOAM: The Open Source CFD Toolbox           |
|  \\    /   O peration     | Version:  2306                                  |
|   \\  /    A nd           | Website:  www.openfoam.com                      |
|    \\/     M anipulation  |                                                 |
\*---------------------------------------------------------------------------*/
FoamFile
{
    version     2.0;
    format      ascii;
    arch        "LSB;label=32;scalar=64";
    class       volScalarField;
    location    "42.1";
    object      p;
}
// * * * * * * * * * * * * * * * * * * * * * * * * * * * * * * * * * * * * * //

dimensions      [0 2 -2 0 0 0 0];

internalField   nonuniform List<scalar> 
2186
(
0.879611
-0.392843
-0.0475692
1.19889
-0.924161
0.320623
0.748612
-0.992304
-0.900771
1.48628
1.27579
-1.09208
-0.957893
1.18555
-0.629071
1.20985
1.22183
-1.00265
0.0615189
-0.586706
1.59699
-0.563584
1.19731
-1.19933
1.18919
1.16965
1.41513
1.0031
0.852306
1.18724
-0.566461
1.1896
-0.513438
0.192298
-1.12518
0.384908
0.174006
1.58728
-0.392119
0.432808
-0.961996
-0.532783
-0.781077
-0.692201
1.14648
1.46658
0.378277
0.56736
-0.864379
-0.788548
-0.573329
1.13382
-0.74665
1.52828
-0.554434
1.05976
-0.847641
1.09087
-0.478422
0.923082
-0.0603662
0.905286
0.819976
0.479617
0.845417
0.505613
0.925502
1.48752
1.38528
-0.832008
-1.00013
-0.291246
1.44823
1.11805
1.38932
1.29976
-0.514548
1.2176
-1.14325
-0.466154
-0.984324
0.544666
1.1832
0.888021
1.17227
1.18368
1.50207
0.10568
0.526614
-1.13918
1.06027
-0.640464
1.06755
1.32823
1.19915
0.689997
-0.186382
0.865877
-0.889338
1.10696
-1.45313
-1.3203
0.918871
1.08346
1.22328
-0.551073
1.43087
-0.42442
1.0424
-1.35131
-0.452166
-0.81216
0.59606
1.5262
-0.988368
-0.8838
-0.309577
-0.984077
-1.13885
1.44632
0.247644
-0.767859
1.09715
-1.1932
1.21399
-0.399503
-0.885412
1.2886
-1.07412
0.726524
1.57033
1.39936
0.251691
0.717073
-1.12211
-0.733638
1.02602
-0.648363
-0.221686
-1.08104
1.04382
-0.234163
-0.999784
0.775263
1.04771
1.08827
-0.47719
-0.933592
0.67686
-0.630899
-0.786069
0.637685
1.22053
1.33396
1.17126
0.581296
1.501
0.732933
0.644028
0.46183
-1.09076
-1.04928
1.19954
1.10668
0.098093
-0.0098103
-1.07679
-1.12701
0.383943
0.0744123
0.635457
1.11261
1.22299
1.24839
0.690892
0.0215883
-0.95553
1.20327
-1.05429
1.11007
-1.08909
1.20523
-0.591662
0.81093
0.787823
-0.958182
-0.904667
1.36017
-0.192798
-0.924084
-0.972072
1.45821
-1.16128
1.09927
-1.09512
-1.41117
0.348008
1.38462
1.30218
-0.561027
-1.06737
-1.01593
0.0822965
1.21406
-1.11124
-0.85588
-1.15997
-0.79825
1.17482
-0.514761
0.574351
0.436465
1.51499
1.07194
1.16039
1.06219
1.40718
1.19419
1.0008
1.334
0.44346
-0.870787
-0.563731
0.377635
0.202833
-0.95761
-0.902873
1.27382
1.29354
-1.2383
-1.02401
-2.05121
0.405927
0.724366
0.890185
1.00229
1.26143
-1.47886
0.988338
-1.05146
-0.845288
-0.884047
1.23741
0.979787
1.37859
1.36549
1.34261
1.32111
-1.03545
0.920142
1.33521
-1.00084
1.22473
1.02423
-2.06961
-1.13313
-1.19757
1.37907
1.2279
-0.940125
-0.250194
-0.0455539
1.06976
-1.21529
1.00924
1.30631
0.992606
-1.13981
-0.588291
1.1566
0.903396
-0.281921
-0.172102
1.55065
-0.847919
-1.02021
0.972778
1.33817
1.17292
-0.922747
-0.369099
-0.664562
1.16285
-0.98113
0.602647
1.15466
1.15054
-0.215752
-0.245368
1.19266
-1.16659
1.04203
1.35017
1.22228
1.2191
-0.281606
-0.682534
-1.21825
-0.15036
-1.3759
-1.17265
0.415615
-0.609767
0.864518
1.32354
1.42722
1.16749
-0.577164
1.362
-1.13573
0.541672
-1.03119
-1.0972
-0.906669
0.386193
-0.779157
-0.69889
0.429796
1.17115
0.0988196
0.644212
-0.753896
0.239091
-0.894177
-0.826469
1.41738
0.253286
-0.898771
-0.622271
0.879151
0.840404
-0.0883088
0.600904
-0.738667
-0.922607
0.914802
1.21478
1.30909
-1.37534
1.34993
0.995243
0.647651
1.41179
1.20793
1.09996
0.43379
-0.219811
-1.07135
1.12217
-0.665758
-1.20505
-1.08903
-0.878629
-1.14924
1.56855
-0.156713
-0.584638
-1.0218
1.20686
-0.962348
-1.57583
-0.619537
0.846508
-0.0401853
-1.0217
1.46756
1.52206
1.27201
-0.99196
-0.941831
1.58089
1.20871
-0.992692
0.725982
-1.04482
0.180281
1.39949
1.23077
1.00793
1.48236
-0.496982
-0.145954
0.0870311
0.255123
-0.974919
-0.538914
0.522078
1.51843
-0.965455
-0.616324
1.20189
0.645883
-1.12537
-1.56174
-1.06297
-0.887229
-1.02834
-1.10606
-0.515182
-0.870386
1.36771
0.138123
-0.868494
1.20789
-1.09541
1.43376
-1.06457
-1.83638
-0.567735
1.18899
-1.09187
1.22598
0.947843
-0.52933
1.18503
-0.720577
-1.11962
-1.05475
1.13959
1.10442
-1.12972
-1.04928
-1.01788
1.22981
-1.05161
-0.117585
0.770532
1.19041
1.02394
0.809572
-1.10634
-0.367459
1.08429
-0.144624
0.928291
-0.275096
1.21432
0.2476
1.2791
-1.13651
0.953811
0.976512
1.23351
-1.11838
1.21075
0.351187
-1.12151
1.19239
-1.91448
0.434293
-0.889939
0.177827
1.21058
0.178022
0.318709
1.21918
0.513716
-0.0329197
-0.0885602
-0.581112
0.311766
-0.945443
0.972173
-0.363177
1.3075
1.28194
-1.03889
-1.10049
-0.357699
-0.552609
0.708031
-0.891351
1.08329
0.0521003
-0.947705
1.32875
0.0170672
0.637583
0.322633
-0.156198
1.04782
0.609467
-0.34272
0.126851
0.367861
-0.471636
1.21544
-0.386933
1.26887
1.393
1.37785
0.917396
1.39318
-0.883804
-0.463271
1.04614
0.238069
1.20256
-0.554229
-0.918805
-1.08451
0.897863
-1.11123
-0.51289
-0.577728
-0.617201
-0.0329986
-0.262518
1.0004
0.976732
-0.255319
-0.247948
0.837008
0.074728
1.36731
0.31915
0.109501
-1.10897
1.01363
-0.559136
1.32809
1.59247
-1.22726
-0.879049
-0.955248
0.592219
-1.43332
1.17126
-0.20729
1.11922
1.02212
-1.1824
1.12393
1.08602
-1.8803
1.0174
-0.294751
-0.646019
-0.618103
-1.08563
-0.334031
-1.2758
-0.349517
1.19075
0.495993
-0.843524
0.655859
1.34105
1.37674
-0.376935
0.855916
0.281905
0.867627
0.100571
-0.89847
-0.69241
0.767235
1.07394
1.30214
0.0387055
-1.09737
-0.939475
-1.14065
-0.139419
0.815692
0.0371859
0.051962
-0.978742
1.19334
-0.645846
1.18001
-0.0133899
0.391528
1.11611
0.756877
-1.43694
0.123547
1.18485
1.47111
1.21686
-0.0928798
-0.952713
0.894224
0.0104013
0.881408
-0.244563
0.715203
1.18319
-0.905119
-0.586473
1.26521
-1.14683
1.4634
-0.0140085
0.982737
-0.645065
0.700092
-1.17596
1.4187
-0.610992
-1.21578
1.20625
0.790696
0.78766
-0.977771
-0.563932
-0.167953
1.03671
0.447095
-0.392346
0.0922432
1.21537
0.676877
-0.847952
1.01501
1.14949
1.20255
0.054373
-0.482918
-0.670653
1.20839
1.40475
0.544891
1.20347
-0.365809
1.19577
-0.684857
-0.459741
0.308149
1.07824
1.14066
-1.02373
1.10212
-0.613622
1.07148
-0.94571
1.24537
1.07942
1.2172
-0.122162
1.17718
-1.07959
-0.372324
1.3486
-1.28702
0.513763
1.34754
-0.553626
1.34278
-1.59521
-0.648929
1.28455
0.873359
1.54962
1.19236
-1.07203
1.22553
1.32365
-0.14443
0.89779
-0.304827
-1.15272
1.69347
-1.07207
1.36975
-0.811414
0.337856
1.19262
-0.98712
1.20731
0.253494
1.17521
1.10807
1.20232
-0.00625547
-0.903142
-0.699701
0.666049
0.763115
1.21249
0.17822
1.08454
-0.187737
-0.0277435
-1.1903
0.934526
1.2988
-0.576955
-1.16344
0.33377
1.448
0.408011
0.99609
0.22098
-1.65732
-1.02024
-0.579879
0.57366
1.06598
-1.87912
-0.689559
-0.00699231
-0.481112
-0.595846
-1.05676
0.258353
1.18959
1.21667
-0.974281
-0.209237
1.19795
1.09341
1.21388
-1.38257
1.1985
1.20915
1.17855
1.19794
-1.8077
-0.0094689
-0.588301
0.88523
1.18458
0.78953
0.165272
-0.366426
-0.638797
-0.125666
1.43401
-0.0537721
-0.788527
-0.599611
0.0719084
-0.974187
1.05176
-1.21456
-1.10011
-1.11974
1.20939
1.19297
1.21832
0.0773414
0.630073
1.40588
-0.326199
1.18373
-0.0377276
0.0465675
1.02722
1.21902
1.32948
0.097189
1.20005
1.19327
-0.629305
0.21475
1.21817
1.22794
1.22121
-1.10374
-1.18622
1.21985
0.681695
1.19538
0.483653
0.149065
-0.327936
0.512204
0.390169
-0.600614
-0.0901768
0.183038
1.22804
1.23288
1.02607
-1.15638
1.20962
0.207754
0.594656
0.0879943
1.18828
1.22172
1.22064
1.23792
1.21716
1.21247
1.20599
0.248398
0.62168
0.592975
0.61218
0.0716065
-0.00599931
0.0117679
-0.219978
-0.167119
0.339946
0.0439909
1.18103
1.20641
1.20027
1.2263
1.22562
1.2199
1.22585
1.19369
1.21576
-0.371696
0.667115
1.22259
1.21887
0.0206665
1.22068
1.22167
0.31354
-0.598305
-0.111881
-0.956439
-0.419538
1.20594
-0.9863
1.19631
0.729249
1.21953
-1.07703
1.19455
1.1723
1.12189
-0.58325
0.0554752
-0.934613
0.25981
0.244867
-0.56663
1.22235
-0.350068
1.29133
1.2112
0.103992
1.40798
1.53829
0.559554
1.13304
0.744658
1.20474
1.2218
1.20636
-1.07668
0.757134
0.065273
1.20876
1.2123
-0.90775
-0.411655
1.21173
0.319207
-0.0501241
1.20864
-0.0187615
1.20215
1.22321
-0.509062
1.20859
-0.954429
1.20006
1.3092
-1.41278
1.21211
1.22086
-0.0470624
0.969501
1.19825
1.21247
0.457508
-0.477078
0.80448
1.54142
1.21949
1.20163
1.21184
-0.59317
1.20378
1.17907
1.21537
1.20639
1.21088
1.20079
1.3283
0.182915
-0.318165
1.20479
1.20529
0.585147
0.0756557
-0.309693
0.173972
1.12261
-0.338717
-0.201785
0.067527
1.20264
0.816546
-0.200873
-1.17214
0.31083
0.29309
-0.46443
-0.638783
-0.727193
-0.83109
-0.0565469
1.20865
-0.333969
1.19621
1.15944
-1.10176
1.47374
-0.148651
-0.628714
0.869387
1.37333
0.730926
-1.12978
1.21224
-1.04347
1.20831
-0.622095
1.20734
-1.1783
1.20141
-0.850857
-0.325194
1.21125
1.22182
1.19956
-1.21946
-1.13975
-0.383884
-1.24908
1.21815
1.14742
-1.00626
1.20623
1.24386
1.20592
-0.936709
-1.50582
-0.722503
-2.05832
0.394761
1.2135
-0.0326505
1.20134
-1.7556
1.20676
1.24536
1.21125
0.0740683
-0.121502
1.23566
-1.02768
1.21292
1.21706
0.0239785
-0.977802
1.20229
1.38136
1.19866
1.20625
-1.1906
-0.964229
1.1557
0.46238
1.21288
0.95055
-0.964465
-1.01169
1.10345
1.42974
1.2103
0.384126
-0.0878453
-1.14417
-1.96575
-0.47933
1.1732
-0.49308
1.20259
-1.17479
-1.08955
-0.896732
0.755859
-1.13012
-0.454654
-0.618057
1.20123
-1.13159
1.1771
-1.05648
-0.198761
-1.01476
-0.0294551
-0.699631
1.19297
-1.00135
-1.09328
-0.652609
-0.61858
1.17805
-0.75139
-0.0469147
-1.77932
1.33269
-0.425732
-1.06365
1.27429
1.177
1.16272
0.559072
-1.03755
1.21716
1.24933
0.661893
-0.776656
1.19988
0.895404
1.48182
1.22602
-0.547806
-0.768623
-0.757993
-0.984953
-0.967128
-1.11772
0.107352
-1.22922
0.899978
-0.0277897
1.20274
1.43793
1.20729
-1.13673
-1.08538
1.20383
-0.941728
-0.239732
1.16432
-0.124035
-0.982846
-1.76224
-1.23571
1.18949
1.16613
0.700131
0.970719
0.966022
-1.53126
1.16944
-1.05786
1.08376
-0.47623
1.12486
-1.69695
0.477836
1.20363
1.34332
-1.71251
-1.28002
1.09518
1.57706
1.2256
1.27784
-0.974072
1.41908
-1.16401
-0.242812
-0.94378
0.528624
-1.7604
1.3185
1.31874
-1.0419
0.624181
1.20659
-0.44599
0.962837
1.23596
1.20683
-1.49031
1.20628
0.0387857
1.22697
0.0926492
-0.891897
0.150998
1.20785
0.550098
-0.175093
-0.73159
1.163
-0.770593
1.42997
0.295215
1.54281
1.24882
-0.510722
1.16197
-0.678142
1.20428
1.19465
-0.240515
-0.662104
1.37406
1.20586
1.45802
1.18518
0.104706
1.19588
1.1687
1.13505
1.21494
-1.17481
-0.919549
-1.17015
1.27097
0.402759
-0.447697
-0.62693
0.460954
-0.959435
-0.16884
1.14121
-1.08185
1.12869
1.17701
-0.797759
-0.794965
-0.551648
-0.378183
-0.58846
-0.681093
1.22005
-1.89253
1.22322
1.40826
1.25671
0.157222
1.23107
1.17097
0.160817
1.1278
1.20551
-0.951687
1.2013
1.21241
0.401337
-0.589156
1.66357
-1.44941
-1.05405
-0.968906
0.26481
1.16393
-1.08292
0.384459
-0.566946
1.35946
-0.524036
1.1331
1.23394
1.16057
-0.12465
1.12949
-1.99107
1.22238
1.23598
-0.0668287
1.22416
0.79986
1.16719
0.805449
-1.86362
0.0581504
0.00782173
-0.110691
1.46982
-0.506214
1.2539
1.60471
0.473605
0.165268
1.26466
0.307532
1.26171
-0.0607961
-0.102217
1.27027
1.27488
0.47902
-1.11663
1.05069
-0.435891
-0.71785
-0.392338
1.2332
1.16949
1.62878
-1.13175
-0.509899
0.835367
-0.925962
1.30521
1.25477
1.15659
1.20634
1.13364
-1.13551
-1.11576
-1.00782
1.09916
1.17098
-2.01868
-0.723819
-1.06542
1.2154
1.21232
0.458516
-1.44006
1.24599
-0.98457
0.551636
1.05856
1.19585
-0.103232
-0.962311
0.145656
-0.89585
-0.520826
-0.139361
-1.29305
1.57298
1.57555
-0.979163
-0.872822
1.21753
1.19186
-0.958554
-0.0474957
-0.412637
0.950879
1.31335
-0.758024
1.21673
-0.532225
-0.977682
-0.554539
-1.0446
-0.654564
1.15616
-0.886077
-0.566133
1.57728
-0.904829
1.21737
1.46316
-0.73951
1.1885
1.43078
-0.907156
1.47567
-0.927509
-1.00816
1.28117
-1.20681
1.15185
1.21619
-0.944779
1.235
0.171243
-1.17441
1.25709
1.17391
-1.0509
-1.0121
1.19636
1.21052
-1.0026
-1.91838
1.5092
-0.964684
1.16439
-0.808783
1.10372
-1.13459
-0.765747
-1.05079
-0.926495
1.34846
1.2075
1.47561
1.44559
1.24829
1.27462
1.32509
-1.06441
1.38373
1.30372
-0.834525
-0.98337
-0.959108
1.54368
-1.16213
-1.02101
-0.450291
1.21282
-0.863321
-1.01979
1.28705
1.16144
-1.03619
-0.745168
-1.01275
-0.228256
-2.03361
-0.885606
-1.07674
1.17023
1.01471
-0.662221
-0.122416
-1.00157
1.12585
-0.968406
-0.950985
-1.08781
1.07318
-1.02544
-0.775301
1.52298
1.054
0.472691
1.36566
-0.65908
1.11544
1.22942
1.30382
1.38028
-0.607393
0.980578
1.27751
0.299221
-1.09769
1.63165
1.1189
1.04518
1.23335
-0.806132
-0.786341
0.987203
1.09442
1.14483
-0.981427
-1.60969
1.18126
-1.09287
0.948202
-1.09477
1.62029
-1.10676
1.03042
0.839187
-0.606165
-1.11477
-0.732589
1.20872
-0.621789
-1.13123
0.793436
0.921864
-0.999149
1.28776
0.955235
-0.640226
-1.11081
1.20972
-0.803644
-1.12214
-1.05276
-0.565709
-0.374742
1.23164
1.19019
-1.40101
0.704113
1.20681
1.55961
0.319788
0.609978
0.36853
1.00387
-0.502495
-0.594537
-0.784005
-0.256273
-0.584488
1.22125
-0.611347
0.503395
-1.12763
0.858054
0.645467
-0.577365
0.72243
-0.00789709
0.563316
-0.571512
0.78714
-0.595165
0.447233
-1.13673
0.707101
-0.567166
0.927699
-1.00305
-0.565874
-0.571166
-1.12592
1.22322
0.102587
-0.599131
-1.14808
0.373426
0.469621
-0.593349
-1.11862
-0.642119
-0.127453
-1.16544
0.212876
-1.20523
0.00895021
-0.720051
-0.329737
1.15861
0.596013
-0.975173
1.22328
0.293376
0.460254
0.516335
1.15431
-1.10529
-1.42135
-1.14268
-1.10328
1.03127
1.62649
0.500296
-0.80979
0.0396729
-0.895043
0.0178375
-0.386973
1.22261
-0.976924
1.12659
-0.945596
1.68377
0.543226
1.62866
-0.71546
1.35947
-0.215454
1.15312
-0.376766
-1.14045
1.22758
1.17902
-1.7009
-1.12801
-0.568961
1.23868
-0.432329
1.20692
-0.683232
-1.06733
-1.04742
1.51859
1.28309
1.26722
1.25999
1.21726
-0.975079
-0.378923
1.44568
-0.429185
-0.872434
1.62223
-0.706806
1.16779
1.09713
1.5768
1.63298
-0.656555
-1.06745
1.22754
0.270442
-0.517574
-0.518384
0.564029
-0.769666
-0.755228
0.651241
-1.10889
1.37156
0.0823335
1.30938
1.37589
1.29109
-0.972664
-1.14817
-0.913178
1.2874
-0.89323
1.41916
-0.414279
-0.950944
1.47367
1.49423
-1.15384
0.416406
1.12086
-0.975144
-0.98887
0.756391
1.5027
1.40218
-0.873303
1.14215
1.13243
-1.13546
1.41465
0.607141
-0.687513
-0.414958
-0.0269355
0.460421
1.37087
-0.906543
0.584135
-0.54724
0.0575836
-0.991964
-1.15609
1.22648
-1.50181
1.2744
0.255453
0.105845
0.792201
0.323834
-1.13979
-0.304287
-1.39516
-0.0989196
-0.237272
-0.848049
1.2113
-0.934804
-0.30416
1.27163
-0.946315
-0.848072
1.21839
-1.19719
1.24354
-0.0658383
-1.09819
-0.334745
0.900094
-0.96946
-0.81422
1.01477
-1.05883
1.25715
-0.678538
-0.916947
-0.876804
-1.13556
1.7
-1.89936
1.287
-0.47114
1.1453
1.41012
0.821811
1.18975
1.40604
0.220684
-1.39035
1.14393
1.24731
1.55636
-0.894302
1.28055
0.973382
-0.912891
0.890815
1.38239
-0.271595
1.56018
0.479747
-1.00892
0.944375
-0.933778
-0.569409
1.1055
-0.163598
1.24634
1.20334
1.21797
-0.969046
1.18421
1.49181
-0.968931
0.035163
-1.97676
-0.900184
-0.905279
-1.12208
1.54952
0.846589
-0.918299
1.03317
-0.954977
-0.897306
1.45451
1.46146
-1.3154
-1.0454
-1.13363
-1.07129
1.13339
-0.898073
0.105405
-0.491049
-0.0507075
1.25911
-0.993609
1.59839
1.27431
1.00555
1.26172
1.52613
-0.955905
-0.973066
1.17368
1.30518
-1.04422
1.19208
-1.81225
-1.05631
-1.01685
1.34189
1.36566
-1.04207
-0.902511
0.626523
-0.0484016
-0.702877
1.21563
1.23284
-1.09674
1.26848
1.30663
-1.13867
-0.849741
-0.939991
-1.07008
-1.02619
1.50042
0.0785863
1.19054
-0.874185
1.49912
1.14612
1.14615
1.21749
-0.906577
0.642852
-1.08221
0.833715
-0.759798
1.04233
0.333401
-0.19861
1.14804
1.14116
1.24887
1.24108
0.194739
1.24101
0.0212542
0.474948
1.08815
-0.256377
-0.820788
-0.662252
-0.39601
1.21655
1.09721
1.21506
-0.873887
-0.94708
-1.09267
-0.497345
1.22102
1.51494
1.23334
-0.790712
-0.945083
-1.00243
-0.243764
-1.13033
-1.13554
0.103611
1.22816
-1.05173
-0.649991
-0.0953663
-0.0994879
1.00981
-1.12325
-1.10271
-1.16874
1.211
1.63565
-0.204906
1.28943
1.69023
0.95289
1.44066
-0.868834
-0.983378
1.60044
-1.11081
0.357959
-0.729638
-1.01977
-0.565204
-0.613142
1.12926
0.825422
1.43287
1.39981
-0.00611043
0.880222
0.375386
-0.0341632
-1.11848
1.30604
1.01122
1.22699
1.24399
-0.261341
0.484025
1.23193
-0.0334501
-1.14105
-0.629658
-0.575211
0.672546
-0.598834
1.14388
0.754807
-1.11138
1.40729
-0.816229
-0.0289623
1.17394
-0.939042
-0.886768
-0.597268
0.892174
-0.673538
-0.629923
1.18598
1.23526
0.453379
0.0878256
-0.708635
-1.1251
-0.115151
-0.824461
-0.176869
0.676801
-0.940807
-0.588781
1.49334
0.561983
0.661579
-0.580376
-1.01194
1.20489
1.1876
0.8246
0.602625
-0.573759
-0.883353
-0.863737
0.750588
0.501489
-0.568826
1.11361
0.446374
-0.563509
1.64669
-0.565239
-0.556639
-1.02727
-0.508006
0.954174
-0.580199
-0.91201
-1.15289
0.00670523
-0.617069
0.302974
-0.974009
-0.308059
1.42099
-0.673878
-0.203315
-1.18638
0.1242
1.55723
1.59652
1.46432
1.21411
1.44425
-0.406542
1.20641
-0.82438
1.18348
-1.1444
-1.13343
1.44299
-0.510348
0.555676
-0.943809
1.59962
0.292209
1.52851
0.890209
1.06226
-0.700278
-0.762695
-1.14011
-0.554927
1.51386
1.43411
1.20975
0.720337
1.19822
0.982081
1.08919
-0.564847
-1.08913
0.567123
-0.316942
1.06559
1.22065
-0.0328633
-0.716286
-0.560464
-1.15721
-1.14146
-0.998155
1.53759
1.23819
1.21559
-0.15373
0.391264
1.22832
0.628173
-1.12558
-0.296053
-0.913852
1.05668
-0.653508
-0.576538
-0.344411
1.24125
-0.976092
-1.0316
1.19989
0.68648
0.825363
1.20745
-1.13126
1.14171
1.35896
0.945576
-1.13458
1.18363
0.401811
0.749725
-0.919363
-0.615011
1.64877
0.310551
-0.64716
0.0823143
1.17595
1.22722
-0.883547
-1.01902
-0.143539
-0.415362
-1.06201
-0.92171
-0.287124
1.20515
-0.910367
1.23051
1.46044
1.24042
1.24303
1.33811
1.39111
1.20909
-1.04329
-0.767252
-0.122066
-1.23906
-0.931998
-0.574434
1.38794
1.30686
-0.959235
1.11252
-1.00186
-0.620775
-0.568444
-0.0942997
0.614928
-1.12377
1.20494
1.17077
-0.694819
-0.471519
1.54252
-1.06471
-0.327451
-1.14111
-0.936256
-0.532066
1.22597
1.05139
1.2467
-0.950941
0.50836
-1.1009
-0.0633517
-0.948229
-0.064634
-1.05259
-0.822123
1.17852
-0.855651
1.66141
-0.809592
-0.614741
-1.17107
-0.570441
1.07159
-1.1738
-0.932706
-1.13738
-0.254694
1.42919
1.39254
-0.676948
0.568247
1.09664
-1.16312
-0.996043
1.26273
-0.792941
-1.40796
-0.556312
1.0295
-0.44857
-0.937126
1.20554
0.355847
-0.525312
1.22808
-0.972474
-1.1769
-0.949366
-0.64075
-0.0279803
-0.9341
1.53469
-1.10437
0.207391
-1.14295
1.06741
-0.369857
-0.913062
0.928528
0.865644
1.25043
1.12917
1.41395
-0.577084
0.976892
0.631902
-1.01084
1.19471
-0.0874012
-0.378514
-0.856088
1.3444
1.33001
-0.402304
-0.928839
-0.945262
1.26882
-0.963596
0.413855
-1.06385
-0.586476
1.50555
1.27161
-0.730871
-0.953275
-0.744197
-0.67493
1.15953
-0.862519
1.24068
0.528516
0.984798
1.10764
-0.550438
-0.936476
1.20544
-0.575434
-0.147365
1.48258
-1.08361
-0.66915
1.08849
-0.996315
-0.927978
-0.157405
-0.884623
1.55328
-0.679852
0.201195
-0.74679
1.49163
-0.794305
-0.972286
0.924016
-1.01188
-1.14373
1.52957
0.952289
1.14303
-0.924781
1.45992
-0.255089
-0.823281
-0.904411
-0.912117
-0.810635
1.4876
0.859684
-1.03171
-0.780095
-0.918928
1.36991
-1.02243
1.46256
-1.14166
1.00803
-0.631394
0.662611
0.824326
0.791391
0.713304
0.207594
-0.991588
1.26781
-0.894579
-0.406747
-1.03164
0.319378
1.51017
-0.26271
-0.933383
-0.842042
-0.642211
0.558699
-0.806997
-0.62209
0.952338
0.226065
-0.703251
1.58653
-0.929539
-1.25044
1.55626
-0.662747
0.446588
-1.00019
-0.570673
-0.607289
1.55611
-0.555115
1.46314
-0.599957
-0.950839
1.41101
-0.155483
-0.981217
0.850175
-0.886143
0.314774
-0.410921
-0.626797
0.915497
-1.10599
-0.635221
-0.574301
-0.571071
-1.14928
0.960333
0.143158
-0.358285
-0.715716
1.49597
-1.01523
-0.939954
-0.548254
-0.188484
-0.695911
-0.553871
-0.688113
-0.0388611
1.47307
-0.831098
-1.13369
-0.947362
-0.752275
0.0624926
-1.15616
1.59121
1.52242
0.704965
-0.938169
-1.14433
0.622062
-1.14249
1.60477
0.503983
1.21848
0.977116
1.46726
0.387742
-0.70348
-0.933766
0.23692
-0.898307
0.236554
-0.124536
-0.604845
1.49384
-0.189702
0.515455
-0.277441
-1.11381
-0.953216
)
;

boundaryField
{
    frontback
    {
        type            empty;
    }
    Top
    {
        type            zeroGradient;
    }
    outlet
    {
        type            fixedValue;
        value           uniform 0;
    }
    bottom
    {
        type            zeroGradient;
    }
    Inlet
    {
        type            zeroGradient;
    }
    rectangle
    {
        type            zeroGradient;
    }
}


// ************************************************************************* //
