/*--------------------------------*- C++ -*----------------------------------*\
| =========                 |                                                 |
| \\      /  F ield         | OpenFOAM: The Open Source CFD Toolbox           |
|  \\    /   O peration     | Version:  2306                                  |
|   \\  /    A nd           | Website:  www.openfoam.com                      |
|    \\/     M anipulation  |                                                 |
\*---------------------------------------------------------------------------*/
FoamFile
{
    version     2.0;
    format      ascii;
    arch        "LSB;label=32;scalar=64";
    class       surfaceScalarField;
    location    "42.1";
    object      phi;
}
// * * * * * * * * * * * * * * * * * * * * * * * * * * * * * * * * * * * * * //

dimensions      [0 3 -1 0 0 0 0];

oriented        oriented;

internalField   nonuniform List<scalar> 
3181
(
-1.0099
0.384584
0.625317
-0.395951
0.366363
0.029588
0.520332
-0.360656
-0.159677
0.115624
-0.193658
0.078034
-0.00547383
0.0336883
-0.0282145
1.09712
-0.779467
-0.317655
0.148089
-0.14185
-0.00623914
-0.00289038
0.00401238
-0.00112201
0.462558
-0.819976
0.357418
-0.0768124
0.132058
-0.0552461
-0.0104466
-0.0525918
0.0630384
0.183278
0.0196334
-0.202911
-0.011879
0.0077002
0.00417876
-1.10105
0.154749
0.946299
-0.314493
0.70247
-0.387977
-1.12198
0.640882
0.481103
0.0849912
-0.930792
0.845801
-0.233191
0.343588
-0.110397
0.704665
-1.52822
0.0123283
0.0369467
-0.049275
0.0473372
-0.092471
0.0451338
-0.0799769
0.0738133
0.00616362
1.06583
-1.04332
-0.0225118
0.0457716
0.0205105
-0.0662821
-0.958862
0.332215
0.626647
-0.107721
0.223345
0.303942
-0.253314
-0.0506283
0.0293087
0.0622726
-0.0915814
-0.42237
0.348734
0.0736359
-0.0352146
-0.0209318
0.0199931
0.000938653
-0.0422037
-0.916658
0.0340051
-0.0653109
0.0313058
0.277945
0.878578
-1.15652
-0.051482
0.0463983
0.00508366
0.18287
0.284472
-0.467342
1.31675
-1.0388
0.0752204
-0.0278832
1.60948
-0.86084
-0.748638
0.426533
0.670589
-0.00171043
-0.0101685
-0.0768381
-0.00313875
-0.417725
0.103232
-0.147139
0.0703007
-0.644885
0.126046
0.518839
-0.142628
0.0658159
-0.169773
0.173979
-0.00420568
-0.265373
-0.0788956
0.344269
-0.271203
1.67726
-1.40605
0.0700399
0.241483
-0.311523
-0.00860346
-0.102194
0.108349
-0.00615462
0.48558
0.21689
-0.0942954
0.148909
-0.0546136
0.110192
-0.076187
-0.167518
0.193084
-0.0255667
0.160372
0.0654725
-0.225845
0.107806
-0.113753
0.00594628
1.30279
0.306687
-0.832039
-0.177862
0.340705
-1.27581
0.93511
0.565228
0.237809
-0.803037
-0.455427
-0.213786
0.669213
-0.84576
1.27229
-0.280866
0.846094
-0.31581
-0.107551
0.423361
-0.211763
-0.210607
-0.185538
0.170898
0.0146399
0.148815
0.279161
-0.427975
-0.388552
0.85111
-0.0140263
0.0111359
-1.61617
1.95688
0.176655
0.127287
-0.170878
-0.112018
0.282896
-0.267903
0.364143
-0.0962399
-0.0789233
0.0876171
-0.00869375
-1.88737
-0.919556
0.00952058
0.910036
-0.0359502
-0.0155318
-1.11945
0.825319
0.294134
0.591068
-0.274195
-0.316873
-1.09924
0.253483
1.10227
-0.947525
-0.736293
1.14816
-0.201862
1.06007
0.175756
-0.171095
-0.00466145
0.5095
-1.28897
0.862889
-0.862889
-0.00737533
-0.00283922
0.0102145
-0.204987
-0.0542143
0.259201
0.044779
-0.0608474
0.0160684
-0.457201
0.825087
-0.367886
-0.0302244
-0.223255
0.25348
-1.08556
0.0422343
0.357186
0.056054
-0.41324
0.124381
-0.878512
1.11632
0.037099
0.162143
-0.199242
-0.0183582
-0.149159
-0.629085
0.251367
0.377717
-0.268834
-0.360251
0.120662
-0.999173
0.317784
-0.774985
0.926457
-0.841465
0.0632307
0.110793
-0.174023
0.0893624
0.0534815
-0.142844
-1.19228
-0.188274
1.38056
-0.23583
0.401715
-0.165885
-0.232148
-0.108102
0.34025
-0.490903
-0.62855
0.142355
-0.0723149
-0.152864
0.147082
0.00578233
-0.0784405
-0.0178452
0.0962857
-0.665913
-0.154063
0.0451333
-0.00776076
-0.0373726
-1.34762
-0.763575
2.1112
1.88686
-0.209604
-0.0223707
0.0149953
0.026285
0.15037
-0.206437
0.389307
0.00690653
0.304778
-0.311684
0.143234
0.0702408
-0.213475
-0.0308551
0.474548
-0.443693
-0.593152
-0.528833
-1.77011
0.422485
-0.0535256
0.0906246
-0.0992538
0.17828
-0.0790258
-0.264046
0.0241896
0.123899
-0.0569915
0.0659037
-0.00891222
-0.0921413
-0.0200838
0.112225
0.0764647
-0.0764647
-0.182924
0.207113
0.322234
0.24839
0.101619
0.0914651
-1.17278
0.784223
-1.57679
0.082001
1.49479
0.0193189
-0.0197754
0.00045649
-0.02733
-0.0522346
0.0795646
0.507696
0.000301977
-0.507998
-0.00640392
0.00575581
0.00064811
-0.196485
0.0135615
0.168451
0.656635
-0.354991
0.523443
-0.0286273
-1.16365
-0.127235
0.121761
0.477395
-0.292804
-0.184591
0.0308475
-0.0320618
0.00121437
0.049183
-0.314556
0.0238172
-0.943374
0.049027
-0.148281
-0.278599
-0.394706
0.0814606
1.41815
-0.96226
-0.455891
1.10797
0.310185
0.06848
0.275789
0.0140517
0.00526716
0.149237
-0.0341561
-0.115081
-0.248571
-0.595366
0.843937
-0.347848
1.21416
-0.236649
-1.29157
0.229049
-0.00346749
0.00672786
-0.00326037
-0.98341
0.0230251
0.960385
0.194628
-1.17804
-0.312337
0.669523
-0.906975
-0.0153785
0.00570835
-0.275221
0.269513
1.49372
-1.62042
0.126707
-0.053833
-0.0734019
0.578166
-0.826737
0.520086
-0.325186
-0.194901
-0.30085
-0.125318
0.426168
0.225582
-1.01178
-0.0737801
0.0114526
-0.0607276
-0.573255
0.359469
-0.253715
0.0190109
0.234704
0.12265
-0.176483
-0.043708
0.043708
-0.124029
0.136255
-0.0122259
-0.27247
-1.30432
-0.0206924
0.00750275
0.0131897
0.0877063
-0.16684
0.0791341
-0.228532
0.0429949
1.75171
-0.420859
-1.33085
-0.179928
0.437529
-0.257601
0.0145027
-0.0148223
0.00031957
-0.541738
0.30959
-0.19019
-0.00495556
0.195145
-0.16452
0.313334
-0.104275
0.102555
0.0017196
0.0791101
0.00688453
-0.0859946
-0.0366766
0.00157751
0.0350991
1.16977
-0.316683
-0.853082
-0.220269
-0.0495913
0.26986
-0.685378
0.663324
0.022054
-0.00952643
0.030037
-0.0212903
0.0239329
-0.00264265
-0.0294903
-0.0367918
0.730653
1.15621
0.171095
-0.895333
0.724238
-0.113535
2.05189
-1.93835
0.369844
-0.027047
0.889936
0.0704685
0.210661
-0.0674268
-0.0728634
-0.0293308
0.228682
0.164373
-0.075011
0.735467
-0.403253
0.0603709
0.19883
0.0559152
-0.173215
0.1173
-0.737674
-0.119769
0.857442
0.0244595
-0.0244595
-0.00208019
-0.272499
0.556971
0.00915798
-0.229427
0.317301
0.0262865
-0.00554168
-0.0479839
0.141211
-0.151658
-0.348495
0.318271
-0.019694
0.0928761
-0.0731821
0.384168
-0.364534
-0.498725
0.550625
-0.0519
-0.203585
0.272066
0.186808
-0.479612
-0.202776
0.58736
0.16199
-0.0338493
0.0338493
0.348617
0.16901
-0.517627
0.372292
0.0294239
-0.0138315
0.0128773
0.000954191
-0.14938
0.0686396
-0.0235062
-0.0504918
0.191703
-0.186293
0.248887
-0.0625934
0.136351
0.0280226
-0.38415
0.130837
0.198763
-0.0624122
-0.0471648
-0.05711
-0.00337064
0.0187551
-0.0153844
0.146355
-0.103699
-0.0426565
-0.02801
0.407715
-0.379705
-0.0131051
-0.000921202
0.106992
-0.111391
0.00439907
0.0243681
-0.227993
-0.270733
-0.069613
0.0282236
0.0413894
-0.0394347
0.0473245
-0.00788981
-0.0960064
0.0975858
-0.720404
0.622818
-0.0224029
-1.23947
-0.200087
1.43956
0.780181
0.880526
-1.66071
0.0822395
0.0572403
0.417308
0.288911
0.255458
-0.544369
-0.209924
0.265839
0.136331
-0.865965
0.729634
-0.0569707
0.017536
-0.0066565
0.0181091
-0.981707
0.443613
0.538093
0.96226
-0.841599
-1.44821
1.25994
-1.49372
1.57572
0.037537
-0.0921506
0.00096085
-0.0222511
0.00776527
0.774685
-0.638354
0.117895
-0.0688683
0.411362
0.736799
-0.0774807
-1.66506
1.55153
-0.702983
-0.469792
-0.242613
-0.402273
-0.0232736
-0.1629
0.212083
-0.570344
-0.362166
0.182239
0.763281
-0.255585
-0.774031
-0.674181
0.749261
-0.0278201
-0.0291506
0.271644
0.0379846
-0.0379846
0.670481
0.148762
-0.819243
-0.225278
0.895759
0.217464
-1.24792
1.03045
0.25268
-0.0042904
0.00127571
0.0152796
-0.0165553
-1.27581
-1.5381
1.3285
0.962334
0.789376
-0.0352363
-0.134537
-0.270792
0.756372
-0.203815
-0.0499007
-0.00280545
-0.0761179
-0.0564989
0.10998
0.38433
-0.258283
-0.73161
-0.295913
-0.0168706
0.0749005
-0.0580299
-0.644374
0.617327
-0.0292963
-0.0198747
0.049171
0.0326271
-0.0185754
0.0324646
-0.0442823
0.0118177
0.0141122
0.409249
0.0225239
0.00832357
-0.011851
-0.00649802
0.018349
-0.0163689
-0.173821
-0.737778
0.382046
0.355732
1.37162
-1.87489
0.503267
0.142011
-0.163713
0.0217023
0.0190254
0.123329
-0.422504
-0.440386
0.00125179
0.0312128
-0.0919776
0.0196627
0.147012
-0.353449
-2.212
0.966228
1.24577
0.0426988
0.0917453
0.0546099
-0.737674
1.02964
0.140127
-0.00062572
-0.0436566
0.045072
-0.640772
-0.044606
0.0625679
0.136195
-0.858421
0.0282335
-0.456209
0.120774
0.356725
-0.300671
-0.110942
0.0188008
0.218556
0.841473
-1.06003
0.106476
-0.702788
0.596312
-0.906099
0.78633
-0.435725
0.189967
0.245758
-0.0097898
0.00943449
0.000355306
0.177718
-0.478568
0.210905
-0.122649
-0.0882559
0.0438677
0.00345681
-0.0836532
0.0667826
-0.0192485
0.0102955
-0.0397858
0.0196631
0.0862571
-0.10592
0.997645
-0.001955
0.001838
0.000116991
0.0238001
-0.0247213
0.859439
0.00419027
-0.0775922
-0.332597
-1.2055
0.168947
0.0837335
0.00710778
0.0846375
-0.245758
0.440386
-0.100167
-0.201358
0.301524
-0.260089
0.0889947
0.120034
-0.124695
-0.00132986
0.0889469
-0.00239153
-1.6479
-0.564099
-0.0488054
0.0684686
0.740876
-0.259773
-0.141896
0.229603
0.356876
-0.00713781
-0.00669366
-0.00828551
0.0847502
0.142798
0.221344
0.156836
-0.341665
0.184829
0.102405
0.55423
-0.032088
-0.11054
0.853873
-0.190551
-0.663322
-0.435725
-0.114685
1.48631
1.31675
-0.446172
0.40771
0.0384617
0.372992
-0.0809099
-0.292082
-0.583051
-0.516192
-0.0769275
0.0781126
-0.00118512
-0.282102
-0.0112103
0.293313
0.190025
-0.902685
0.712661
0.0384975
0.665664
-0.704161
-0.044213
-0.108651
-0.0540599
-0.0155531
0.382278
-0.0336601
-0.00660807
-0.00318173
0.276485
-0.0809588
-0.195526
0.0912013
0.0580359
0.0104328
0.0221943
-0.0451654
0.155958
0.0219727
0.00196022
0.202129
-0.425384
-0.257118
1.13764
-0.00947307
-0.0149864
-0.993002
-0.0187734
-0.117809
-0.0699602
-0.0409819
0.277476
0.24261
0.173203
-0.0959453
-0.0772573
0.181621
-0.0126739
-0.937853
-0.00967197
-0.0129661
-0.648466
0.746052
-0.0170751
0.179065
0.23829
-1.48621
0.188518
-0.434138
0.24562
0.0276796
0.277098
0.0116029
-0.012345
0.0007421
-0.0469079
0.0102314
-0.0199941
-0.129165
0.73539
-0.628914
-0.0365239
0.0116173
0.061905
0.320847
-0.164012
-0.215248
0.872856
-0.00971628
-0.86314
-0.123963
0.142974
-0.50955
-0.228228
-0.548181
0.584503
-0.571909
-0.0125942
-0.058422
0.0218981
-1.66506
0.563152
-0.563152
-1.32338
1.32338
0.774685
-0.505802
0.140529
0.365272
-0.900856
-0.0921465
0.647893
-0.379759
-0.268134
0.15394
-0.232966
-0.0142444
-0.00812626
-0.912778
-0.0863958
-0.93284
0.212436
0.0422994
0.0326011
0.696507
-0.100091
-0.596416
1.2641
0.0526469
-0.00237156
0.0139744
-0.960365
0.204048
0.346578
-0.0795084
-0.627362
0.70687
0.049391
-0.89679
-0.723632
0.221384
-0.814537
-0.857442
1.25894
-0.401502
-0.145031
0.278874
-0.133844
-0.0343984
0.730905
-0.110617
-0.902208
0.902208
-1.43533
0.696523
0.738809
-0.00191934
-3.5653e-05
-0.0230286
-0.447382
0.865997
-0.0406779
-0.0890902
-0.0351791
0.00841564
0.0050131
0.00948962
1.43516
-1.24519
-0.339265
0.418375
-0.66043
1.04943
-0.389001
-0.0577603
0.0590121
0.127456
-0.0572149
0.356737
0.00276357
0.00493664
0.358021
0.0496948
0.0437898
-0.254711
0.210922
0.139266
0.0347132
0.100126
0.1858
1.2249
0.731975
0.0777964
-0.246573
0.168776
-0.740816
0.763841
0.209775
-0.139475
0.0759225
-0.766879
0.690957
-0.428005
0.117676
-0.466171
-0.0753956
0.12948
-0.0540843
0.122865
-0.198261
-0.461157
-0.112098
-0.074011
0.077201
-0.00319005
0.00995218
0.0120205
-0.0730104
-0.0031766
0.638354
-0.596312
-0.0420422
-0.289901
0.299059
0.87997
0.630378
-0.257386
0.00933852
-0.00183577
0.240848
-0.566034
0.158393
-0.561842
0.403448
-0.0116143
-0.000730617
-0.583931
0.26615
0.317781
0.00488703
-0.0112667
0.00637966
-0.0247836
0.0165376
0.00824598
-0.312318
-0.976649
-0.169079
-1.07039
-0.205699
-0.841599
1.57572
1.25994
-0.189377
-0.173619
0.124028
-0.0649751
0.0706921
-0.00571695
0.347904
-0.0276068
-0.320297
0.571793
0.0761005
-0.0011952
-0.0104191
0.124494
-0.803882
0.0351791
-0.0529779
0.00417246
-0.402899
0.643747
-0.001817
-0.00372468
-0.274992
0.65916
1.10797
0.439518
-0.0606175
0.00113953
0.059478
1.49246
-0.23252
-0.0600119
-0.0537406
-1.00286
0.16126
0.504496
-0.278914
-0.482823
-0.139433
0.622256
0.838975
-0.377196
-0.461779
0.0732447
0.0999579
-1.55153
0.275711
0.0126389
-0.0159632
0.00332433
0.440222
1.61166
-0.185548
0.186824
-0.274683
2.18463
-0.608917
-0.671619
0.0445826
0.627036
0.397024
-0.00135293
-0.355917
0.49249
0.783711
0.396829
0.0760324
-0.0214225
-1.65917
-0.0173839
1.67656
1.40256
-0.000105188
-0.0117458
-0.0537714
-0.366651
0.113704
-0.323628
0.630724
0.242133
-0.0110946
-0.0473273
0.0383214
-0.484493
-0.0233059
0.0137795
0.111253
-0.149807
0.0385536
-0.294009
0.305648
-0.011639
0.32937
-0.339086
-1.51672
0.690761
0.825958
-0.0857591
-0.0176282
0.103387
0.281888
0.0389595
0.911222
0.118416
-0.672025
0.672025
0.93511
1.2641
-0.702788
0.309517
0.474194
-0.432945
-0.0846826
0.947405
-0.375612
0.0110666
-0.882711
0.871644
0.124045
0.00801398
0.0256008
0.802022
0.109201
0.0351991
-0.169589
-0.113638
0.283227
0.499385
-0.501401
0.331812
-1.13331
-0.294963
-0.660958
0.0250074
0.000704151
0.00113385
-0.227961
-0.0351149
-0.022915
0.0321518
-0.152697
0.120545
-1.04786
-0.387469
-0.00577115
0.0680438
-0.231505
-0.339897
0.571402
-0.555451
0.370859
-0.224329
0.317205
0.228414
0.00994481
-0.0166013
-1.05217
0.631309
0.035476
0.0715158
-0.000209674
0.0621147
0.203859
0.00704586
-0.439707
0.537881
0.519573
0.555449
0.866273
-0.79035
0.813969
-0.457093
-0.630395
0.183013
0.15657
-0.794051
0.773282
0.0207683
0.522631
0.108092
-0.201759
-0.137506
-0.0320984
-0.0287489
0.950927
-0.838651
-0.112276
-0.191205
0.116194
0.0267387
0.120343
0.877146
-0.318037
-0.373767
0.691804
-0.31934
-0.0428262
-0.203036
-0.0284686
0.260415
1.12014
1.77386
-0.509757
0.164695
0.55109
-0.715785
-0.396258
0.0511339
0.00782259
0.00212222
-0.522133
-0.108262
0.215967
-0.093317
-0.194495
0.144003
-0.520201
0.2626
-0.992157
0.488433
-0.293739
-0.729933
1.56222
-0.0674381
-0.294547
0.204962
-0.607861
0.141169
0.310559
0.0474617
1.05189
-0.861866
-0.198074
0.135661
-0.50939
0.323332
0.186058
0.0129616
-0.000322732
0.0499634
-0.0622682
-0.231741
-0.112238
0.697995
-0.427054
-0.270941
0.406098
0.129998
-0.0938231
-0.0361747
0.244669
0.06589
-0.479097
-1.18161
-0.0986639
0.143736
0.11451
-0.432546
-0.136949
0.129059
-0.0251782
0.0154753
0.00970286
-0.0100798
-0.00969556
-0.250348
0.0771334
-0.0123992
-0.547471
0.40244
0.0263763
0.0804501
-0.166209
-0.695457
1.03849
-0.796355
0.0156269
-0.199942
0.184315
-0.145168
-0.530226
0.675393
0.0658106
-0.706582
-0.724068
-0.792652
0.00960277
0.002167
-0.0117698
-0.257353
-0.584503
-0.15317
-0.130822
-1.65917
-0.238998
0.171571
-0.0954974
-1.17761
-0.39686
0.00750823
0.389351
0.258654
0.109202
0.521661
0.213313
-0.734974
0.0233705
-0.0511905
0.163428
0.0508905
-0.214318
-0.217094
0.437133
0.326708
-0.24951
0.186916
0.0384281
0.398705
0.649218
-0.39785
-0.00173786
0.00950313
-0.00709659
0.293086
0.262363
0.751518
0.0874573
-1.83558
0.187684
0.24883
0.698575
0.896903
-0.0430298
-0.0198966
-1.77386
-0.660958
-0.713324
0.722845
0.0802404
-0.774031
0.665664
0.590223
-0.930797
1.00903
-0.000184435
-0.793866
-0.316462
0.639569
-0.76501
0.125441
0.0788665
0.0511313
-0.511844
-0.221621
2.21305
-1.99143
-0.00290226
0.00360641
-0.271493
0.221592
0.70538
0.216806
-0.203244
-0.181905
1.22012
-1.98369
0.425636
-0.0603633
0.363517
-0.260427
-0.10309
-1.82113
1.80375
0.681895
-1.02179
0.165293
1.45494
-1.67656
0.00305675
0.220469
-0.0293144
-0.0425438
-0.0752655
0.0100408
-0.0393993
0.0293585
-1.026
-0.0340297
0.308413
-0.804615
-0.886421
1.10261
-0.21619
0.384624
0.664807
-0.048223
0.051644
-0.00342104
-0.521374
1.74149
-0.720428
1.40917
0.390331
-1.27675
0.323861
-0.103392
-0.585237
-0.40692
0.208998
0.154519
-0.0534548
-0.882895
-1.92305
-0.0152988
1.45494
0.0513478
-0.855963
0.830178
-0.645337
-0.184842
-0.981824
0.396587
0.0154459
0.120076
0.00262896
-0.122705
-0.971513
0.564593
-0.207897
0.914085
-0.923757
0.197418
-0.213787
-0.0985654
0.245577
0.310975
0.202334
-0.09029
-1.09188
0.228744
0.892221
-0.495392
-0.553314
-0.517808
1.07112
0.446686
0.0244664
-0.0091868
-0.738191
0.704161
0.359041
-0.880415
-0.889936
1.10586
-0.215927
0.549388
0.553223
0.772207
-0.807421
-0.4932
-0.450173
-0.471145
-0.500368
0.803646
-0.803646
0.686843
-0.686843
-0.738191
-1.35935
1.35935
-1.10586
0.394801
-0.758792
-0.109005
-0.295105
0.295105
0.359041
-0.880415
0.772207
0.765187
-0.765187
0.807421
0.758359
-0.758359
0.5068
0.528855
0.482192
0.0639361
-0.499632
-0.549827
1.07868
-0.384864
-0.169324
0.378323
1.11729
-0.435398
-0.574521
-0.0150801
0.0192704
-0.883847
0.0887579
0.795089
-0.01551
-0.00776358
-0.994533
0.591281
0.884283
-0.574766
-0.12466
0.00989098
-0.00257305
-0.818189
-0.0771433
-0.538093
0.00441423
0.0136949
0.930649
0.00363252
-0.0472891
0.177212
0.00100094
-0.00973085
0.00872991
-0.811466
0.0680382
0.743427
-0.484
0.794975
-0.527362
0.422044
0.105318
0.915035
-0.744316
-0.17072
0.0809556
0.308351
-0.013974
-0.060037
-0.0634923
-0.0134351
0.00589666
-0.650271
-0.860019
0.0977507
-0.746441
0.794516
-0.0480752
0.121464
-0.900117
0.778653
-0.804079
0.903583
-0.0995037
-0.0286744
0.0185946
0.0200071
-0.295228
0.637175
-0.482657
-0.0909382
-0.792909
0.916355
-0.0913155
-0.82504
-0.0771915
0.0194312
0.633292
0.824097
0.31952
0.471173
-0.395073
0.0988999
-0.891809
1.0388
0.284575
-0.79168
-0.00218639
1.01628
-0.894814
1.04464
1.08033
-1.37261
0.29228
-0.884293
-0.11024
-0.422566
0.0428605
-0.437477
0.360219
-0.78396
0.78396
-0.620024
-0.0832186
-0.863194
0.118879
-0.974992
0.895483
0.0797592
-0.202408
-0.0572122
0.0538297
0.012074
0.187019
0.829259
0.820365
0.77293
0.13761
-0.91054
-1.48523
1.04983
-0.784602
-0.102264
0.886866
0.16434
-0.884767
-0.676175
0.886414
-0.787514
-0.103392
0.460432
-0.0122354
-0.448197
-0.925347
1.11628
-0.190935
-0.341965
0.245337
0.096628
-0.887995
-0.828323
0.0818826
0.545353
0.268616
-1.72429
-0.632261
-0.593427
0.593427
-0.851803
-0.240081
1.10337
-0.994173
-0.156597
0.847358
0.78415
-0.196386
0.112757
-1.08941
1.05301
-1.23365
0.180639
-0.813889
-1.061
0.136455
-0.404899
1.17758
-1.03745
0.320992
0.309765
-0.228809
0.782217
-0.881721
1.79153
-0.7417
-0.143459
0.73474
0.594881
-0.594881
-0.0435069
0.0249315
0.115379
-0.0832275
0.165926
0.950356
0.264424
0.00428807
0.00964505
-0.0139331
-0.674401
0.692064
-0.0176625
-0.17393
-1.19868
0.105778
-0.893291
-1.12213
1.40348
-0.281353
-0.0776587
0.872908
-1.84889
1.67497
-0.755682
0.608744
-0.65335
-0.671407
0.161857
-0.145666
0.0252908
0.117359
-0.730048
0.584382
0.00145432
-0.729512
0.0628254
0.731691
0.688546
-0.0798025
0.069539
0.7899
0.347648
0.348166
-0.695814
-0.304428
0.48138
-0.154748
-0.92107
0.696743
0.224328
-0.68483
-0.129706
1.08685
-0.390639
0.356979
-0.0332341
0.486154
0.513846
-0.77113
-0.110591
-1.06539
-0.476807
-0.701991
-0.283212
0.400175
0.599825
-0.0279257
0.00320443
-0.862445
-0.0581607
-0.595189
-0.169599
-0.234534
0.404133
-0.00281734
0.000425811
0.117128
0.0745748
-0.128366
-0.121982
0.762668
-0.64831
0.717849
-0.609162
-0.120886
0.261514
-0.978751
0.717237
-0.745331
-0.1847
0.930031
-0.238822
0.225195
-0.0263647
-0.0896672
-0.0868158
0.00401794
0.731248
-0.137821
0.11442
0.113993
-0.734167
0.0597653
0.471113
-0.14513
0.795218
-0.847118
0.183403
-0.280704
1.0175
-0.00178039
0.153215
-0.427898
-0.00955513
0.00813519
0.0131488
1.04969
-0.578575
0.929192
0.147914
-1.07711
0.84455
-0.0344421
-0.0018478
0.0362899
0.132755
-0.00724588
0.000637815
0.221436
-0.110183
1.17882
-1.33541
-0.168552
1.09774
0.00470558
0.280167
-0.830837
-1.06653
1.36216
-0.295622
-0.779367
0.829659
-0.0502926
-1.206
0.384491
0.264727
-0.078959
1.21561
-0.463574
-0.0637879
0.272172
0.446269
0.174986
-0.621256
0.380245
0.0310318
0.661032
-0.572584
0.572088
0.000495055
0.366672
-0.225503
0.0138982
-0.0179887
0.00409056
0.701091
-0.0103119
-0.0822282
0.0187126
1.46263
-0.331476
-0.874525
0.0415493
0.166617
-0.184245
0.223821
-0.143666
-0.0801551
0.0242915
-0.0142507
0.0170491
0.0338413
0.00045546
0.214883
-0.0257788
-0.0795463
0.231793
0.0925659
0.00198485
0.0341786
0.763917
0.642654
0.69689
-1.33954
0.277966
0.763977
-1.04194
0.644959
0.128176
-0.00706098
-0.0538891
0.0609501
-0.0673069
-0.488334
-0.745318
-0.0110226
0.760283
0.725692
0.629035
-1.05375
0.541904
0.809299
-0.0743292
-0.140919
-0.901486
0.0829478
-0.274581
-0.25853
-0.177627
0.698024
0.0658925
0.0135821
0.973895
-0.589404
0.246887
0.168096
0.0179714
-0.110442
0.422656
-0.0582993
-1.18456
-0.0683068
0.180256
-0.556882
0.834848
-0.147645
0.641298
-0.0341645
-0.1101
0.00629169
0.000565998
-0.00685769
-0.740094
0.514591
-0.00247606
0.953306
-0.229757
-0.620593
0.651899
-0.0313059
0.419622
0.75779
-0.167552
0.884788
0.0802755
-0.178841
0.639122
0.118667
0.732119
-0.114792
-0.278256
0.749429
-1.1136
0.53502
-0.590324
0.35256
0.237764
0.930193
-0.0706604
0.0426389
0.0684119
-0.0483525
1.23535
0.736689
0.0726099
0.631615
0.212322
-0.87819
-0.0818793
-0.679859
0.677673
-0.0274647
-0.576925
0.407327
0.86213
0.670154
0.0778689
0.138486
-0.144384
-0.321787
0.537759
0.500729
-0.313129
-0.013277
-0.275569
0.81059
0.632252
1.47895
-0.08072
0.609219
-0.732469
0.924817
-0.192348
-0.414646
-0.175678
0.0151126
-0.0515758
-0.16882
0.828348
-0.0120691
0.0055711
0.626634
0.0802718
-0.92739
0.611993
-0.132445
0.224972
0.781944
0.249436
-1.03138
0.277299
-0.922635
0.131917
-0.928272
-0.168559
0.757466
-0.588907
-0.674688
-0.00810575
-0.0815615
-0.055939
-0.26353
0.0126027
-0.0377809
1.40877
0.344265
-0.210282
-0.133983
-0.0385386
-0.570344
-0.202369
0.355584
-1.00482
-0.00278137
0.00378232
-1.18765
-0.0546834
-0.601012
0.0284289
0.568223
0.293907
0.740031
0.699528
-0.232633
-0.38958
0.622213
-0.286091
-0.618805
0.618805
-0.238616
-0.948011
1.18663
0.0310425
-0.155006
0.674226
-0.106003
-0.223638
0.29212
0.0648584
0.0885667
0.716953
-0.0860409
0.183953
-0.102492
-0.983928
0.482622
0.0894664
0.0683832
0.00683721
-1.57076
-1.39982
-0.755013
0.692888
0.307112
-1.39982
0.692888
-0.292176
-0.458526
-0.292176
-0.696292
0.696292
0.303708
-0.0141937
-0.149595
-0.0779384
0.206599
0.119039
-0.480015
0.637615
-0.0256212
0.647279
-0.505667
-0.141613
-0.0513307
0.0482675
0.00306318
-0.0200721
0.0243602
-0.490764
0.0188202
-0.073559
-0.434801
-0.364636
0.136675
0.0379894
0.821262
-0.270172
-0.453887
-0.153973
-0.017205
-0.108173
-0.00329397
0.687976
0.072307
-0.556824
0.0179136
0.000435415
-0.0170571
0.0849959
0.554017
-0.479819
-0.0741982
1.37931
0.557812
-1.10125
0.929977
0.0114834
-0.063718
0.110051
-0.334826
0.0148256
1.16497
-0.383028
0.00507465
0.0199327
-0.0125949
-1.35978
0.0210597
-0.0210597
0.021223
-0.021223
0.00494011
-0.00494011
-0.00947307
0.365358
0.463799
0.130504
-0.705718
0.450134
0.189314
0.0321227
-0.0845764
-0.482361
0.750982
0.112535
-0.797366
-1.20519
-0.281018
-0.023713
0.0209539
-0.00441622
0.00376983
-0.00376983
0.510901
0.00160284
-0.00160284
0.699552
0.101724
0.0119601
0.0059535
0.00664184
-0.0672594
-0.0225227
0.0225227
0.00795167
-0.00795167
-0.0222859
0.0222859
-4.763e-05
4.76301e-05
0.0254579
-0.298746
-0.080006
0.219584
-0.00117725
0.00117725
-0.378339
0.502906
-0.124567
0.492683
-0.213809
0.0662828
-0.52017
0.558307
0.193351
0.0833971
0.568502
0.564324
-0.00314369
0.00314369
-0.292097
0.0250141
-0.0250141
-0.00206976
0.00206976
0.771373
-1.42641
0.0334322
-0.268046
0.534196
0.00367942
-0.00367942
-0.00707273
0.00707273
0.0182541
-0.0182541
0.0231024
-0.0231024
-0.0234413
0.0234413
0.0351667
-0.0351667
0.494519
-0.0318362
0.0318362
-0.00431724
0.00431724
0.0239711
-0.0239711
0.0103668
-0.0103668
0.00249558
-0.00249558
-0.151772
-0.0261993
0.0261993
0.0489829
0.0356893
-0.0395657
0.0395657
-0.00772413
0.00772413
-0.00175656
0.00175656
0.0335558
-0.0335558
0.026004
-0.026004
0.00311342
-0.00311342
0.0100002
-0.0100002
0.456114
2.31068e-05
0.00968435
-0.00968435
-0.00467255
0.00467255
-0.0382182
0.0382182
-0.0283458
0.0283458
-0.00679932
0.00679932
-0.4305
0.67933
0.290055
-0.0320635
0.0320635
0.000239413
0.00605821
-0.00605821
-0.0050084
0.0050084
0.0376876
-0.0376876
0.128868
-0.269786
-0.0109235
0.0109235
-0.022588
0.022588
-0.474801
0.0433568
-0.00401068
-0.0317413
0.0317413
-0.438931
0.0327611
0.0188829
-0.716787
-1.1188
-0.0369451
0.0369451
-0.207415
0.149116
-0.0417515
-0.00532797
0.00532797
-0.00835464
0.0534884
0.267222
-0.325212
-0.267033
0.592245
0.181118
0.0110882
-0.0110882
-0.150998
-0.156311
0.307309
0.755187
-0.378819
-0.376368
-0.474914
-0.65986
-0.544352
0.390379
-0.426502
0.122074
-0.576354
-0.0249123
0.193345
-1.30942
0.0170505
-0.0170505
-0.00439844
0.00439844
0.0309628
-0.0309628
0.0265394
-0.0265394
0.00335235
-0.00335235
-0.00366783
0.00366782
0.0137724
-0.287967
0.16561
-0.290269
-0.0045009
0.0045009
-0.0453596
0.0453596
-0.0406069
0.0406069
-0.0454946
0.248684
-0.203189
0.0121579
0.302216
-0.531973
0.0057083
-0.0057083
-0.00898321
0.00898321
-0.102905
-0.115917
-0.428435
-0.00440992
0.00440992
0.0383035
0.0168544
0.88762
-0.487163
-0.0896226
0.576786
-0.621431
-0.15759
-0.279887
-0.0391205
0.0391205
-0.674735
0.275405
0.0500888
-0.0500888
-0.66564
0.397506
0.258105
0.10901
0.00233773
-0.00233773
-0.867166
0.00120388
-0.00120388
0.323026
0.407879
0.0294218
-0.0541463
0.0541463
-0.00445123
0.00445123
-0.0427038
0.0427038
-0.0543686
0.0543686
0.00108689
-0.00108689
-0.0601509
0.0601509
0.00064022
-0.00064022
-0.0460959
0.0460959
0.00151197
-0.0459572
0.0459572
0.00597002
-0.00597002
0.0486896
-0.0486896
-0.000140542
0.000140542
0.0479619
-0.0479619
-0.26739
-0.00209066
0.00209066
-0.00416878
0.00416878
-0.0531551
0.0847502
-0.0105484
0.0105484
0.00511627
-0.00511627
-0.0600457
0.0600457
0.302615
-0.0187944
0.0187944
-0.0589714
0.0589714
-0.00795926
0.00795926
-0.0679947
0.0679947
-0.0139263
0.0139263
-0.081262
0.081262
-0.0223344
0.0223344
-0.097525
0.097525
-0.698162
-0.175654
-0.540294
0.508988
-0.89679
-0.11239
-0.555624
0.377997
0.253725
0.152372
0.00389078
-0.00389078
0.284985
-0.704031
0.0466191
-0.0397819
-1.09491
1.14755
0.498827
0.258149
0.0146774
-0.0126381
-0.387675
-0.590068
-0.0938768
0.394592
-1.34615
-0.0234093
0.0234093
-0.731112
0.0185385
-0.0185385
0.00904443
-0.00904443
0.318929
-0.182772
-0.0031308
0.0031308
0.0193621
0.0144871
0.599377
-0.332992
-0.0219199
-0.0105462
-0.00935037
-0.104429
0.50593
-0.401502
0.102521
0.0339345
0.00298478
1.0808
0.0272089
0.0462024
-0.410105
0.452965
-0.499727
-0.896103
-0.26755
-0.0748711
0.0183722
-0.128579
0.373916
-0.0227471
-0.00635877
0.00945087
0.797999
-0.541614
-0.0431055
0.0610769
-0.038728
-0.153482
0.00388723
0.417845
0.245478
-0.174485
0.218902
0.00707214
-0.000187612
-0.375789
-0.00602861
-0.333512
0.12323
-0.0191017
-1.02461
-0.0717538
0.268806
-0.35348
0.403175
0.265346
-0.99528
0.0448462
0.0953261
-0.0758949
-0.353966
0.459284
-0.0470564
0.0825623
-0.0355059
-0.0271611
0.0271611
0.187836
-0.445222
-0.195917
0.0290762
-0.0846388
0.0571741
-0.0618437
-0.00483623
0.0666799
-0.0400522
-0.156031
0.121122
0.149448
-0.289762
-0.343915
0.633677
0.0166038
0.0615088
0.150806
-0.0363853
-0.230339
0.0732114
-0.162443
0.319013
0.00661995
0.02967
-0.0202921
0.171098
0.00286502
0.266648
-0.00808073
0.00808073
-0.757564
1.38982
0.095118
-0.176997
-0.0232219
0.0726129
1.65395
0.0210146
0.0550298
-0.0113218
-0.535348
-0.00494581
0.106526
0.0994849
-0.700121
0.324509
-0.0615963
0.364566
-0.654328
0.190369
0.506374
-0.0904181
0.0904181
0.00262897
-1.24905
-0.216716
1.46577
-0.218884
0.162945
-0.443045
0.28489
-0.623977
0.00668138
0.0134094
-0.0124486
0.929951
0.370874
-0.293005
-0.0697685
-1.00235
-0.274405
-0.0404655
-0.291421
0.78391
0.567554
-0.265338
-0.354511
0.634677
0.294634
0.113076
-0.269373
0.0356245
-0.460131
0.335564
0.129648
-0.129648
-0.0482697
-0.0740799
0.12235
-0.00570324
0.0101158
0.0154753
0.154725
-0.222032
0.220777
-0.187449
-0.0333288
0.533678
-1.10666
0.00349557
-1.209
0.688498
-0.112318
-0.177951
-0.0319545
-0.0802831
-0.49478
0.0599787
-0.295184
-0.00165046
-0.0191017
0.389524
-0.00497624
0.00318355
-0.00112962
0.0133448
-0.0114464
-0.00189845
-0.0995913
-0.016768
-0.170279
0.187047
-0.116484
-0.343647
0.0193621
0.348557
0.0011181
-0.384322
0.0905838
0.00272819
0.261093
-0.130588
-0.0131988
0.0131988
-0.00152832
0.000878937
-0.00934184
-0.000892505
0.0593404
0.000579713
-0.00115536
-0.00910632
0.251716
-0.00360736
0.00360736
0.0185674
0.504986
0.00173268
-0.298391
0.500733
1.17399
-0.47045
0.322872
-0.439748
-0.114701
-0.0812159
0.217217
-0.222419
0.0460466
0.00500203
-0.000984087
-0.0142956
-0.184764
-0.387826
0.83796
0.462554
-0.448782
-0.0485271
-0.00161088
0.11502
-0.192679
0.00101453
0.000953817
0.00404821
0.502253
0.00134758
-0.000514419
0.73339
-0.660179
-0.247647
0.0140263
0.284399
-0.000335851
-0.000923293
-0.0417515
-0.00573737
0.817554
-0.431362
0.520829
-1.23182
0.906937
-0.741738
0.569612
-0.191616
0.709714
0.000721375
0.00353996
0.0174139
-0.126293
0.1396
0.143636
0.00694322
-2.44544e-05
0.068035
-0.0549767
-0.0130582
-0.000164677
-0.0612911
0.0935779
-0.0322867
-0.0904907
0.0104889
-0.000843863
0.00236265
0.485564
-0.436308
0.0107398
-0.00109102
1.00884
-1.22556
0.38253
-0.00598233
0.000929527
0.235113
-0.234658
-0.0461355
-0.103367
-0.0137065
-0.00366178
0.129301
0.00968476
-0.00252117
0.395127
-0.000955758
-0.0021596
0.0021596
0.00271645
-0.0132627
-0.00114855
-0.324398
-0.00371981
0.0735823
-0.107354
0.00292922
-0.0404731
-0.0654713
-0.0012074
0.00207812
0.448913
-0.00101462
-0.00140337
0.0165159
-0.00209689
-0.00128141
0.132949
0.131476
-0.710199
0.439611
-0.827437
0.257999
-4.13019e-05
-0.539689
0.164501
0.156492
0.546539
-0.0152481
-0.155296
-0.00405751
-0.00139922
-0.556068
-0.00339212
-0.000446666
0.00897419
0.957059
-0.576813
-0.00259368
-0.000780762
-0.00589932
-0.00195012
0.0663535
-0.0225746
0.0225746
0.0126491
-0.0117702
-0.00284299
-0.00794903
0.0134199
-0.0102363
-0.170524
0.0998639
-0.00596707
-0.0132673
0.0393552
-0.0176969
0.0637568
-0.0453846
-0.623656
0.575581
-0.0215298
-0.00122548
0.447069
-0.266813
-0.0677271
-0.666417
-0.0706824
-0.112371
-0.0957505
0.0936536
0.70642
-0.000963691
-0.0199305