/*--------------------------------*- C++ -*----------------------------------*\
| =========                 |                                                 |
| \\      /  F ield         | OpenFOAM: The Open Source CFD Toolbox           |
|  \\    /   O peration     | Version:  2306                                  |
|   \\  /    A nd           | Website:  www.openfoam.com                      |
|    \\/     M anipulation  |                                                 |
\*---------------------------------------------------------------------------*/
FoamFile
{
    version     2.0;
    format      ascii;
    arch        "LSB;label=32;scalar=64";
    class       volScalarField;
    location    "41.5";
    object      p;
}
// * * * * * * * * * * * * * * * * * * * * * * * * * * * * * * * * * * * * * //

dimensions      [0 2 -2 0 0 0 0];

internalField   nonuniform List<scalar> 
2186
(
1.03344
-0.139206
0.182288
1.35562
-1.03339
0.308891
0.932475
-0.718423
-0.582731
1.6218
1.32564
-0.784359
-0.703984
1.2989
-0.364693
1.31248
1.33123
-1.08535
0.0559827
-0.664653
1.69318
-0.632105
1.30912
-0.880232
1.30086
1.32769
1.52542
1.17275
0.87505
1.30002
-0.640775
1.30127
-0.589204
0.264338
-0.815457
0.376607
0.204074
1.67786
-0.491388
0.283108
-0.708032
-0.600733
-0.501068
-0.766988
1.20445
1.60115
0.58589
0.760735
-0.713301
-0.846478
-0.649552
1.17372
-0.474089
1.60806
-0.620657
1.2256
-0.561116
1.25539
-0.585879
1.07181
0.00681589
0.939051
0.842324
0.342933
0.873176
0.701406
0.953725
1.5887
1.48595
-0.522736
-0.722173
-0.225522
1.56051
1.27657
1.4765
1.45189
-0.419959
1.32629
-0.827454
-0.555626
-1.11797
0.447753
1.29543
0.918341
1.287
1.29635
1.59019
0.094657
0.719777
-0.824343
1.22455
-0.689679
1.2019
1.45767
1.31055
0.702336
0.0523372
0.897249
-0.961776
1.26983
-1.53483
-1.42692
0.957248
1.21511
1.33289
-0.620902
1.49281
-0.191444
1.20294
-1.28482
-0.526549
-0.850018
0.789386
1.59773
-0.667753
-0.746099
-0.0976643
-0.78
-0.824098
1.56294
0.231223
-0.876681
1.13503
-1.28478
1.31731
-0.226874
-0.955983
1.43914
-1.15394
0.912069
1.70306
1.54571
0.466131
0.903031
-1.25284
-0.800413
1.19378
-0.374928
-0.258545
-0.769219
1.07792
0.00696598
-0.722491
0.957444
1.18658
1.22392
-0.229694
-1.03735
0.860405
-0.716983
-0.830631
0.82718
1.32934
1.48232
1.32751
0.773468
1.58278
0.752688
0.654367
0.661966
-0.777134
-0.757066
1.29261
1.26409
-0.0242439
0.0389246
-0.7604
-0.829019
0.61115
0.401575
0.644007
1.27421
1.33215
1.40219
0.702875
-0.0130911
-1.06505
1.29583
-0.904723
1.15485
-0.787185
1.31602
-0.663757
0.832378
0.805201
-1.04801
-0.877281
1.41602
-0.243514
-0.701549
-0.97358
1.55739
-1.18885
1.25203
-0.781005
-1.35736
0.337194
1.48074
1.35392
-0.635456
-0.756068
-0.903304
0.305767
1.32921
-0.801067
-0.939384
-0.841707
-0.576143
1.26211
-0.488945
0.764655
0.633217
1.5889
1.10822
1.2024
1.22491
1.4681
1.30483
1.16917
1.39688
0.635082
-0.760498
-0.628526
0.368398
0.418955
-1.05063
-0.981101
1.32392
1.42551
-0.928238
-0.724365
-1.96573
0.609868
0.90605
1.043
1.17123
1.41619
-1.55321
1.15322
-0.750182
-0.909549
-0.768433
1.28529
1.01002
1.43698
1.47914
1.39902
1.37425
-0.740607
1.09421
1.41893
-0.723586
1.27115
1.0573
-2.09601
-0.810157
-0.861154
1.43662
1.33315
-0.703025
-0.0216914
0.225586
1.2355
-1.32523
1.0482
1.36761
1.13452
-0.80146
-0.659239
1.27486
0.942851
-0.0728699
-0.2132
1.63335
-0.925566
-0.733275
1.11442
1.48734
1.28823
-1.00845
-0.340729
-0.394134
1.22581
-0.71595
0.795133
1.27164
1.30087
0.0232938
-0.0301785
1.28184
-0.818528
1.19987
1.49945
1.32826
1.3253
0.0241689
-0.741927
-0.897935
-0.0725643
-1.15849
-1.14769
0.620256
-0.34652
0.887021
1.47419
1.48799
1.22634
-0.318188
1.45043
-0.78735
0.745199
-0.748344
-0.781511
-0.708974
0.589502
-0.819511
-0.756682
0.424836
1.23944
-0.07927
0.652748
-0.793181
0.489163
-0.718439
-0.867599
1.52124
0.237136
-0.675613
-0.669735
1.05595
0.871829
-0.130439
0.780899
-0.689059
-0.708509
0.940478
1.32765
1.36244
-1.26981
1.4545
1.16494
0.657031
1.55668
1.30905
1.22634
0.625881
-0.0526624
-0.762991
1.16961
-0.745656
-0.879782
-0.761494
-0.808016
-0.834119
1.64165
0.104617
-0.659513
-0.734278
1.30848
-1.08417
-1.41944
-0.694452
1.02509
0.254359
-0.783998
1.55654
1.61345
1.42596
-0.717659
-0.80318
1.65237
1.31188
-1.01366
0.741247
-0.745309
0.398955
1.48224
1.28797
1.15055
1.61204
-0.244258
-0.0888157
-0.0323575
0.254367
-0.55894
-0.605588
0.50665
1.58461
-1.07052
-0.307272
1.30121
0.836114
-0.802339
-1.65108
-0.756942
-0.967179
-0.757509
-0.790623
-0.605222
-0.958249
1.49096
0.334635
-0.733834
1.3184
-0.759852
1.57702
-0.936373
-1.83079
-0.671128
1.3002
-0.796241
1.33143
1.11976
-0.13754
1.32577
-0.832108
-0.803463
-0.752447
1.30037
1.23017
-0.801929
-0.748803
-0.748312
1.28478
-0.763202
0.0996848
0.786591
1.26294
1.16136
0.969177
-0.784815
-0.35273
1.14911
0.0168381
1.07655
-0.153368
1.32438
0.228608
1.4285
-0.821654
1.12572
1.02196
1.33871
-0.779752
1.3083
0.289546
-0.805119
1.3035
-1.78137
0.429346
-0.811145
0.153068
1.31398
0.385687
0.525658
1.31658
0.51399
0.18741
0.0763989
-0.656376
0.511542
-0.708526
1.00992
-0.46143
1.35997
1.43563
-0.742908
-0.785585
-0.106364
-0.626919
0.722264
-0.729293
1.11993
0.266624
-0.702773
1.40696
0.292332
0.645535
0.533233
0.134509
1.08219
0.615832
-0.253777
0.170918
0.57395
-0.554704
1.32236
-0.266019
1.39953
1.53679
1.52052
0.947151
1.45095
-0.975723
-0.536633
1.17872
0.451694
1.30224
-0.620823
-0.693444
-0.93692
1.05523
-0.795388
-0.285415
-0.655354
-0.697927
0.0409964
-0.0392187
1.03749
1.02601
-0.285362
-0.058651
1.01576
0.299768
1.42294
0.408291
0.0812781
-0.792874
1.0458
-0.389675
1.47886
1.66469
-1.17505
-0.968881
-0.671066
0.593533
-1.53811
1.331
-0.0260428
1.2819
1.07658
-0.881344
1.18642
1.14895
-1.89172
1.15427
-0.230267
-0.704941
-0.56896
-0.777539
-0.276844
-1.34729
-0.371138
1.3028
0.494566
-0.903515
0.845406
1.45141
1.52232
-0.128219
1.01552
0.4884
1.04508
0.126234
-0.856188
-0.744853
0.784852
1.11926
1.36587
0.278232
-0.777314
-0.532563
-0.826924
0.0989666
0.994161
0.167479
0.26226
-0.792473
1.24372
-0.601325
1.27038
-0.00420079
0.279516
1.24009
0.924008
-1.52456
0.0945997
1.2784
1.60991
1.32677
-0.0616789
-1.05669
1.06383
0.0261416
1.05055
-0.316999
0.728798
1.27602
-0.699591
-0.660219
1.32705
-0.76341
1.5319
0.04942
1.15379
-0.42423
0.880631
-0.85166
1.54003
-0.676831
-1.27558
1.25136
0.809331
0.80956
-0.738399
-0.641843
0.0014849
1.09749
0.665148
-0.393501
0.101117
1.32274
0.689542
-0.94026
1.05907
1.19628
1.29824
0.322528
-0.547893
-0.710919
1.31821
1.46725
0.741321
1.31379
-0.388363
1.3412
-0.540345
-0.219389
0.167246
1.20767
1.26165
-0.808765
1.13982
-0.682166
1.12107
-1.02578
1.29426
1.23054
1.32389
0.0580441
1.23061
-1.19645
-0.418623
1.46756
-1.24262
0.429397
1.42356
-0.293436
1.40062
-1.67346
-0.711385
1.3351
1.04781
1.68152
1.30262
-1.19484
1.38175
1.3947
0.178412
0.922103
-0.303465
-0.81626
1.79933
-0.760788
1.43616
-0.860532
0.542944
1.30312
-0.768467
1.30364
0.362799
1.21915
1.23516
1.3156
0.291115
-0.702875
-0.425262
0.839888
0.926071
1.35354
0.0796494
1.12213
0.027644
-0.0686721
-1.15591
1.10223
1.45053
-0.723768
-0.812952
0.454129
1.54203
0.575332
1.0278
0.321459
-1.72301
-0.730611
-0.646836
0.257558
1.12429
-1.73405
-0.64603
-0.0457661
-0.230389
-0.674609
-0.753859
0.114421
1.28425
1.32498
-0.745895
0.0102945
1.2959
1.22144
1.32363
-1.42841
1.29497
1.34423
1.29454
1.35585
-1.62549
0.0243438
-0.662878
0.909512
1.30011
0.97028
0.384769
-0.394942
-0.510177
0.0336686
1.57582
0.000517683
-0.511296
-0.336815
0.173815
-0.711554
1.09165
-0.893601
-0.742608
-0.804544
1.31111
1.30407
1.32096
0.148161
0.635503
1.55262
-0.437331
1.29785
0.0290697
0.112224
1.06384
1.32582
1.38328
0.231836
1.29364
1.28915
-0.612673
0.308423
1.32116
1.33239
1.32769
-0.787404
-0.873859
1.32707
0.867674
1.30572
0.482065
0.125912
-0.139864
0.572413
0.20368
-0.65727
0.0836759
0.352276
1.33382
1.3384
1.07888
-0.841775
1.31102
-0.0961034
0.676736
0.127472
1.30129
1.33035
1.32785
1.3425
1.3204
1.31455
1.30629
0.516539
0.778474
0.491764
0.563308
0.0962745
-0.0507102
0.0375776
-0.0334718
-0.296179
0.145076
0.149096
1.29497
1.31762
1.31194
1.33615
1.33445
1.32752
1.33199
1.30606
1.31853
-0.344987
0.697736
1.32908
1.32682
0.0589796
1.32892
1.3285
0.416897
-0.347841
-0.132746
-1.08691
-0.398667
1.31184
-0.719359
1.30538
0.896432
1.37193
-0.766143
1.30472
1.26098
1.24308
-0.657046
0.136461
-0.719337
0.240944
0.226844
-0.642022
1.32623
-0.196609
1.39808
1.3161
0.0789811
1.46677
1.60627
0.745416
1.19966
0.927308
1.30891
1.32648
1.31554
-0.765845
0.773115
0.157424
1.3145
1.32122
-0.73888
-0.197424
1.31667
0.368948
-0.0876937
1.31496
0.101958
1.3006
1.32834
-0.258719
1.3179
-0.65473
1.30853
1.39439
-1.32116
1.32283
1.33092
0.0642296
1.01018
1.30868
1.31796
0.442869
-0.541839
0.985201
1.67698
1.32462
1.31135
1.31852
-0.303977
1.31229
1.29354
1.32085
1.3135
1.31702
1.3104
1.42212
-0.153695
-0.112293
1.31365
1.31061
0.59156
0.163105
-0.0648131
-0.0682385
1.19922
-0.121779
-0.297585
0.183174
1.31003
0.991999
-0.02482
-1.0098
0.443997
0.0389088
-0.57697
-0.32018
-0.759752
-0.961189
-0.0918052
1.31724
-0.0643794
1.30445
1.24422
-0.785936
1.54098
-0.436022
-0.738574
1.02366
1.42955
0.744755
-0.814148
1.31385
-0.748152
1.31595
-0.663545
1.31571
-0.775909
1.30817
-0.630022
-0.231106
1.31865
1.33052
1.27529
-1.034
-0.825315
-0.4976
-1.13415
1.32855
1.22908
-0.699046
1.31059
1.35022
1.30699
-0.904101
-1.51913
-0.452199
-2.09067
0.590825
1.3175
0.00590259
1.31049
-1.84012
1.31185
1.35053
1.31946
0.0240402
-0.0527653
1.34506
-0.737892
1.32137
1.32455
0.248504
-0.711505
1.24745
1.45147
1.3058
1.3078
-1.18939
-1.04426
1.27296
0.663281
1.32055
1.12155
-1.03977
-0.727972
1.17685
1.55482
1.31348
0.588742
-0.298942
-0.935737
-1.79952
-0.620411
1.28895
-0.43664
1.302
-1.22614
-0.77576
-0.992492
0.775961
-0.793304
-0.719335
-0.657143
1.30765
-0.817443
1.22066
-0.752705
0.0425378
-1.09863
0.139032
-0.70818
1.28954
-0.883746
-0.789269
-0.676238
-0.716902
1.29236
-0.773278
0.0558048
-1.82461
1.40152
-0.681058
-0.75929
1.37945
1.29129
1.28003
0.744319
-0.752828
1.31914
1.3468
0.510923
-0.827659
1.30684
1.07044
1.55414
1.33025
-0.363418
-0.613561
-0.798305
-0.813817
-1.01911
-0.801647
0.175761
-0.853191
1.07429
0.203689
1.31407
1.52197
1.30991
-0.823218
-0.763748
1.30972
-0.685651
-0.199702
1.28044
0.0955082
-1.08616
-1.85132
-1.14469
1.27545
1.24954
0.423793
1.11526
0.997945
-1.24262
1.28571
-0.740488
1.14822
-0.570668
1.27
-1.41941
0.673851
1.31015
1.39776
-1.7281
-1.28778
1.16397
1.6791
1.33135
1.32943
-0.790143
1.56492
-0.822071
-0.239614
-0.650183
0.725685
-1.72073
1.4214
1.46404
-0.745173
0.506881
1.3094
-0.484517
1.12522
1.34123
1.29223
-1.48622
1.31148
-0.157895
1.33613
0.112668
-1.05103
0.128181
1.31374
0.696846
-0.221717
-0.951826
1.29371
-0.99701
1.49624
0.505904
1.61442
1.29699
-0.593761
1.28019
-0.723121
1.29536
1.29165
-0.190796
-0.860473
1.43519
1.30546
1.52233
1.27725
0.323893
1.28318
1.28705
1.1991
1.31901
-0.842548
-1.00086
-0.923107
1.39691
0.440813
-0.353964
-0.688335
0.424951
-1.14533
0.0137075
1.18245
-1.23739
1.25148
1.30397
-0.857864
-0.473226
-0.605124
-0.156249
-0.719699
-0.734048
1.31998
-1.77442
1.328
1.54648
1.36451
0.122324
1.33578
1.25897
0.285881
1.25461
1.30273
-0.999017
1.2998
1.25934
0.456967
-0.592801
1.77591
-1.22273
-1.03468
-0.717452
0.478071
1.28015
-1.12468
0.0489797
-0.641106
1.45295
-0.379984
1.1744
1.33114
1.28141
0.071829
1.25905
-1.93317
1.32607
1.34035
-0.110891
1.3297
0.817817
1.28758
0.978176
-1.92482
0.127455
0.17239
0.0346502
1.54815
-0.34077
1.34833
1.68947
0.232514
0.109499
1.37417
0.211352
1.37137
0.00285338
-0.00866962
1.37505
1.37977
0.679365
-0.738438
1.0863
-0.538539
-0.759153
-0.45022
1.33594
1.29295
1.75737
-0.816388
-0.33986
1.0146
-0.730675
1.39547
1.31829
1.28334
1.30738
1.25448
-1.04489
-0.799916
-0.767659
1.15288
1.25305
-2.06723
-0.77946
-0.758891
1.32439
1.33228
0.440905
-1.51101
1.34953
-0.634396
0.556898
1.09367
1.24024
-0.144253
-0.72569
0.107007
-0.704589
-0.591992
0.0921318
-0.956044
1.71004
1.64412
-1.11853
-0.717622
1.3255
1.30062
-1.03088
0.179979
-0.156491
0.979825
1.41149
-0.385555
1.32067
-0.172075
-0.724384
-0.645567
-1.05977
-0.737212
1.27939
-0.700723
-0.254937
1.65677
-0.694052
1.3219
1.53707
-0.790223
1.34726
1.57651
-1.01092
1.53818
-0.694732
-0.735799
1.34945
-1.22861
1.31248
1.32223
-0.698994
1.35766
0.387248
-1.02846
1.35796
1.3335
-0.748134
-0.791464
1.27785
1.31466
-0.722312
-1.97172
1.57367
-0.705285
1.24357
-0.591962
1.23442
-0.827953
-0.56403
-0.748383
-1.04049
1.40276
1.33083
1.61878
1.50646
1.29616
1.37598
1.37836
-0.756998
1.44059
1.45596
-0.907329
-0.712866
-0.999424
1.6103
-0.860215
-0.737381
-0.406259
1.25822
-0.946451
-1.1745
1.33751
1.32183
-0.739739
-0.803719
-0.73229
-0.0265153
-2.0708
-0.979964
-0.765504
1.21275
1.18382
-0.725932
-0.167716
-0.702742
1.16509
-0.708752
-1.07728
-0.773898
1.23875
-0.719669
-0.835746
1.66334
1.18637
0.663698
1.51372
-0.658582
1.27857
1.32936
1.42456
1.52819
-0.671239
1.01031
1.33019
0.511392
-0.782155
1.72935
1.25137
1.19308
1.35975
-0.871285
-0.47342
1.13584
1.14452
1.26515
-0.831098
-1.63631
1.29406
-0.778052
1.10143
-1.04342
1.69167
-0.790406
1.06364
1.01851
-0.678003
-0.798014
-0.884518
1.35941
-0.691131
-0.81584
0.97502
0.947607
-0.898771
1.38548
1.11569
-0.706779
-1.31676
1.28958
-0.582021
-0.805703
-0.750971
-0.64051
-0.151438
1.31188
1.31067
-1.28987
0.891192
1.31612
1.64854
0.526653
0.615636
0.356731
1.16961
-0.242278
-0.668157
-0.508296
-0.313082
-0.659745
1.31621
-0.672434
0.502369
-0.811499
0.879525
0.836282
-0.652733
0.906648
0.210863
0.759119
-0.647166
0.804013
-0.668987
0.649917
-0.821552
0.718783
-0.642794
1.10126
-0.74785
-0.642199
-0.648585
-0.809283
1.32926
0.326345
-0.678398
-0.833634
0.36428
0.469293
-0.661463
-0.800944
-0.72312
0.110331
-0.850388
0.193761
-0.88785
-0.0227401
-0.803594
-0.0786859
1.2307
0.678417
-0.812924
1.31078
0.274178
0.677032
0.709149
1.27327
-1.23526
-1.36638
-0.828194
-1.02921
1.17667
1.70893
0.407329
-0.909712
0.264194
-0.703461
-0.0283552
-0.138451
1.30463
-1.06135
1.25088
-0.981877
1.75848
0.727067
1.7606
-0.774545
1.50835
-0.266042
1.30624
-0.146179
-0.825473
1.38428
1.29677
-1.78191
-0.812846
-0.645691
1.30678
-0.568122
1.30615
-0.758522
-0.759035
-0.746486
1.61586
1.36494
1.42074
1.34307
1.32664
-1.04109
-0.141579
1.50736
-0.21307
-0.727499
1.69718
-0.747147
1.2485
1.24141
1.68451
1.7541
-0.698164
-0.657278
1.34185
0.478897
-0.254527
-0.592327
0.271684
-0.637906
-0.813683
0.824951
-1.0969
1.52016
0.202027
1.36535
1.45352
1.36667
-1.08122
-0.826246
-0.768227
1.39821
-0.782066
1.47846
-0.473752
-0.920406
1.53799
1.63448
-0.842682
0.410861
1.24372
-0.845155
-1.03567
0.929686
1.56799
1.53142
-0.948657
1.2166
1.17652
-0.823276
1.54624
0.613617
-0.748517
-0.178365
0.145619
0.587099
1.43374
-0.850741
0.588763
-0.351413
0.115459
-1.05256
-0.838521
1.31749
-1.58688
1.35185
0.233228
0.326975
0.960476
0.525627
-0.8295
-0.355048
-1.06713
-0.0550085
-0.0584295
-0.916379
1.25904
-0.724515
-0.00606976
1.34233
-0.746131
-0.922476
1.32601
-0.837477
1.29421
0.0604014
-0.780706
-0.090097
1.06324
-0.6701
-0.468144
1.16941
-0.754536
1.37606
-0.402357
-0.827952
-0.70526
-0.820964
1.82299
-1.98784
1.42597
-0.290334
1.26518
1.50313
0.991673
1.3204
1.46518
0.191917
-1.28546
1.26719
1.39412
1.68389
-0.695051
1.37124
1.00456
-0.692425
1.06275
1.53083
-0.320252
1.62763
0.47684
-1.16107
1.11477
-0.695689
-0.645685
1.23332
-0.20415
1.36226
1.36173
1.294
-1.10291
1.24098
1.55522
-1.04133
-0.00224763
-2.0761
-0.988206
-0.789264
-0.806522
1.68826
1.02384
-1.02769
1.20098
-0.70155
-0.819056
1.59905
1.52316
-1.43536
-0.884502
-0.8178
-0.762377
1.26682
-0.996688
0.323133
-0.578131
-0.0985101
1.37191
-0.716747
1.66848
1.36872
1.15805
1.34884
1.59148
-0.895733
-0.707578
1.30872
1.44876
-1.18102
1.30958
-1.84782
-0.751205
-0.729817
1.39589
1.42126
-0.742723
-1.00045
0.811212
0.177997
-0.856662
1.30781
1.2795
-1.04063
1.31766
1.35849
-0.739126
-0.926265
-1.06043
-0.760353
-0.734624
1.63874
0.269375
1.23443
-0.963821
1.64098
1.22077
1.18692
1.27857
-0.736404
0.525919
-0.76904
0.854787
-0.818647
1.20963
0.543441
-0.268416
1.20366
1.30284
1.3538
1.33268
0.0985612
1.35054
0.0704852
0.669394
1.14524
-0.309952
-0.888587
-0.744313
-0.457546
1.32423
1.26156
1.32323
-0.490776
-0.653548
-0.777586
-0.568533
1.32456
1.58345
1.33744
-0.852863
-0.956606
-0.946543
-0.290659
-0.814838
-0.820287
0.078172
1.32088
-1.21661
-0.715473
0.0388029
0.13455
1.04149
-1.06079
-0.786319
-0.767974
1.27387
1.74193
0.0980143
1.40657
1.77974
0.980654
1.51986
-0.944462
-0.768424
1.73541
-0.794038
0.560186
-0.788223
-0.730505
-0.640868
-0.683973
1.26802
1.00565
1.49291
1.45779
0.00391715
1.0565
0.363569
0.0472365
-0.801796
1.41887
1.04315
1.33187
1.34872
-0.124435
0.359415
1.34165
0.116069
-0.826619
-0.697816
-0.652126
0.852053
-0.672081
1.26304
0.938539
-0.795224
1.55432
-0.876062
-0.0623887
1.28877
-0.931084
-0.75499
-0.326925
0.915894
-0.735921
-0.76573
1.22981
1.34013
0.598891
0.304823
-0.437984
-0.80868
-0.027431
-0.98036
0.057067
0.865968
-0.849828
-0.663685
1.55905
0.56459
0.670445
-0.655874
-0.725
1.313
1.34671
0.843844
0.79607
-0.649241
-0.706842
-0.57795
0.765056
0.700751
-0.644723
1.18337
0.441736
-0.639788
1.72098
-0.641974
-0.28203
-0.734755
-0.578931
1.12686
-0.65828
-1.0202
-0.838427
0.235792
-0.697266
0.289406
-1.11279
-0.193631
1.48894
-0.755915
0.0397394
-0.870085
0.0995043
1.62622
1.7275
1.52719
1.32067
1.50542
-0.476774
1.30963
-0.893921
1.34187
-0.829997
-0.815152
1.58734
-0.256592
0.741598
-1.07989
1.72107
0.271638
1.65429
0.913957
1.11381
-0.76025
-0.820946
-0.82489
-0.706125
1.62233
1.50572
1.3096
0.893276
1.30714
1.15303
1.12622
-0.639413
-0.774701
0.563682
-0.118064
1.10069
1.32486
0.197326
-0.762029
-0.635628
-0.753538
-0.826716
-0.909064
1.67596
1.34304
1.32016
-0.0129883
0.278253
1.33793
0.367831
-0.809865
-0.175186
-0.700834
1.09121
-0.716981
-0.651445
-0.0963578
1.32924
-0.642943
-0.736695
1.30757
0.874696
0.984014
1.31076
-0.815166
1.18428
1.49059
1.11871
-0.819197
1.29664
0.60743
0.764419
-0.860001
-0.684531
1.73804
0.512576
-0.768
0.299872
1.22271
1.29732
-0.718222
-0.824821
0.0440186
-0.563191
-0.752265
-1.03684
-0.0664945
1.307
-0.987498
1.31621
1.58912
1.3962
1.31779
1.3994
1.45725
1.3135
-0.944516
-0.486264
-0.161783
-0.920368
-0.624294
-0.649264
1.46312
1.36439
-0.705275
1.24984
-1.09969
-0.719416
-0.644263
-0.286002
0.797094
-0.732943
1.3048
1.21366
-0.833193
-0.21025
1.64473
-0.641986
-0.10581
-0.752429
-1.04968
-0.608409
1.34313
1.08889
1.39035
-0.77266
0.31554
-0.791111
-0.0997766
-0.701327
0.133957
-1.11102
-0.590793
1.22429
-0.565183
1.78883
-0.896787
-0.351275
-0.855461
-0.645551
1.21206
-0.858843
-0.786024
-0.805795
-0.0214829
1.48939
1.52892
-0.467889
0.418076
1.1373
-0.847623
-0.692521
1.40024
-0.921029
-1.37897
-0.732835
1.06485
-0.197154
-0.698634
1.30726
0.33392
-0.662525
1.32338
-1.02719
-1.20471
-1.02572
-0.725165
0.197279
-0.699671
1.60389
-0.788628
0.416621
-0.828753
1.10482
-0.493858
-0.86172
0.954917
1.02755
1.36165
1.25486
1.48965
-0.655913
1.12408
0.812234
-1.07066
1.26308
-0.123452
-0.523668
-0.547059
1.48315
1.46682
-0.53005
-0.914454
-0.82668
1.31826
-1.02051
0.405935
-0.70883
-0.658239
1.57476
1.32697
-0.789125
-1.08414
-0.792798
-0.736267
1.23737
-0.932337
1.2926
0.5299
1.01495
1.14817
-0.624703
-0.939613
1.25521
-0.651106
0.0482162
1.5894
-0.771152
-0.732421
1.12514
-1.06622
-1.04504
0.0740893
-0.720705
1.66581
-0.409941
0.41035
-0.805248
1.6332
-0.85592
-1.10826
0.950073
-0.678499
-0.829026
1.65105
0.980246
1.30432
-1.04169
1.52195
-0.379963
-0.528305
-1.00962
-1.02058
-0.875834
1.55148
0.881418
-0.739355
-0.839682
-0.696595
1.4416
-1.17762
1.60562
-0.827099
1.05411
-0.698414
0.671873
0.843814
0.80883
0.725761
0.421763
-1.133
1.32495
-0.993848
-0.463833
-0.688435
0.522806
1.65005
-0.0265986
-1.05115
-0.90443
-0.707368
0.561436
-0.889972
-0.690264
1.12487
0.434876
-0.761739
1.72103
-0.698487
-1.29563
1.67327
-0.725432
0.442097
-1.1187
-0.646513
-0.678104
1.69239
-0.631955
1.58789
-0.672361
-0.986873
1.48356
0.0771309
-1.11048
0.871272
-0.709131
0.302286
-0.162832
-0.693698
1.07487
-0.778692
-0.698311
-0.649558
-0.646668
-0.834962
1.11514
0.120221
-0.119777
-0.774119
1.61679
-0.711366
-1.06469
-0.612426
0.0504216
-0.779563
-0.627622
-0.747194
0.187715
1.5361
-0.892259
-0.820454
-1.02526
-0.468505
0.0354097
-0.841209
1.70818
1.63481
0.716995
-0.930705
-0.830345
0.628902
-0.828486
1.71526
0.503237
1.37572
1.00662
1.60926
0.3795
-0.784552
-0.898942
0.219897
-0.993839
0.219039
0.10966
-0.674563
1.61028
0.0423658
0.51576
-0.0447453
-0.80183
-0.963489
)
;

boundaryField
{
    frontback
    {
        type            empty;
    }
    Top
    {
        type            zeroGradient;
    }
    outlet
    {
        type            fixedValue;
        value           uniform 0;
    }
    bottom
    {
        type            zeroGradient;
    }
    Inlet
    {
        type            zeroGradient;
    }
    rectangle
    {
        type            zeroGradient;
    }
}


// ************************************************************************* //
