/*--------------------------------*- C++ -*----------------------------------*\
| =========                 |                                                 |
| \\      /  F ield         | OpenFOAM: The Open Source CFD Toolbox           |
|  \\    /   O peration     | Version:  2306                                  |
|   \\  /    A nd           | Website:  www.openfoam.com                      |
|    \\/     M anipulation  |                                                 |
\*---------------------------------------------------------------------------*/
FoamFile
{
    version     2.0;
    format      ascii;
    arch        "LSB;label=32;scalar=64";
    class       volScalarField;
    location    "4.2";
    object      p;
}
// * * * * * * * * * * * * * * * * * * * * * * * * * * * * * * * * * * * * * //

dimensions      [0 2 -2 0 0 0 0];

internalField   nonuniform List<scalar> 
2186
(
0.753607
-0.383014
-0.0611731
1.04143
-1.20263
0.00843565
0.655487
-1.48255
-1.46839
1.2843
0.999442
-0.898116
-1.35019
1.01313
-0.592182
1.00866
1.02998
-0.901291
0.00500193
-1.21232
1.37714
-0.943894
1.0124
-1.03917
0.999249
1.01774
1.20554
0.873992
0.526249
1.01752
-1.09809
0.996488
-1.60033
-0.0740511
-1.30903
0.0235748
-0.0888047
1.36471
-0.864994
0.00942296
-1.37293
-0.964167
-0.74559
-1.01905
0.857299
1.26847
0.326806
0.497316
0.0053455
-1.75718
-1.11438
0.836601
-0.696838
1.29386
-1.4825
0.922626
-0.815287
0.949044
-0.841811
0.798237
-0.0297467
0.580771
0.488009
0.0178795
0.521484
0.437012
0.603572
1.26695
1.1633
-1.07077
-1.54616
-0.0181561
1.23825
0.976944
1.14802
1.12422
-0.0285888
1.01973
-1.34578
-1.17413
-0.91965
0.0220097
0.99937
0.566282
1.00777
1.00249
1.26921
0.00703713
0.033391
-1.13435
0.926814
-1.73343
0.941258
1.14315
1.00604
0.353089
-0.189251
0.519667
-1.41367
0.962919
-0.175921
-0.355643
0.594719
0.941827
1.03212
-2.06679
1.18029
-0.480882
0.91324
0.128881
-1.02623
-1.79503
0.523121
1.29096
-1.57831
-0.926689
0.0248851
0.0325513
-1.1464
1.24198
-0.126458
-2.00731
0.79476
-0.566855
1.00775
0.0204734
-1.44284
1.11713
-0.757917
0.636885
1.35554
1.20764
0.215103
0.628571
-0.573469
-2.12771
0.895024
-0.704707
-0.339951
-1.50206
0.734244
-0.233002
-1.45432
0.679399
0.913305
0.948552
-0.535734
-1.17826
0.589697
-1.18016
-1.69646
0.560192
1.02078
1.155
1.02061
0.504979
1.2636
0.39455
0.28349
0.403226
-1.47011
-1.50322
0.969488
0.967948
0.00369358
0.010595
-0.831438
-0.883568
0.0336827
0.026156
0.293539
0.96979
1.02888
1.08283
0.349441
-0.252456
-1.05865
0.974293
-0.346367
0.80837
-0.918483
1.00774
-1.3233
0.48234
0.449872
-1.01941
-0.788108
1.09787
-0.37003
-1.18305
-0.764925
1.23563
-0.207278
0.964538
-1.37711
0.108523
-0.0243274
1.15287
1.02988
-0.99488
-2.3152
0.0940151
0.0567629
1.02355
-1.04733
-1.40617
-1.05787
0.037003
0.944793
-0.148394
0.503285
0.0326914
1.27741
0.765915
0.867641
0.929388
1.15067
1.01508
0.875281
1.06347
0.371778
-0.870328
-1.78967
0.0163614
0.167316
-1.04214
-1.371
0.996906
1.11597
-1.38374
-0.875731
0.117219
0.35161
0.630995
0.767967
0.875754
1.09205
-0.166621
0.867074
-1.54954
-1.63761
-0.897865
0.955073
0.661934
1.11751
1.16226
1.07487
1.05304
-1.68527
0.803897
1.08577
-1.60631
0.940621
0.711668
0.118926
-1.88007
-2.14476
1.11947
1.02087
-1.27781
-0.289899
0.0468791
0.930832
-0.540125
0.691048
1.03268
0.908796
-2.37269
-1.29001
0.969072
0.594359
-0.317055
-0.330933
1.32042
-1.4306
-1.5855
0.900248
1.15813
1.0011
-1.26551
-0.151904
-0.739978
0.879096
-1.51198
0.528149
0.975501
1.00937
-0.213738
-0.287151
0.957381
-2.62113
0.912124
1.16725
1.02102
1.02648
0.0565517
-2.35605
-1.15853
-0.0531308
0.0530344
-0.090765
0.359158
-0.571572
0.534339
1.14356
1.17718
0.878852
-0.625267
1.12033
-2.49277
0.0160278
-1.72989
-1.47624
-1.09154
0.333645
-1.7346
-1.51402
0.0642512
0.898898
0.0322625
0.294591
-1.96715
0.0345674
-1.01889
-1.65919
1.20199
-0.122273
0.0308327
-1.70048
0.769651
0.502079
-0.316189
0.545779
0.0888277
-1.18537
0.589149
1.02304
1.03672
0.106924
1.13603
0.867319
0.304604
1.21876
0.997636
0.960324
0.359963
0.00893998
-1.48459
0.819983
-1.15776
-2.009
-2.17435
-0.823104
-1.10903
1.34431
0.0441451
-1.18001
-1.7616
0.99589
-1.01722
0.0427263
-2.49081
0.741839
0.0121198
-0.842332
1.23234
1.29482
1.10105
-1.44624
0.0337487
1.35992
1.00681
-0.739769
0.38187
-1.5812
0.149544
1.15527
0.945858
0.878938
1.28217
-0.54426
0.00235316
0.0259764
-0.0551034
-1.13332
-0.88893
0.0164317
1.28715
-1.27895
-0.888152
0.997612
0.567188
-1.93639
-0.0743053
-1.50667
-1.50648
-1.41673
-1.39138
-2.19882
-1.35413
1.17564
0.0278931
-0.898891
1.01157
-1.95508
1.23693
-0.384413
0.149857
-2.57802
0.9967
-1.14554
1.0149
0.828264
0.0626811
1.02926
-2.08406
-1.25959
-2.21222
0.989678
0.957009
-2.2959
-1.67786
-1.58211
0.944765
-1.26499
-0.149978
0.430612
0.923827
0.917421
0.743013
-2.27833
-0.187879
0.809913
-0.206147
0.821712
0.111293
1.02407
-0.121846
1.1102
-1.14218
0.832652
0.666771
1.03231
-2.64152
0.996987
-0.0289822
-1.25179
0.995663
0.127584
0.120465
-0.851587
-0.136456
0.998851
0.135494
0.279206
0.997898
0.159557
-0.067435
0.0146922
-1.17369
0.251692
-1.30252
0.658793
-0.976242
1.03554
1.10893
-1.80919
-1.36277
0.0166825
-1.00245
0.377953
-0.972854
0.779682
0.00390901
-1.29844
1.07398
0.0269651
0.28714
0.277091
0.00691305
0.739178
0.257284
0.0052694
0.0836118
0.0318115
-0.89035
1.02547
0.100072
1.09634
1.2049
1.19297
0.598393
1.13811
-1.32504
-1.57584
0.88849
0.200812
0.994616
-0.788906
-1.18142
-0.170422
0.759305
-1.27438
0.0904235
-1.06481
-1.11488
0.00712578
-0.299037
0.687276
0.685552
-0.277496
-0.264603
0.733009
0.0498198
1.10589
0.0696148
-0.261988
-1.30644
0.699913
0.0233601
1.14751
1.37555
-0.0391007
-1.37664
-0.855265
0.232707
-0.289352
1.01496
-0.248328
0.972369
0.727318
-1.04897
0.846998
0.810317
0.14627
0.903349
-0.0849514
-1.4722
-0.100138
-1.04203
-0.116323
-0.366606
-0.292566
1.00666
0.140299
-1.56053
0.575126
1.13344
1.19098
-0.356236
0.726038
0.0345746
0.759783
0.0207325
-0.0912609
-1.59144
0.435747
0.765765
1.03037
-0.0546022
-2.36073
-1.17379
-1.09351
-0.147797
0.715127
-0.143243
0.0134036
-0.944553
0.901934
0.0913417
0.953591
-0.0246624
-0.0251562
0.969365
0.678035
-0.0980615
-0.287883
0.966916
1.27035
1.0287
0.0780193
-1.37345
0.786542
-0.00886845
0.7706
-0.671768
0.37769
0.959436
-1.10829
-1.19066
0.986848
-2.57209
1.21533
0.0159665
0.857952
0.026455
0.606652
-1.3864
1.22142
-1.33881
-0.246483
0.920038
0.462254
0.437552
-1.33369
-1.07613
-0.229547
0.767263
0.0227801
-0.245
0.0746948
1.01612
0.325672
-1.64171
0.710295
0.851291
0.980331
-0.00321912
-0.917803
-1.8532
1.01407
1.14673
0.47677
1.00344
0.0400642
1.04435
0.0271465
-0.536724
0.000848815
0.941422
0.98888
-0.582156
0.800968
-1.31956
0.77076
-1.06877
0.96329
0.945754
1.02669
0.0860607
0.882385
-0.456905
-0.428538
1.15562
0.051262
0.0711639
1.09203
-0.708586
1.07409
0.0427735
-1.422
1.00977
0.766781
1.33816
1.00203
-0.910738
1.06142
1.05847
0.0375791
0.56997
0.0397026
-2.09163
1.47222
-1.58576
1.10592
-1.65944
0.296399
0.997954
-1.0986
0.985508
-0.0505275
0.88233
0.972358
1.01608
0.0168405
-1.09594
-0.670364
0.631957
0.725625
1.05338
0.0155461
0.77965
0.0688899
-0.282135
-0.199783
0.819436
1.12398
-1.39279
-2.67147
0.0261959
1.21843
0.0325631
0.680171
0.0326029
-0.0442126
-1.54203
-0.956501
0.056985
0.780005
0.132043
0.0323644
-0.415262
-0.532109
-1.09163
-2.04565
0.0152089
0.971983
1.02046
-1.19922
-0.248144
0.991268
0.932873
1.02138
-0.168492
0.985571
1.04813
0.997222
1.0386
0.107737
0.0220984
-1.21713
0.558229
1.00008
0.693066
0.133442
0.0166579
0.109119
0.0218294
1.23831
0.0208211
0.0247449
-0.652591
0.0210298
-1.39858
0.743959
-1.52248
-1.97745
-1.29971
1.00321
1.00338
1.00473
0.0111125
0.287899
1.2136
0.00867386
1.00479
0.0261165
0.0118372
0.713615
1.01473
1.06196
0.0181238
0.975148
0.979461
-0.181099
0.0222441
1.01082
1.03306
1.0109
-1.37266
-1.12771
1.02141
0.594374
1.00193
0.122013
-0.236123
0.0271432
0.0324065
0.0128876
-2.22202
-0.196834
0.0372717
1.02468
1.03173
0.726736
-1.09688
1.00187
0.0235812
0.00343709
0.00164348
1.00672
1.02153
1.01871
1.03447
1.00622
1.00988
0.997755
0.0236227
0.0230745
0.0203039
0.01436
0.00556693
-0.0026457
-0.00347328
0.0125936
0.0162196
0.0213734
0.0229618
1.00766
1.01905
1.00367
1.03116
1.03113
1.01541
1.02182
1.00378
1.00665
0.00760773
0.0172507
1.0196
1.02151
0.000495963
1.01521
1.01848
0.0182995
0.0182602
0.0197144
-1.04249
0.108982
1.00031
-1.58707
1.01518
0.659087
1.06115
-1.47959
1.00123
0.957084
0.964203
-1.21387
0.0421831
-1.18523
0.0189466
-0.120484
-1.08698
1.01195
0.0264991
1.08325
0.998819
-0.282529
1.15558
1.30945
0.0231802
0.866191
0.651683
1.00106
1.02215
1.00171
-1.70592
0.419747
0.0175997
0.999803
1.01559
-0.979725
0.01699
0.99974
0.0142913
-0.426348
1.00513
-0.159627
0.985104
1.02735
-0.61283
1.01168
0.0238194
1.01923
1.06418
0.138135
1.01604
1.03419
0.0157139
0.65452
1.00353
1.00738
0.059754
-0.929472
0.70452
1.3294
1.01826
1.00533
1.01693
0.0190505
1.00406
1.00423
1.0166
1.01073
1.01331
1.00898
1.09635
0.0436547
-0.0440234
0.996545
1.00563
0.234528
-0.122243
0.0160711
0.0516261
0.888887
-0.336921
0.0657214
0.00944636
1.01138
0.714615
0.0130911
0.0295971
0.0241106
0.026772
-2.49875
0.0194849
0.0747876
-1.70109
-0.458365
1.00829
0.0183411
0.995588
0.936494
-1.62776
1.22873
0.0410855
-2.42552
0.77523
1.11418
0.388698
-1.20439
1.00348
0.0282936
1.00891
-0.410943
1.00722
-2.25367
1.00915
0.0280059
0.00263161
1.0051
1.02424
0.935092
0.0301808
-1.1248
-1.01047
0.0278385
1.02934
0.921547
0.0287099
1.00111
1.03929
0.999338
0.0349285
0.0988197
-0.673109
0.130175
0.358954
1.00394
0.0078092
1.0108
0.00865881
1.00304
1.03072
1.01055
-0.00040013
0.0015667
1.04075
-1.87495
1.01628
1.01912
0.0199189
-1.39437
0.914954
1.12092
1.00559
0.99832
0.0301599
0.0473657
0.975869
0.402256
1.00364
0.832779
-0.961337
-1.49338
0.841184
1.23487
1.00329
0.333508
0.0561961
0.0326463
0.101122
0.0664359
0.987335
-0.071566
0.995567
-0.412006
-1.41284
-1.32731
0.428119
-2.61806
0.0503645
0.0576757
1.00297
-1.199
0.88512
-1.50985
-0.202929
0.0382935
0.0130664
0.0596393
0.973172
0.0286561
-1.10025
0.0486953
-0.766854
0.995882
0.0729711
0.0157245
0.035315
1.06708
0.0412362
-1.5577
1.06686
0.99299
0.985647
0.509364
-0.938681
1.00732
1.02557
0.0465981
-1.52911
1.00211
0.78359
1.23709
1.02656
0.0246609
0.0737793
-1.81108
-0.813245
-0.882003
-1.2848
0.0271529
-2.599
0.7884
-0.0447812
1.01688
1.1961
0.999034
-1.10493
-2.42391
1.00162
0.0746808
0.055335
0.990895
-0.158629
-0.911004
0.0870617
0.0348571
0.953279
0.934885
0.0463728
0.84787
0.647424
0.0976949
0.994298
-1.24874
0.806872
-1.98339
0.981153
0.0919771
0.418184
1.00233
1.07851
0.00809732
-0.0757983
0.832407
1.35898
1.02171
1.00016
0.08579
1.2242
-1.77338
0.0472392
-0.831203
0.461792
0.047574
1.10401
1.14387
-1.52057
0.031258
1
-0.40926
0.844254
1.03114
0.963105
-0.0470454
1.00354
0.00744788
1.03203
0.00308844
0.0487608
-0.233832
1.00692
0.0043025
-0.52246
0.0523069
0.998265
0.0535521
1.17574
0.251625
1.31283
0.968582
-0.596023
0.99438
-1.59973
0.977583
0.976981
0.040033
0.0562981
1.11004
0.995356
1.21203
0.967138
0.077013
0.966861
1.0011
0.855866
1.01172
-2.41655
-1.21628
0.0873533
1.09559
-0.0124287
0.0586219
-1.42946
0.0181071
0.0469649
0.0216651
0.845358
0.0471325
0.96795
1.01289
-1.55669
-1.08776
-0.478422
-0.396376
-1.12164
-1.46062
1.0033
0.0850285
1.01776
1.21911
1.05371
-0.237246
1.02272
0.950676
-0.0873798
0.965178
0.982654
-0.897345
0.993445
0.924657
0.00881294
-0.26184
1.44135
0.0728913
-0.563477
-1.46143
0.224308
0.989733
-0.57253
0.0357003
-1.09115
1.12475
0.0669166
0.834328
1.01335
0.995381
-0.215633
0.981808
0.0775021
1.00883
1.04255
-0.584985
1.01659
0.462493
0.997135
0.698561
0.0445736
0.000916999
0.00601249
0.0245288
1.2266
0.0142842
1.02938
1.38226
0.0163285
0.00114634
1.0615
0.00234237
1.06085
-0.00140666
0.00610332
1.06197
1.06766
0.416634
-1.58682
0.741051
-1.27987
-2.11626
-0.790922
1.02383
0.9993
1.40318
-1.17987
0.0656838
0.732004
-1.07648
1.06861
0.977493
0.999523
0.996151
0.966808
0.0926565
-1.36068
-1.15568
0.805293
0.930411
0.0962801
-1.50443
-1.76614
1.01648
1.03862
-0.0317614
-0.0235143
1.03622
0.0692444
0.234643
0.751408
0.907959
0.0216494
-1.35298
-0.241569
-1.05393
-0.759382
-0.0488331
0.0761418
1.35258
1.35773
-0.997944
-0.946124
1.02634
0.996
-0.993438
-0.0519414
-0.403363
0.630282
1.09049
-0.906768
1.00953
0.0534535
-1.50373
-0.662417
-0.613052
-1.17501
0.985803
-1.02853
-0.533411
1.35205
-1.10647
1.00637
1.21598
-1.51019
1.02959
1.23285
-1.22957
1.23785
-1.19107
-1.73355
1.00942
0.0372292
1.00044
1.01773
-1.26374
1.05866
0.151208
0.122372
1.03824
1.01795
-1.00822
-0.915716
0.946049
1.00903
-1.44369
0.0856445
1.2779
-1.3322
0.914231
0.026725
0.952677
-1.1723
0.125826
-1.50679
-1.15327
1.08586
1.03768
1.27015
1.20122
0.968166
1.06012
1.05662
-1.4909
1.12743
1.12704
-1.41404
-1.40127
-0.872426
1.31859
0.0682029
-1.87647
0.0329114
0.926446
-1.36963
-0.916628
1.01254
1.0072
-1.50239
-1.48156
-1.7903
0.014224
0.0719068
-1.29593
-1.46166
0.877951
0.884261
-1.41605
-0.441856
-0.965349
0.826831
-1.35507
-1.07787
-1.4237
0.934422
-0.906739
-1.47539
1.31004
0.897712
0.428464
1.18004
0.0391696
0.968666
1.01665
1.11623
1.19234
0.0345202
0.661156
0.999158
0.257224
-1.37705
1.4137
0.969998
0.907679
1.05962
-1.45335
-0.446137
0.863074
0.790989
0.98378
0.00836931
0.125287
0.99705
-1.74068
0.821123
0.0342451
1.40871
-1.32776
0.718245
0.734199
-1.28013
-1.284
-1.3961
1.05276
-1.32789
-1.27018
0.696702
0.59545
-0.633933
1.06558
0.835429
-1.37132
-0.812268
0.957465
0.0387215
-1.24145
-2.09107
-1.03757
-0.41713
0.976178
1.01266
0.14634
0.61722
1.01308
1.33328
0.277869
0.256495
-0.0176425
0.879922
-0.48147
-1.23707
0.0516242
-0.647296
-1.20356
0.997473
-1.51669
0.142202
-1.20719
0.524815
0.568366
-1.16057
0.634483
0.00984582
0.495706
-1.12786
0.447134
-1.23641
0.389296
-1.15232
0.360285
-1.09932
0.812978
-0.569283
-1.0751
-1.06033
-1.43692
1.02125
0.0783016
-1.08596
-1.08621
0.00253592
0.15598
-1.45603
-1.64856
-1.14007
-0.138794
-1.09409
-0.170079
-1.14006
-0.392861
-1.23603
-0.323861
0.899987
0.000606057
-0.100822
0.981988
-0.0317959
0.0196338
0.448096
0.997045
-0.831835
0.142976
-1.10043
-0.27505
0.899018
1.40909
-0.0118165
0.0368808
0.0339265
-1.06306
-0.306027
-0.362961
0.97059
-0.908662
0.967547
-0.210923
1.47601
0.486071
1.40141
-1.47234
1.17455
-0.527681
1.00749
-0.418752
-1.1269
1.06162
1.00238
-0.0819696
-1.21269
-1.03768
0.963021
-2.3781
0.988708
-0.504701
-2.15346
-1.52875
1.29561
1.03372
1.09822
1.01426
1.02611
0.0387058
-0.414641
1.19984
-0.0968468
-0.924817
1.40834
-1.79591
0.919415
0.953807
1.36082
1.41133
-2.10389
-1.40834
1.03585
0.231775
-0.503591
-0.953356
0.037763
0.1378
-1.53173
0.596042
-0.423854
1.18536
-0.117699
1.03518
1.12607
1.0306
-0.558831
-1.87381
-0.915472
1.08754
-0.877742
1.16853
-0.712845
-0.75434
1.23175
1.28807
-1.00881
0.0525758
0.96387
-0.725138
-0.806625
0.661243
1.26757
1.21333
-1.484
0.885337
0.832791
-1.13782
1.22498
0.2594
-1.44724
0.036557
0.017124
0.0126046
1.10578
-0.839794
0.230593
0.0267193
0.0293802
-0.792587
-1.52967
0.992988
-0.219825
1.01414
-0.164949
0.0811362
0.706538
0.27693
-1.0939
-0.740387
-1.32427
0.0217329
0.0117869
-0.448576
0.922966
-0.306093
-0.241939
1.00197
-1.05578
-1.45394
1.01713
-2.19447
0.960056
0.012544
-1.88751
-0.320602
0.785393
-1.2228
-0.778069
0.885099
-1.96084
1.07435
-0.647714
-0.827239
-0.986916
-1.16561
1.46818
0.109075
1.1172
0.0169064
0.963529
1.17723
0.713474
1.02545
1.15258
-0.123095
0.00676294
0.986425
1.08466
1.34483
-1.06462
1.04469
0.655523
-1.14882
0.782222
1.19204
-0.68485
1.33827
0.10612
-0.955229
0.82794
-1.22616
-1.07528
0.953195
-0.572407
1.06036
1.04141
0.956866
-1.03719
0.891899
1.2575
-1.06885
-0.401519
0.120306
-1.42455
-0.86871
-1.24068
1.33275
0.743206
-1.19057
0.899329
-1.3004
-0.847992
1.25245
1.22042
-0.427421
-0.564635
-1.17918
-1.93058
0.976556
-1.26471
0.0903486
-1.46213
-0.521952
1.06718
-1.4269
1.38358
1.04876
0.873312
1.02175
1.29812
-0.732423
-1.37088
1.01468
1.13302
-0.795711
1.00731
0.142458
-1.50216
-1.48621
1.07606
1.10652
-1.50895
-1.28386
0.544159
-0.0562491
-1.40383
0.987599
0.94969
-0.402578
0.991321
1.03535
-1.98361
-1.39146
-1.11468
-1.48245
-1.50198
1.29441
0.0372208
0.901401
-1.33602
1.28999
0.891275
0.850356
0.93403
0.123591
-0.00412271
-1.44564
0.502932
-1.48323
0.907382
0.286202
-0.70066
0.854139
0.990304
1.04066
1.00924
0.00168654
1.04501
-0.00148737
0.416407
0.801495
-0.586277
-1.43688
-1.17461
-0.73685
1.01601
0.954478
1.01339
-0.799602
-0.900844
-1.40576
-0.920679
1.01754
1.27884
1.02399
-1.46806
-0.829345
-0.635025
-0.635162
-1.18123
-1.16913
-0.282987
1.00178
-0.871464
-1.39664
0.012367
-0.107874
0.694239
0.134373
-1.36515
-2.31673
0.928689
1.41629
0.016861
1.096
1.47385
0.629928
1.195
-1.43543
0.0245817
1.3768
-1.32172
0.311975
-1.48015
-1.50205
-1.03934
-1.31055
0.977374
0.724417
1.18516
1.1465
0.00468616
0.769995
-0.0120551
0.0193393
-1.26427
1.10652
0.696363
1.01838
1.0368
0.0102902
0.0104624
1.03408
-0.172991
-1.13589
-1.35295
-1.07443
0.593672
-1.26367
0.9669
0.662097
-1.31888
1.21287
-1.51097
-0.429403
1.00099
-0.812854
-0.908246
-0.240376
0.562316
-1.43523
-2.27286
0.89713
1.02963
0.0325571
0.0640799
-0.0766669
-1.22773
0.051536
-1.63823
-0.180731
0.595364
-0.77399
-1.23051
1.25549
0.204902
0.311574
-1.18271
-1.48256
1.00863
1.02928
0.487939
0.530529
-1.14466
-1.00851
-0.943927
0.407183
0.438683
-1.11609
0.848699
0.0809724
-1.08481
1.43575
-1.06471
-0.455745
-1.49649
-0.995601
0.832463
-1.0632
-1.20426
-1.08054
-0.012087
-1.10791
-0.0731601
-0.972145
0.00789248
1.16491
-1.18323
-0.207394
-1.11796
-0.266193
1.33313
1.37616
1.22177
1.01923
1.19842
-0.864476
1.00764
-1.44593
1.02741
-1.08955
-1.73996
1.24389
-0.633026
0.501591
-1.15683
1.38322
-0.0739067
1.32124
0.56083
0.765212
-1.46299
-1.48928
-1.14269
-2.27228
1.30004
1.18176
1.00242
0.65141
1.00273
0.856203
0.787048
-1.03015
-2.01075
0.188424
0.0159118
0.760182
1.0224
-0.0491572
-1.63165
-1.04938
-1.51786
-1.11345
-0.0197095
1.3234
1.03045
1.00234
0.00575634
0.0102565
1.0361
0.0220424
-1.2063
0.0527744
-1.14038
0.748042
-1.3821
-1.15821
-0.330851
1.0017
-0.863501
-1.51789
1.00572
0.603111
0.731526
1.00306
-1.1961
0.843293
1.17651
0.827782
-1.16221
0.99738
0.348907
0.406925
-0.818272
-1.28951
1.43277
0.249133
-1.01916
0.0437681
0.88259
0.956141
-0.974788
-0.671953
0.0178044
-2.07452
-1.01071
-1.18409
0.0193255
0.998237
-1.27425
0.983676
1.26365
1.07414
0.978212
1.06777
1.12984
1.00604
-0.526088
-0.739201
-0.535817
-1.17327
-1.33688
-1.12662
1.13413
1.03194
-1.31164
0.965711
-0.839644
0.042485
-1.08649
0.0365058
0.551688
-2.04351
0.990344
0.879045
-1.76592
-0.455504
1.32387
-1.04445
0.0559813
-2.15591
-1.15259
-1.02198
1.03998
0.739603
1.08483
-0.956914
0.00456208
-1.02239
-0.454305
-1.27916
-0.220579
-0.649133
-0.275882
0.885428
-1.05339
1.43264
-1.33515
-0.586517
-1.10218
-1.10508
0.931688
-1.06436
-0.891767
-1.88747
-0.27836
1.18062
1.20625
0.057158
0.0148992
0.79226
-1.10601
-1.42165
1.09408
-0.982532
-0.0601641
-1.79097
0.716979
-0.437662
-1.23342
0.996677
-0.00462382
-1.61532
1.00472
-0.839892
-0.32862
-1.19771
-1.1552
-0.0661422
-1.2317
1.30367
-1.33712
0.177593
-1.09723
0.759344
-1.59087
-0.835234
0.604056
0.75984
1.05607
0.971354
1.16293
-1.06889
0.856352
0.567427
-0.796006
0.920851
-0.491921
-1.92907
-0.521472
1.16589
1.15324
-1.44832
-0.830723
-0.800111
0.992067
-0.870847
0.0887295
-1.61751
-1.1591
1.26717
0.991924
-1.48241
-1.04593
-1.61918
-1.43286
0.905502
-1.49501
0.956711
0.175145
0.666558
0.804587
-0.987037
-0.834299
0.916535
-1.12848
0.0110571
1.26736
-1.44255
-1.42822
0.784964
-0.945246
-1.12846
-0.186203
-0.97397
1.34087
-0.682737
0.169901
-1.49417
1.28382
-1.4767
-1.01062
0.598593
-1.57072
-1.11243
1.32181
0.629958
0.991224
-1.17114
1.21794
0.0288321
-1.06457
-1.24319
-1.24044
-1.46647
1.25065
0.527228
-1.54611
-1.49411
-1.16083
1.10894
-0.890409
1.26033
-1.11997
0.69763
-1.34444
0.31317
0.488313
0.45249
0.367711
0.177385
-0.938416
0.988358
-1.27383
-0.845558
-1.77068
0.28456
1.30064
-0.290816
-1.10186
-1.54584
-1.37156
0.201767
-1.30963
-1.31788
0.832494
0.204482
-1.45873
1.36566
-1.19898
-0.220383
1.34468
-1.40846
0.0823112
-0.874953
-1.11351
-1.27502
1.34042
-1.02592
1.26439
-1.24748
-0.856715
1.15654
-0.196808
-0.954669
0.517198
-1.00678
-0.0601892
-0.446413
-1.33137
0.798583
-2.49307
-1.36946
-1.13528
-1.10351
-1.08408
0.838843
-0.244697
-0.378465
-1.47462
1.29163
-0.934104
-1.09226
-1.01028
-0.188378
-1.21806
-0.982829
-1.45427
-0.09365
1.23283
-1.49967
-1.07011
-1.35248
-0.920932
-0.330097
-1.09503
1.37569
1.31189
0.359351
-0.817504
-1.09042
0.269598
-1.07997
1.3879
0.143329
1.05536
0.658064
1.26538
0.0197645
-1.2199
-0.802142
-0.144394
-1.26853
-0.143258
-0.12493
-1.26651
1.28797
-0.22856
0.156052
-0.325348
-1.00642
-0.822797
)
;

boundaryField
{
    frontback
    {
        type            empty;
    }
    Top
    {
        type            zeroGradient;
    }
    outlet
    {
        type            fixedValue;
        value           uniform 0;
    }
    bottom
    {
        type            zeroGradient;
    }
    Inlet
    {
        type            zeroGradient;
    }
    rectangle
    {
        type            zeroGradient;
    }
}


// ************************************************************************* //
