/*--------------------------------*- C++ -*----------------------------------*\
| =========                 |                                                 |
| \\      /  F ield         | OpenFOAM: The Open Source CFD Toolbox           |
|  \\    /   O peration     | Version:  2306                                  |
|   \\  /    A nd           | Website:  www.openfoam.com                      |
|    \\/     M anipulation  |                                                 |
\*---------------------------------------------------------------------------*/
FoamFile
{
    version     2.0;
    format      ascii;
    arch        "LSB;label=32;scalar=64";
    class       volVectorField;
    location    "31.9";
    object      U;
}
// * * * * * * * * * * * * * * * * * * * * * * * * * * * * * * * * * * * * * //

dimensions      [0 1 -1 0 0 0 0];

internalField   nonuniform List<vector> 
2186
(
(1.32175 -0.0663203 1.89082e-19)
(1.65503 -0.964741 -1.11876e-19)
(1.49567 -0.940356 -2.4812e-22)
(0.764203 -0.605862 -1.28996e-19)
(-0.0809359 0.247132 -1.63093e-19)
(1.41177 -0.14561 0)
(0.748896 -0.692114 0)
(-0.227222 -0.274236 1.2342e-19)
(1.4934 -0.196967 2.0511e-19)
(0.572412 -0.339557 -2.51919e-21)
(0.65983 0.594435 0)
(0.858413 -0.284338 -1.52974e-19)
(-0.248902 -0.259974 -4.87301e-20)
(1.21148 0.0218721 -3.35422e-19)
(1.84483 -0.702671 -1.18003e-19)
(1.01201 -0.00449388 1.59692e-19)
(0.979385 0.0117947 0)
(-0.300013 0.410513 0)
(0.961108 0.231879 0)
(-0.124338 0.17607 -5.86951e-20)
(0.481473 0.0560007 -1.06776e-19)
(-0.159048 0.19708 8.12866e-20)
(1.19728 0.0256493 2.77511e-19)
(-0.206138 -0.0699233 6.24892e-21)
(1.03487 0.00496294 -2.18285e-19)
(0.81547 -0.580591 0)
(0.764599 -0.0517054 1.32387e-19)
(0.63533 -0.614765 -1.45456e-19)
(1.1896 0.69885 0)
(0.966451 0.0231753 -2.98026e-19)
(-0.0632257 0.0829598 0)
(1.02725 -0.0139425 1.03211e-20)
(-0.207098 0.0248429 0)
(2.04006 0.170336 1.87191e-19)
(-0.123738 -0.190726 1.56163e-21)
(1.51121 0.762798 7.48154e-20)
(1.83532 0.0825303 1.34828e-19)
(0.504754 0.104934 -3.18757e-19)
(1.85731 0.249482 -2.30305e-19)
(1.47572 -0.00809326 3.30914e-21)
(-0.277207 -0.258196 0)
(-0.104947 0.144269 0)
(1.93132 -0.90271 1.02323e-19)
(-0.381028 0.101409 0)
(1.09627 0.271906 1.44811e-19)
(0.614405 -0.320786 2.56796e-19)
(0.952566 -0.811763 0)
(1.21868 -0.811316 8.43253e-20)
(2.18502 0.0503679 0)
(-0.125701 0.440382 1.45402e-19)
(-0.0618432 0.11119 8.67118e-20)
(0.612474 0.565199 7.65831e-20)
(2.12364 -0.777497 1.28787e-19)
(0.58375 0.24459 -2.57263e-19)
(-0.31443 -0.160539 3.16897e-20)
(0.789855 -0.674259 0)
(1.71504 -0.996309 1.95566e-20)
(0.60484 -0.564302 0)
(2.21903 0.229063 6.72732e-20)
(1.15483 -0.176762 -3.06386e-19)
(2.15324 -0.0948646 1.86536e-19)
(1.32834 0.299127 -1.70466e-19)
(1.32568 0.526902 0)
(1.75284 -0.0454183 -3.62627e-21)
(1.34791 0.385116 -1.0498e-19)
(1.28316 -0.754941 -1.12191e-19)
(1.1496 0.649693 5.05478e-20)
(0.677933 0.0474199 -5.14595e-19)
(0.817371 0.0383298 0)
(2.3094 -0.173634 -7.67822e-20)
(-0.232678 -0.295149 -1.45744e-19)
(2.54227 0.0506645 -1.99401e-19)
(0.729482 -0.0623411 -2.25565e-19)
(0.899344 -0.539569 0)
(0.819663 0.161034 -8.39997e-20)
(0.571387 -0.532621 -2.64448e-19)
(2.39089 0.0214064 0)
(1.00716 0.00817324 3.27874e-19)
(-0.118628 -0.228121 0)
(1.97223 0.346317 0)
(0.60485 0.316729 6.67162e-20)
(1.49808 -0.0820076 -2.37733e-20)
(1.0236 0.00441885 3.62309e-20)
(1.29653 0.406633 2.63568e-20)
(0.974112 0.0220436 3.79383e-19)
(1.04271 0.0254929 -9.01688e-21)
(0.661212 0.150626 -3.09076e-19)
(1.10797 -0.0411869 5.92535e-21)
(1.34957 -0.231397 0)
(-0.0723264 -0.0672113 1.12394e-19)
(0.887251 -0.645815 -1.4063e-19)
(-0.106549 0.0504157 -9.81359e-22)
(1.12785 -0.0823384 2.17717e-19)
(0.830909 -0.203725 0)
(0.974958 0.0225731 3.63622e-20)
(1.34198 0.63518 0)
(1.66606 -0.977839 0)
(1.28771 0.219209 0)
(-0.117745 0.389328 0)
(0.818275 -0.690944 2.52503e-19)
(0.548266 0.337222 -2.27525e-19)
(0.576348 0.377036 1.35756e-19)
(1.55107 0.191255 0)
(1.15994 -0.107143 -1.99027e-19)
(1.12425 0.0228625 1.62271e-19)
(-0.178407 0.203163 1.05392e-19)
(0.618598 0.483249 0)
(2.26419 -0.173112 -1.41516e-19)
(0.989183 -0.498721 7.06443e-20)
(-1.17048 0.311246 2.08542e-19)
(1.70798 0.310359 1.08549e-19)
(-0.0781939 0.320823 -2.30392e-19)
(0.844622 -0.767979 0)
(0.548959 0.321008 1.56583e-19)
(1.76546 -0.2159 -6.01925e-19)
(-0.199148 -0.0645427 -4.57881e-19)
(1.66014 0.397777 2.02769e-19)
(1.80646 0.0610712 0)
(-0.096276 -0.0935293 -3.36015e-19)
(0.715698 -0.0981687 7.10909e-20)
(1.53189 0.866356 0)
(-0.0868952 0.479664 -1.9044e-19)
(0.865938 0.743338 -2.57673e-19)
(-0.470857 0.399772 2.79491e-19)
(1.02834 -0.026431 0)
(1.60431 0.322628 -2.5549e-19)
(-0.0642586 0.274377 0)
(0.721134 -0.519124 -9.45097e-20)
(-0.354184 0.38777 -1.51426e-19)
(0.816601 -0.745824 0)
(0.455788 -0.311394 3.75476e-19)
(0.565752 -0.482281 2.49356e-19)
(0.428901 -0.388516 0)
(1.01449 -0.806849 -9.93556e-20)
(0.447796 0.244434 0)
(-0.0802718 0.495511 -1.14012e-19)
(0.838902 -0.723227 1.19029e-19)
(2.41292 -0.232838 3.25858e-19)
(2.15489 0.193024 0)
(-0.141172 -0.189851 0)
(0.666882 0.61931 -3.21513e-19)
(1.82947 -0.640337 2.28671e-20)
(-0.169114 -0.191646 0)
(1.01421 -0.832569 -1.10232e-20)
(1.16161 -0.10151 0)
(1.09307 -0.12981 3.45629e-19)
(2.08911 -0.146714 -1.40515e-19)
(-0.111776 0.319173 0)
(1.25234 -0.570283 -4.33684e-20)
(-0.30112 0.183629 -3.95353e-20)
(-0.0186672 0.0785978 0)
(1.1252 -0.839164 1.29776e-20)
(1.0071 0.00411967 -5.47725e-19)
(0.675192 -0.50554 -9.33836e-21)
(0.842335 -0.539707 0)
(1.23246 -0.752541 -7.17369e-20)
(0.645169 0.211144 2.41094e-19)
(1.2016 0.119677 0)
(1.47449 0.0813212 -2.42358e-19)
(1.23057 -0.881431 -1.36352e-19)
(-0.133677 -0.181294 -1.21751e-19)
(-0.361678 -0.15853 -1.95266e-19)
(1.06508 0.00273311 2.0737e-19)
(0.943037 -0.484984 -8.88338e-20)
(0.808965 0.0481302 -5.48529e-21)
(0.360029 0.329224 -4.06833e-20)
(0.766111 -0.124803 1.3643e-19)
(-0.114995 -0.087181 -3.0824e-19)
(2.02652 -0.331582 0)
(2.5722 -0.442751 1.5693e-19)
(1.42174 0.637392 1.31211e-19)
(0.834887 -0.638311 -1.84195e-19)
(0.995619 0.00801151 1.12222e-20)
(0.746512 -0.555258 2.59788e-19)
(1.27958 0.786058 1.19664e-19)
(1.80385 0.0728619 1.21484e-20)
(-0.139634 0.315777 0)
(1.08013 0.050601 -2.15496e-19)
(-0.627784 -0.0362259 -2.35333e-19)
(1.05288 0.477196 7.47321e-20)
(0.135447 -0.137554 1.86256e-19)
(1.1645 0.0263524 -3.87964e-20)
(-0.211202 0.0321501 -1.42221e-19)
(1.27218 0.571846 -7.31118e-20)
(1.11371 0.86795 0)
(-0.175509 0.335379 -8.94256e-20)
(-0.0555232 0.000153673 0)
(0.6344 0.543115 -2.59073e-19)
(2.06628 0.18375 -1.62494e-20)
(-0.259358 -0.202604 1.60038e-19)
(-0.351744 0.194861 -5.48913e-19)
(0.722862 0.0491009 2.26038e-19)
(1.92344 0.170661 -3.86915e-20)
(1.00294 -0.363342 -2.62843e-20)
(-0.0884205 -0.102614 0)
(-1.10992 0.47676 3.52773e-19)
(1.29895 0.951668 -1.90992e-20)
(0.836147 0.0542931 -1.23922e-19)
(0.538436 0.504859 1.80418e-19)
(0.434315 0.193833 0)
(-0.176546 -0.316795 -2.39398e-19)
(-0.963725 0.723991 3.04316e-19)
(1.33415 -0.984963 1.3899e-22)
(0.993306 -0.0431214 -1.69701e-19)
(-0.166549 -0.168578 6.22008e-21)
(0.0264646 -0.0174005 1.3707e-19)
(-0.235035 -0.211776 -2.17024e-19)
(1.90389 0.0189807 0)
(1.12363 0.0419894 -2.90076e-19)
(2.44727 0.167024 2.03793e-19)
(1.30696 -0.63787 7.31211e-20)
(1.02804 -0.092939 2.42557e-20)
(0.577956 0.299971 0)
(0.922323 0.732352 -1.52619e-20)
(0.664929 0.611278 1.72282e-19)
(0.923972 -0.586441 1.27339e-19)
(0.666296 0.479464 0)
(1.02426 -0.00177696 7.28842e-21)
(0.910046 -0.687886 1.81049e-19)
(0.82249 0.403604 -4.23891e-19)
(1.22895 -0.110758 0)
(-0.0757954 -0.05144 -3.21515e-19)
(-0.126313 0.0615306 -8.91756e-20)
(1.55989 0.70923 0)
(1.38827 -0.964539 -1.18967e-22)
(-0.272986 0.432266 0)
(-0.0477063 0.184356 1.02333e-19)
(0.716475 0.633461 -9.14256e-20)
(0.863061 -0.236647 0)
(-0.202548 -0.172355 0)
(1.66421 -0.46974 0)
(-0.799712 0.466118 4.85276e-19)
(1.24816 -0.909615 8.95867e-20)
(1.20779 -0.624355 4.81558e-20)
(1.07249 -0.178229 -1.37393e-19)
(0.907266 -0.717896 -1.42011e-19)
(0.195902 -0.200218 0)
(-0.671217 0.381998 0)
(1.02916 -0.530671 1.4691e-19)
(-0.16627 -0.218862 0)
(-0.106483 0.452716 0)
(-0.198051 -0.0364793 3.93754e-19)
(0.772521 0.651562 7.93154e-20)
(0.990616 0.775829 0)
(0.677573 0.532395 -7.89848e-20)
(0.835262 -0.0624809 -2.02257e-19)
(0.726532 0.541762 -2.11274e-19)
(0.573182 0.532148 -1.55403e-19)
(-0.20958 -0.313695 4.37144e-22)
(0.744959 -0.668405 0)
(0.892776 0.158218 -2.95653e-19)
(-0.265455 -0.305989 6.51916e-20)
(0.585121 0.542364 3.50649e-19)
(0.935034 0.778438 0)
(-0.193969 0.214208 3.34225e-19)
(-0.117529 -0.239131 3.73767e-19)
(-0.0891431 -0.0918861 -1.94488e-19)
(0.644568 0.549115 -1.37276e-20)
(0.969207 -0.00876284 5.31345e-20)
(-0.284139 -0.215702 0)
(2.19096 0.0171122 -3.18218e-19)
(2.03091 -0.251296 -4.83226e-19)
(0.677662 -0.628093 -6.43683e-20)
(-0.224479 0.449979 9.30284e-21)
(1.17318 0.448216 1.68789e-19)
(0.870215 0.39508 0)
(1.07135 -0.182649 1.65933e-19)
(0.00860681 -0.283312 -1.4332e-21)
(-0.120973 0.0279124 3.30062e-19)
(0.924944 0.017328 -4.67405e-20)
(1.10297 0.141883 0)
(1.8593 0.000355393 -3.25611e-19)
(1.85754 0.0870933 0)
(0.535066 0.223173 -4.22547e-19)
(0.0305175 -0.0161401 0)
(-0.223474 -0.291473 2.8637e-19)
(0.710655 0.104471 0)
(0.645091 -0.539511 -1.60402e-19)
(1.14605 0.0165759 1.8574e-19)
(-0.13343 0.386716 3.56802e-20)
(2.15525 -0.0418288 9.5153e-21)
(2.16027 -0.230233 -1.54041e-19)
(1.09895 0.219946 -2.01492e-19)
(-0.274983 -0.285724 -1.24008e-19)
(1.10705 -0.877068 0)
(0.81689 0.0177974 -1.3523e-19)
(0.949122 -0.396581 -2.52725e-19)
(1.7567 -0.587727 -1.0089e-20)
(1.77175 -0.00865963 3.02014e-19)
(1.07188 -0.00909463 3.46763e-19)
(0.0203222 -0.29231 -1.78577e-19)
(1.01905 -0.457051 -1.07203e-19)
(0.206285 -0.198746 2.26996e-19)
(1.00784 -0.0086942 0)
(1.00473 -0.00747296 0)
(1.24971 -0.107063 2.12909e-19)
(-0.0583863 0.41103 -8.00982e-20)
(0.187955 -0.118297 -1.62007e-19)
(2.05337 0.0427133 -9.24702e-21)
(1.17776 0.141095 0)
(1.775 0.166673 -1.28702e-19)
(0.975066 -0.848804 -5.4606e-20)
(1.83826 -0.574656 -9.72682e-20)
(1.08133 0.818209 0)
(0.493136 -0.475534 0)
(0.585618 0.496403 -1.64271e-19)
(1.08209 0.270114 -3.7271e-19)
(2.26608 -0.234088 4.92139e-22)
(0.856578 0.142575 1.26766e-19)
(-0.0743645 -0.291611 -5.05332e-19)
(1.6473 -0.359552 -5.2417e-20)
(-0.372837 -0.15936 0)
(-0.141706 -0.198206 0)
(-0.288899 -0.121606 0)
(1.37492 -0.743747 -5.07143e-20)
(-0.024876 0.0797933 -1.94218e-19)
(0.00938857 -0.0327608 0)
(1.26045 0.953403 -3.18398e-20)
(1.09859 0.141984 -3.85772e-19)
(1.99144 -0.0112936 -3.4381e-20)
(1.0539 0.899771 7.81073e-20)
(-0.089064 0.26466 1.17469e-19)
(1.26858 -0.170292 0)
(-0.275824 -0.0725936 -3.29824e-19)
(-0.056161 0.229517 2.25198e-19)
(0.776038 0.0112616 1.66126e-19)
(1.5023 0.928098 -3.76452e-21)
(1.38416 -0.0915371 -1.39377e-19)
(-0.126388 0.0323953 -1.424e-21)
(0.772419 -0.70484 -3.03648e-20)
(1.1044 -0.0219466 0)
(1.69487 -0.0535249 0)
(1.06533 0.0525937 0)
(-1.24701 0.365397 -2.19332e-19)
(-0.317095 -0.118735 1.17255e-19)
(1.02278 0.824296 0)
(1.00195 -0.0106782 4.56027e-19)
(0.747843 0.584231 -2.11973e-19)
(-1.1385 0.387247 -1.91853e-19)
(0.861256 0.00155167 -3.71288e-20)
(0.73967 -0.675732 -1.83961e-19)
(1.35988 0.695483 -3.0182e-20)
(0.586821 -0.478447 -2.60102e-19)
(1.12418 -0.000168109 -4.13695e-19)
(0.817617 0.0371869 3.94045e-20)
(1.55378 -0.17533 4.08975e-20)
(1.87833 -0.115631 -1.37551e-19)
(-0.10175 -0.117787 -3.6536e-22)
(1.06006 0.453576 -2.48182e-19)
(1.29206 0.600064 6.81124e-20)
(-0.149761 -0.168994 0)
(-0.154287 -0.202745 1.86039e-19)
(-0.0937773 -0.0404467 1.35774e-19)
(-0.16345 -0.158875 -1.55774e-19)
(0.457587 0.283479 0)
(1.54236 -0.291496 0)
(-0.024603 0.0191889 -1.19931e-19)
(-0.233453 -0.33207 -6.73837e-20)
(1.04449 -0.0319591 1.63893e-19)
(-0.110561 0.25277 -4.26165e-20)
(1.40482 0.120576 -4.05915e-19)
(-0.139574 0.370547 0)
(0.861075 -0.763672 -2.44487e-19)
(1.60376 -0.137669 2.23244e-19)
(-0.486783 -0.145835 1.58102e-19)
(0.711968 0.135762 3.01136e-19)
(0.617163 0.107096 9.75459e-20)
(0.522822 -0.495776 1.7748e-19)
(-0.185954 -0.218409 -1.50292e-19)
(1.44594 -0.302958 0)
(0.374395 0.315113 -1.79947e-19)
(1.02785 -0.0175149 -2.60623e-19)
(-0.372885 0.199635 2.16999e-19)
(1.39327 0.471598 -1.12254e-19)
(-0.178892 -0.248782 -5.86959e-20)
(0.713304 -0.651117 -1.77031e-20)
(0.805813 0.167727 -1.89264e-19)
(0.960075 0.409541 2.11691e-20)
(1.1677 -0.148412 2.96751e-20)
(0.621791 -0.257996 -2.69391e-19)
(2.05697 -0.355108 -2.07284e-19)
(2.01585 -0.031618 0)
(1.87801 -0.0877803 -3.85535e-20)
(1.57068 0.0665984 -1.19179e-20)
(0.825896 -0.166189 1.41783e-19)
(0.9184 0.354407 -1.70144e-19)
(1.80457 -0.137205 3.78467e-20)
(0.400818 0.366468 -2.33529e-19)
(-0.0657071 0.463413 1.58214e-19)
(2.14162 -0.0999709 0)
(0.935447 0.00582114 0)
(0.902327 -0.798648 4.50553e-20)
(-0.108039 -0.275153 -4.09558e-19)
(-0.506136 0.417147 -1.87511e-19)
(-0.121689 -0.147917 -2.56308e-19)
(-0.175995 0.466616 -1.23056e-19)
(-0.406463 -0.158051 0)
(-0.135377 -0.178423 4.64557e-20)
(-0.199111 0.22308 -8.11793e-20)
(0.0241661 -0.011822 -3.12395e-19)
(0.813896 -0.131148 0)
(1.85567 -0.356763 2.13026e-19)
(-0.109368 -0.090624 0)
(0.995573 0.0237226 3.29333e-19)
(-0.241604 -0.212824 1.92946e-20)
(0.562543 -0.450586 3.48578e-19)
(-0.587817 -0.108928 3.89979e-19)
(-0.946902 0.223669 0)
(0.0157795 0.322134 8.01314e-20)
(1.00538 0.0210153 -9.89115e-21)
(-0.0512272 -0.146569 0)
(1.00498 -0.00957469 -5.14856e-20)
(0.887695 -0.750747 -2.38239e-19)
(1.39744 0.00876909 0)
(0.951353 -0.288316 1.80647e-19)
(0.0216312 0.486268 1.5896e-19)
(-0.0643242 -0.0679246 0)
(-0.226837 -0.270163 -6.72984e-21)
(0.750959 -0.657189 -3.65681e-19)
(0.966499 -0.0260608 -2.33376e-19)
(-0.0940007 -0.292123 4.95683e-19)
(-0.195284 -0.29025 1.78673e-19)
(-0.379217 -0.158642 0)
(0.941451 0.458658 0)
(-0.377449 -0.204834 2.05611e-19)
(1.91226 0.105322 -2.03899e-19)
(1.05026 0.875345 1.74469e-20)
(1.06174 0.203773 -1.12962e-19)
(1.14295 0.00646038 -1.9047e-19)
(1.0634 -0.0741418 -6.51351e-20)
(-0.0924941 -0.324953 -4.49461e-19)
(1.89748 0.116989 3.97766e-19)
(0.671167 0.0328607 1.89912e-19)
(1.75149 -0.00969752 1.49261e-19)
(1.06236 -0.159937 0)
(-0.709769 0.329136 3.8322e-19)
(1.14452 0.0248929 -4.46334e-19)
(1.71982 0.609206 1.00322e-20)
(0.763949 -0.478136 -1.41643e-19)
(-0.0960322 -0.0927825 2.51195e-19)
(0.824058 -0.723647 3.14971e-19)
(1.22338 0.192367 6.86346e-20)
(1.00661 -0.00841136 2.28132e-19)
(0.00868584 -0.32962 -1.92388e-19)
(1.01995 0.0125042 0)
(1.65131 0.0493558 -2.22887e-19)
(-0.0827979 -0.0841499 0)
(1.01391 0.0119465 -1.33785e-19)
(-0.697445 0.194189 -5.39571e-19)
(1.71929 0.304204 3.41703e-20)
(-0.153324 -0.0147864 1.71941e-19)
(1.59097 0.0151727 -1.12756e-21)
(1.01344 -0.0196264 4.72984e-20)
(1.30664 -0.0856403 0)
(1.47866 -0.622958 -8.48172e-20)
(1.01933 0.0289055 -1.40486e-19)
(1.4142 0.774585 -5.421e-20)
(1.31804 -0.0278123 0)
(1.41704 0.553831 4.81309e-21)
(-0.0342795 0.0236569 0)
(1.38951 0.0488599 0)
(-0.315533 -0.180233 0)
(1.22478 0.43725 0)
(1.82673 0.272679 3.98124e-20)
(0.721497 0.596844 3.71547e-19)
(0.305176 -0.307202 -2.10058e-19)
(-0.218346 -0.332367 -4.19799e-19)
(-0.0930356 -0.109865 0)
(2.58147 -0.260987 1.87082e-19)
(1.31109 0.514722 0)
(1.44078 0.289619 0)
(-0.287214 -0.0416029 1.44509e-19)
(0.787839 0.695677 1.19881e-19)
(1.71698 -0.0174763 0)
(-0.235033 -0.241798 9.35447e-20)
(0.898626 0.204318 1.7356e-19)
(2.22822 -0.222807 -1.35549e-19)
(1.21561 0.908144 4.24124e-20)
(0.952532 -0.857087 -2.01796e-20)
(1.84738 -0.084953 -9.60777e-20)
(0.773894 0.699032 1.23172e-19)
(1.15294 0.905879 0)
(2.4195 -0.0230042 2.21353e-19)
(0.897548 0.852003 0)
(1.60047 -0.498975 1.32149e-19)
(1.02256 0.0970231 1.80774e-19)
(1.00528 -0.00632326 0)
(-0.0880809 0.892463 3.63559e-19)
(0.901893 -0.188913 4.22502e-20)
(0.651226 -0.433229 0)
(0.689595 -0.406264 1.88369e-19)
(1.21777 0.545513 -3.13531e-20)
(0.458831 0.432021 2.57251e-19)
(0.0206106 0.00959283 3.73179e-20)
(-0.00740767 -0.100405 8.60983e-20)
(0.765616 0.0607588 0)
(1.35831 -0.924941 -2.92774e-20)
(1.03076 -0.0454457 3.64187e-19)
(1.49083 0.341157 1.34823e-19)
(-0.239169 -0.209094 8.01304e-20)
(-0.657942 -0.0100629 0)
(1.25181 -0.246875 -9.36457e-20)
(-0.0667121 -0.0710896 -2.14139e-19)
(-0.209381 0.449091 -4.34453e-20)
(-0.131296 0.0571048 -7.92415e-22)
(-0.19788 0.0967703 2.7233e-19)
(0.251757 -0.119986 -1.68599e-20)
(2.39774 0.00342122 4.26154e-19)
(1.17228 0.450972 -2.72183e-19)
(0.848368 -0.0553821 0)
(1.87064 -0.111441 1.91008e-19)
(1.88721 0.0749698 1.34076e-19)
(0.939325 -0.789733 1.14454e-19)
(1.19178 -1.00429 -1.12209e-20)
(0.463322 0.429603 1.72753e-19)
(1.63542 0.647561 0)
(1.7296 0.569479 2.51793e-20)
(-0.0793979 -0.0927805 -4.35741e-19)
(0.863897 0.753176 0)
(1.70296 0.0486877 0)
(0.306719 -0.306403 -4.00611e-21)
(0.30704 0.275953 0)
(-0.888469 0.22091 -3.38496e-19)
(-0.00464158 0.0780222 -1.06712e-19)
(1.77917 -0.437707 0)
(1.23036 0.0875876 1.77955e-19)
(-0.50372 0.491192 1.56276e-19)
(0.555179 -0.527779 -4.00543e-19)
(1.85791 -0.0369633 -5.50554e-20)
(0.634618 -0.57669 0)
(1.01824 0.122526 0)
(1.38702 -0.267398 0)
(1.10779 0.218886 -2.1497e-19)
(1.3392 0.104316 3.04317e-19)
(-1.00928 0.396488 0)
(0.891098 -0.0601528 0)
(2.168 -0.0766916 -1.17208e-20)
(-0.0471896 -0.0125204 9.21685e-20)
(2.37061 0.0904458 -2.65707e-19)
(1.10778 -0.530269 2.25708e-19)
(1.97095 0.0718684 -3.10422e-19)
(-0.514422 0.352776 -1.15719e-19)
(1.91849 0.0905279 -1.62844e-19)
(1.0195 -0.0273214 3.70781e-19)
(1.49253 0.592622 0)
(-0.0576511 0.230801 2.89224e-20)
(1.03387 -0.853914 1.3424e-19)
(0.860259 -0.032426 4.33992e-20)
(0.656501 -0.455828 0)
(1.95319 -0.545188 1.07769e-20)
(1.22977 -0.200046 1.20555e-19)
(1.89725 -0.426343 0)
(0.630069 -0.585653 3.6209e-19)
(1.53489 0.0232014 -5.77086e-20)
(2.25126 0.10011 4.17689e-19)
(-0.0240551 -0.00912336 -1.92855e-19)
(1.30944 0.606969 1.40257e-19)
(1.13129 0.396617 3.41627e-21)
(0.89138 0.356773 2.07791e-19)
(1.9307 0.354435 -2.31109e-19)
(-0.0949564 -0.340915 -2.77794e-21)
(0.835174 -0.16586 0)
(-0.138138 -0.113335 4.1181e-19)
(1.12673 -0.979939 0)
(1.0925 -0.672876 1.75743e-20)
(0.972411 0.0128138 -6.54948e-19)
(1.02515 1.08262 3.57213e-20)
(-0.45559 -0.0633479 -3.7203e-19)
(0.970828 0.469782 1.62899e-19)
(-0.339085 0.904622 2.42423e-19)
(0.689394 -0.0405788 0)
(2.09082 0.00831097 0)
(1.24699 -0.00653604 9.29559e-21)
(0.786481 -0.00900461 0)
(1.37739 -0.209634 -1.2405e-19)
(-0.742186 0.321024 4.02932e-19)
(1.90024 0.49714 8.42348e-21)
(1.03969 -0.0347845 0)
(0.572655 -0.375914 9.23243e-20)
(1.00949 0.0263892 1.76793e-19)
(-0.148638 0.592704 -1.05811e-19)
(-0.198293 0.495875 0)
(1.13408 -0.491045 4.00736e-19)
(2.06003 -0.105248 -7.06621e-22)
(1.1245 -0.514173 -1.74689e-19)
(2.27147 0.266667 1.28665e-19)
(1.26574 0.775917 0)
(0.867244 0.0203425 0)
(-0.259197 -0.160807 -1.97913e-19)
(-0.0254139 0.0123333 1.34955e-19)
(0.935967 0.35318 -1.92139e-19)
(0.142677 -0.314097 -1.72891e-19)
(0.631982 0.385968 2.24434e-19)
(1.37001 0.579368 0)
(0.559383 -0.520215 0)
(-0.149859 -0.494274 -8.77393e-21)
(1.25847 -0.522339 -7.82056e-20)
(0.767881 -0.069294 1.70279e-20)
(0.739526 -0.177259 1.06333e-19)
(-0.0716646 -0.00220911 -2.41794e-19)
(0.954307 0.197129 1.86979e-19)
(0.642878 0.598876 0)
(1.24889 0.683265 0)
(1.59837 0.258187 0)
(-0.429672 -0.116891 -1.73177e-19)
(1.22998 0.546595 1.85372e-19)
(2.00152 0.0718648 5.3713e-20)
(0.919733 -0.0114833 0)
(2.60795 -0.487773 0)
(2.12239 -0.0545458 -2.98654e-19)
(-0.101368 0.351673 1.28413e-19)
(1.00525 0.00260864 -1.77094e-19)
(1.478 0.472975 0)
(-0.098613 0.477905 0)
(1.22476 0.310816 2.68251e-19)
(1.00594 0.513907 -1.21147e-19)
(1.06741 0.0227055 0)
(1.85824 0.237852 0)
(1.95488 0.659914 -2.72832e-19)
(-0.103791 0.0899783 -2.10809e-22)
(0.996937 0.0119199 0)
(0.691802 0.452429 -3.09377e-20)
(0.965376 -0.851075 0)
(1.00122 0.014797 4.10221e-20)
(0.330424 -0.78005 -2.64812e-19)
(0.921694 -0.338736 2.65266e-19)
(-0.217999 -0.456351 1.8381e-19)
(2.12841 -0.0831745 4.0451e-19)
(1.57421 -0.00345176 1.06144e-19)
(0.795107 -0.0238062 0)
(1.01912 0.0082599 0)
(-0.49068 -0.19222 0)
(0.647532 0.619657 -1.76214e-19)
(-0.0448639 -0.0100612 1.63304e-19)
(1.15455 0.341209 -4.29729e-19)
(-0.195087 0.359485 0)
(0.81026 0.624908 1.56339e-19)
(1.02702 -0.349195 0)
(1.00551 -0.00220187 1.03719e-19)
(-0.323553 0.207355 5.67574e-20)
(1.01871 0.392396 2.38802e-19)
(1.2947 0.250907 0)
(2.16595 0.146833 -6.43872e-20)
(0.831607 -0.129441 -3.25296e-19)
(-0.806643 0.295954 -4.5156e-19)
(0.7793 0.335806 0)
(0.869181 0.226147 1.61144e-19)
(2.08771 -0.0835794 0)
(0.758833 0.502696 3.36657e-19)
(-0.885621 0.338951 1.76014e-19)
(-0.0181792 -0.0275449 0)
(0.573872 0.54513 -6.57828e-20)
(1.05349 -0.661174 -1.23616e-19)
(0.497368 -0.278235 -1.10318e-19)
(1.0214 -0.0187962 0)
(-0.212794 0.51402 -1.42719e-19)
(0.660608 -0.590423 7.08566e-20)
(0.89487 0.2739 0)
(1.87782 -0.190595 2.41798e-19)
(0.961438 0.818455 2.27555e-20)
(0.167109 -0.840094 2.1789e-19)
(0.224587 -0.0428266 -3.15821e-19)
(0.242729 -0.0897518 -5.04307e-19)
(-0.156892 -0.222813 1.10814e-20)
(0.802254 0.339876 2.28413e-19)
(-0.0190145 0.109925 -4.7602e-21)
(1.4458 -0.665835 3.57623e-21)
(1.02485 0.0053062 -3.06308e-19)
(-0.446134 -0.119464 0)
(1.02917 0.0291272 -3.65975e-19)
(2.08374 0.30508 1.92149e-19)
(0.868178 0.672138 2.6274e-19)
(1.14214 -0.0731664 1.39613e-19)
(1.00758 -0.0341575 1.41753e-19)
(0.989876 0.984965 -3.41934e-20)
(-0.187553 -0.169579 2.56382e-23)
(1.77621 -0.892901 1.60667e-20)
(1.1465 -0.134671 -6.04556e-20)
(0.820615 0.0535759 6.88901e-20)
(0.924591 -0.307843 7.88146e-20)
(1.40332 -0.0329227 0)
(0.941637 0.716778 0)
(0.164402 0.207579 -6.77108e-20)
(1.97487 0.183463 -1.84638e-20)
(-0.76035 0.104499 1.53892e-19)
(1.0542 -0.557824 -4.29412e-19)
(0.638875 -0.555936 3.42707e-19)
(1.12058 0.183238 -9.27934e-20)
(0.165084 -0.27733 2.00157e-20)
(1.3531 -0.403845 0)
(0.749294 0.093284 -6.15327e-21)
(1.6167 -0.518575 -2.47619e-19)
(1.01859 0.744333 0)
(0.893842 -0.639283 0)
(0.489869 0.441658 0)
(-0.192241 -0.249664 -6.9993e-20)
(-0.0967994 0.182681 0)
(1.27398 0.194878 1.55135e-19)
(1.20964 0.176713 5.88601e-21)
(-1.00695 0.347651 2.02329e-19)
(1.55799 -0.0904767 3.4131e-20)
(1.80045 0.449714 -5.84133e-20)
(2.14462 -0.308742 -4.35607e-20)
(-0.170422 0.0270485 -1.91498e-19)
(-0.259499 -0.232435 5.01875e-21)
(1.48006 0.019102 0)
(0.673005 -0.0354732 0)
(1.00063 -0.000366765 2.24068e-22)
(-0.434357 -0.104786 0)
(1.43369 0.0539293 -1.3837e-19)
(0.675282 -0.0318629 0)
(1.05997 0.00418101 1.12019e-19)
(0.988765 0.0144861 -4.01938e-20)
(1.09805 0.23653 1.15548e-19)
(1.05847 -0.0199865 -8.35402e-22)
(0.961515 -0.203555 -4.77316e-20)
(1.0277 -0.0360154 3.27713e-19)
(0.694487 -0.632596 1.59023e-19)
(-1.0146 0.307702 -2.57241e-19)
(1.80018 -0.0821118 5.54199e-20)
(-0.0289096 0.00815691 0)
(1.10344 0.777698 0)
(1.03195 -0.0105948 0)
(1.02955 -0.796732 -8.33082e-20)
(1.07123 -0.917238 1.20849e-20)
(2.08271 0.309239 -4.78508e-20)
(-0.62122 -0.0737693 -7.56062e-19)
(0.151125 -0.00822026 -2.61203e-20)
(0.60643 -0.408716 -5.63137e-19)
(1.89447 -0.143415 -7.64986e-20)
(-0.390973 -0.492359 2.28061e-19)
(2.11713 -0.307101 1.41752e-19)
(1.54975 0.0689798 -4.88163e-20)
(-0.243841 -0.259622 -1.4303e-19)
(1.09459 0.539082 1.84384e-19)
(-0.162275 -0.271552 0)
(-0.0382137 -0.238423 4.06982e-19)
(-0.139622 -0.173786 -2.18676e-22)
(1.02582 -0.0460564 2.98213e-19)
(1.02574 -0.00215693 -7.60375e-21)
(1.10515 -0.0114232 -8.23789e-20)
(1.19754 0.979428 -7.23546e-20)
(1.60477 0.31528 5.68166e-20)
(0.417852 -0.392733 -2.77939e-19)
(1.73561 0.384814 7.63645e-20)
(1.03786 -0.00161794 -2.1618e-19)
(2.20424 0.130208 -5.70823e-20)
(1.32107 0.918215 0)
(1.09026 0.577842 -3.45846e-19)
(1.00253 -0.0052284 8.46259e-20)
(0.656796 0.585552 2.40598e-19)
(1.24054 -0.380191 2.61586e-21)
(1.06163 -0.012672 -2.72648e-20)
(1.12167 0.013236 7.71685e-22)
(2.30295 0.127686 1.44353e-20)
(1.54644 0.0475144 0)
(1.04251 -0.041227 0)
(1.04883 -0.0353108 5.2208e-19)
(1.00255 -0.00327643 0)
(-0.11504 -0.141223 0)
(0.989029 -0.602209 0)
(1.00106 -0.00129272 -4.92078e-19)
(1.18599 -0.702523 6.33792e-20)
(1.02446 -0.00501102 1.02789e-20)
(1.31699 0.937489 -2.53136e-20)
(1.49784 0.984902 2.39055e-21)
(-0.113139 -0.458788 4.41589e-20)
(1.49096 0.321466 1.81843e-19)
(1.36869 -0.016437 0)
(-0.161497 0.220542 0)
(2.20384 0.111221 4.65263e-19)
(1.32144 -0.611472 0)
(0.999906 -0.00529113 -1.52771e-19)
(1.01067 -0.00119028 2.96704e-19)
(1.43941 0.139073 -6.4362e-20)
(0.0028333 -0.116034 3.18447e-19)
(0.975267 0.000558648 1.61594e-19)
(1.21423 0.15795 1.78813e-20)
(0.845465 -0.0255476 -4.25649e-20)
(1.17581 1.00144 -5.84754e-22)
(0.932332 0.0171722 -1.61048e-19)
(1.00373 0.00351648 1.91074e-19)
(1.00025 -0.000716217 1.12962e-20)
(0.788889 -0.0134385 0)
(0.726017 -0.027226 0)
(0.721319 -0.0276212 6.10549e-22)
(0.69688 -0.0298766 0)
(1.51738 -0.174406 0)
(0.936309 -0.132988 0)
(0.645329 -0.00971344 4.87437e-20)
(0.79978 0.0406161 -2.86279e-20)
(1.38888 0.0972715 0)
(1.13204 0.831687 3.36692e-20)
(1.03773 0.946438 0)
(0.789605 0.114611 0)
(1.10116 0.182276 0)
(1.43925 0.156573 1.31145e-20)
(1.50283 -0.0105553 1.03901e-19)
(0.778868 0.0229632 0)
(0.786684 0.0200758 0)
(0.96967 0.0198514 -1.98742e-19)
(0.814323 0.00796227 3.72413e-19)
(1.00811 -0.00130447 0)
(1.00022 -0.000595889 3.53231e-19)
(1.00019 -0.000755844 -3.83947e-22)
(0.786323 0.0221597 3.153e-19)
(0.995339 -0.00598418 -1.85481e-19)
(0.85681 0.19612 0)
(0.688502 -0.056816 4.25957e-20)
(1.00066 -0.00164698 -1.78811e-19)
(0.999488 0.000587725 -3.06386e-19)
(0.896191 0.648599 0)
(0.999067 0.00149636 0)
(0.999693 9.46866e-05 0)
(1.66188 -0.331018 2.31337e-20)
(0.132501 0.176661 -4.86082e-20)
(1.85095 0.121988 0)
(-0.0807018 0.191357 1.97505e-19)
(-1.00939 0.350885 -3.53632e-19)
(1.01891 -0.0176258 -2.38056e-19)
(-0.313009 -0.254239 -1.23211e-19)
(1.01944 0.000146994 -1.91053e-19)
(1.18924 -0.223638 -7.54506e-20)
(0.819873 -0.493185 2.63626e-19)
(-0.110701 -0.13304 -1.04454e-19)
(1.03221 0.00992192 0)
(1.05039 -0.0135542 -5.25646e-20)
(0.85809 0.0198508 0)
(-0.0979092 0.0344875 2.38451e-19)
(1.27464 -0.462223 0)
(-0.354067 -0.0962085 -3.03538e-19)
(1.46245 0.114694 -2.98541e-20)
(1.6286 0.673569 -9.01948e-21)
(-0.0710608 0.0199766 0)
(1.05218 -0.0386445 1.61418e-19)
(-0.438101 -0.0832576 -6.10093e-21)
(0.927138 -0.020115 2.53886e-19)
(1.0114 -0.00989818 -1.62385e-19)
(1.64582 0.846821 3.39705e-20)
(0.505742 0.473342 0)
(0.428241 0.377073 1.88189e-19)
(2.44381 -0.423976 -1.16388e-20)
(1.13734 0.121611 1.78587e-19)
(1.11468 -0.732726 0)
(1.02187 0.00117293 0)
(0.999532 -0.0190383 -3.74354e-19)
(1.01945 0.0141643 -3.62951e-19)
(-0.170031 -0.26611 0)
(1.19863 0.805317 -1.22162e-19)
(1.08055 -0.193637 -2.78509e-21)
(1.01598 0.00276374 1.4013e-19)
(1.0123 0.0123116 -1.75403e-19)
(-0.333276 -0.0385804 -2.96961e-20)
(-0.470567 -0.044386 1.5468e-19)
(1.01751 -0.0160874 5.98533e-19)
(1.3644 -0.160443 0)
(1.82824 0.63619 -3.99356e-20)
(1.01522 -0.0130424 -1.86213e-19)
(1.97256 0.108359 -1.36482e-19)
(1.05926 0.00643752 -4.31854e-22)
(1.0091 -0.010741 3.73247e-20)
(2.09891 -0.18491 -3.38562e-19)
(1.01655 0.00575509 1.8016e-19)
(0.198552 -0.182415 2.05085e-20)
(1.01866 0.000776043 0)
(0.926765 0.138577 4.53262e-20)
(-0.860858 0.392545 4.71925e-21)
(1.00119 0.0214718 1.78888e-19)
(1.04162 0.0203912 -6.39604e-22)
(0.864456 -0.387271 -2.36489e-21)
(1.24344 0.31102 3.84753e-19)
(0.997783 0.0145047 1.2273e-19)
(1.01639 -0.0153995 4.34951e-22)
(1.71942 0.250025 -2.26044e-20)
(1.73678 0.922101 -9.6287e-20)
(0.799712 -0.717939 4.70916e-20)
(0.469543 -0.352263 -2.74244e-19)
(1.00692 -0.0112646 0)
(1.02119 0.00192509 4.47772e-20)
(1.01087 -0.010143 9.467e-20)
(0.303812 0.222209 1.74059e-20)
(1.01492 0.00398952 -1.87559e-19)
(1.03167 -0.027088 2.13484e-19)
(1.00762 -0.00932303 -1.77074e-19)
(1.01386 0.00394431 -4.74145e-22)
(1.01295 0.000892755 -3.23044e-22)
(1.02632 0.0125865 1.79403e-19)
(0.897851 0.0726722 4.63223e-19)
(1.24396 -0.0167349 0)
(0.302665 0.301614 2.12419e-19)
(1.01192 -0.00503655 0)
(1.02048 -0.0210602 -5.21833e-20)
(1.51006 0.435368 -7.89764e-20)
(1.65109 0.0586832 0)
(2.35332 -0.11361 -1.95421e-19)
(0.765728 0.141454 -2.32211e-20)
(0.750407 -0.0172055 0)
(2.03149 0.00947487 0)
(-0.753939 0.380998 -1.18432e-19)
(1.00368 0.874452 9.42131e-21)
(1.01754 -0.00611591 -1.8926e-19)
(1.1434 -0.580916 -4.90449e-20)
(-0.304296 -0.376713 7.27779e-21)
(0.207619 -0.323836 0)
(1.59366 -0.384828 0)
(1.72643 -0.0548295 0)
(-0.159314 0.0956948 6.72273e-20)
(0.506843 0.375673 -2.8336e-19)
(-0.612157 0.728622 0)
(0.0102313 0.505288 -1.85569e-19)
(1.6706 0.950224 -4.99166e-20)
(1.0082 -0.00427573 -3.69658e-19)
(0.46114 0.626375 -3.69041e-20)
(1.02177 0.00483236 2.44467e-19)
(0.683347 -0.0423436 0)
(-0.15592 -0.245264 -3.23583e-20)
(0.59836 0.411605 -3.16386e-19)
(1.16743 0.0172903 3.41483e-20)
(0.0804684 0.420027 0)
(0.807364 0.0775618 6.38663e-20)
(0.504096 0.48109 4.81144e-20)
(1.1637 0.867406 -3.30503e-20)
(-0.0795411 -0.0809367 1.59025e-19)
(1.01949 0.00905626 0)
(0.503966 0.0038147 -1.81967e-19)
(1.01188 -0.00391516 1.38901e-19)
(2.26453 0.176175 0)
(1.0123 0.00628367 2.32725e-19)
(0.0190967 -0.294831 -1.94635e-19)
(1.01863 0.00871405 -1.44099e-19)
(1.3695 0.369265 0)
(2.59702 -0.0886005 7.64226e-22)
(1.00903 0.00204463 -9.67155e-20)
(0.995358 -0.0359478 2.55489e-19)
(1.08325 0.0909738 -2.18737e-21)
(0.149879 -0.743847 1.49661e-19)
(-0.12579 -0.127139 4.18885e-19)
(1.96172 0.238207 1.36491e-19)
(-0.20808 -0.755398 -1.63914e-19)
(0.79949 0.0147858 -3.48832e-19)
(0.802184 0.0264054 0)
(-0.0637728 -0.24605 -8.25846e-20)
(1.02038 -0.0182008 -2.80647e-20)
(0.972554 0.0187222 0)
(1.0493 5.37292e-07 -1.78667e-19)
(0.127473 -0.835698 1.61793e-19)
(-0.916137 0.341636 2.06526e-19)
(2.20559 -0.588513 0)
(-0.832277 0.333748 -6.05831e-19)
(1.5443 -0.35258 0)
(1.03924 -0.0187691 5.23413e-20)
(1.17332 0.674863 -3.32094e-22)
(1.01451 -0.00396405 1.49998e-19)
(-0.768728 0.439884 3.38076e-19)
(1.01868 0.000724391 0)
(0.994037 0.00361611 -3.63261e-19)
(1.00872 0.00639116 1.90891e-19)
(1.55195 0.00989931 0)
(0.665592 0.273788 7.05526e-21)