/*--------------------------------*- C++ -*----------------------------------*\
| =========                 |                                                 |
| \\      /  F ield         | OpenFOAM: The Open Source CFD Toolbox           |
|  \\    /   O peration     | Version:  2306                                  |
|   \\  /    A nd           | Website:  www.openfoam.com                      |
|    \\/     M anipulation  |                                                 |
\*---------------------------------------------------------------------------*/
FoamFile
{
    version     2.0;
    format      ascii;
    arch        "LSB;label=32;scalar=64";
    class       volScalarField;
    location    "32.9";
    object      p;
}
// * * * * * * * * * * * * * * * * * * * * * * * * * * * * * * * * * * * * * //

dimensions      [0 2 -2 0 0 0 0];

internalField   nonuniform List<scalar> 
2186
(
0.759576
-0.43932
-0.117847
1.05835
-0.804532
0.0285684
0.639455
-1.09673
-1.09657
1.32173
1.09981
-1.06171
-1.09034
1.03178
-0.676106
1.04484
1.06337
-0.859668
0.143427
-0.761035
1.44152
-0.761832
1.04199
-1.14397
1.03382
1.0322
1.25659
0.876394
0.649503
1.03274
-0.744346
1.03386
-0.707706
-1.06214
-1.07751
0.180064
-1.01144
1.43369
-0.515137
-0.0571127
-1.09389
-0.727315
-0.795353
-0.884061
0.946661
1.30578
0.290545
0.471712
-1.09119
-0.776375
-0.747432
0.949012
-0.790741
1.37311
-0.780571
0.929322
-0.849247
0.957889
-0.548268
0.800997
-1.0226
0.689941
0.610933
-0.091358
0.62989
0.410919
0.723495
1.32831
1.22413
-1.13785
-1.10023
-1.06403
1.29017
0.986976
1.22003
1.14846
-1.05217
1.05855
-1.08633
-0.634106
-0.766716
-0.251846
1.0285
0.676128
1.02001
1.02904
1.3415
0.207097
-0.47565
-1.09448
0.932459
-0.75806
0.931462
1.17973
1.04285
0.480075
-0.248773
0.641461
-0.79472
0.973228
-0.959288
-0.897812
0.692838
0.957034
1.06527
-0.731077
1.27136
-0.820488
0.91889
-1.85613
-0.634604
-0.774921
0.497222
1.37515
-1.08145
-1.01888
-0.678454
-1.16994
-1.09488
1.28955
0.046135
-0.769355
0.909551
-0.926455
1.04921
-0.650993
-0.788164
1.14082
-0.89348
0.618864
1.3963
1.23775
0.175725
0.61049
-0.811263
-0.758038
0.898694
-1.15611
-0.468687
-1.09398
0.854372
-0.300111
-1.09093
0.665667
0.917914
0.961054
-0.780068
-0.812099
0.573911
-0.815905
-0.776681
0.537494
1.06151
1.18151
1.03485
0.482865
1.34178
0.502133
0.412976
0.370696
-1.09539
-1.25946
1.02403
0.977232
0.234665
0.0751651
-0.997058
-1.05922
-0.898601
-0.878372
0.422282
0.979828
1.06431
1.10357
0.487128
-0.183548
-0.823869
1.02493
-1.3641
0.912715
-1.05333
1.04862
-0.758318
0.60331
0.589154
-0.836795
-0.974842
1.19314
-0.401445
-1.07516
-0.943043
1.29804
-0.86415
0.971704
-1.09341
-1.93646
0.150735
1.21875
1.12875
-0.758173
-1.14923
-1.45496
0.0103043
1.06173
-1.08323
-0.790506
-1.09568
-1.18462
0.993368
-0.852379
0.477437
-0.337242
1.36055
0.882174
0.977217
0.935033
1.24341
1.03821
0.876836
1.15682
0.323475
-1.00288
-0.744972
0.168572
0.123451
-0.840727
-0.798863
1.09748
1.1493
-1.11953
-1.01228
-1.33672
0.316422
0.619806
0.77324
0.87768
1.11408
-1.07102
0.868845
-1.09494
-0.788097
-1.00834
1.05818
0.785464
1.21172
1.20975
1.17122
1.15035
-1.10121
0.800264
1.16134
-1.10393
1.04526
0.832151
-1.1933
-1.08561
-1.07762
1.21367
1.06518
-1.08809
-1.30594
-1.35667
0.938175
-0.913494
0.803858
1.1263
0.866568
-1.09321
-0.742198
1.00747
0.681922
-0.792156
-0.367254
1.3965
-0.789012
-1.09918
0.848756
1.18475
1.02176
-0.805893
-0.817181
-1.00906
0.964661
-1.10356
0.502962
1.00431
1.01937
-0.295428
-0.631931
1.01028
-1.13185
0.920104
1.19522
1.06025
1.05722
-1.44936
-0.742644
-1.15894
-0.960627
-1.19109
-0.923173
0.324808
-0.676546
0.666778
1.16959
1.26861
0.97068
-0.852919
1.19032
-1.18626
-0.41205
-1.16856
-1.09542
-1.06899
0.298163
-0.77682
-0.766484
0.230934
0.977801
-0.217204
0.444677
-0.769982
-0.507973
-1.05123
-0.781032
1.25791
0.0535321
-0.369555
-0.760515
0.762404
0.616525
-0.273115
0.488094
-0.979328
-1.08772
0.718942
1.05942
1.13518
-1.42144
1.1905
0.86943
0.439246
1.24959
1.04123
0.959498
0.318391
-0.931069
-1.09664
0.925089
-0.84398
-1.09342
-1.20082
-0.982279
-1.09712
1.42536
-1.4181
-0.748221
-1.11007
1.04027
-0.832097
-1.1652
-0.724622
0.73214
-0.746885
-1.31799
1.30391
1.36459
1.12342
-1.09243
-0.222622
1.44174
1.04405
-0.937889
0.512393
-1.09749
0.107394
1.23035
1.04127
0.880741
1.32211
-0.638368
-0.967945
-0.259639
-0.900852
-1.42004
-0.747783
-0.244045
1.37333
-0.805717
-1.26735
1.03333
0.544406
-1.08944
-1.06424
-1.09707
-0.802922
-1.22894
-1.09197
-0.732355
-0.793073
1.21609
-1.32181
-1.01495
1.05055
-1.24672
1.26909
-1.29066
-1.50459
-0.675898
1.03329
-1.0444
1.06344
0.826802
-1.44441
1.05182
-0.739849
-1.09535
-1.15377
1.00294
0.964806
-1.1026
-1.09918
-1.18033
1.04143
-1.34137
-1.74298
0.572444
0.999081
0.890866
0.697655
-1.10817
-0.763264
0.880485
-0.990499
0.806347
-2.15257
1.05691
0.0314485
1.13338
-1.09465
0.831859
0.756109
1.07074
-1.17205
1.04036
-0.819657
-1.09426
1.03663
-1.29552
0.217664
-0.989202
-0.0447511
1.04624
0.0221611
0.234629
1.04812
0.307689
-0.259756
-0.110955
-0.747639
0.173772
-1.0953
0.762894
-0.533408
1.1342
1.13228
-1.1069
-1.09464
-1.00465
-0.746412
0.494627
-1.04615
0.895989
-0.137381
-1.08575
1.15189
-1.05225
0.436863
0.238846
-0.823803
0.858653
0.40946
-1.15345
-1.42354
-0.915036
-0.737732
1.05455
-2.17025
1.12729
1.23556
1.22339
0.711044
1.23126
-0.796772
-0.680991
0.913022
0.156871
1.03396
-0.769088
-1.07339
-1.43632
0.784509
-1.09218
-2.05904
-0.769951
-0.804637
0.0243746
-1.16129
0.795053
0.763841
-0.469746
-0.957433
0.723332
0.00498146
1.20092
-2.01648
-0.107674
-1.09348
0.822018
-0.44099
1.174
1.4562
-1.39772
-0.791114
-0.982954
0.370571
-1.01162
1.03059
-0.986024
0.98374
0.81436
-1.13732
0.924357
0.885925
-1.40748
0.888875
-0.910536
-0.758052
-0.934268
-1.0522
-0.844429
-0.994831
-0.566509
1.03637
0.281178
-0.782042
0.553171
1.18405
1.22028
-0.457059
0.74437
-1.28542
0.751771
-0.229198
-0.958762
-0.767109
0.560101
0.871649
1.12051
-1.7346
-1.1154
-1.4239
-1.09523
-0.195423
0.704634
-1.95468
-0.215468
-1.14782
1.00349
-1.02708
1.00055
-1.01849
-0.734365
0.972299
0.643556
-1.14505
-0.103635
1.01
1.30563
1.05892
-0.94212
-0.832006
0.782184
-1.00904
0.769366
-0.428198
0.509528
1.00764
-1.06668
-0.744861
1.07912
-1.20499
1.30313
-0.216613
0.858402
-0.424896
0.595161
-1.00799
1.26369
-0.75208
-0.853013
1.02581
0.585672
0.560337
-1.15402
-0.753211
-1.00694
0.830599
-0.747748
-0.680565
-0.745488
1.05482
0.459448
-0.791429
0.805801
0.955922
1.02865
-2.00195
-0.674557
-0.763777
1.05074
1.239
0.447789
1.04651
-0.946602
1.06186
-0.575353
-0.939301
-0.636348
0.94356
0.99615
-1.41236
0.916029
-0.748851
0.866741
-0.831842
1.06561
0.952427
1.05593
-2.10559
0.983865
-0.788078
-0.542725
1.19736
-1.47523
-1.41358
1.17192
-1.28298
1.1699
-1.2771
-0.756204
1.10968
0.75913
1.37869
1.03614
-0.874501
1.08085
1.14322
-1.29143
0.702356
-0.706843
-1.04368
1.52822
-1.09763
1.19605
-0.776612
0.249756
1.03662
-1.18416
1.03418
-1.57041
0.989741
0.973149
1.04806
-0.394247
-1.05714
-0.718671
0.554424
0.655971
1.07777
-0.305277
0.894114
-2.08974
-0.26317
-1.22527
0.818706
1.14826
-0.628164
-1.1341
-0.590023
1.28459
-0.820559
0.800855
-0.916186
-1.05882
-1.09808
-0.776615
-0.76259
0.858514
-1.40296
0.00925071
-0.236619
-0.675418
-0.786096
-1.17968
-0.366111
1.01562
1.05716
-1.15352
-0.540497
1.02781
0.957664
1.05595
-0.942602
1.0266
1.07231
1.02885
1.05572
-1.28661
-0.194135
-0.743007
0.686087
1.03504
0.680225
0.0911541
-0.377834
-2.12921
-0.292505
1.27107
-0.239094
-0.651174
-0.80917
-0.151509
-1.09116
0.851161
-1.10795
-1.28477
-1.0899
1.04317
1.03768
1.053
-0.353897
0.419424
1.24364
-0.247389
1.03112
-0.25807
-0.3551
0.827386
1.05785
1.15891
-0.406125
1.02297
1.02064
-0.78555
-0.186351
1.05328
1.0645
1.05971
-1.09404
-1.13553
1.05911
0.577921
1.03847
0.282543
-0.0470109
-0.33002
-1.78968
-0.461864
-0.744171
-1.53099
-1.38467
1.06604
1.07077
0.812314
-1.10205
1.04325
-0.1138
-0.280718
-0.200345
1.03357
1.06259
1.05996
1.0748
1.05292
1.04685
1.0386
-0.573966
-0.302133
-0.210509
-0.261954
0.0228447
0.00793305
-0.110523
-0.0516602
-0.0378064
-0.157274
-0.177638
1.02751
1.04965
1.04396
1.06818
1.06691
1.05965
1.06406
1.03833
1.05084
0.0293378
-0.278341
1.06114
1.05896
-0.0569774
1.06105
1.06068
-0.311092
-0.555953
-0.261936
-0.822504
-1.32965
1.04379
-1.11349
1.03909
0.615139
1.0793
-1.09704
1.03772
0.993096
0.97684
-0.744248
-1.27794
-1.10089
-0.181115
0.0359911
-0.750185
1.05839
-0.446895
1.13135
1.0479
-0.0958777
1.24794
1.39441
-0.444047
0.934117
0.637698
1.0413
1.059
1.04803
-1.09594
0.555383
-0.333289
1.04631
1.05363
-1.06483
-0.412667
1.04845
-0.0813611
-0.25013
1.04703
-1.06419
1.03211
1.06025
-1.10023
1.05042
-0.978447
1.04199
1.13369
-1.6708
1.05479
1.06293
-0.367998
0.756296
1.04149
1.05005
0.244275
-0.661023
0.692385
1.36803
1.05654
1.0439
1.05067
-0.778615
1.04508
1.02706
1.05301
1.04626
1.04907
1.04297
1.15892
-0.110203
-2.04645
1.0461
1.04268
0.368713
-1.08014
-1.11847
-0.295358
0.93067
-1.49337
-0.800085
-0.166626
1.04318
0.708453
0.00305851
-0.558923
-0.4862
-0.345009
-0.666099
-0.959562
-0.930735
-0.778327
-0.25324
1.04961
-0.529002
1.03741
0.974432
-1.09131
1.31657
-0.0262234
-0.721867
0.753062
1.20867
0.530794
-1.09399
1.04525
-0.969954
1.04853
-0.632144
1.04817
-1.25779
1.04114
-1.03148
-1.04459
1.05097
1.06511
1.00807
-0.811883
-1.09393
-0.540087
-0.66977
1.06054
0.959824
-0.788428
1.04319
1.08475
1.03818
-0.850953
-1.3887
-0.786957
-1.30039
0.280587
1.04983
-0.167934
1.04358
-1.13274
1.04391
1.08246
1.05188
-0.0286262
0.00577544
1.0767
-1.12227
1.05364
1.05821
-0.0568299
-1.09349
1.02098
1.2078
1.03853
1.03917
-0.585009
-0.81019
1.00616
0.369617
1.05285
0.83044
-0.855203
-1.09565
0.909407
1.27524
1.04552
0.297326
-0.305166
-0.720241
-1.24841
-0.85754
1.02138
-0.917045
1.03334
-1.00582
-1.09453
-0.798749
0.540717
-1.13812
0.376651
-1.40774
1.03996
-1.09049
0.992797
-1.09772
-0.25095
-0.988626
-0.15868
-1.2994
1.02145
-0.781203
-1.00065
-1.32021
-0.648464
1.02621
-1.32654
0.0708204
-1.09927
1.1536
0.0330747
-1.09735
1.11285
1.02395
1.01226
0.451781
-1.04993
1.05068
1.08049
-0.970179
-0.776249
1.03889
0.778009
1.32225
1.06216
-1.23155
-1.42456
-0.774231
-1.16169
-0.875626
-1.09303
-0.527336
-1.16768
0.782965
-0.0909918
1.04682
1.27169
1.04151
-1.09456
-1.15575
1.04192
-1.41816
-1.60154
1.01446
-0.396033
-0.848911
-1.2244
-0.108473
1.00568
0.978665
-0.839695
0.844919
0.763432
-1.12904
1.02023
-1.39023
0.882525
-0.740584
0.994519
-1.23542
0.384921
1.04245
1.17447
-1.07126
-1.27915
0.897916
1.41892
1.06353
1.1004
-1.2022
1.25491
-1.07915
-1.51661
-0.94345
0.432548
-1.13153
1.15688
1.17058
-1.09845
-0.996065
1.04179
-0.572243
0.846543
1.07332
1.02406
-1.02143
1.04408
0.0250535
1.06821
-0.0451278
-0.891219
-0.0440857
1.04665
-0.351414
-0.374696
-0.106002
1.02471
-0.625481
1.26563
0.211447
1.39578
1.07116
-0.566608
1.01564
-0.764707
1.02696
1.02323
-1.3623
-0.65695
1.20366
1.03629
1.3014
1.00845
0.0227752
1.01481
1.02253
0.938459
1.05202
-1.1259
-0.815158
-1.33626
1.12689
-1.3399
-1.68506
-0.754338
-1.26953
-0.330966
-0.702172
0.956
-0.33496
0.985549
1.03593
-0.779458
-1.2448
-0.595869
-1.37299
-0.622506
-0.763349
1.05165
-1.25557
1.06117
1.25256
1.09901
-0.0757507
1.06792
0.989996
-1.47454
0.986969
1.03272
-0.870203
1.03138
1.02918
-0.176189
-0.665625
1.495
-1.24779
-1.03138
-1.11214
0.184127
1.01267
-0.960174
-0.248897
-0.748327
1.1901
-1.55195
0.944601
1.06493
1.01693
-1.34128
0.994722
-1.22252
1.05846
1.07263
-0.311734
1.06159
0.602562
1.02238
0.69526
-1.13352
-0.0627493
-0.217914
-0.413454
1.30758
-0.131719
1.08238
1.45593
-0.559654
-0.106879
1.10664
-0.154731
1.10338
-0.00452738
0.00188361
1.10735
1.11193
0.384613
-1.36149
0.85738
-0.661951
-0.765415
-0.587609
1.06916
1.02708
1.44639
-1.09374
-1.54866
0.721633
-1.09474
1.13232
1.06764
1.01737
1.03871
0.990122
-1.59608
-1.09111
-1.22077
0.895731
0.984077
-1.1474
-0.769645
-1.09915
1.05675
1.0665
-1.1076
-1.22271
1.08263
-1.33504
0.333963
0.870164
1.01463
-0.183227
-1.12596
-0.0919751
-1.05467
-0.755042
-2.05276
-1.26231
1.39046
1.441
-0.832162
-1.02841
1.05754
1.03367
-0.848285
-0.137824
-0.447599
0.752831
1.14745
-1.42853
1.05312
-1.33413
-1.1256
-0.605588
-0.977019
-0.839944
1.01375
-1.04889
-1.54336
1.42933
-1.06284
1.05372
1.30049
-0.772035
1.04627
1.2641
-0.805462
1.32647
-1.0754
-1.14416
1.09629
-0.487964
1.01445
1.05419
-1.08377
1.09025
0.0917656
-1.74449
1.09148
1.0334
-1.02667
-1.27554
1.01054
1.04646
-1.09471
-1.09754
1.36482
-1.08958
0.976136
-0.948111
0.965969
-1.07266
-1.9118
-1.09948
-0.812911
1.18191
1.06355
1.3036
1.29129
1.07083
1.11014
1.15354
-1.09897
1.22098
1.15189
-0.78753
-1.09454
-0.882942
1.40374
-1.2439
-1.14012
-0.679729
1.03209
-0.793531
-0.845634
1.11243
1.02193
-1.09956
-0.772965
-1.12566
-0.197449
-1.21483
-0.798929
-1.09785
0.987076
0.887171
-0.757872
-0.339911
-0.989997
0.94036
-1.09027
-0.822355
-1.097
0.942514
-1.48983
-0.77769
1.34567
0.920043
0.361694
1.2083
-1.04209
0.979916
1.06258
1.15567
1.22135
0.136731
0.787559
1.09882
0.218023
-1.09566
1.47701
0.987687
0.921326
1.09128
-0.782654
-1.73357
0.864741
0.892206
0.998419
-1.63649
-1.47016
1.02768
-1.09404
0.830691
0.0333459
1.4888
-1.09502
0.839766
0.723163
-0.746615
-1.09469
-0.664045
1.07015
-0.749624
-1.0905
0.683627
0.727107
-1.10887
1.12067
0.838719
-0.753226
-0.854678
1.02223
-1.81918
-1.09435
-1.1282
-0.747951
-1.00145
1.04734
1.04441
-1.83456
0.597168
1.04874
1.40428
0.23506
0.4114
0.148793
0.881238
-0.542509
-0.74554
-1.30941
-0.440542
-0.74457
1.04769
-0.755295
0.304776
-1.09386
0.661711
0.544755
-0.746384
0.617966
-1.99583
0.46743
-0.747927
0.58952
-0.746569
0.354561
-1.09463
0.508547
-0.749863
0.810516
-1.49191
-0.754302
-0.76393
-1.0901
1.06138
0.0344982
-0.790842
-1.10004
0.17534
0.253563
-0.752954
-1.09172
-0.830733
-0.186715
-1.11324
0.0163229
-1.14649
-0.185627
-0.905584
-0.367302
0.961357
-0.329289
-1.58042
1.04263
0.0768046
-0.69248
0.421909
1.00626
-0.86676
-1.66036
-1.09664
-1.23398
0.905362
1.48304
-0.884084
0.0536214
-0.0380744
-1.05262
-0.213822
-0.450123
1.03826
-0.853842
0.985829
-0.800826
1.55097
0.430512
1.44219
-0.767989
1.20252
-0.419514
1.02026
-1.0737
-1.09528
1.08107
1.03195
-1.07911
-1.09217
-0.756326
1.04931
-0.604748
1.03669
-0.656737
-1.11756
-1.0988
1.36059
1.10452
1.12021
1.08139
1.05887
0.144467
-0.657784
1.29003
-1.95519
-1.02274
1.48689
-0.76878
0.977023
0.968555
1.41647
1.45915
-0.756054
-1.4184
1.07625
0.181148
-0.54921
-0.722796
-0.653957
-2.04189
-0.774393
0.537366
-1.07567
1.21387
-1.19925
1.13266
1.20401
1.10884
-0.736544
-1.0786
-1.05237
1.13102
-1.00303
1.2599
-0.610538
-0.971089
1.32042
1.32332
-1.09003
0.214317
0.979038
-1.12034
-0.899974
0.650926
1.35472
1.25132
-0.796326
0.949705
0.940229
-1.08834
1.26128
0.404239
-0.762869
-1.2969
-0.515199
-0.291539
1.19857
-0.963281
0.382342
-1.00182
-0.813365
-0.924182
-1.09294
1.04884
-0.974855
1.09219
0.0325156
0.0293686
0.68319
0.211322
-1.08405
-0.495051
-1.31698
-0.232159
-0.803057
-0.721254
1.02702
-1.61288
-1.84766
1.0859
-1.11763
-0.787319
1.05786
-1.11248
1.06147
-0.524434
-1.09504
-0.431685
0.787559
-0.978861
-1.56206
0.893284
-1.10953
1.10932
-0.679774
-1.00319
-1.04017
-1.09341
1.5139
-1.27946
1.14435
-0.983523
0.997344
1.24434
0.713029
1.0511
1.24508
-0.00327538
-1.08554
1.00304
1.10635
1.38779
-1.05574
1.10715
0.77429
-1.07046
0.777527
1.22058
-0.464801
1.42266
0.261844
-0.838466
0.825153
-1.07963
-0.757642
0.972657
-0.354778
1.09659
1.05851
1.03074
-0.827666
0.990757
1.34527
-0.844391
-0.203837
-1.2555
-1.08585
-1.01888
-1.09253
1.36959
0.733711
-0.809566
0.904142
-1.08697
-0.973179
1.28489
1.30972
-0.911879
-1.2443
-1.09463
-1.10429
0.99911
-0.802415
0.0133719
-0.720733
-0.306485
1.10598
-1.09498
1.46545
1.10316
0.885616
1.08587
1.38427
-1.00805
-1.09363
1.03781
1.15958
-0.894046
1.04408
-1.40186
-1.0994
-1.09513
1.17232
1.20121
-1.09993
-0.800592
0.525834
-0.154074
-0.611024
1.03961
1.05374
-1.15042
1.09248
1.13368
-1.2851
-0.790701
-0.817919
-1.09897
-1.09864
1.33082
-1.41864
1.00873
-0.796335
1.32451
0.948443
0.961839
1.02703
-1.9035
-1.01704
-1.0979
0.632314
-0.775391
0.912981
0.246612
-0.417357
0.94976
1.00345
1.08613
1.06658
-0.0916962
1.08259
0.041182
0.380303
0.88247
-0.455241
-0.785193
-0.843817
-0.592577
1.05611
0.964174
1.05537
-1.61175
-0.921751
-1.09659
-0.702921
1.0568
1.3645
1.06979
-0.780302
-0.915567
-1.04535
-0.441342
-1.09315
-1.09521
-0.098658
1.05261
-0.851866
-0.755148
-0.708566
-0.169131
0.817986
-2.08318
-1.09639
-1.1554
1.01896
1.47353
-0.640718
1.13927
1.5399
0.758965
1.27503
-0.789543
-0.685442
1.41604
-1.0952
0.266632
-0.770483
-1.09906
-0.754523
-0.74735
0.997459
0.712763
1.27589
1.23895
-0.0537594
0.763287
0.154271
-0.485714
-1.0944
1.15164
0.81958
1.06416
1.08088
-0.023221
-0.194596
1.07383
-1.16078
-1.09532
-0.750641
-0.76434
0.569523
-0.744567
0.996536
0.645981
-1.09411
1.24292
-0.781434
-0.223143
1.02118
-0.933146
-1.0179
-1.80894
0.696531
-0.760018
-0.691501
1.00443
1.07238
-0.679803
-0.0339238
-1.85563
-1.09394
-1.7271
-0.768803
-0.291155
0.573267
-1.03239
-0.744223
1.34281
0.363217
0.462955
-0.745281
-1.09995
1.04556
1.04564
0.627564
0.504281
-0.74677
-1.04466
-0.912456
0.552363
0.406954
-0.748726
0.913139
0.247794
-0.750526
1.51322
-0.756682
-1.70437
-1.09789
-0.700197
0.830297
-0.773319
-0.806672
-1.10349
-0.0585812
-0.807478
0.10538
-0.836376
-0.342551
1.25398
-0.861213
-0.253728
-1.12968
-0.0713336
1.41687
1.41799
1.31104
1.05274
1.28873
-0.625432
1.04142
-0.78446
1.04349
-1.09759
-1.10523
1.27586
-1.16618
0.449166
-0.792455
1.43049
0.0665913
1.36439
0.694664
0.85403
-0.765328
-0.775084
-1.09599
-0.67096
1.35385
1.26802
1.0419
0.612952
1.03984
0.856493
0.903382
-0.748124
-1.10326
0.35996
-0.300028
0.878947
1.05736
-0.0990012
-0.769778
-0.74859
-1.36829
-1.0956
-1.05867
1.36027
1.07536
1.05183
-0.0322309
-0.193469
1.07026
-0.798192
-1.09365
-2.01764
-1.06606
0.867686
-0.757027
-0.745821
-0.403549
1.0644
-1.55393
-1.09855
1.04037
0.582254
0.713046
1.04236
-1.09452
0.952365
1.2109
0.825545
-1.0936
1.03069
0.311653
0.551474
-0.972899
-0.749997
1.50144
0.196136
-0.655282
-0.0528448
0.987421
1.03896
-1.03594
-1.23655
-0.44386
-0.604544
-1.02562
-0.809477
-0.823275
1.0386
-0.812574
1.04946
1.30279
1.09434
1.05723
1.16183
1.22025
1.04546
-1.16328
-0.773585
-0.314436
-1.17257
-1.03184
-0.74791
1.21643
1.12838
-1.08677
0.981313
-0.879514
-1.34034
-0.753618
-0.135395
0.510701
-1.25835
1.03705
0.987504
-0.691856
-0.495881
1.38404
-1.51754
-1.65869
-1.17606
-0.815199
-0.726311
1.07809
0.854653
1.10729
-1.11214
-0.725154
-1.0603
-0.261558
-1.08375
-1.44733
-0.921464
-1.71542
0.991229
-0.903221
1.47627
-0.993038
-0.702916
-1.12492
-0.747729
0.943808
-1.14234
-1.07546
-1.0917
-0.459556
1.27166
1.2396
-1.91792
-1.00346
0.903384
-1.11232
-1.04023
1.12238
-0.705543
-1.02866
-0.599708
0.832556
-0.549376
-1.07964
1.03916
0.141752
-0.66872
1.05597
-0.891159
-1.06564
-0.828796
-0.823967
-0.181816
-1.0778
1.38823
-1.09452
0.0944691
-1.09745
0.873339
-0.65228
-0.956632
0.734093
0.754977
1.09639
0.98948
1.24533
-0.766123
0.852955
0.524436
-0.895419
1.00193
-0.280189
-0.646531
-1.6833
1.19631
1.18392
-0.605982
-0.927116
-1.06889
1.09296
-0.875992
0.195512
-1.29462
-0.752036
1.35282
1.08966
-0.770565
-0.825324
-0.772881
-0.760833
0.964164
-0.786078
1.05706
0.324704
0.792073
0.915525
-0.739678
-0.912163
1.0184
-0.749157
-0.701089
1.3231
-1.09623
-0.760427
0.901561
-0.865987
-0.814741
-0.301942
-1.03743
1.39211
-0.767904
0.0718476
-0.772899
1.31824
-0.779553
-0.832346
0.729421
-1.26012
-1.0975
1.36705
0.758541
1.00479
-0.811819
1.30731
0.108123
-0.97314
-0.804025
-0.803676
-0.782134
1.33864
0.663503
-1.09729
-0.777798
-1.07089
1.19459
-0.848815
1.29334
-1.09692
0.794388
-0.752162
0.463937
0.627425
0.593837
0.514699
0.126893
-0.841739
1.08415
-0.80081
-0.591933
-1.20602
0.222805
1.33632
-0.431076
-0.819136
-0.783529
-0.754742
0.359932
-0.988627
-0.750226
0.830994
0.125089
-0.765994
1.40517
-1.07523
-1.13168
1.39343
-0.758518
0.248323
-0.867844
-0.750207
-0.748271
1.37872
-0.748983
1.30561
-0.747146
-0.885804
1.24173
-0.351348
-0.841924
0.653787
-1.04371
0.116827
-0.540007
-0.75235
0.802941
-1.13064
-0.754817
-0.749554
-0.75255
-1.10131
0.844493
-0.0528418
-0.593417
-0.768196
1.3363
-0.994954
-0.818711
-0.735341
-0.25446
-0.876908
-0.743963
-0.763418
-0.212222
1.3216
-0.782847
-1.08999
-0.821802
-0.889062
-0.132644
-1.10642
1.42531
1.36227
0.506125
-0.923787
-1.09876
0.42306
-1.09587
1.44183
0.305319
1.07388
0.784054
1.29911
0.190038
-0.888252
-0.958562
0.0395001
-0.797833
0.0403756
-0.196071
-0.749542
1.33506
-0.419041
0.316245
-0.547043
-1.07826
-0.915028
)
;

boundaryField
{
    frontback
    {
        type            empty;
    }
    Top
    {
        type            zeroGradient;
    }
    outlet
    {
        type            fixedValue;
        value           uniform 0;
    }
    bottom
    {
        type            zeroGradient;
    }
    Inlet
    {
        type            zeroGradient;
    }
    rectangle
    {
        type            zeroGradient;
    }
}


// ************************************************************************* //
