/*--------------------------------*- C++ -*----------------------------------*\
| =========                 |                                                 |
| \\      /  F ield         | OpenFOAM: The Open Source CFD Toolbox           |
|  \\    /   O peration     | Version:  2306                                  |
|   \\  /    A nd           | Website:  www.openfoam.com                      |
|    \\/     M anipulation  |                                                 |
\*---------------------------------------------------------------------------*/
FoamFile
{
    version     2.0;
    format      ascii;
    arch        "LSB;label=32;scalar=64";
    class       volVectorField;
    location    "32.9";
    object      U;
}
// * * * * * * * * * * * * * * * * * * * * * * * * * * * * * * * * * * * * * //

dimensions      [0 1 -1 0 0 0 0];

internalField   nonuniform List<vector> 
2186
(
(1.33329 -0.0701836 1.83882e-19)
(1.66431 -0.972981 -1.18655e-19)
(1.50484 -0.948084 -8.17485e-22)
(0.772259 -0.614866 -1.2576e-19)
(-0.0526065 0.126794 -1.6535e-19)
(1.43192 -0.230555 0)
(0.754796 -0.697658 0)
(-0.230765 -0.274839 1.31699e-19)
(1.4935 -0.209663 2.12173e-19)
(0.579083 -0.352014 -2.51166e-21)
(0.652993 0.587275 0)
(0.847515 -0.287 -1.57312e-19)
(-0.24912 -0.278663 -5.25265e-20)
(1.21287 0.0211107 -3.27869e-19)
(1.85399 -0.710825 -1.24341e-19)
(1.01178 -0.00579003 1.56038e-19)
(0.978864 0.0118692 0)
(-0.338678 0.218456 0)
(0.897963 0.0970284 0)
(-0.13796 0.153615 -6.09977e-20)
(0.480194 0.0400043 -1.0508e-19)
(-0.138605 0.192718 8.49361e-20)
(1.19818 0.0247045 2.71317e-19)
(-0.211987 -0.0633951 6.48648e-21)
(1.03549 0.00283406 -2.13422e-19)
(0.823715 -0.589585 0)
(0.765552 -0.0604311 1.2974e-19)
(0.640728 -0.620049 -1.41276e-19)
(1.18065 0.69054 0)
(0.966631 0.0228199 -2.91373e-19)
(-0.0768525 0.0807246 0)
(1.02791 -0.0157288 1.0089e-20)
(-0.217973 -0.000864986 0)
(2.21913 0.205372 2.19376e-19)
(-0.118538 -0.201197 2.02993e-21)
(1.50182 0.753743 6.78885e-20)
(1.87071 0.101386 1.44276e-19)
(0.501761 0.0893441 -3.13718e-19)
(1.83031 0.220183 -2.2873e-19)
(1.49057 0.00476031 1.00091e-20)
(-0.270053 -0.288903 0)
(-0.0803613 0.135351 0)
(1.94219 -0.913066 1.05355e-19)
(-0.362554 0.0804804 0)
(1.09037 0.266177 1.40983e-19)
(0.620059 -0.332578 2.51539e-19)
(0.959605 -0.818109 0)
(1.22856 -0.819139 8.04031e-20)
(2.1296 0.0863332 0)
(-0.118936 0.298364 1.47091e-19)
(-0.0765065 0.0987739 9.0102e-20)
(0.607329 0.560094 7.46412e-20)
(2.13885 -0.789778 1.34081e-19)
(0.578678 0.231482 -2.53131e-19)
(-0.310613 -0.202149 3.32462e-20)
(0.797436 -0.681727 0)
(1.723 -1.00525 1.95978e-20)
(0.61014 -0.569531 0)
(2.18007 0.20776 6.44656e-20)
(1.16253 -0.17997 -2.98013e-19)
(2.1356 -0.0742752 1.67164e-19)
(1.31847 0.294178 -1.64388e-19)
(1.31528 0.520216 0)
(1.74719 -0.0880926 -1.0968e-20)
(1.33766 0.380422 -1.00583e-19)
(1.29214 -0.762537 -1.06108e-19)
(1.14065 0.641574 4.89221e-20)
(0.676692 0.037215 -5.05394e-19)
(0.81697 0.0298626 0)
(2.2757 -0.191599 -8.02623e-20)
(-0.243541 -0.297182 -1.54125e-19)
(2.54918 0.06814 -1.81966e-19)
(0.730266 -0.0728002 -2.21379e-19)
(0.907293 -0.547914 0)
(0.816235 0.152599 -8.23763e-20)
(0.577806 -0.539739 -2.58139e-19)
(2.30432 0.0564239 0)
(1.00732 0.00787095 3.20611e-19)
(-0.114554 -0.247116 0)
(1.96667 0.319419 0)
(0.502379 0.236889 6.28941e-20)
(1.43925 -0.183233 -3.68308e-20)
(1.0239 0.00372228 3.54168e-20)
(1.2873 0.398969 2.53428e-20)
(0.974719 0.0213603 3.70837e-19)
(1.04333 0.0242339 -8.8141e-21)
(0.658244 0.1394 -3.03674e-19)
(1.15072 -0.171067 7.03307e-21)
(1.46686 -0.277759 0)
(-0.0710768 -0.0644707 1.15603e-19)
(0.895608 -0.654139 -1.36729e-19)
(-0.0836761 0.0331227 -3.05109e-22)
(1.13154 -0.0855578 2.12762e-19)
(0.835171 -0.212021 0)
(0.974769 0.0222968 3.55506e-20)
(1.33211 0.627072 0)
(1.67784 -0.986949 0)
(1.27751 0.216379 0)
(-0.0927882 0.240642 0)
(0.826788 -0.699482 2.45836e-19)
(0.380821 0.308215 -2.02048e-19)
(0.427856 0.324766 1.24229e-19)
(1.53742 0.187055 0)
(1.16356 -0.11035 -1.94497e-19)
(1.12423 0.0227019 1.58716e-19)
(-0.176648 0.187288 1.09738e-19)
(0.610166 0.472272 0)
(2.28285 -0.160413 -1.45153e-19)
(0.9964 -0.506564 6.88517e-20)
(-1.08732 0.65511 2.74729e-19)
(1.70171 0.291555 1.13787e-19)
(-0.0698465 0.235513 -2.33551e-19)
(0.851051 -0.773977 0)
(0.541465 0.307671 1.54237e-19)
(1.76471 -0.227629 -6.23452e-19)
(-0.238414 -0.231739 -5.07636e-19)
(1.54854 0.129033 2.1632e-19)
(1.71065 0.0818484 0)
(-0.0950269 -0.0897048 -3.45698e-19)
(0.717391 -0.108142 6.9747e-20)
(1.52299 0.858062 0)
(-0.126926 0.320604 -1.90232e-19)
(0.857985 0.735525 -2.5142e-19)
(-0.487457 0.221126 2.79353e-19)
(1.02784 -0.0269673 0)
(1.55858 -0.00535886 -2.72517e-19)
(-0.0512555 0.173595 0)
(0.729052 -0.528879 -9.22577e-20)
(-0.398083 0.210505 -1.50996e-19)
(0.823168 -0.751809 0)
(0.463437 -0.327137 3.67658e-19)
(0.573591 -0.49228 2.43586e-19)
(0.431683 -0.391072 0)
(1.02286 -0.814321 -9.5139e-20)
(0.376918 0.205113 0)
(-0.0954276 0.357692 -1.153e-19)
(0.84685 -0.730991 1.1563e-19)
(2.46155 -0.240383 3.39302e-19)
(2.11224 0.178015 0)
(-0.146468 -0.198292 0)
(0.661427 0.614098 -3.12861e-19)
(1.84215 -0.648302 2.56725e-20)
(-0.164657 -0.185993 0)
(1.02301 -0.840427 -1.05985e-20)
(1.16726 -0.104328 0)
(1.09735 -0.134005 3.37934e-19)
(2.10992 -0.165787 -1.43696e-19)
(-0.0767865 0.16376 0)
(1.26185 -0.57686 -4.1713e-20)
(-0.323824 0.146046 -4.14779e-20)
(0.00118197 0.0520135 0)
(1.13362 -0.84697 1.29674e-20)
(1.00709 0.00420479 -5.35602e-19)
(0.682997 -0.515591 -9.12083e-21)
(0.850007 -0.5486 0)
(1.24185 -0.760159 -6.85296e-20)
(0.64015 0.199942 2.37185e-19)
(1.18585 0.119913 0)
(1.4595 0.0771188 -2.28622e-19)
(1.23928 -0.889318 -1.26905e-19)
(-0.137613 -0.188084 -1.26341e-19)
(-0.183662 -0.352488 -1.99073e-19)
(1.06285 0.000636425 2.02402e-19)
(0.950753 -0.493137 -8.65781e-20)
(0.846165 -0.0628929 -6.51062e-21)
(0.226991 0.222751 -1.95006e-20)
(0.75912 -0.123032 1.39996e-19)
(-0.126871 -0.0897723 -3.1619e-19)
(2.03382 -0.282695 0)
(2.646 -0.379919 1.5414e-19)
(1.41152 0.629978 1.24249e-19)
(0.843143 -0.646923 -1.79339e-19)
(0.995831 0.00780976 1.09745e-20)
(0.75463 -0.564577 2.53583e-19)
(1.27039 0.77772 1.14166e-19)
(1.76936 0.0703046 1.21289e-20)
(-0.101241 0.127469 0)
(1.078 0.0472405 -2.10166e-19)
(-0.552582 -0.088493 -2.52054e-19)
(1.04455 0.469612 7.27937e-20)
(0.114224 -0.138167 1.91069e-19)
(1.16491 0.0259506 -3.79332e-20)
(-0.215068 -0.00209073 -1.47564e-19)
(1.2633 0.563833 -6.99748e-20)
(1.10519 0.860211 0)
(-0.145416 0.116661 -9.12859e-20)
(-0.101552 -0.128262 0)
(0.626712 0.534445 -2.54363e-19)
(2.03222 0.168444 -1.59944e-20)
(-0.259607 -0.272513 1.74814e-19)
(-0.365567 -0.0447336 -5.71502e-19)
(0.721854 0.0387836 2.21972e-19)
(1.8558 0.168361 -3.37105e-20)
(1.01008 -0.370488 -2.56621e-20)
(-0.084978 -0.0992442 0)
(-0.968096 0.987668 4.09038e-19)
(1.29151 0.944262 -1.47781e-20)
(0.834638 0.0461625 -1.21514e-19)
(0.533047 0.499237 1.76969e-19)
(0.451858 0.194484 0)
(-0.213935 -0.306943 -2.47058e-19)
(-0.944379 1.2241 2.81469e-19)
(1.34325 -0.992508 9.78093e-23)
(0.993976 -0.0483598 -1.6591e-19)
(-0.174844 -0.168425 6.49652e-21)
(0.0317156 -0.0271024 1.39145e-19)
(-0.241911 -0.209358 -2.22764e-19)
(1.81099 0.053717 0)
(1.12032 0.0396418 -2.82643e-19)
(2.41113 0.168477 1.76169e-19)
(1.31596 -0.645044 6.93286e-20)
(1.13356 -0.121092 2.37968e-20)
(0.571526 0.287093 0)
(0.913988 0.724296 -1.48692e-20)
(0.659204 0.605398 1.68318e-19)
(0.932041 -0.594789 1.23903e-19)
(0.658001 0.468783 0)
(1.0243 -0.00335472 7.12527e-21)
(0.9184 -0.696112 1.76035e-19)
(0.815462 0.394533 -4.15533e-19)
(1.23917 -0.11059 0)
(-0.100917 -0.113703 -3.6233e-19)
(-0.12042 0.0371295 -9.26516e-20)
(1.54952 0.700383 0)
(1.3984 -0.972718 -8.37221e-23)
(-0.314621 0.238595 0)
(-0.0265775 0.105477 1.03906e-19)
(0.708617 0.625198 -8.95465e-20)
(0.867581 -0.245106 0)
(-0.205499 -0.182213 0)
(1.66615 -0.477942 0)
(-1.18341 0.501698 4.39735e-19)
(1.25784 -0.917409 8.33943e-20)
(1.21639 -0.631732 4.63153e-20)
(1.08016 -0.182056 -1.33599e-19)
(0.916162 -0.726208 -1.37905e-19)
(0.197247 -0.201783 0)
(-0.661362 0.21192 0)
(1.0374 -0.538418 1.42725e-19)
(-0.174308 -0.226655 0)
(-0.110113 0.29477 0)
(-0.226104 -0.227374 4.35949e-19)
(0.764371 0.643129 7.76806e-20)
(0.982262 0.767948 0)
(0.669164 0.522215 -7.75521e-20)
(0.836169 -0.0711416 -1.98304e-19)
(0.71836 0.532068 -2.07247e-19)
(0.567158 0.525713 -1.52449e-19)
(-0.232654 -0.320873 5.9288e-22)
(0.751223 -0.674337 0)
(0.889105 0.150681 -2.89506e-19)
(-0.270573 -0.308157 6.87777e-20)
(0.579914 0.536994 3.43331e-19)
(0.926754 0.770572 0)
(-0.686632 0.287336 3.00145e-19)
(-0.113912 -0.272571 3.86267e-19)
(-0.0644466 -0.118205 -2.0022e-19)
(0.636342 0.539483 -1.34862e-20)
(0.969309 -0.00898337 5.19391e-20)
(-0.267873 -0.277976 0)
(2.27376 -0.0118099 -3.46403e-19)
(2.01704 -0.147604 -4.61667e-19)
(0.683712 -0.634027 -6.25629e-20)
(-0.361976 0.296687 8.98875e-21)
(1.16487 0.441056 1.63442e-19)
(0.863229 0.386115 0)
(1.07772 -0.18686 1.61946e-19)
(0.0283053 -0.295734 -2.65556e-21)
(-0.125411 0.00138973 3.42266e-19)
(0.927462 0.0166239 -4.56788e-20)
(1.09037 0.140705 0)
(1.89952 -0.0387695 -3.50072e-19)
(1.81547 0.0808252 0)
(0.530076 0.209743 -4.16086e-19)
(0.0355449 -0.0272069 0)
(-0.236667 -0.295201 3.02618e-19)
(0.719416 0.107927 0)
(0.653332 -0.549429 -1.56618e-19)
(1.14777 0.0153924 1.8155e-19)
(-0.114789 0.214475 3.59762e-20)
(2.11156 -0.0215417 7.21335e-21)
(2.17202 -0.237666 -1.60491e-19)
(1.09313 0.214801 -1.96262e-19)
(-0.270405 -0.298477 -1.31639e-19)
(1.11598 -0.884808 0)
(0.818484 0.0178106 -1.32187e-19)
(0.956062 -0.404325 -2.46982e-19)
(1.76949 -0.595656 -1.08257e-20)
(1.79599 0.012499 3.25662e-19)
(1.06891 -0.0104862 3.38134e-19)
(0.0292122 -0.295898 -1.8378e-19)
(1.02642 -0.464464 -1.04431e-19)
(0.207942 -0.200401 2.2167e-19)
(1.00781 -0.00912984 0)
(1.00477 -0.00775295 0)
(1.20444 -0.0123279 1.87368e-19)
(-0.0682613 0.320067 -8.15956e-20)
(0.182305 -0.119637 -1.66155e-19)
(2.01393 0.0668416 -9.32739e-21)
(1.1129 0.124545 0)
(1.72943 0.165241 -1.14857e-19)
(0.982144 -0.855443 -5.07858e-20)
(1.84642 -0.583062 -1.01272e-19)
(1.07288 0.810315 0)
(0.498728 -0.48171 0)
(0.577388 0.486313 -1.61594e-19)
(1.07493 0.264054 -3.62861e-19)
(2.30491 -0.237418 5.10772e-22)
(0.853194 0.135416 1.24158e-19)
(-0.0986477 -0.291121 -5.12523e-19)
(1.60519 -0.446664 -5.57126e-20)
(-0.270976 -0.300168 0)
(-0.14767 -0.210379 0)
(-0.276186 -0.268289 0)
(1.38473 -0.751396 -4.58723e-20)
(-0.00187043 0.0531165 -1.97312e-19)
(0.0275209 -0.0438974 0)
(1.25286 0.945971 -2.92742e-20)
(1.09353 0.137229 -3.7562e-19)
(1.88407 0.0785549 -1.98659e-20)
(1.04666 0.892977 7.38572e-20)
(-0.0685489 0.20344 1.19156e-19)
(1.41674 -0.207182 0)
(-0.271936 -0.253069 -3.61269e-19)
(-0.0381294 0.159367 2.28209e-19)
(0.775116 0.00280346 1.62954e-19)
(1.49409 0.91931 2.0917e-21)
(1.19714 -0.312514 -9.54119e-20)
(-0.106121 0.0138908 -9.15354e-22)
(0.778689 -0.710803 -2.93596e-20)
(1.09233 -0.0251051 0)
(1.66769 -0.0541767 0)
(1.08485 0.0501356 0)
(-0.705222 0.806618 -2.10464e-19)
(-0.276797 -0.27568 1.26383e-19)
(1.01439 0.816473 0)
(1.0029 -0.0142285 4.45991e-19)
(0.73954 0.574581 -2.07918e-19)
(-1.12351 0.805686 -2.57924e-19)
(0.86014 -0.00607394 -3.63844e-20)
(0.746246 -0.682077 -1.78558e-19)
(1.35045 0.686844 -2.82452e-20)
(0.594976 -0.489715 -2.54192e-19)
(1.12369 -0.00137889 -4.04142e-19)
(0.822075 0.0378372 3.8506e-20)
(1.56965 -0.180814 3.75233e-20)
(1.94339 -0.111092 -1.37837e-19)
(-0.0990107 -0.114789 -1.8608e-22)
(1.05253 0.44577 -2.41737e-19)
(1.29359 0.594624 7.14289e-20)
(-0.133949 -0.203282 0)
(-0.125869 -0.276279 1.88684e-19)
(-0.140438 -0.163816 1.5293e-19)
(-0.166134 -0.154387 -1.60154e-19)
(0.44942 0.268349 0)
(1.46668 -0.0816586 0)
(-0.0303312 0.0214881 -1.24286e-19)
(-0.255692 -0.320567 -7.06955e-20)
(1.04358 -0.0323543 1.60095e-19)
(-0.0640649 0.0866737 -4.33539e-20)
(1.25126 0.173308 -3.44535e-19)
(-0.154433 0.286774 0)
(0.868351 -0.770388 -2.36141e-19)
(1.72009 -0.138306 2.32321e-19)
(-0.278427 -0.307036 1.68583e-19)
(0.70882 0.125716 2.95831e-19)
(0.614179 0.0942608 9.59654e-20)
(0.528372 -0.501699 1.73194e-19)
(-0.182494 -0.213597 -1.60435e-19)
(1.0342 -0.528061 0)
(0.366155 0.300951 -1.77577e-19)
(1.02711 -0.018106 -2.54657e-19)
(-0.377818 -0.0294918 2.2571e-19)
(1.38337 0.462691 -1.06294e-19)
(-0.189556 -0.25736 -6.16661e-20)
(0.718151 -0.655722 -1.28657e-20)
(0.801361 0.159457 -1.85617e-19)
(0.952924 0.401648 2.06572e-20)
(1.17264 -0.151822 2.89319e-20)
(0.626214 -0.270046 -2.63869e-19)
(2.07009 -0.366936 -2.15983e-19)
(2.04552 0.00342983 0)
(1.74645 0.0442035 -2.30278e-20)
(1.63182 0.105972 -1.48781e-20)
(0.775425 -0.181725 1.37825e-19)
(0.939183 0.351026 -1.78307e-19)
(1.81893 -0.246111 6.10232e-20)
(0.3935 0.356775 -2.3021e-19)
(-0.180711 0.306157 1.53377e-19)
(2.08783 -0.130981 0)
(0.933233 0.00493961 0)
(0.909452 -0.805105 4.31183e-20)
(-0.109325 -0.30944 -4.23136e-19)
(-0.611091 0.287893 -1.82189e-19)
(-0.120996 -0.147139 -2.67406e-19)
(-0.19833 0.281723 -1.22092e-19)
(-0.260383 -0.36342 0)
(-0.13817 -0.186045 4.80192e-20)
(-0.22656 0.204869 -8.44993e-20)
(0.0306765 -0.0228788 -3.16917e-19)
(0.816608 -0.14018 0)
(1.90471 -0.232121 2.09426e-19)
(-0.134144 -0.155218 0)
(0.995368 0.0237433 3.22035e-19)
(-0.175026 -0.329757 2.2065e-20)
(0.570451 -0.461827 3.40642e-19)
(-0.527959 -0.182504 4.17529e-19)
(-1.1091 0.124919 0)
(-0.00347033 0.269291 8.27125e-20)
(1.00593 0.0203204 -9.66916e-21)
(-0.062283 -0.153473 0)
(1.00504 -0.0096201 -5.0339e-20)
(0.895986 -0.758326 -2.30876e-19)
(1.20852 0.171214 0)
(0.956831 -0.295486 1.76584e-19)
(-0.0495854 0.364804 1.58701e-19)
(-0.0606194 -0.0633693 0)
(-0.239872 -0.287969 -6.88383e-21)
(0.758707 -0.664975 -3.56216e-19)
(0.971999 -0.0284218 -2.28105e-19)
(-0.0985694 -0.31685 5.1345e-19)
(-0.21642 -0.303167 1.87406e-19)
(-0.254909 -0.341376 0)
(0.933957 0.450301 0)
(-0.223852 -0.395814 2.14343e-19)
(1.95116 0.0397654 -2.32693e-19)
(1.0425 0.867946 1.67491e-20)
(1.05671 0.198984 -1.10129e-19)
(1.15078 0.00628067 -1.85891e-19)
(1.07108 -0.0758037 -6.3347e-20)
(-0.114255 -0.336462 -4.66575e-19)
(1.84422 0.0995845 3.62547e-19)
(0.661741 0.0331048 1.8433e-19)
(1.80346 -0.0301129 1.57577e-19)
(1.06756 -0.164778 0)
(-0.289876 0.624684 5.39073e-19)
(1.1447 0.0244049 -4.36453e-19)
(1.7079 0.600022 5.72756e-21)
(0.771346 -0.487689 -1.3843e-19)
(-0.0939883 -0.0886689 2.58429e-19)
(0.831323 -0.730582 3.0551e-19)
(1.21471 0.189661 6.63125e-20)
(1.00656 -0.00836028 2.23068e-19)
(-0.0321947 -0.309643 -1.98637e-19)
(1.01829 0.0102598 0)
(1.64165 0.092743 -2.3091e-19)
(-0.0795028 -0.0797404 0)
(1.01407 0.0112266 -1.30781e-19)
(-1.03862 0.371782 -5.052e-19)
(1.70113 0.294295 3.11393e-20)
(-0.202328 -0.214504 1.88606e-19)
(1.56988 0.0129168 -2.67067e-21)
(1.01318 -0.0201255 4.62201e-20)
(1.32317 -0.083822 0)
(1.48898 -0.629432 -7.7863e-20)
(1.01761 0.0252403 -1.37196e-19)
(1.40475 0.766343 -4.83093e-20)
(1.34303 -0.0315483 0)
(1.76328 0.567792 -1.14429e-20)
(-0.0414041 0.0262974 0)
(1.41006 0.0442249 0)
(-0.280565 -0.277009 0)
(1.21574 0.431082 0)
(1.81068 0.251398 4.05778e-20)
(0.713258 0.587868 3.64383e-19)
(0.307624 -0.30972 -2.04974e-19)
(-0.245278 -0.329915 -4.4088e-19)
(-0.0900297 -0.106268 0)
(2.62956 -0.160137 1.75638e-19)
(1.31811 0.509209 0)
(1.42958 0.285229 0)
(-0.27606 -0.255948 1.57652e-19)
(0.781012 0.688981 1.16739e-19)
(1.73714 -0.026239 0)
(-0.233427 -0.257569 1.00812e-19)
(0.89385 0.19665 1.69971e-19)
(2.19909 -0.180931 -1.32624e-19)
(1.20718 0.900342 4.03017e-20)
(0.95948 -0.863533 -1.81026e-20)
(1.93592 -0.0581822 -1.05112e-19)
(0.767382 0.69275 1.19763e-19)
(1.14521 0.898634 0)
(2.34917 0.0186739 2.01992e-19)
(0.763072 1.00165 0)
(1.70831 -0.404777 1.47315e-19)
(1.05535 0.0918713 1.92953e-19)
(1.00512 -0.00688567 0)
(0.403283 1.31252 4.67618e-19)
(0.905633 -0.196904 4.13559e-20)
(0.658844 -0.444162 0)
(0.696207 -0.416963 1.84296e-19)
(1.20882 0.538239 -3.03072e-20)
(0.453346 0.426067 2.52978e-19)
(0.0289965 -0.0104254 3.78619e-20)
(-0.0163713 -0.129398 8.9979e-20)
(0.771994 0.0628526 0)
(1.36748 -0.932825 -2.29088e-20)
(1.02966 -0.0456289 3.55681e-19)
(1.49725 0.33523 1.41276e-19)
(-0.239835 -0.256344 8.67396e-20)
(-0.576499 -0.0897205 0)
(1.25785 -0.251566 -9.11309e-20)
(-0.0626663 -0.0666887 -2.21243e-19)
(0.00308474 0.135833 -5.80408e-20)
(-0.133587 0.06403 -8.8033e-22)
(-0.197122 0.10118 2.83056e-19)
(0.535394 -0.264526 -1.48857e-20)
(2.45395 0.00277473 4.63869e-19)
(1.16367 0.44315 -2.63559e-19)
(0.838583 -0.0571769 0)
(1.83305 -0.103888 1.7612e-19)
(1.91816 0.0870423 1.43934e-19)
(0.947576 -0.797148 1.10577e-19)
(1.19973 -1.01181 -7.32591e-21)
(0.458203 0.424252 1.69631e-19)
(1.64927 0.69472 0)
(1.71813 0.558388 2.88795e-20)
(-0.0757422 -0.0888255 -4.50423e-19)
(0.856756 0.746258 0)
(1.52983 -0.267889 0)
(0.309375 -0.309267 -3.9884e-21)
(0.299207 0.262682 0)
(-0.769752 0.0762213 -3.5775e-19)
(0.00996065 0.0347843 -1.08181e-19)
(1.78557 -0.444524 0)
(1.20807 0.0889337 1.67624e-19)
(-0.606426 0.333884 1.51877e-19)
(0.560499 -0.533017 -3.90233e-19)
(1.91643 -0.0700816 -5.89456e-20)
(0.640347 -0.582445 0)
(1.00735 0.12166 0)
(1.39016 -0.272079 0)
(1.10249 0.213939 -2.09006e-19)
(1.32845 0.100817 2.95381e-19)
(-1.0108 0.16659 0)
(0.896091 -0.0645134 0)
(2.13683 -0.0525124 -9.58237e-21)
(-0.0276035 -0.0336741 9.51665e-20)
(2.28369 0.11006 -2.30212e-19)
(1.10932 -0.535582 2.32477e-19)
(1.92625 0.0811796 -2.78616e-19)
(-0.552394 0.196779 -1.13585e-19)
(1.86694 0.0777583 -1.5042e-19)
(1.02018 -0.0304128 3.62481e-19)
(1.48227 0.583372 0)
(-0.0398875 0.151037 2.92603e-20)
(1.04239 -0.86134 1.28599e-19)
(0.861411 -0.0403268 4.25293e-20)
(0.664322 -0.466569 0)
(1.96648 -0.552925 1.15644e-20)
(1.2371 -0.202257 1.17063e-19)
(1.97953 -0.368882 0)
(0.635294 -0.590595 3.50081e-19)
(1.32415 0.00182542 -3.49234e-20)
(2.1979 0.120279 3.65504e-19)
(-0.00135014 -0.0240424 -1.97898e-19)
(1.29984 0.59913 1.34233e-19)
(1.12374 0.389947 3.32085e-21)
(0.885082 0.34846 2.03427e-19)
(1.98755 0.221166 -2.69714e-19)
(-0.130638 -0.333025 -2.2404e-21)
(0.77052 -0.191626 0)
(-0.140897 -0.113227 4.2356e-19)
(1.13391 -0.986834 0)
(1.10138 -0.680622 1.69944e-20)
(1.07784 -0.0890712 -7.56669e-19)
(0.787514 0.855329 6.49768e-20)
(-0.380219 -0.306122 -3.95514e-19)
(0.963166 0.461364 1.59073e-19)
(-0.230907 1.07861 2.3267e-19)
(0.686079 -0.0399348 0)
(2.08386 0.0276688 0)
(1.21303 0.0801027 1.51886e-20)
(0.789396 -0.0106639 0)
(1.38754 -0.214259 -1.20457e-19)
(-0.714719 0.172716 4.17897e-19)
(1.88569 0.488015 1.43325e-20)
(1.03673 -0.0351676 0)
(0.579934 -0.388367 9.01957e-20)
(1.00934 0.0263608 1.72887e-19)
(-0.290127 0.661316 -1.64386e-19)
(-0.252612 0.304458 0)
(1.14291 -0.498286 3.88923e-19)
(2.06683 -0.0946624 -6.47285e-22)
(1.13221 -0.521189 -1.69574e-19)
(2.23783 0.250743 1.26935e-19)
(1.25659 0.767734 0)
(0.863467 0.0189184 0)
(-0.257101 -0.2644 -2.16024e-19)
(-0.0308966 0.0119068 1.39859e-19)
(0.929281 0.34567 -1.87767e-19)
(0.148876 -0.283904 -1.74735e-19)
(0.624758 0.374648 2.20891e-19)
(1.57713 0.540329 0)
(0.56408 -0.524618 0)
(-0.060572 -0.66954 -1.06924e-20)
(1.26666 -0.529303 -7.54945e-20)
(0.755559 -0.0769684 1.74301e-20)
(0.741946 -0.18771 1.0424e-19)
(-0.0651611 -0.025649 -2.50165e-19)
(0.926596 0.194957 1.63646e-19)
(0.637024 0.592972 0)
(1.23965 0.675094 0)
(1.58438 0.253694 0)
(-0.312078 -0.332145 -1.8248e-19)
(1.23111 0.541224 1.93301e-19)
(2.03839 0.0722769 5.75031e-20)
(0.912056 -0.0122607 0)
(2.70122 -0.463204 0)
(2.07401 -0.0434789 -2.72848e-19)
(0.1528 0.750241 1.9611e-19)
(1.00527 0.00223839 -1.73143e-19)
(1.4659 0.46694 0)
(-0.14861 0.309196 0)
(1.21651 0.304681 2.60063e-19)
(0.997874 0.505667 -1.18012e-19)
(1.06592 0.0201673 0)
(1.92427 0.267678 0)
(1.95051 0.648487 -2.8547e-19)
(-0.0785887 0.0698272 1.42753e-22)
(0.99734 0.0115741 0)
(0.684103 0.441669 -3.03832e-20)
(0.972797 -0.857825 0)
(1.00105 0.0145558 4.01094e-20)
(0.613319 -0.569808 -3.10361e-19)
(0.927805 -0.346314 2.59151e-19)
(0.276194 -0.664171 2.24136e-19)
(2.1585 -0.122442 4.15928e-19)
(1.44383 0.0155475 1.04919e-19)
(0.798616 -0.0268018 0)
(1.02202 0.00720917 0)
(-0.38027 -0.291503 0)
(0.642302 0.614401 -1.71913e-19)
(-0.0387197 -0.0264811 1.68847e-19)
(1.14709 0.335185 -4.16823e-19)
(-0.182334 0.143226 0)
(0.801887 0.615652 1.53097e-19)
(1.03352 -0.356355 0)
(1.00556 -0.00264481 1.01396e-19)
(0.223891 0.293543 7.59826e-20)
(1.01145 0.385238 2.32582e-19)
(1.22166 0.208768 0)
(2.12658 0.135683 -5.96963e-20)
(0.833864 -0.137681 -3.18752e-19)
(-0.742116 0.0084858 -4.84409e-19)
(1.1421 0.588508 0)
(0.864137 0.218149 1.57938e-19)
(2.06617 -0.134772 0)
(0.750974 0.492729 3.30271e-19)
(-0.801378 0.10924 1.83065e-19)
(-0.00250156 -0.0434074 0)
(0.568226 0.539306 -6.44635e-20)
(1.06213 -0.669059 -1.19711e-19)
(0.50412 -0.293373 -1.08015e-19)
(1.02173 -0.0212193 0)
(-0.34078 0.363756 -1.35741e-19)
(0.66777 -0.598034 6.91254e-20)
(0.88937 0.265998 0)
(1.85729 -0.110111 2.24172e-19)
(0.953856 0.811257 2.2065e-20)
(0.43195 -0.751106 2.65716e-19)
(0.209074 -0.0627589 -3.25594e-19)
(0.246696 -0.114925 -4.95086e-19)
(-0.166589 -0.235764 1.15608e-20)
(0.795682 0.330475 2.23924e-19)
(-0.00210537 0.0725525 -4.82805e-21)
(1.45529 -0.672581 3.58833e-21)
(1.02535 0.00242403 -2.99438e-19)
(-0.32549 -0.362079 0)
(1.02823 0.0260011 -3.57228e-19)
(2.18416 0.375247 2.24243e-19)
(0.859663 0.663333 2.56631e-19)
(1.14553 -0.0766418 1.36533e-19)
(1.00836 -0.0376874 1.38593e-19)
(0.862034 0.782821 -6.08922e-20)
(-0.196945 -0.207207 -2.83722e-22)
(1.78521 -0.901664 1.61166e-20)
(1.15426 -0.13277 -5.85936e-20)
(0.835863 0.053646 6.66673e-20)
(0.93065 -0.315447 7.7119e-20)
(1.11378 -0.041941 0)
(0.933102 0.708173 0)
(0.615406 0.211588 -9.05981e-20)
(1.94679 0.17291 -1.84341e-20)
(-0.678958 0.0212001 1.62421e-19)
(1.06183 -0.56532 -4.17452e-19)
(0.646394 -0.564569 3.3463e-19)
(1.12903 0.148731 -8.72784e-20)
(0.167597 -0.299704 2.04545e-20)
(1.48448 -0.466561 0)
(0.747349 0.083973 -6.04031e-21)
(1.68457 -0.429952 -2.95036e-19)
(1.01 0.735929 0)
(0.915187 -0.509812 0)
(0.277652 0.353435 0)
(-0.199742 -0.251455 -7.37271e-20)
(-0.0646142 0.17926 0)
(1.54878 0.556259 2.16595e-19)
(1.20215 0.173989 5.70896e-21)
(-0.995054 0.354257 1.99845e-19)
(1.41983 -0.169654 9.76833e-21)
(1.78739 0.435915 -6.44251e-20)
(2.17363 -0.315253 -4.54905e-20)
(-0.170955 0.0349489 -1.99498e-19)
(-0.237027 -0.30657 5.13203e-21)
(1.28331 -0.0059065 0)
(0.67081 -0.0351021 0)
(1.00058 -0.000627733 2.15771e-22)
(-0.302409 -0.343687 0)
(1.46415 0.0315847 -1.49397e-19)
(0.673932 -0.0316253 0)
(1.06464 0.00333937 1.09443e-19)
(0.988441 0.0143637 -3.9304e-20)
(0.966542 0.216943 1.02385e-19)
(1.05681 -0.0210466 -8.15478e-22)
(0.966554 -0.209908 -4.67211e-20)
(1.02946 -0.0390806 3.20442e-19)
(0.701848 -0.640425 1.55013e-19)
(-1.25975 0.6733 -2.45423e-19)
(1.73845 -0.281844 3.25578e-20)
(-0.0338892 0.00253705 0)
(1.09482 0.7695 0)
(1.03327 -0.0139782 0)
(1.03815 -0.804634 -8.02415e-20)
(1.07877 -0.923884 7.89044e-21)
(2.11274 0.1369 -5.61162e-20)
(-0.14395 0.0766814 -1.06141e-18)
(0.225303 -0.151365 -3.42249e-20)
(0.613849 -0.420779 -5.5077e-19)
(1.7726 -0.187261 -4.35342e-20)
(-0.322399 -0.801474 2.46845e-19)
(2.1307 -0.322185 1.47727e-19)
(1.39974 0.0354653 -2.68364e-20)
(-0.241604 -0.266759 -1.52627e-19)
(1.08629 0.531173 1.78959e-19)
(-0.14344 -0.294941 0)
(0.0449229 -0.312521 4.08314e-19)
(-0.140073 -0.180131 -1.9951e-22)
(1.02522 -0.0460839 2.91351e-19)
(1.02611 -0.00443776 -7.43353e-21)
(1.10502 -0.0122051 -8.0506e-20)
(1.26834 0.906649 -1.36352e-19)
(1.59048 0.309987 5.33317e-20)
(0.423329 -0.398638 -2.71544e-19)
(1.90638 0.224259 1.04247e-19)
(1.03914 -0.00437424 -2.11375e-19)
(2.07736 -0.0290899 -3.35279e-20)
(1.44812 0.794022 0)
(1.08177 0.569937 -3.35507e-19)
(1.00246 -0.00537401 8.27426e-20)
(0.649187 0.577189 2.36246e-19)
(1.53977 -0.437256 7.00581e-21)
(1.05979 -0.0140735 -2.65967e-20)
(1.12015 0.0113353 7.53281e-22)
(2.22727 0.124348 1.25968e-20)
(1.44429 -0.0422405 0)
(1.0423 -0.0412184 0)
(1.04895 -0.0353115 5.10445e-19)
(1.00261 -0.00317179 0)
(-0.115026 -0.142302 0)
(0.99055 -0.606518 0)
(1.00113 -0.00120636 -4.81108e-19)
(1.19497 -0.710061 6.05459e-20)
(1.02464 -0.00576938 1.00482e-20)
(1.30862 0.929345 -2.30005e-20)
(1.48953 0.976438 -1.20782e-20)
(-0.0672169 -0.347731 6.17182e-20)
(1.60177 0.381674 2.24775e-19)
(1.20246 0.0625944 0)
(-0.150866 0.190913 0)
(2.23472 -0.00417453 5.30583e-19)
(1.28257 -0.50588 0)
(0.999908 -0.00533666 -1.49398e-19)
(1.01062 -0.00113773 2.90132e-19)
(1.4272 0.135453 -6.21842e-20)
(-0.00185377 -0.116518 3.27098e-19)
(0.973558 -0.000152563 1.57895e-19)
(1.31788 0.177811 2.42469e-20)
(0.865179 -0.0839317 -4.47896e-20)
(1.21503 0.965738 -1.25748e-21)
(0.933325 0.0169544 -1.57438e-19)
(1.00385 0.00353636 1.86852e-19)
(1.0002 -0.00070471 1.10445e-20)
(0.78889 -0.0133565 0)
(0.725927 -0.027127 0)
(0.721097 -0.0275341 6.17504e-22)
(0.696275 -0.0296704 0)
(1.65093 -0.111673 0)
(1.02105 -0.177557 0)
(0.538931 -0.0225834 7.09349e-20)
(0.720776 0.00967738 -3.95788e-20)
(1.34836 0.0911005 0)
(0.914012 0.814554 1.28589e-20)
(1.04849 0.980486 0)
(0.978445 0.217476 0)
(1.22688 0.11954 0)
(1.47113 0.0326546 5.54446e-21)
(1.25664 -0.0465017 6.02749e-20)
(0.779901 0.022546 0)
(0.786919 0.0200757 0)
(0.970314 0.0196225 -1.94297e-19)
(0.814199 0.00810976 3.64246e-19)
(1.00829 -0.00134709 0)
(1.00025 -0.000657426 3.45364e-19)
(1.00018 -0.000805153 -3.84215e-22)
(0.786888 0.0219003 3.0824e-19)
(0.994201 -0.00652371 -1.81258e-19)
(1.01617 0.217709 0)
(0.657293 -0.094511 4.48184e-20)
(1.00063 -0.00168367 -1.74829e-19)
(0.999527 0.00065298 -2.99562e-19)
(1.16507 0.738432 0)
(0.999007 0.00153926 0)
(0.999734 4.72648e-05 0)
(1.76363 -0.468328 4.54206e-20)
(-0.115987 -0.0810099 -5.47214e-20)
(1.88657 -0.077595 0)
(-0.0370505 0.0646799 2.00444e-19)
(-0.399738 0.783854 -4.52567e-19)
(1.01883 -0.0190691 -2.32657e-19)
(-0.285521 -0.289993 -1.30703e-19)
(1.01936 -0.00178597 -1.86747e-19)
(1.19783 -0.224792 -7.21691e-20)
(0.82731 -0.502151 2.57408e-19)
(-0.109775 -0.131136 -1.08612e-19)
(1.03252 0.00911098 0)
(1.04633 -0.0144626 -5.12383e-20)
(0.861322 0.019614 0)
(-0.104503 0.0214122 2.4747e-19)
(1.38329 -0.383575 0)
(-0.301175 -0.291684 -3.2629e-19)
(1.44391 0.0904431 -2.77931e-20)
(1.61816 0.663878 1.6164e-21)
(-0.077865 0.0292909 0)
(1.05219 -0.0386983 1.57793e-19)
(-0.355681 -0.199721 -8.52516e-21)
(0.926618 -0.02718 2.48495e-19)
(1.01132 -0.0104474 -1.58687e-19)
(1.63713 0.836997 3.92995e-20)
(0.49928 0.466113 0)
(0.420065 0.36495 1.85654e-19)
(2.49983 -0.453095 -1.35767e-20)
(1.13183 0.118828 1.73629e-19)
(1.12357 -0.740533 0)
(1.02127 -0.000209215 0)
(0.99945 -0.0192716 -3.6597e-19)
(1.0196 0.0134929 -3.54839e-19)
(-0.18837 -0.289768 0)
(1.18991 0.797074 -1.16551e-19)
(1.26468 -0.370989 -7.4595e-21)
(1.01591 0.0019238 1.36951e-19)
(1.01244 0.012127 -1.71507e-19)
(-0.309086 -0.277181 -3.19407e-20)
(-0.717669 -0.141563 1.89698e-19)
(1.01729 -0.0175899 5.84942e-19)
(1.45289 -0.317184 0)
(1.81917 0.623845 -4.58038e-20)
(1.01513 -0.0142896 -1.82009e-19)
(2.00484 0.117693 -1.43127e-19)
(1.05819 0.0044168 -4.21716e-22)
(1.00899 -0.0110544 3.64896e-20)
(2.11508 -0.218496 -3.54331e-19)
(1.01655 0.00553931 1.76139e-19)
(-0.0271082 -0.613872 1.61543e-20)
(1.01889 -0.000668396 0)
(0.922874 0.13203 4.43348e-20)
(-0.854986 0.0267958 5.55493e-21)
(1.00169 0.0211742 1.74932e-19)
(1.04197 0.0201394 -6.38833e-22)
(1.19901 -0.539519 1.56344e-20)
(1.2351 0.306769 3.71425e-19)
(0.998414 0.0136445 1.19974e-19)
(1.01635 -0.0160749 4.38894e-22)
(1.70144 0.243798 -2.0599e-20)
(1.7335 0.914313 -9.94614e-20)
(0.806175 -0.723949 4.54522e-20)
(0.477454 -0.366555 -2.6831e-19)
(1.00689 -0.011897 0)
(1.02138 0.00101772 4.37772e-20)
(1.01082 -0.0105657 9.25276e-20)
(0.00881105 -0.19183 2.20883e-20)
(1.0149 0.00307874 -1.83365e-19)
(1.03277 -0.0291686 2.08709e-19)
(1.00761 -0.00954252 -1.73081e-19)
(1.01375 0.00294821 -4.6888e-22)
(1.01307 0.000636012 -3.23916e-22)
(1.02656 0.0116145 1.75385e-19)
(0.895661 0.0653766 4.53577e-19)
(1.19383 0.260618 0)
(0.343039 0.0656902 2.59946e-19)
(1.01188 -0.00603865 0)
(1.02021 -0.0225942 -5.09964e-20)
(1.49835 0.426937 -7.38409e-20)
(1.73683 0.0588936 0)
(2.29155 -0.0737144 -1.83469e-19)
(0.858958 0.363868 -2.89434e-20)
(0.743456 -0.0171078 0)
(2.00525 -0.0771398 0)
(-0.20266 1.00554 -1.45686e-19)
(0.843507 0.728409 2.97246e-20)
(1.01748 -0.00739363 -1.85012e-19)
(1.15183 -0.588029 -4.75291e-20)
(-0.330233 -0.75673 2.49346e-20)
(0.148051 -0.679194 0)
(1.74197 -0.481352 0)
(1.64387 0.106855 0)
(-0.169487 0.0406765 6.99568e-20)
(0.219043 0.00121559 -3.44852e-19)
(-0.907523 0.936265 0)
(-0.108834 0.393713 -1.79723e-19)
(1.6625 0.940987 -5.77485e-20)
(1.00826 -0.00492191 -3.61402e-19)
(0.191522 0.327479 -4.47775e-20)
(1.02196 0.00275534 2.38956e-19)
(0.678327 -0.0416309 0)
(-0.167836 -0.273279 -3.34889e-20)
(0.590455 0.399833 -3.11258e-19)
(1.10441 0.236623 -7.79061e-22)
(0.0176097 0.32411 0)
(0.818155 0.0751164 6.21164e-20)
(0.498443 0.474841 4.72775e-20)
(1.15524 0.859554 -3.14066e-20)
(-0.0762731 -0.0765787 1.63877e-19)
(1.01841 0.00689662 0)
(0.106298 -0.484325 -1.83739e-19)
(1.01176 -0.0047949 1.35787e-19)
(2.21142 0.161856 0)
(1.01221 0.00544101 2.27521e-19)
(0.0670787 -0.31054 -1.94508e-19)
(1.01873 0.00757826 -1.4084e-19)
(1.06986 -0.126986 0)
(2.62002 -0.029471 7.00055e-22)
(1.00915 0.00195183 -9.4562e-20)
(0.99492 -0.0401339 2.49849e-19)
(1.07895 0.0872775 -2.20332e-21)
(0.022426 -1.03128 1.4127e-19)
(-0.127697 -0.12369 4.30704e-19)
(1.94586 0.208682 1.3535e-19)
(-0.424735 -0.794896 -1.53735e-19)
(0.799553 0.014809 -3.41126e-19)
(0.796865 0.0251105 0)
(-0.298215 -0.707691 -9.58295e-20)
(1.02006 -0.0209379 -2.74252e-20)
(0.973203 0.0136338 0)
(1.0488 -0.00169099 -1.74526e-19)
(0.0038682 -0.610429 1.75562e-19)
(-0.839265 0.0568949 2.27828e-19)
(2.22334 -0.600526 0)
(-0.926655 0.124102 -5.43042e-19)
(1.5573 -0.35774 0)
(1.03885 -0.0192781 5.11546e-20)
(1.43785 0.715177 2.56348e-21)
(1.01465 -0.00545205 1.46644e-19)
(-0.785488 0.25866 3.28164e-19)
(1.01835 0.000321849 0)
(0.993907 0.00365014 -3.55289e-19)
(1.00881 0.00633873 1.86632e-19)
(1.52285 0.0392136 0)
(0.890765 0.336563 4.42401e-21)
(0.956339 -0.00121724 -1.59887e-19)