/*--------------------------------*- C++ -*----------------------------------*\
| =========                 |                                                 |
| \\      /  F ield         | OpenFOAM: The Open Source CFD Toolbox           |
|  \\    /   O peration     | Version:  2306                                  |
|   \\  /    A nd           | Website:  www.openfoam.com                      |
|    \\/     M anipulation  |                                                 |
\*---------------------------------------------------------------------------*/
FoamFile
{
    version     2.0;
    format      ascii;
    arch        "LSB;label=32;scalar=64";
    class       volScalarField;
    location    "21.1";
    object      p;
}
// * * * * * * * * * * * * * * * * * * * * * * * * * * * * * * * * * * * * * //

dimensions      [0 2 -2 0 0 0 0];

internalField   nonuniform List<scalar> 
2186
(
1.02707
-0.0176336
0.270155
1.32868
-0.851904
0.0430666
0.953997
-0.662035
-0.644223
1.55833
1.20406
-0.562068
-0.674553
1.23389
-0.232985
1.22838
1.25836
-0.995938
0.0380359
-0.842185
1.62058
-0.821954
1.24097
-0.639853
1.23234
1.30484
1.45373
1.16771
0.710953
1.23331
-0.82553
1.23262
-0.770823
-1.16195
-0.572259
0.194823
-1.05486
1.60507
-0.623114
-0.027878
-0.684492
-0.798146
-0.335679
-0.946011
1.05933
1.54052
0.642195
0.802396
-1.15621
-0.908477
-0.832247
1.03741
-0.33362
1.52652
-0.820219
1.21448
-0.382164
1.24073
-0.675228
1.05985
-0.942859
0.763852
0.672152
-0.0245795
0.693581
0.746364
0.793073
1.51169
1.40627
-0.682575
-0.661625
-1.00407
1.49072
1.26099
1.38111
1.4109
-1.05559
1.25219
-0.576354
-0.695435
-0.94747
-0.0440908
1.22807
0.745567
1.22397
1.22914
1.50703
0.0784736
0.0294899
-0.585435
1.21557
-0.820692
1.16905
1.4071
1.24111
0.525345
0.152782
0.71156
-0.897179
1.25355
-0.839811
-0.872907
0.774508
1.18843
1.26061
-0.806689
1.39683
-0.465601
1.1969
-1.85775
-0.684863
-0.873947
0.826951
1.51748
-0.597966
-0.669351
-0.0590785
-1.29749
-0.586765
1.49681
0.0498567
-0.961278
0.994644
-1.01874
1.23385
-0.0504139
-0.872081
1.40105
-1.00427
0.936113
1.62831
1.49081
0.538066
0.928513
-0.938645
-0.906604
1.18715
-0.701717
-0.522745
-0.613071
0.933663
0.109386
-0.64598
0.977779
1.1626
1.20056
-0.3844
-0.862574
0.890137
-0.897918
-0.841469
0.861839
1.25543
1.43819
1.30484
0.811932
1.49707
0.552123
0.447797
0.7118
-0.613613
-0.877855
1.19172
1.24969
0.0350409
0.0537796
-0.484331
-0.54402
-0.309068
-0.343496
0.462855
1.25838
1.25895
1.36905
0.532531
-0.230022
-0.843565
1.19145
-1.19026
1.00665
-0.544865
1.24579
-0.833111
0.663909
0.643135
-0.85679
-0.626392
1.30793
-0.459284
-0.683947
-0.88234
1.47852
-0.943609
1.2374
-0.607448
-1.8041
0.163458
1.39401
1.23624
-0.833936
-0.718765
-1.59004
0.386723
1.26608
-0.584348
-0.846119
-0.575198
-1.28047
1.15146
-0.911136
0.804929
0.0993434
1.50551
0.964672
1.06891
1.21596
1.36651
1.23508
1.16658
1.28086
0.661578
-0.641256
-0.804466
0.181649
0.489067
-1.00452
-0.86375
1.20213
1.38079
-0.549407
-0.519617
-1.39848
0.663262
0.932629
1.04106
1.16823
1.38082
-1.1137
1.15405
-0.625659
-0.918853
-0.676182
1.15913
0.858608
1.33045
1.4122
1.28622
1.26036
-0.645406
1.09895
1.31669
-0.673029
1.14396
0.909648
-1.33714
-0.58768
-0.552202
1.33137
1.25344
-0.693885
-1.02319
-0.91036
1.22303
-1.00974
0.889133
1.24751
1.11619
-0.604849
-0.824332
1.21679
0.763088
-0.440357
-0.430324
1.55451
-0.847901
-0.648886
1.09762
1.44258
1.22658
-0.891233
-0.840481
-0.552849
1.08555
-0.688354
0.831585
1.21204
1.28077
0.113818
-0.269973
1.17102
-0.655086
1.19426
1.45309
1.24957
1.24688
-1.27211
-0.882306
-0.648057
-0.937408
-1.59215
-0.87653
0.671854
-0.23054
0.728302
1.42959
1.39246
1.08497
-0.409917
1.35327
-0.747026
0.0407018
-0.779215
-0.610454
-0.705655
0.645503
-0.839828
-0.835126
0.252056
1.10728
-0.487802
0.485585
-0.861617
-0.00760798
-0.702008
-0.864026
1.4453
0.0581837
-0.0331804
-0.813095
1.06553
0.6835
-0.333272
0.8073
-1.23504
-0.723515
0.78528
1.26006
1.24514
-1.66815
1.3785
1.16092
0.480191
1.50032
1.22221
1.18298
0.65372
-0.535119
-0.620216
1.02348
-0.93407
-0.560689
-0.788429
-0.636744
-0.589457
1.57268
-0.98159
-0.830551
-0.674043
1.22234
-0.823978
-1.30587
-0.865517
1.03826
-0.233636
-1.00995
1.46942
1.53393
1.38884
-0.652291
-0.172912
1.58745
1.22862
-0.917181
0.563346
-0.633086
0.476107
1.38499
1.15473
1.13134
1.54938
-0.201796
-0.647872
-0.422812
-0.951066
-1.00054
-0.810384
0.00549915
1.50862
-0.986644
-0.911022
1.2114
0.869311
-0.596829
-1.06444
-0.624801
-0.971761
-0.860739
-0.602148
-0.790181
-0.839758
1.43369
-0.744927
-0.644591
1.24712
-0.83637
1.51728
-1.14883
-1.70538
-0.853489
1.2313
-0.544222
1.252
1.12224
-1.5416
1.29806
-0.940104
-0.59765
-0.733475
1.2798
1.18703
-0.621594
-0.635244
-0.801254
1.15177
-0.982683
-1.58608
0.62455
1.13461
1.13333
0.977291
-0.640474
-0.786867
1.00153
-0.887644
1.06726
-2.12538
1.25279
0.0318061
1.39192
-0.588231
1.12712
0.847881
1.25879
-0.730118
1.21572
-0.89741
-0.594891
1.23478
-1.46344
0.22861
-0.664827
-0.0753942
1.23127
0.384686
0.58853
1.22321
0.335268
0.137525
-0.0967228
-0.831188
0.523851
-0.712034
0.8438
-0.609252
1.24285
1.3972
-0.656872
-0.607232
-0.644527
-0.824123
0.542787
-0.721155
0.979299
0.235822
-0.675802
1.29847
-0.617016
0.476718
0.595237
-0.349813
0.938413
0.447094
-1.07124
-1.8835
-0.353894
-0.796439
1.24532
-2.08564
1.35707
1.48469
1.47092
0.782796
1.34986
-0.843353
-0.740893
1.14701
0.518989
1.21254
-0.804196
-0.673777
-1.37769
1.06122
-0.598581
-2.23663
-0.8528
-0.896201
0.147104
-0.862083
0.876754
0.859948
-0.534934
-0.653584
1.0298
0.383054
1.31549
-2.05178
-0.120515
-0.600635
0.898223
-0.0932532
1.43416
1.60421
-1.41542
-0.852888
-0.497307
0.400127
-1.00742
1.30545
-0.716134
1.2636
0.920109
-0.599713
1.04445
1.00574
-1.56063
1.13029
-0.907232
-0.82699
-0.985308
-0.556059
-0.850935
-1.04631
-0.634506
1.23608
0.307902
-0.862899
0.876994
1.381
1.47245
-0.0331415
1.02428
-0.598751
1.05597
-0.14268
-0.999811
-0.82926
0.613534
0.966211
1.245
-1.74001
-0.655372
-0.96689
-0.593545
0.202266
1.01134
-1.65014
0.141971
-0.863949
1.10688
-1.37259
1.16324
-0.885044
-0.770292
1.19242
0.935571
-1.15804
-0.114063
1.17847
1.54707
1.25473
-1.34769
-0.999731
1.07583
-0.814117
1.06221
-0.512548
0.55712
1.17482
-0.6875
-0.828337
1.20002
-0.753902
1.4384
-0.160955
1.15211
0.221873
0.906869
-0.426495
1.47834
-0.828044
-0.866072
1.12239
0.640767
0.618362
-0.793842
-0.843298
-0.817964
0.943629
-0.12991
-0.733156
-1.44046
1.24672
0.502733
-0.97936
0.895203
1.05334
1.20057
-1.97159
-0.741466
-0.820486
1.24624
1.3641
0.78232
1.24285
0.0722815
1.31531
0.269406
-0.576238
-0.617101
1.17245
1.21025
-1.15512
1.00107
-0.829974
0.965907
-0.888675
1.16807
1.21577
1.24641
-2.1641
1.09156
-0.820824
-0.613377
1.40834
-1.58954
-1.92719
1.31535
-0.906136
1.28685
-1.35631
-0.831908
1.21519
1.05943
1.60939
1.23287
-0.998946
1.35003
1.27862
-1.01224
0.766726
-0.111574
-0.514639
1.72828
-0.622716
1.32582
-0.844999
0.60126
1.2337
-0.866591
1.20722
-1.57137
1.08407
1.19829
1.24979
0.163228
-0.665789
-0.267527
0.861908
0.941418
1.32432
-0.25112
0.978505
-2.17392
-0.310364
-1.18307
1.10887
1.41017
-0.765922
-0.655813
-0.0914717
1.45711
-0.231886
0.876073
-0.311553
-0.85745
-0.645836
-0.839015
-1.43411
0.970611
-1.67061
-0.232294
-0.258225
-0.245602
-0.872139
-0.778268
-0.34185
1.18579
1.25046
-0.81581
-0.16337
1.20365
1.18385
1.25147
-0.984267
1.19991
1.30963
1.23539
1.32767
-1.47919
-0.137416
-0.828284
0.749971
1.24053
0.990426
0.460968
-0.0919949
-2.21804
0.111754
1.51704
-0.163375
0.408426
-0.358616
-0.0981528
-0.662571
0.937513
-0.546824
-0.865421
-0.593883
1.22533
1.23546
1.23643
0.0344759
0.458638
1.49732
-0.122533
1.23429
-0.0908312
-0.00355539
0.909415
1.24836
1.26997
0.0717059
1.19138
1.19264
-0.85518
-0.0686789
1.23741
1.25114
1.24974
-0.604374
-0.635018
1.25062
0.897022
1.23498
0.308333
-0.0524494
0.178904
-1.92815
-0.497598
-0.813807
-1.39262
-0.629537
1.25509
1.25932
0.915867
-0.600754
1.22499
-0.11326
0.115381
0.0129269
1.23471
1.25612
1.25133
1.26173
1.23753
1.22964
1.21843
-0.0869667
0.145659
-0.0219574
0.0104985
-0.000572433
0.0367337
0.0179995
-0.111742
-0.121268
-0.0912444
-0.117979
1.22998
1.24757
1.24287
1.26397
1.26089
1.25153
1.25368
1.23834
1.23466
-0.134698
0.0901863
1.25133
1.25143
-0.00489772
1.25409
1.25135
0.0582061
0.321733
-0.096703
-0.820733
-1.76149
1.23306
-0.707861
1.23335
0.907626
1.3429
-0.619278
1.23429
1.15336
1.19161
-0.826705
-0.336198
-0.747619
-0.0796803
0.0360535
-0.830494
1.2441
0.209195
1.32226
1.23581
-0.104717
1.36847
1.53304
0.0499651
1.05973
0.951248
1.22762
1.24638
1.24259
-0.619348
0.606841
0.106284
1.2352
1.24776
-0.753737
0.254794
1.23589
0.0775026
-0.280629
1.23666
-0.995921
1.20851
1.24808
-0.6945
1.24509
0.371178
1.23543
1.29056
-1.90104
1.25198
1.25905
0.15232
0.841465
1.23816
1.23871
0.26764
-0.727742
1.00192
1.60456
1.24411
1.23942
1.24106
0.425214
1.23845
1.23051
1.24139
1.23738
1.2386
1.23844
1.32973
-0.905409
-2.07427
1.24028
1.23075
0.401361
-1.0038
-0.891725
-1.02135
1.07189
-1.2182
-1.02083
0.14298
1.23473
1.01129
0.197072
0.0346137
-0.0423003
-0.705492
-0.795653
0.339615
-0.928381
-0.988842
-0.276705
1.24328
0.242304
1.23041
1.12797
-0.602845
1.45065
-0.668964
-0.901335
1.02324
1.32446
0.579397
-0.590761
1.2273
0.246605
1.2406
-0.729301
1.24144
-0.819195
1.23159
0.17236
-0.893008
1.24261
1.25926
1.14779
0.158121
-0.584876
-0.640002
0.152926
1.25713
1.10905
0.258753
1.2299
1.27533
1.21916
0.292996
-1.53447
-0.326192
-1.45558
0.618939
1.23586
-0.0563643
1.23806
-1.1405
1.23168
1.2706
1.24484
-0.0520559
-0.0423842
1.27152
-0.695923
1.24692
1.25007
0.324574
-0.662585
1.11762
1.34306
1.22957
1.22112
0.143647
-0.0559646
1.21414
0.711472
1.24494
1.12468
-0.84221
-0.648143
1.0451
1.49562
1.23016
0.645683
-1.04014
0.380491
-1.63101
-0.991871
1.22701
-0.956467
1.21134
-1.03958
-0.611114
-0.849625
0.592598
-0.677834
-0.734393
-0.546314
1.23004
-0.590064
1.08667
-0.627934
0.151229
-0.105633
0.186185
-0.677233
1.19493
0.131831
-0.438381
-0.315432
-0.752046
1.2294
-0.955973
0.150223
-1.10692
1.28607
-0.515782
-0.625085
1.30116
1.22721
1.22073
0.773872
-0.548876
1.23334
1.25599
-1.65956
-0.83658
1.22983
1.07855
1.46349
1.24834
-1.29027
-1.01355
-0.84331
-0.906898
-0.895501
-0.597142
-0.0117001
-0.706093
1.08256
0.296538
1.24516
1.42884
1.22512
-0.589356
-0.718281
1.23096
-1.4621
-0.659347
1.22046
-0.00832616
-0.780146
-1.29925
-0.0167023
1.16153
1.13033
-1.45002
1.09786
0.83838
-1.56093
1.22675
-1.03348
1.00342
-0.776218
1.24823
-1.71119
0.72188
1.23265
1.28677
-1.08664
-1.30119
1.02665
1.60556
1.25261
1.20726
-1.26928
1.50713
-0.517368
-0.332433
-0.462552
0.768281
-1.10858
1.34191
1.42259
-0.634802
-1.57981
1.22595
-0.650907
1.12843
1.26153
1.17946
-1.14496
1.23206
-0.0245707
1.26265
-0.0293518
-0.371895
-0.0489578
1.23584
0.0894364
-0.418252
-0.713586
1.25518
-0.621345
1.39663
0.568565
1.53959
1.1727
-0.661046
1.22553
-0.827406
1.19169
1.19768
-0.311957
-0.711887
1.32593
1.21461
1.43109
1.17433
0.398182
1.17333
1.23261
1.06168
1.23819
-0.607499
-0.911214
-1.40771
1.34922
-1.57355
-0.850472
-0.827064
-1.70952
-0.387534
-0.016005
1.04633
-0.259042
1.20321
1.26029
-0.839187
-0.827836
-0.688655
-1.04575
-0.762043
-0.830698
1.23088
-1.57161
1.24871
1.49324
1.29192
-0.0984526
1.25507
1.14905
-1.37402
1.21096
1.20701
-0.835135
1.20827
1.12828
0.0656256
-0.74954
1.69948
-1.76326
-0.979082
-0.72278
0.544685
1.21948
-0.99075
-0.959107
-0.826502
1.3607
-1.24328
1.03472
1.23983
1.23107
-1.13247
1.2241
-1.0487
1.24392
1.25919
-0.347445
1.25015
0.657507
1.2359
0.994376
-1.05199
0.0735659
0.0644797
0.143395
1.45661
-0.143243
1.25302
1.61901
-0.737774
-0.0588967
1.30171
-0.0652587
1.29884
-0.0509162
-0.0788198
1.29486
1.29939
0.725057
-0.943107
0.938567
-0.747361
-0.85881
-0.641284
1.2533
1.24571
1.67362
-0.590858
-1.31938
1.02877
-0.766688
1.297
1.19098
1.24175
1.21965
1.20374
-1.78697
-0.59991
-0.889556
1.00149
1.13379
-1.26534
-0.833106
-0.628514
1.25099
1.27935
-1.35783
-1.25529
1.26808
-1.44188
0.355628
0.951081
1.11009
-0.262539
-0.763249
-0.116913
-0.678523
-0.781746
-1.84471
-1.59895
1.62972
1.58309
-0.802326
-0.650303
1.25028
1.22767
-0.909501
0.253892
-0.0245122
0.823687
1.32493
-1.00366
1.23906
-1.51536
-0.746402
-0.697012
-0.963113
-0.936467
1.23185
-0.663041
-1.15838
1.58478
-0.667748
1.24036
1.4433
-0.832792
1.31952
1.516
-0.843974
1.45486
-0.672199
-0.754757
1.22683
-0.00584665
1.29106
1.24343
-0.67094
1.30737
0.458796
-2.00113
1.27246
1.30806
-0.536816
-0.965387
1.15962
1.23244
-0.651578
-1.18514
1.49733
-0.666736
1.12165
0.0802713
1.19686
-0.562469
-2.14324
-0.63225
-0.836584
1.29441
1.28205
1.55156
1.41607
1.17188
1.29215
1.26355
-0.625838
1.33798
1.41444
-0.84675
-0.662403
-0.862689
1.54082
-1.64728
-0.733709
0.164169
1.129
-0.85021
-0.769769
1.21776
1.29787
-0.639436
-0.838644
-0.713377
0.261645
-1.06358
-0.846902
-0.619278
1.07945
1.17757
-0.833277
-0.375245
-0.509311
1.02766
-0.664947
-0.824666
-0.613425
1.22719
-1.15475
-0.841074
1.58951
1.15374
0.692868
1.46421
-0.129788
1.2604
1.24196
1.36963
1.47699
-0.319948
0.860003
1.20717
0.576804
-0.607454
1.65987
1.22176
1.18005
1.31441
-0.844477
-1.43672
1.12569
0.993289
1.21182
-1.80232
-1.67015
1.22825
-0.610219
1.09975
-0.149014
1.63835
-0.602647
0.917587
1.0302
-0.830202
-0.597939
-0.886297
1.3313
-0.831045
-0.592601
0.99464
0.793589
-0.949241
1.29716
1.11788
-0.831777
-0.709924
1.16866
-2.00738
-0.59422
-0.69415
-0.829735
-0.674528
1.19522
1.25798
-2.03287
0.916726
1.24373
1.57169
0.588369
0.448289
0.164025
1.16736
-0.110311
-0.829985
-1.44219
-0.494724
-0.829786
1.21875
-0.821754
0.331845
-0.590667
0.721831
0.870488
-0.829236
0.933967
-2.07187
0.801018
-0.829022
0.64283
-0.830963
0.698605
-0.586673
0.554199
-0.829083
1.10868
-1.25465
-0.833364
-0.844576
-0.589525
1.25073
0.410782
-0.877109
-0.59308
0.190454
0.266794
-0.820262
-0.59795
-0.92246
0.20992
-0.607892
0.0167849
-0.638807
-0.203917
-1.00351
0.0484205
1.09535
0.0607761
-1.49572
1.20168
0.0676702
-0.0983117
0.754158
1.21694
-0.984353
-1.89879
-0.587925
-1.13193
1.16002
1.64558
-1.05273
-0.317615
0.341701
-0.666874
-0.253574
-0.0301919
1.18874
-0.790758
1.20625
-0.906752
1.71168
0.750925
1.67509
-0.836654
1.4597
-0.465906
1.28574
-0.73785
-0.584994
1.35078
1.24113
-0.992446
-0.591708
-0.840897
1.17829
-0.755
1.21411
-0.770283
-0.667895
-0.633859
1.53848
1.25573
1.38511
1.23425
1.25375
-0.191485
-0.271425
1.41586
-1.88254
-0.652025
1.6397
-0.829176
1.12437
1.22135
1.6118
1.67582
-0.825686
-0.979457
1.2796
0.539339
-0.115916
-0.796534
-1.23714
-2.25649
-0.834941
0.841378
-1.0414
1.47055
-1.19562
1.24622
1.35038
1.25053
-0.784926
-0.571772
-0.780045
1.32864
-0.729083
1.38126
-0.653031
-0.869085
1.4508
1.56684
-0.578186
0.234226
1.19638
-0.909073
-0.926942
0.95192
1.48791
1.47825
-0.945447
1.08777
1.03412
-0.586211
1.49173
0.441763
-0.834502
-1.23087
-0.101465
0.0440568
1.32316
-0.687798
0.417187
0.140411
-0.130746
-0.661562
-0.575307
1.21378
-0.971795
1.23646
0.0353347
0.403609
0.977183
0.561684
-0.575763
-0.54206
-0.794513
-0.12054
0.198321
-0.831848
1.12726
-1.45363
-1.48253
1.21968
-0.801852
-0.846425
1.25008
-0.586554
1.16642
-0.0030537
-0.612606
-0.0103624
1.07166
-0.45002
-1.17713
1.16288
-0.652688
1.32027
-0.229085
-0.803148
-0.658722
-0.587961
1.73631
-1.34093
1.38683
0.225614
1.20992
1.41461
1.00794
1.28138
1.36599
-0.019936
-1.1159
1.22108
1.36118
1.612
-0.664937
1.27218
0.848434
-0.671939
1.07419
1.47674
-0.50686
1.56185
0.28745
-0.787747
1.1187
-0.671672
-0.837362
1.19849
-0.385558
1.30266
1.33097
1.17207
-0.815603
1.10333
1.47561
-0.944369
-0.230275
-1.19941
-1.19074
-0.767367
-0.594196
1.61114
1.03826
-0.842481
1.19241
-0.669507
-0.723023
1.53488
1.4363
-0.978968
-1.03156
-0.587888
-0.637806
1.23426
-0.846882
0.388376
-0.772109
-0.35162
1.30682
-0.658392
1.61095
1.27391
1.1518
1.24521
1.51875
-0.880483
-0.667286
1.27534
1.40906
-0.686158
1.25286
-1.54645
-0.630274
-0.643404
1.28383
1.31599
-0.637187
-0.855605
0.844685
0.238597
-0.810456
1.20636
1.15277
-1.06446
1.19569
1.24134
-0.844429
-0.848787
-0.831831
-0.623946
-0.643258
1.57135
-0.773358
1.1033
-0.851895
1.57049
1.08431
1.05151
1.14634
-2.24224
-1.27658
-0.617706
0.691256
-0.840943
1.20043
0.601932
-0.486331
1.05934
1.28152
1.27381
1.23266
-0.0442893
1.27775
-0.0499524
0.716231
0.993633
-0.501569
-0.846716
-0.938996
-0.642593
1.24853
1.24676
1.2483
-1.19415
-0.447243
-0.611756
-0.772486
1.24193
1.50212
1.25597
-0.843823
-0.72602
-0.934783
-0.479662
-0.589447
-0.588411
-0.109506
1.21978
-0.745864
-0.83272
0.130622
0.225434
0.893421
-2.00188
-0.606093
-0.702699
1.13988
1.66876
0.217636
1.34734
1.7189
0.828467
1.42479
-0.846918
0.0270859
1.65249
-0.600524
0.61602
-0.838434
-0.64751
-0.835227
-0.830704
1.24147
1.02149
1.39884
1.35798
0.0300112
1.06555
0.167527
0.100024
-0.595426
1.35269
0.895406
1.2519
1.26809
-0.136461
-0.0772057
1.26937
-1.0621
-0.590655
-0.831536
-0.846054
0.880384
-0.830083
1.20757
0.960317
-0.600671
1.49685
-0.838447
-0.243754
1.22514
-0.684106
-0.706115
-1.5846
0.759987
-0.834448
-0.877901
1.09896
1.25981
-0.140815
0.345773
-1.80833
-0.591582
-0.798101
-0.952153
0.115402
0.896296
-0.847008
-0.829987
1.47599
0.395618
0.504511
-0.829762
-0.653493
1.23853
1.31946
0.684383
0.834145
-0.828931
-0.664518
-0.414503
0.60211
0.745778
-0.828653
1.04128
0.269557
-0.828591
1.66866
-0.835495
-1.30474
-0.642486
-0.779898
1.12649
-0.856067
-0.838204
-0.597895
0.325519
-0.896693
0.113992
-0.79537
-0.0767223
1.3871
-0.955841
0.15059
-0.623489
-0.0791
1.55794
1.64824
1.43918
1.24274
1.41382
-0.694032
1.22606
-0.842176
1.31642
-0.589087
-0.560847
1.52573
-0.780068
0.771708
-0.973573
1.64622
0.0620963
1.58598
0.758175
0.956624
-0.83604
-0.836461
-0.585726
-0.870289
1.5489
1.40683
1.22111
0.914671
1.23415
1.14986
0.987495
-0.828172
-0.630667
0.399456
0.249254
0.960203
1.24387
0.287881
-0.829985
-0.828271
-0.940752
-0.585612
-1.21952
1.60122
1.26298
1.23861
-0.122576
-0.0864154
1.26568
-1.23248
-0.592821
-2.25082
-0.671079
0.94772
-0.831225
-0.82837
0.0130996
1.22496
-1.20452
-0.640372
1.23272
0.90385
0.992544
1.22725
-0.589108
1.0443
1.44162
1.12281
-0.585984
1.23165
0.660269
0.601527
-0.796307
-0.830252
1.67439
0.545062
-0.790302
0.3268
1.08575
1.17138
-0.662196
-0.964646
-0.076362
-0.723999
-0.533123
-0.841318
0.0419569
1.22082
-0.937872
1.20586
1.52845
1.36275
1.19699
1.28348
1.35003
1.23213
-1.01395
-0.315161
-0.344585
-0.663419
-0.534627
-0.829146
1.3592
1.24401
-0.66643
1.22292
-0.729253
-0.166707
-0.833066
-0.511121
0.826691
-0.803709
1.21622
1.08048
-0.926813
-0.0658722
1.5698
-1.11032
-1.32681
-0.686807
-0.843159
-0.811426
1.28606
0.938402
1.35738
-0.82803
-1.00764
-0.570599
-0.288512
-0.668947
-1.3056
-0.990227
-1.53841
1.08821
-0.400191
1.70307
-1.0966
-0.248231
-0.624026
-0.829104
1.19059
-0.645463
-0.817937
-0.561098
-0.0541593
1.3948
1.47746
-2.19067
-1.40482
0.992184
-0.607284
-0.518445
1.36278
-0.819257
-1.04925
-0.806103
0.913049
-0.115898
-0.670658
1.2212
0.144991
-0.782046
1.22765
-0.742376
-1.07806
-0.957861
-0.921281
0.213535
-0.671245
1.52808
-0.603507
0.458993
-0.590563
0.957116
-0.706289
-0.752877
0.801575
1.03811
1.29462
1.2114
1.3895
-0.855469
1.11129
0.838996
-0.956544
1.13123
-0.304596
-0.717996
-1.36846
1.43804
1.42277
-0.709537
-0.753595
-0.856927
1.19661
-0.780235
0.196887
-0.830869
-0.831757
1.49108
1.2016
-0.836214
-0.816858
-0.834536
-0.833089
1.10625
-0.851489
1.16368
0.354565
0.86519
1.00418
-0.814416
-0.791899
1.12141
-0.831367
0.0568638
1.51557
-0.614924
-0.831093
0.984971
-0.962064
-0.82935
0.103365
-0.684433
1.594
-0.298939
0.430848
-0.837345
1.56386
-0.838568
-0.809061
0.796373
-0.790105
-0.588839
1.58217
0.82834
1.28223
-0.835832
1.4343
-0.347579
-0.493229
-0.841724
-0.84443
-0.840994
1.46932
0.724041
-0.638024
-0.8397
-0.671516
1.33175
-0.760521
1.54122
-0.589078
0.888568
-0.830971
0.506053
0.684608
0.647956
0.561476
0.491106
-0.781788
1.19854
-0.843372
-0.647242
-0.718685
0.575077
1.57944
-0.0174288
-0.832457
-0.848102
-0.831746
0.392479
-1.08428
-0.830255
1.12724
0.487071
-0.83315
1.64061
-0.670478
-1.14482
1.60194
-0.831785
0.270389
-0.755636
-0.830498
-0.830381
1.61662
-0.83368
1.52537
-0.829867
-0.800651
1.38135
0.0510172
-0.799654
0.71338
-0.675355
0.126995
-0.111019
-0.830154
1.08107
-0.67995
-0.829433
-0.830339
-0.832731
-0.596733
1.1147
-0.0580581
-0.188568
-0.834504
1.55011
-0.510222
-0.823581
-0.802556
0.148342
-0.975106
-0.819573
-0.834064
0.185129
1.45042
-0.841205
-0.587083
-0.978051
-0.414336
-0.143956
-0.602407
1.63422
1.5634
0.552239
-0.822162
-0.593413
0.461559
-0.595166
1.64171
0.332773
1.34461
0.856207
1.54544
0.206697
-0.983979
-0.82542
0.0428859
-0.842945
0.0432641
0.201059
-0.829884
1.54211
-0.0228706
0.345099
-0.161678
-0.584638
-0.860667
)
;

boundaryField
{
    frontback
    {
        type            empty;
    }
    Top
    {
        type            zeroGradient;
    }
    outlet
    {
        type            fixedValue;
        value           uniform 0;
    }
    bottom
    {
        type            zeroGradient;
    }
    Inlet
    {
        type            zeroGradient;
    }
    rectangle
    {
        type            zeroGradient;
    }
}


// ************************************************************************* //
