/*--------------------------------*- C++ -*----------------------------------*\
| =========                 |                                                 |
| \\      /  F ield         | OpenFOAM: The Open Source CFD Toolbox           |
|  \\    /   O peration     | Version:  2306                                  |
|   \\  /    A nd           | Website:  www.openfoam.com                      |
|    \\/     M anipulation  |                                                 |
\*---------------------------------------------------------------------------*/
FoamFile
{
    version     2.0;
    format      ascii;
    arch        "LSB;label=32;scalar=64";
    class       volScalarField;
    location    "2";
    object      p;
}
// * * * * * * * * * * * * * * * * * * * * * * * * * * * * * * * * * * * * * //

dimensions      [0 2 -2 0 0 0 0];

internalField   nonuniform List<scalar> 
2186
(
0.645006
-0.697116
-0.299684
0.911586
-0.133958
0.00171566
0.501167
-0.321556
-0.301364
1.15417
0.864987
-1.55402
-0.208026
0.864613
-0.902126
0.846694
0.889624
0.0739975
-0.0144005
-2.58744
1.23668
-2.30931
0.881722
-1.76635
0.847176
0.887176
1.06627
0.736526
0.392105
0.860513
-2.42578
0.862285
-2.12132
0.0192794
-2.75541
-0.145371
0.00929453
1.2245
-0.269943
-0.00276429
-0.185398
-2.48585
-1.12074
-2.50605
0.733413
1.13569
0.132841
0.338024
0.034986
-0.222428
-2.48751
0.705949
-1.02849
1.14989
-2.38649
0.788441
-1.24896
0.815626
-0.171918
0.673372
0.0266757
0.432701
0.363726
-0.000899207
0.384946
0.277476
0.470028
1.12493
1.03191
-0.298221
-0.384457
0.030508
1.09827
0.843712
1.01113
0.998194
0.0337095
0.87724
-2.89316
-0.816936
0.00890532
-0.0128662
0.848099
0.459677
0.851275
0.852762
1.12903
0.0012708
-0.00585163
-1.8181
0.791146
-1.40805
0.75903
1.00852
0.881434
0.185169
-0.452648
0.40662
-0.162911
0.830995
0.0667711
0.0642435
0.475045
0.799887
0.88786
-1.44407
1.03845
-0.153583
0.772367
0.0832202
-0.961341
-0.346463
0.355471
1.14396
-0.503377
-0.0106524
0.0140843
0.0554478
-1.83607
1.10223
-0.311347
-0.11633
0.664194
0.103966
0.86819
0.0297944
-0.22767
0.988083
0.0886196
0.480238
1.22732
1.08312
0.00692308
0.471632
0.0315064
-0.214291
0.759219
-0.207854
-0.125444
-1.55741
0.604214
-0.405314
-0.430153
0.526995
0.757782
0.775652
-0.248984
-0.0969396
0.447054
-2.59801
-0.521844
0.405609
0.889153
1.02722
0.889285
0.346808
1.12236
0.318459
0.205441
0.229293
-1.75403
-0.0224392
0.846858
0.830213
-0.0096508
-0.0175124
-1.73989
-2.42475
0.0243865
0.0407886
0.134184
0.837521
0.898804
0.953905
0.208408
-0.126413
-0.0544708
0.84635
0.103772
0.679068
-2.09352
0.886557
-2.30158
0.33328
0.311559
-0.0168804
0.00837229
0.958037
-0.15524
-0.098143
0.0983476
1.09388
0.0261587
0.832342
-1.82098
0.0729418
-0.214074
1.02088
0.89322
-1.54286
-0.403558
0.0625204
-0.170425
0.879451
-1.60229
-0.360686
-1.9949
0.0519787
0.812561
0.011709
0.354222
0.00237162
1.13342
0.63493
0.736652
0.794872
1.01184
0.84195
0.736394
0.929998
0.263962
-0.0148009
-1.79516
-0.154593
-0.0390964
0.0503043
-0.201842
0.862154
0.975724
-2.58174
-1.50121
0.076291
0.172781
0.492257
0.674547
0.738758
0.96584
0.123962
0.730503
-1.00473
-0.138196
-0.000160377
0.821401
0.530606
0.978969
1.02151
0.938889
0.914798
-0.679696
0.661647
0.952469
-0.344602
0.80779
0.580804
0.0836018
-2.27099
-1.87831
0.979361
0.892836
-0.128668
-0.00862881
0.0404509
0.796881
0.112548
0.553214
0.898832
0.662579
-1.52686
-2.13181
0.833362
0.449385
-0.120301
-0.135441
1.17657
-0.388635
-0.529552
0.712611
1.03204
0.847027
-0.0953169
0.00191725
-0.367405
0.757708
-0.242549
0.364288
0.83408
0.876093
-0.364295
-0.136839
0.855324
-1.02379
0.775943
1.04307
0.896976
0.878534
0.04851
-0.398338
-1.75855
0.0292388
0.0555746
0.0381248
0.17121
-0.797802
0.400118
1.01827
1.03367
0.743819
-0.386334
0.983118
-0.374989
0.0421582
-0.10713
-1.9748
-0.0393534
0.162757
-0.630299
-1.06241
-0.109463
0.762694
0.0406784
0.150044
-0.54633
0.00902711
-0.0162512
-0.352561
1.06387
-0.31507
0.0207813
-1.6762
0.623846
0.372077
-0.144467
0.36246
0.0665017
-0.052608
0.457234
0.862654
0.901087
0.0723595
0.993775
0.729623
0.160297
1.09337
0.857387
0.778253
0.256747
0.033084
-1.29953
0.689649
-1.65197
-2.31057
-0.161927
-0.00280015
-1.97947
1.19774
0.048639
-2.01941
-0.467134
0.859232
-0.0558736
0.057767
-0.546043
0.593917
0.0406913
0.0560667
1.09369
1.15384
0.974379
-0.373421
0.0239303
1.21272
0.855845
0.103535
0.250373
-0.88056
-0.067578
1.01835
0.809043
0.726441
1.14562
-0.447149
0.0376929
0.0336857
0.0124672
-0.0225275
-1.72073
0.0114242
1.13906
0.0530343
-0.0425289
0.855291
0.403739
-1.92599
0.12046
-1.16231
-0.0247854
-0.0150517
-2.18345
-1.20516
-0.322956
1.04131
0.0558467
-0.0212825
0.889582
-0.106807
1.11155
0.104326
0.0866343
-0.437441
0.860946
-2.6752
0.893718
0.687576
0.0480932
0.884784
-0.0519412
-2.08907
-0.268448
0.858882
0.829942
-1.65671
-0.869729
-0.0508158
0.809828
0.00841263
0.0392708
0.293305
0.787051
0.694508
0.635823
-1.18788
-0.0421922
0.692023
-0.00472737
0.631615
0.0728245
0.883887
-0.29939
0.980496
-1.93044
0.692778
0.533538
0.891401
-0.491061
0.838898
0.0349791
-2.14415
0.87163
0.0763213
-0.00879987
0.0121141
-0.0810389
0.880029
0.0868911
0.106517
0.870093
0.000782177
-0.062451
-0.0114068
-2.05082
0.114961
-0.0988711
0.550778
-0.537492
0.899942
0.983377
-0.652671
-1.9301
0.0431127
-1.53429
0.240586
0.00628105
0.649328
-0.0155835
-0.163393
0.938176
0.0444896
0.136582
0.0784041
0.0360519
0.608666
0.109323
0.0456835
0.0614435
0.0395696
-2.11245
0.861193
0.0691415
0.956273
1.07707
1.06245
0.461277
0.994858
-0.284406
-1.98913
0.798259
-0.00142128
0.851153
-1.57531
-0.119168
0.10829
0.679062
-2.01586
0.0712449
-1.70313
-1.63486
0.0196778
-0.0172763
0.561321
0.555047
-0.103451
-0.0755309
0.584836
-0.184875
0.964787
0.0666801
-0.462328
-2.01528
0.568734
0.023363
1.02303
1.22854
0.114509
-0.287356
-1.27747
0.149529
0.101555
0.885485
-0.0683168
0.840401
0.60255
-1.79595
0.708078
0.687228
0.0929335
0.816079
0.0297206
-1.51595
0.0255446
-1.56473
0.0141353
0.122533
-0.0740152
0.857028
-0.0178511
-0.286374
0.414131
0.993085
1.06368
-0.527436
0.634569
0.0520842
0.613768
0.0367463
0.0454737
-1.09562
0.281609
0.625732
0.896868
0.0461296
-0.893035
-0.0422669
-1.64347
-0.423822
0.569565
0.0323667
-0.0188524
0.055985
0.771271
0.0630997
0.83389
0.0412864
0.053799
0.794795
0.566533
0.127802
-0.347262
0.834526
1.14258
0.888752
0.0559709
0.0201546
0.649295
0.0534728
0.635477
-0.31153
0.237805
0.835985
-0.068176
-1.95903
0.856175
-0.241063
1.07558
-0.00195644
0.718963
0.0258219
0.463001
-2.02594
1.0817
-1.89185
0.0318422
0.787941
0.32297
0.344369
-0.0234386
-1.58204
-0.0235945
0.662164
0.0518846
-0.0499805
0.0549625
0.872008
0.199208
-0.0221065
0.589066
0.723177
0.850103
0.0557939
-1.31068
-1.18856
0.882781
1.00952
0.30546
0.884867
0.0404345
0.909504
0.0309825
-0.12897
0.03002
0.829768
0.830665
0.0770651
0.670476
-1.79671
0.65031
-0.00934592
0.829337
0.807744
0.862159
0.0718466
0.749239
0.0296985
-0.131758
1.01431
0.106405
0.055644
0.960017
-0.0578087
0.938805
0.115799
-1.44904
0.874291
0.620147
1.20769
0.855631
0.0821442
0.933323
0.925608
0.0417103
0.437404
0.0272464
-1.45571
1.33858
-1.35866
0.970902
-0.521608
0.126813
0.872933
0.0252406
0.8426
0.0409764
0.749921
0.810414
0.875193
-0.00686271
-0.0847516
-1.0446
0.451847
0.675141
0.91602
0.0628229
0.648532
0.0735389
-0.139538
0.123805
0.683976
0.997496
-0.209956
-0.810109
0.0300041
1.08199
0.040884
0.5488
0.041239
0.0845124
-0.591095
-2.00743
0.0518179
0.650324
0.0817951
0.0273912
-0.493236
-0.408915
-1.69743
-0.161607
0.0324687
0.846849
0.880262
0.00795858
-0.133896
0.852376
0.81753
0.881199
0.0541764
0.846104
0.900471
0.864799
0.909396
0.0747895
0.0189677
-1.94184
0.42565
0.869035
0.544143
-0.0865613
0.0193162
0.0693973
0.0108159
1.11121
0.0296732
0.0236605
-0.479554
0.0342761
-0.277949
0.617824
-2.63374
-0.0603577
-2.45225
0.86537
0.878987
0.872501
-0.0125091
0.147919
1.08963
0.0286933
0.849406
0.0151811
-0.00186596
0.581458
0.899304
0.924291
0.0125738
0.848959
0.841287
0.0046184
0.0261893
0.868018
0.883566
0.905361
-2.06446
-1.70869
0.885928
0.445501
0.867836
-0.0444975
-0.449838
0.0111168
0.0614086
0.0153887
-0.960306
0.0301237
0.0452085
0.896566
0.910074
0.600542
-1.65756
0.868416
0.00267811
0.0355797
-0.00644158
0.864873
0.889716
0.90022
0.91201
0.880109
0.862971
0.865121
0.0172949
0.0247154
0.00218909
0.00894508
-0.00143708
0.00889919
0.0040258
0.0184442
0.0115094
0.0141598
0.0339094
0.870168
0.893509
0.889095
0.916846
0.910646
0.911702
0.907782
0.886212
0.871901
0.0140866
0.0366252
0.898667
0.906959
0.00110529
0.913946
0.912605
0.0145795
0.0191141
0.0271531
-0.083579
0.0735012
0.875804
-0.205258
0.849306
0.564042
0.930312
-1.42341
0.864344
0.806701
0.820845
-2.15585
0.0306792
-0.0267421
0.0292581
-0.31556
-2.04471
0.892005
0.00267697
0.940295
0.872313
-0.474863
1.01163
1.16149
0.0414384
0.743814
0.505612
0.854712
0.876712
0.891556
-1.38631
0.281165
0.00859763
0.884703
0.884883
0.0231374
0.0226116
0.880564
0.0077928
-0.626414
0.888472
0.0167828
0.854436
0.876351
-0.138231
0.883258
0.0137736
0.858961
0.927898
0.0815646
0.897422
0.877949
0.00888188
0.517638
0.873608
0.882113
0.0289133
-1.33094
0.55415
1.20272
0.874878
0.878928
0.875043
0.01499
0.875326
0.839296
0.876282
0.86554
0.879
0.879913
0.949481
0.0410474
0.0635068
0.885348
0.856629
0.152318
0.00950757
0.0536522
0.0483908
0.707739
-0.00247273
0.0522931
-0.0119758
0.863327
0.576542
0.0171542
0.0315448
0.0192664
0.0474448
-0.615468
0.0126373
0.0532665
-0.00645507
-0.711668
0.876576
0.0223158
0.886399
0.798167
-2.02038
1.08651
0.0386494
-0.159036
0.665891
0.972731
0.245477
-2.05818
0.864163
0.0155852
0.870896
-0.0620436
0.868706
-0.119085
0.863199
0.0101937
0.0552353
0.894582
0.865192
0.818488
0.0250157
-1.80668
-0.515604
0.0303303
0.877892
0.763813
0.0156823
0.85609
0.899895
0.853002
0.0288588
0.109515
-0.919461
0.0911496
0.219633
0.887069
-0.00161529
0.863864
0.109928
0.86778
0.940463
0.883834
0.00503687
0.00436125
0.922375
-0.412784
0.881564
0.867133
-0.188265
-0.303938
0.782307
0.98536
0.872665
0.863652
0.0341534
0.0353649
0.864399
0.226276
0.904219
0.691761
0.0124238
-0.496649
0.729527
1.09318
0.867872
0.148837
0.0557251
0.0210606
0.0744824
0.0495027
0.854914
0.0250883
0.842121
0.128046
-1.71041
-0.259544
0.300628
-0.727091
0.0490616
0.0415647
0.872589
-2.44628
0.752802
-1.04743
-0.487482
0.0327383
-0.0012772
0.0465652
0.851634
0.0265765
-1.69813
0.0382083
-0.0926223
0.865387
0.0466335
-0.00490429
0.0768455
0.932267
0.0407087
-1.19377
0.916997
0.854814
0.869538
0.373506
-1.40426
0.862434
0.887021
0.051352
-0.665553
0.866439
0.638926
1.09675
0.883284
0.0504772
0.0488379
-0.733693
0.0786811
0.0571386
-2.31577
0.033456
-0.357362
0.644716
-0.298965
0.869828
1.05839
0.874134
-1.70918
-0.478951
0.861403
0.0575857
0.0377428
0.839919
-0.0749154
-0.0178539
0.113899
0.0284853
0.80712
0.779374
0.0510051
0.693545
0.509407
0.0676005
0.843385
0.0154877
0.691019
-1.20489
0.830989
0.0649629
0.259774
0.869616
0.938927
0.0607759
0.118537
0.713913
1.21907
0.885161
0.865725
0.0579124
1.10031
-1.45539
0.0348498
-1.33139
0.290312
0.066559
0.956912
1.01208
-0.817571
0.0555771
0.86222
-0.0847475
0.706291
0.91591
0.822093
0.0545074
0.868231
0.00182873
0.909367
0.00180294
0.0401779
-0.450492
0.856489
0.0421348
-0.845733
0.0438488
0.828555
0.04764
1.03838
0.0576755
1.16546
0.83476
-0.163956
0.839737
-1.34296
0.828341
0.847181
0.0314294
0.0470751
0.975016
0.86168
1.06881
0.831904
-0.09432
0.803483
0.850096
0.729342
0.858736
-0.896441
-0.0452995
0.0615998
0.951207
0.0404149
0.0444225
-1.76757
0.0530636
0.0352144
0.00960925
0.713988
0.0305121
0.820362
0.856831
-0.575342
-0.160907
-0.0981454
-0.0231049
-0.266298
-1.1752
0.865404
0.0751256
0.873163
1.08589
0.918795
-0.25497
0.903618
0.805152
0.0339502
0.800942
0.86022
0.0337595
0.842015
0.791311
0.0442737
-0.0175708
1.30773
0.06038
0.129605
-0.136227
0.0216673
0.868716
0.119944
0.0455432
-2.0501
0.986689
0.0507498
0.702389
0.8758
0.835817
0.0102078
0.848933
0.0766712
0.881529
0.870794
-0.381847
0.904252
0.326425
0.847592
0.562125
0.100848
0.0116797
0.00401371
0.0244766
1.08925
0.0221705
0.886333
1.24046
0.0391127
0.00291607
0.945872
0.0165556
0.926916
0.00500597
0.021393
0.931664
0.947232
0.237588
-0.0184209
0.609969
-1.76942
-0.585569
-1.14055
0.879184
0.85927
1.27574
-2.12622
0.0552663
0.583616
0.00615137
0.925281
0.841487
0.85574
0.864821
0.841554
0.0986731
-2.45499
0.0301532
0.674582
0.773108
0.0796875
-0.942751
-1.1439
0.893068
0.896475
0.0411143
0.123045
0.889516
0.0550668
0.105088
0.621388
0.776086
0.0436684
-0.0503812
-0.193376
-0.0530094
-1.64227
0.0521135
0.0582297
1.22917
1.20938
-0.0788241
-0.0384282
0.878908
0.857976
0.0272942
-0.20361
-0.739349
0.498459
0.945299
-0.0303947
0.894407
0.0472351
-0.100454
-0.125365
0.121956
-1.65438
0.842186
-0.0652344
-0.0127739
1.20797
-0.102825
0.884261
1.07779
-0.832591
0.900524
1.10947
-0.213189
1.08955
-0.14234
-0.145544
0.873951
0.0289346
0.869954
0.891738
-0.194713
0.899073
-0.0423916
0.0858566
0.899561
0.888245
-1.51775
0.0599662
0.798171
0.857144
-0.450076
0.0833986
1.12865
-0.259281
0.770353
0.0295256
0.789749
-2.86002
0.0761974
-0.961706
-0.162244
0.945806
0.889972
1.14709
1.05449
0.834995
0.917527
0.918487
-1.18315
0.984458
1.00194
-0.425468
-0.337497
0.0568108
1.16948
0.05701
-0.227236
0.0267533
0.794985
-0.339201
-0.0435139
0.877267
0.877277
-0.760067
-0.770266
-0.286717
0.00774193
0.0962686
-0.272679
-1.41256
0.747765
0.747419
-1.24955
-0.779679
-1.38743
0.697286
-0.267094
-0.116731
-1.62372
0.800963
0.0395874
-0.637099
1.18688
0.783862
0.289233
1.05487
0.0372381
0.837168
0.879603
0.96499
1.06829
0.0343868
0.531284
0.864543
0.0550081
-1.79959
1.27448
0.813599
0.772961
0.903022
-0.522208
0.0342534
0.718813
0.657069
0.82279
0.0935399
0.0974414
0.854659
-1.79258
0.732163
0.0291686
1.26214
-1.93796
0.588522
0.585446
-1.73772
-2.0352
-0.0443217
0.919463
-1.58895
-2.59194
0.545026
0.464774
0.112286
0.927107
0.701454
-1.42637
-0.0148247
0.823287
0.0791189
-2.04957
-0.554125
-2.41344
-0.0943546
0.844642
0.86942
0.0906384
0.457457
0.869787
1.19264
0.105219
0.106169
-0.118411
0.74314
-0.813919
-1.84845
0.0476958
-0.779931
-1.94454
0.863645
-1.873
-0.0211667
-2.03578
0.391884
0.403689
-1.97296
0.483541
0.058114
0.323777
-1.95764
0.311302
-1.99957
0.207129
-1.8789
0.218616
-1.91135
0.672483
0.0620983
-1.85377
-1.78848
-2.674
0.897472
-0.153165
-1.71395
-1.7105
-0.181316
0.0403329
-2.2217
-2.49535
-1.68664
-0.410821
-1.69721
-0.383495
-1.73744
-0.653388
-1.73865
-0.645402
0.775597
0.0313337
0.0914179
0.851073
-0.0302727
0.0508641
0.30469
0.840632
0.0653076
0.0893275
-1.75576
0.11968
0.751974
1.26653
0.0395969
0.0396998
-0.18005
-0.0761622
-0.266482
-0.617844
0.831462
-0.000116139
0.801839
0.010891
1.33269
0.358993
1.27692
-0.917044
1.0501
-0.941146
0.870241
-0.07828
-1.83234
0.934099
0.854688
0.0928507
-2.26893
-1.59303
0.839108
-0.417797
0.862635
-0.035228
-0.774385
-0.894699
1.15479
0.896988
0.970749
0.880833
0.890344
0.0352288
-0.198075
1.05461
0.0669885
-0.0272917
1.26281
-0.921921
0.784803
0.817299
1.22074
1.27942
-0.978683
-0.0131606
0.896684
0.0765289
-0.855043
-1.61819
0.0474821
0.0843794
-0.773658
0.487941
0.125848
1.06125
0.0302976
0.900481
0.992693
0.895424
0.00386132
-2.5471
0.0473651
0.952253
0.0354287
1.02338
-1.20654
0.100621
1.08656
1.16325
-2.33965
-0.117968
0.841639
0.0965766
0.0837537
0.530117
1.11996
1.07355
-0.0819712
0.740557
0.702391
-2.43704
1.08651
0.113366
-1.0785
0.0488475
0.0161908
0.0319276
0.971312
0.0174803
0.0747144
0.00179841
0.0296056
0.00275075
-2.89056
0.855396
0.087523
0.875608
-0.159634
-0.137741
0.58247
0.172313
-2.61217
-1.08863
-1.98105
0.0249993
0.00856998
-0.00298981
0.789762
0.0716079
0.0327936
0.873726
0.0226399
-0.381346
0.881557
-0.588791
0.825667
0.0108317
-1.74042
-0.459495
0.656903
-1.08735
0.00443322
0.747743
-0.871263
0.926463
-1.0737
0.0746049
-0.0482993
-2.06065
1.34207
0.112726
0.981838
0.00951488
0.805356
1.04286
0.581795
0.86751
1.0096
-0.0898277
0.0521973
0.829266
0.952407
1.21106
-0.0834512
0.899783
0.52409
-0.119907
0.639609
1.06792
-1.00011
1.18935
0.00213169
-0.0601557
0.686199
-0.165112
-1.8096
0.823832
-0.857435
0.921182
0.912589
0.82302
-0.09666
0.760012
1.10848
0.035926
-0.361096
0.105062
-1.98044
0.0552022
-2.2452
1.20965
0.596929
-0.185884
0.763481
-0.224669
0.039791
1.12953
1.07275
0.0794499
0.0987268
-1.99443
-1.106
0.806298
-0.240955
-0.0703724
-1.05488
-0.390978
0.928286
-0.387472
1.23598
0.899607
0.727232
0.878475
1.14853
0.106969
-0.291842
0.865901
0.999622
0.00142924
0.861515
0.108672
-1.05147
-0.558369
0.936864
0.964947
-0.832948
-0.168731
0.409959
-0.166522
-0.0752592
0.858553
0.81752
0.124376
0.857179
0.89874
-0.121102
-0.378918
-0.138103
-1.28606
-0.646831
1.16826
0.0528738
0.770726
-0.302563
1.16699
0.755556
0.72082
0.799469
0.0831493
0.038068
-1.52978
0.369509
-0.698441
0.772479
0.0900566
-0.449715
0.719614
0.859733
0.921263
0.868399
0.0177934
0.92621
0.0212156
0.2776
0.661545
-0.92042
-0.47046
-1.65855
-1.24564
0.881559
0.822004
0.896099
0.0150278
-1.40319
-1.72392
-1.70875
0.877236
1.13167
0.888358
-0.574728
0.0271804
0.116893
-0.929842
-1.99053
-1.93944
-0.454899
0.85897
-0.0285409
-1.33902
0.01407
-0.334029
0.56467
0.081789
-1.87784
-0.298593
0.798977
1.27852
0.000416874
0.947863
1.33571
0.499769
1.06036
-0.327133
0.0297355
1.25306
-1.99804
0.167371
-0.84095
-0.586579
-1.72054
-1.66844
0.833452
0.574507
1.0391
1.00225
0.000743707
0.625901
-0.0715085
0.000720495
-2.05243
0.962855
0.566518
0.894447
0.908918
-0.00169797
0.00458563
0.917638
0.0224683
-2.12986
-1.51222
-1.75828
0.448408
-1.80657
0.8488
0.507382
-2.12932
1.08933
-0.500448
-0.681355
0.848047
0.0210643
0.0189112
0.0436932
0.43081
-1.16322
-0.143306
0.765893
0.897898
0.0266552
-0.0189144
0.0735452
-2.05739
0.0446394
-0.0153252
-0.272885
0.432644
0.0924473
-1.91072
1.10868
0.0494716
0.166605
-1.96691
-0.513048
0.856895
0.900188
0.353951
0.361975
-1.97583
-0.0525444
-0.998696
0.269182
0.261807
-1.93706
0.720439
-0.090179
-1.89336
1.29109
-1.84423
0.00757498
-0.661716
-1.45575
0.691696
-1.75268
-0.18699
-1.70067
-0.257483
-1.69954
-0.269008
-0.0588586
0.0313523
1.02862
-1.69911
-0.498857
-1.71461
-0.498653
1.18518
1.24916
1.07554
0.87819
1.0526
-1.52972
0.856513
-0.466596
0.89739
-1.74972
-0.998761
1.11963
-0.0977034
0.356569
0.030458
1.24844
-0.166289
1.18459
0.428627
0.636195
-0.9952
-0.706569
-1.8712
-0.200007
1.15696
1.04448
0.858948
0.511974
0.865632
0.717528
0.657475
-2.20267
-1.38192
0.102806
0.00563792
0.630152
0.863305
-0.294247
-0.970024
-1.84067
-0.0357968
-1.79378
0.0447343
1.1992
0.904003
0.882811
-0.00597075
0.00853579
0.900135
0.0510379
-2.07229
0.075049
-0.0960953
0.618273
-1.36008
-2.16102
-0.593009
0.855089
0.0421487
-0.70927
0.863855
0.442258
0.64894
0.868472
-2.02744
0.711889
1.03709
0.687154
-1.92268
0.858801
0.162462
0.268419
0.074946
-1.69811
1.29185
0.169104
-0.109686
-0.0106129
0.750277
0.824884
-0.0402813
0.0818152
0.0132934
-0.551136
-1.45887
-0.155642
0.000672125
0.861376
-0.0374569
0.853104
1.12416
0.946599
0.836404
0.933424
0.994831
0.867663
0.114036
-1.16325
-0.828725
-1.79116
-0.651838
-2.01616
0.999856
0.897638
-0.228146
0.797531
0.00169678
0.0395834
-1.86156
0.0307426
0.399537
-0.158117
0.857681
0.74783
-0.0608621
-0.817071
1.18374
0.0141985
0.0514255
-0.359944
-0.122175
-1.43368
0.901778
0.610083
0.951456
0.0471967
0.0523983
-1.52834
-0.654762
-0.192818
0.00635733
0.104358
0.0723314
0.752966
-0.878402
1.30671
-1.87977
-0.781622
-1.6439
-2.10865
0.773368
-1.57982
0.0616059
-0.683794
-0.221002
1.03543
1.07053
0.0782496
0.0398216
0.661639
-1.67158
-0.928406
0.953418
-0.0568454
0.0400646
-0.176262
0.58618
-0.559021
-0.164498
0.86212
0.0256933
-0.427045
0.866726
0.0244265
0.131412
0.00991849
-1.63583
-0.0961221
-0.147185
1.15612
-1.93515
0.0689321
-1.70468
0.628657
-0.841868
0.0536975
0.472217
0.637531
0.922083
0.815988
1.02756
-1.44129
0.69062
0.442243
0.0823539
0.793936
-0.763901
-0.841217
0.0539706
1.03136
1.01606
-0.607032
0.0472906
0.0859542
0.857567
0.0245479
0.0788232
-0.119853
-2.27591
1.12171
0.857528
-0.848339
-0.0961736
-0.803007
-1.17852
0.779194
-0.353771
0.822186
0.0201454
0.536399
0.67376
-2.0749
0.0571187
0.782574
-2.23858
0.015363
1.12642
-1.56472
-1.31448
0.654678
0.0605865
-0.13652
-0.208246
-0.0216083
1.19924
-0.823047
0.0985922
-0.773446
1.1602
-0.581485
-0.0743801
0.466966
-0.189462
-1.76077
1.18228
0.499506
0.86086
-0.159289
1.07111
0.0419828
-0.584984
-0.211837
-0.186504
-0.513931
1.103
0.394241
-0.712596
-0.637402
-0.122489
0.974724
-0.0265612
1.13612
-1.77247
0.576071
-1.53012
0.168701
0.354216
0.31634
0.227303
-0.017248
-0.0436633
0.85328
-0.240464
-1.21151
-0.31928
0.14112
1.17663
-0.257047
-0.102385
-0.433692
-1.44911
0.0459066
-1.83399
-1.62995
0.692363
0.0597399
-1.00932
1.24067
-0.144363
0.129365
1.20465
-1.28524
-0.0875642
-0.00878748
-1.95191
-1.78286
1.21533
-1.50339
1.12322
-1.8397
0.0401782
1.02051
-0.11888
-0.0305983
0.382855
-0.0397714
-0.252415
-0.40773
-1.68013
0.670893
-0.750342
-1.53544
-2.02684
-1.92422
-1.67995
0.707337
-0.470002
-0.272447
-0.937433
1.15058
-1.34215
-0.118468
-1.42684
-0.41826
-1.6978
-1.82632
-1.09354
-0.08767
1.08595
-0.45288
-1.63144
0.013239
-0.576709
-0.567597
-1.66671
1.23796
1.16833
0.218185
0.0722409
-1.68951
0.121186
-1.60031
1.24888
-0.0191793
0.92709
0.526621
1.14093
-0.158132
-1.68758
0.0857588
-0.351612
-0.21803
-0.349842
-0.328536
-1.85934
1.14462
-0.10516
-0.0047844
-0.161426
-1.50848
0.0800392
)
;

boundaryField
{
    frontback
    {
        type            empty;
    }
    Top
    {
        type            zeroGradient;
    }
    outlet
    {
        type            fixedValue;
        value           uniform 0;
    }
    bottom
    {
        type            zeroGradient;
    }
    Inlet
    {
        type            zeroGradient;
    }
    rectangle
    {
        type            zeroGradient;
    }
}


// ************************************************************************* //
