/*--------------------------------*- C++ -*----------------------------------*\
| =========                 |                                                 |
| \\      /  F ield         | OpenFOAM: The Open Source CFD Toolbox           |
|  \\    /   O peration     | Version:  2306                                  |
|   \\  /    A nd           | Website:  www.openfoam.com                      |
|    \\/     M anipulation  |                                                 |
\*---------------------------------------------------------------------------*/
FoamFile
{
    version     2.0;
    format      ascii;
    arch        "LSB;label=32;scalar=64";
    class       surfaceScalarField;
    location    "2";
    object      phi;
}
// * * * * * * * * * * * * * * * * * * * * * * * * * * * * * * * * * * * * * //

dimensions      [0 3 -1 0 0 0 0];

oriented        oriented;

internalField   nonuniform List<scalar> 
3181
(
-1.00576
0.407822
0.597942
-0.42343
0.383284
0.0401464
0.541055
-0.378655
-0.1624
0.119927
-0.199465
0.0795382
0.0231838
-0.0284698
0.00528598
0.66863
0.48846
-1.15709
0.152692
-0.14642
-0.00627173
-0.0312091
0.0305486
0.000660446
0.104761
-0.586235
0.481474
-0.0770554
0.13586
-0.0588047
-0.0120871
-0.0505887
0.0626758
0.317167
-0.0409641
-0.276203
-0.0275825
0.0158516
0.0117309
-1.02119
0.114609
0.906586
-0.310636
0.743736
-0.4331
-1.12071
0.645269
0.475443
0.0732258
-0.954441
0.881215
0.235342
-0.195521
-0.0398202
-0.630816
-0.374117
0.0321542
0.0200738
-0.052228
0.0383996
-0.0873429
0.0489433
0.245103
-0.1274
-0.117703
1.00933
-0.970767
-0.0385677
0.159299
-0.0480023
-0.111297
-0.932584
0.307204
0.625379
-0.107785
0.227712
0.299228
-0.237229
-0.0619989
0.0295752
0.0640838
-0.093659
-0.415491
0.333163
0.0823273
-0.0118603
-0.11337
0.142318
-0.0289479
-0.0351663
-0.897417
-0.231362
0.169118
0.0622441
0.0846601
0.615947
-0.700607
0.00623518
0.0332384
-0.0394735
0.199787
0.260931
-0.460718
0.900101
-0.815441
0.0733754
-0.0349758
1.11432
-0.800535
-0.313781
-0.306187
0.974817
0.0379931
-0.0655756
0.345796
-0.100693
-0.450293
0.139657
0.221043
0.124753
-0.606595
0.133042
0.473553
-0.145807
0.0687516
-0.179806
0.183733
-0.00392772
-0.266111
-0.0910376
0.357148
0.0648832
0.610617
-0.675501
-0.0221871
-0.166551
0.188738
-0.081216
-0.102654
0.10874
-0.00608556
0.450565
0.293172
-0.0891598
0.13743
-0.0482701
-0.241117
0.00975486
-0.172089
0.198096
-0.0260072
0.165789
0.0808944
-0.246683
0.110301
-0.116439
0.00613777
0.604993
0.509323
-0.846912
-0.158852
-0.0183104
-0.832256
0.850566
0.55296
0.209721
-0.76268
-0.448507
-0.181793
0.6303
-0.98791
0.681723
-0.246095
0.799054
-0.316311
-0.12146
0.437771
-0.217045
-0.198446
-0.197116
0.171731
0.0253853
0.126649
0.284871
-0.41152
-0.509234
0.613995
-0.0581468
0.0269377
-0.952447
0.934136
0.182
0.117227
-0.173149
-0.115095
0.288244
-0.265692
0.350307
-0.0846147
-0.0815599
0.0901006
-0.00854071
-0.887563
-0.942341
0.00596441
0.936377
-0.0374984
0.0437335
-1.15182
0.481326
0.670494
0.454674
-0.501009
0.0463342
-0.980462
-0.00744832
1.07804
-0.963432
-0.694602
1.10238
-0.19579
1.04287
0.160907
-0.168254
0.0073474
1.151
-0.662537
1.08893
-1.08893
-0.0170749
-0.0157971
0.032872
-0.209147
-0.0569019
0.266049
-0.0443156
-0.0349797
0.0792953
-0.392601
0.755716
-0.363115
-0.0259566
-0.224823
0.25078
-1.02179
0.0510249
0.331987
0.0760112
-0.407998
0.117625
-0.807881
1.0176
-0.0274281
-0.0661119
0.09354
-0.0185642
-0.153525
-0.538385
0.443859
0.0945265
-0.504978
-0.0334074
0.0810838
-0.888965
0.292481
-0.685082
0.85607
-0.782844
-0.0589955
-0.319458
0.378453
0.0822308
0.0505833
-0.132814
-0.925777
-0.232264
1.15804
-0.234584
0.404742
-0.170158
0.879057
-0.346909
-0.532148
-0.35712
-0.7947
-0.12426
0.102073
-0.158822
0.152315
0.00650722
-0.0733022
-0.0158653
0.0891675
-0.689452
0.103217
0.0225286
-0.00449836
-0.0180303
-0.948395
-0.0159057
0.9643
0.91812
-0.307503
-0.112857
0.0957823
0.0376085
0.144392
-0.194496
0.394283
-0.0875723
-0.168782
0.256355
0.138395
0.0705953
-0.20899
-0.213767
0.00841577
0.205351
-0.589683
-0.531029
-0.773689
-0.174706
0.0328551
-0.0602832
-0.10357
0.182452
-0.0788814
0.0215748
0.0241535
0.128539
-0.0573093
0.0689367
-0.0116274
-0.0957522
-0.0213231
0.117075
0.0824847
-0.0824847
-0.18816
0.212314
-0.0503033
-0.254123
0.10361
0.094486
-0.942434
0.4332
-0.984058
-0.0911988
1.07526
0.132394
-0.145804
0.01341
-0.0279825
-0.052961
0.0809436
0.483586
0.0335006
-0.517087
-0.0480256
0.0394425
0.00858305
-0.201456
0.0132957
0.110503
0.645213
-0.370372
0.480875
0.132534
-1.05831
0.0478987
-0.0247149
0.484947
-0.286495
-0.198452
-0.0383293
0.00079149
0.0375378
0.0544554
-0.320566
0.0273824
-0.969723
0.0500844
-0.153655
-0.280934
-0.407349
0.0717473
1.39466
-1.02418
-0.370482
1.06291
0.331749
0.0779383
0.27921
0.0816178
0.0507764
0.0598799
-0.279173
0.219293
-0.249079
-0.565067
0.814146
-0.349679
0.52018
0.658952
-1.03307
0.476466
-0.148883
0.30901
-0.160127
-0.872162
-0.0383891
0.910551
0.0452423
-0.917404
-0.326184
0.658171
-0.927058
-0.0170134
-0.00573999
-0.265912
0.271652
1.15501
-1.36109
0.206079
0.0435786
0.0043201
0.52237
-0.771449
-0.12916
0.354516
-0.225356
-0.294066
-0.111988
0.406054
0.327583
-0.936245
-0.0855465
0.0172625
-0.0694905
-0.551516
0.369723
-0.25184
0.0231498
0.22869
0.0021218
0.0414568
-0.000731678
0.000731678
-0.118871
0.130051
-0.0111799
0.0633421
-1.0474
-0.0388442
0.00311731
0.0357269
0.0506004
-0.00672971
-0.0438707
-0.222872
0.0257556
0.827593
-0.11367
-0.713924
-0.181931
0.445522
-0.263591
0.1506
-0.152697
0.00209651
0.550935
0.328123
-0.201734
-0.00165478
0.203389
-0.176227
0.302876
-0.101999
0.100009
0.00199067
0.0919366
0.0621346
-0.154071
0.236896
-0.318768
0.0818716
0.404644
-0.849244
0.4446
-0.234266
-0.0497339
0.284
-0.681881
0.661885
0.0199959
-0.0839132
0.0359109
0.00947232
-0.0142064
0.00473409
-0.17717
0.0658734
0.558637
0.359483
0.164125
-0.848253
0.684128
-0.0950295
1.02553
-0.930502
0.363487
0.214661
0.874273
0.0641277
0.206357
-0.0679629
-0.0726989
-0.0299552
0.231342
0.155261
-0.0730298
0.737815
-0.43061
0.0632396
0.20281
0.0444093
-0.163182
0.118773
-0.880835
-0.0696915
0.950527
-0.00101253
0.00101253
0.110122
-0.300017
0.560948
0.00241269
-0.236678
-0.0921084
-0.103413
-0.00141835
0.0342734
0.134771
-0.146858
-0.351216
0.32526
-0.375567
0.0154701
0.360096
0.402329
-0.443293
-0.73594
0.377348
0.358593
-0.207241
0.285179
0.196914
-0.483408
-0.208242
0.616064
0.16685
-0.0338917
0.0338917
0.184987
-0.278534
0.0935471
0.371752
0.03299
-0.113475
0.0899545
0.0235209
0.122626
0.0130456
0.00948302
-0.0521762
0.186947
-0.180748
0.244684
-0.063936
0.127035
0.0282255
-0.372368
0.13514
0.190977
-0.0639421
-0.0465951
-0.0554041
0.0387333
0.0577815
-0.0965149
0.150809
-0.107246
-0.0435634
-0.0142763
0.385463
-0.371187
0.0298626
-0.0880094
0.105506
-0.110204
0.00469879
0.0256094
-0.449677
-0.286263
0.110173
0.0820444
-0.192218
0.45101
-0.211612
-0.239398
-0.0906459
0.0792178
-0.705891
0.626673
-0.000851076
-0.901323
-0.0718943
0.973217
0.0201802
0.839
-0.859181
0.084294
0.368085
-0.359669
0.264372
0.271078
-0.53545
-0.211534
0.255943
0.156651
-0.909853
0.753202
0.198098
0.252912
-0.0961448
0.113407
-1.11108
0.465271
0.64581
1.02418
-0.943094
-1.29238
1.06012
-1.15501
1.06381
0.0389384
-0.0872085
-0.0106127
0.0200851
0.065671
0.930718
-0.774067
0.122448
-0.0723634
0.437225
0.665151
0.0688251
-0.971807
0.876777
-0.689092
-0.253342
-0.22035
-0.386245
-0.035713
-0.165816
0.220271
-0.673856
-0.365767
0.183836
0.79286
-0.309274
-0.741508
-0.550877
0.686495
-0.244322
0.44242
0.275364
0.038265
-0.038265
0.687004
0.15856
-0.845564
-0.216973
0.903977
0.630174
-0.930662
0.300489
-0.304931
0.0508082
-0.00523875
0.0256429
-0.0204042
-0.832256
-0.825913
0.51841
0.433387
0.394206
-0.0389955
-0.14081
-0.350484
0.801049
-0.197436
-0.0544037
-0.0029824
-0.0785775
-0.0534977
0.104081
0.369491
-0.236449
-0.556558
-0.279969
0.316975
-0.0623926
-0.254582
-0.682633
0.897294
0.231567
-0.205839
-0.0257277
0.188084
-0.106467
0.0584983
-0.0415646
-0.0169336
0.0246943
0.413077
-0.0898509
0.0515216
-0.0498551
0.0844944
-0.0346393
-0.0250784
-0.176656
-0.705648
0.34851
0.357138
0.531614
-0.906714
0.3751
0.141496
-0.165635
0.0241384
0.0853092
-0.209569
-0.17131
-0.917624
0.0535187
0.00497961
0.0808189
0.021254
0.163763
-0.358259
-1.07731
0.672815
0.404493
0.0658065
0.0942672
0.0565418
-0.880835
-0.419354
0.823997
-0.0740457
0.0324811
0.047248
-0.618117
-0.063764
0.0634016
0.127576
-0.298309
0.0424376
-0.453958
0.124061
0.365159
-0.289148
-0.115883
0.0201306
0.188067
0.812182
-1.00025
0.110824
-0.860886
0.750061
-0.868741
0.79905
-0.846325
-0.0260569
0.872382
-0.102173
0.0929458
0.0092276
0.164333
-0.458399
0.276087
-0.167792
-0.108294
-0.289084
0.0774722
0.190499
0.126476
-0.00174421
-0.0211865
-0.155984
0.0201746
0.0806141
-0.100789
0.650354
0.13444
-0.137842
0.00340154
-0.0135446
-0.0744648
0.833336
-0.00775457
0.0120747
-0.296882
-0.52903
-0.192091
-0.112841
0.00677237
0.0874948
-0.872382
0.917624
-0.213067
0.294681
-0.0816136
-0.244017
0.0757625
0.122184
-0.114837
-0.00139083
0.0914914
-0.017477
-0.698913
-0.378395
-0.045366
0.0655406
0.717322
-0.241879
0.104647
-0.054047
0.304116
-0.0813529
-0.0321225
-0.0099717
0.0924564
0.140242
0.210065
0.156788
-0.330843
0.174055
0.0937097
0.551504
-0.0370231
-0.108784
0.728106
-0.074267
-0.653839
-0.846325
-0.137811
0.669425
0.900101
-0.496986
0.501787
-0.00480063
0.539433
-0.0711094
-0.468324
-0.247879
-0.732583
-0.0737749
0.0749486
-0.00117369
-0.0556365
0.381413
-0.325777
-0.010979
-0.534542
0.545521
0.0156961
0.779508
-0.795204
-0.0464979
-0.112324
-0.00881426
0.118988
-0.253551
0.438538
-0.0625973
-0.0395761
-0.10861
-0.0219643
0.130574
-0.109518
0.169397
0.0708985
0.117186
0.421279
-0.740736
-0.0133272
-0.000879202
0.187633
-0.412456
0.0682369
0.770763
0.00226408
-0.00125155
-0.928397
-0.00784884
-0.0886743
-0.0723528
-0.0435299
0.0677159
-0.196876
-0.51282
0.67485
-0.16203
-0.570234
0.378144
-0.941096
-0.0223354
-0.0665561
-0.645797
0.725015
-0.0168156
0.183666
-0.411511
-0.519151
0.182492
-0.431446
0.248954
0.311261
-0.480043
0.126537
-0.127502
0.000964795
0.0793628
0.157533
-0.0207566
-0.132768
0.730953
-0.620129
0.244098
-0.0235714
0.122049
0.309001
-0.152213
0.00622593
0.64122
-0.0485983
-0.592622
-0.122718
0.145868
-0.490893
-0.214755
-0.617372
0.757804
-0.722476
-0.0353275
0.134405
0.109693
-0.971807
0.700035
-0.700035
-1.04365
1.04365
0.930718
0.784668
-0.385446
-0.399221
-0.80603
-0.122367
0.659684
-0.344183
-0.3155
0.156566
-0.235448
-0.0469608
-0.0658964
-0.841041
-0.047924
-0.921245
0.215354
-0.208852
0.14646
0.68463
-0.10657
-0.57806
0.774538
0.125563
0.0162892
0.110248
-0.979664
-0.327941
0.705288
-0.178854
-0.528464
0.707318
0.0113014
-0.808814
-0.552278
0.232106
-0.821789
-0.950527
1.29884
-0.348309
-0.164387
0.291422
-0.127035
-0.0350053
0.719635
-0.0955587
-0.924894
0.924894
-1.06382
0.480943
0.582878
0.0212708
0.11317
-0.0748968
-0.43023
0.822753
-0.341427
-0.0834562
-0.0352826
-0.110059
0.0511431
0.0994569
0.849167
-0.875224
-0.435541
0.527478
-0.64712
0.992487
-0.345367
0.0205157
0.033003
0.127341
-0.0567456
0.373942
0.00941111
0.00644051
0.343831
0.0416325
0.0494891
-0.256734
0.207245
0.146071
0.0376622
0.0993584
0.190986
0.839566
0.0945705
-0.333506
0.807122
-0.473616
-0.85549
0.817101
0.745335
-0.620581
0.0734694
-0.763368
0.689898
0.451161
0.112048
-0.463264
-0.0770443
0.133524
-0.0564798
0.125751
-0.202795
-0.454104
-0.0974123
-0.071424
0.0745497
-0.00312571
-0.00866141
-0.0046658
0.643647
-0.633892
0.774067
-0.750061
-0.0240052
-0.303904
0.306317
0.827878
0.977702
-0.438269
0.00567866
-0.00256135
0.237318
0.117198
0.132055
-0.523195
0.39114
-0.110319
-0.017183
0.393221
0.114559
-0.507779
0.0516606
-0.0525026
0.000842058
-0.0395034
0.0327784
0.00672505
-1.0015
0.338963
-0.141383
-0.75994
-0.183026
-0.943094
1.06381
1.06012
-0.194684
-0.1846
0.134867
-0.0633698
0.0689325
-0.00556263
-0.325022
0.76398
-0.438958
0.49331
0.166374
0.00459094
-0.11491
0.124968
-0.100874
0.0352826
-0.0498921
0.00452606
0.4041
-0.166782
0.0133277
-0.014746
-0.393111
0.79544
1.06291
0.114534
-0.0618365
0.00117343
0.0606631
1.18503
-0.124911
-0.0616104
-0.0548286
-1.11267
0.169572
0.832293
-0.50471
-0.465217
-0.12816
0.593378
0.762551
-0.328481
-0.43407
-0.0367666
-0.476054
-0.876777
0.0445217
0.0468244
-0.115042
0.0682175
0.182489
0.843042
-0.21838
0.213141
-0.0731831
1.29736
-0.23355
-0.642896
0.0368315
0.606065
0.358155
0.0205358
-0.329931
0.442376
0.729997
-0.0847262
0.0784637
-0.0219219
-0.779648
-0.0126728
0.792321
0.615876
0.0357466
-0.0856017
-0.0382751
-0.371116
0.100274
-0.311808
0.478467
0.162752
0.195665
-0.06126
-0.0529094
-0.444077
-0.0930047
0.00909143
0.118457
-0.162078
0.0436211
-0.298453
0.310902
-0.0124486
0.469402
-0.518
-0.95192
0.0444955
0.907424
-0.093258
0.168423
-0.075165
0.267303
0.0416977
0.359931
-0.779284
-0.818303
0.818303
0.850566
0.774538
-0.860886
0.261104
0.468893
0.263177
-0.16963
0.931768
-0.438459
0.027275
-0.833576
0.806301
0.128833
0.00702741
0.0500407
-0.475712
0.835643
-0.147745
-0.173239
-0.112605
0.285844
0.0042411
-0.509955
0.336717
-0.737193
-0.294888
-0.791028
0.0187933
-0.121394
-0.0164479
-0.230569
0.25098
-0.505562
0.0305753
-0.140355
0.10978
-0.618377
-0.445444
-0.00572101
0.0698048
-0.969389
0.42888
0.540509
-0.569322
0.37087
-0.687981
0.703451
0.225241
0.0306329
-0.126778
-0.674993
0.561323
0.033892
0.0716136
0.164293
-0.042244
0.259556
0.0165312
-0.41263
0.739241
0.325557
0.33141
0.863573
-0.790104
0.757803
-0.453687
-0.588223
0.157993
0.155315
-0.758335
0.738825
0.0195108
0.70728
-0.228812
-0.287291
-0.14825
0.0718717
-0.106851
0.97571
-0.856543
-0.119167
-0.178886
0.105857
0.0259651
0.12635
0.890164
0.826576
-0.668091
-0.158486
-0.318678
-0.0470894
-0.546728
-0.422661
0.329131
0.82891
0.917459
-0.142921
0.215076
0.554686
-0.769762
0.0693251
0.051994
-0.071285
0.101918
-0.505401
-0.0828221
-0.0833683
0.0854901
-0.188388
0.136211
-0.520384
0.256793
-0.980341
-0.710468
-0.284345
-0.725297
0.908283
0.166974
-0.277316
0.234168
0.169932
0.290365
0.295027
0.0488038
0.695411
-0.70639
-0.18944
0.125498
0.21751
0.171829
-0.389339
-0.0490868
0.0959111
0.0494198
-0.061582
-0.236871
-0.116114
0.663933
-0.410207
-0.253727
0.0217443
0.134424
-0.0968937
-0.0375299
0.242785
0.0522413
0.0314172
-0.890598
-0.0976311
0.144879
0.8187
0.00787585
-0.734726
0.495328
-0.0229674
0.0179022
0.00506517
-0.0954257
-0.0503784
-0.242636
0.0794538
0.0220455
-0.556457
0.39207
0.0210367
-0.107734
0.014476
-0.671637
0.810541
-0.647789
0.018106
-0.194206
0.1761
-0.0895762
-0.500015
0.589591
0.0744934
-0.69261
-0.844541
-0.107379
0.000999184
0.00141503
-0.00241421
-0.284505
-0.757804
-0.123032
-0.136185
-0.779648
-0.231889
0.163926
-0.317248
-0.841321
0.292944
-0.233231
-0.0597128
0.259146
0.113907
0.0417046
0.570178
-0.611883
0.394525
-0.638848
0.790372
-0.0978328
-0.692539
-0.218261
-0.0731651
0.890266
-0.24237
0.178435
-0.808192
0.735027
0.594437
-0.150578
0.000672021
0.064999
-0.198509
0.847496
-0.516086
0.671469
0.0910818
-0.915879
0.216966
0.378753
0.553016
0.891255
-0.163149
0.0121571
-0.917459
-0.791028
-0.689466
0.695431
0.0565588
-0.741508
0.779508
0.641377
-0.97891
0.65585
0.00408781
-0.762423
-0.319398
0.601771
-0.748485
0.146714
0.0811935
0.0532301
0.406979
0.00899632
0.99564
-1.00464
-0.0386415
-0.0827525
-0.266032
0.211628
0.676264
0.2201
-0.206804
-0.194572
0.85435
-0.870255
-0.477272
0.0780512
0.588931
0.452179
-1.04111
-0.800343
0.78767
0.959339
-0.530458
0.334697
0.801317
-0.792321
0.0123913
0.223028
0.0710121
-0.338153
0.249479
0.0200404
-0.159709
0.139668
-0.986705
-0.0135439
0.327608
-0.754599
-0.451825
1.12006
-0.668238
0.392752
0.599735
-0.0496317
0.0530566
-0.00342489
-0.0194762
0.873826
-0.711654
0.894766
0.499346
-0.951171
0.314457
-0.0914289
-0.575163
-0.405178
-0.403615
0.992546
-0.0326244
-0.829489
-0.990703
0.0602012
0.801317
0.0503361
-0.804935
0.782384
-0.647451
-0.134933
-0.98035
0.405187
0.122042
0.137485
0.00490054
-0.142386
-0.976569
0.571391
-0.210435
0.897047
-0.919382
0.192284
-0.217362
-0.0938255
0.257589
0.992687
0.268321
0.265612
-0.739592
0.14697
0.828043
-0.912769
-0.565634
-0.520541
1.08617
0.434366
0.0301042
-0.00446122
-0.808748
0.795204
0.806351
-0.825828
-0.874273
0.807251
0.0670219
0.607363
0.5127
0.869646
-0.881507
-0.501807
-0.467916
-0.477459
-0.49911
0.806519
-0.806519
0.758412
-0.758412
-0.808748
-0.799803
0.799803
-0.807251
-0.490962
-0.3613
-0.392343
-0.905787
0.905787
0.806351
-0.825828
0.869646
0.830482
-0.830482
0.881507
0.78829
-0.78829
0.498193
0.522541
0.479459
-0.0994358
-0.50089
-0.532084
1.05462
-0.511148
-1.04471
0.641091
0.499637
0.459702
0.0245102
0.00131488
-0.00906944
-0.864982
0.0767947
0.788187
0.0790911
-0.114804
-0.990736
0.560126
0.84184
-0.580737
-0.124368
0.106356
-0.000370099
-0.773677
-0.0745763
-0.64581
-0.0685914
0.181999
0.0198509
0.109686
-0.0772048
0.216764
-0.148173
0.0696332
0.0785394
-0.771829
0.086826
0.685003
0.45159
0.541098
-0.526367
0.41813
0.108238
0.888939
-0.73771
-0.151229
0.107359
0.286924
-0.0134351
-0.0579889
-0.0605007
-0.0132741
0.254335
-0.936968
-0.793698
0.100467
-0.754192
0.793292
-0.0391004
0.112763
-0.901179
0.788416
-0.793259
0.896744
-0.103484
-0.0901821
-0.00524357
0.0280441
-0.293956
0.532145
0.460402
-0.0833824
-0.7816
0.912427
-0.0737449
-0.838682
-0.059915
0.0804307
0.951227
0.805557
-0.624945
0.536054
-0.36968
0.105076
-0.886675
0.815441
0.228208
-0.755729
-0.00669399
0.996338
-0.883575
0.762331
0.954782
-0.50796
-0.446822
-0.884216
-0.106521
-0.404783
0.0335963
0.347164
-0.509193
-0.83833
0.83833
-0.604688
-0.0895003
-0.846526
0.108815
-0.931484
0.75263
0.057385
-0.225177
-0.0589255
0.0572221
0.0117146
0.17133
0.825008
0.807243
0.77786
0.14082
-0.91868
-0.488987
0.948688
-0.771319
-0.113267
0.884586
0.17912
-0.890773
-0.675196
0.890658
-0.785582
-0.112139
0.456195
-0.0262616
-0.429934
-0.324862
0.869878
-0.545015
0.0766578
-0.446478
0.36982
-0.883458
-0.831604
0.0774126
0.471078
0.286725
-0.843807
0.522634
-0.738692
0.738692
-0.623517
-0.116076
0.356739
0.478904
-0.818655
0.86315
0.777391
-0.197564
0.864614
-0.525651
0.528755
-0.919614
0.390858
-0.274559
-0.632155
-0.148955
0.465795
0.378578
0.445419
-0.0145159
0.333777
-0.226418
0.788986
-0.89247
0.561534
0.387154
-0.13507
0.695196
0.743726
-0.743726
-0.104443
-0.0020234
0.107301
-0.0767254
0.503862
0.366016
-0.101899
0.0673592
0.0544091
-0.121768
-0.64648
0.673758
-0.0272777
0.422865
-0.930825
0.0944723
-0.880055
-0.635751
0.665146
-0.0293944
-0.087173
0.854186
-0.620646
1.04351
-0.739234
0.592048
-0.655812
-0.624336
0.133442
-0.402069
0.0745957
0.508972
-0.917873
0.515803
0.00503457
-0.97728
0.0620714
0.731221
0.682525
-0.090477
0.0644766
0.768859
-0.456514
1.0082
-0.55169
0.451678
0.407938
-0.486443
-0.882627
0.647214
0.235412
-0.679038
-0.142751
0.980288
0.279243
0.159295
-0.043417
0.486879
0.513121
-0.768131
-0.124339
-0.483855
-0.520889
-0.46914
-0.535979
0.428866
0.571134
0.0982527
-0.172718
-0.841876
-0.0743575
-0.581455
-0.195157
-0.228341
0.423497
-0.0204409
0.00296396
0.112527
0.0744203
-0.129766
-0.11287
0.747665
-0.624619
0.689095
-0.396838
-0.521034
0.853353
-0.357707
-0.495645
-0.640689
-0.196836
0.837525
-0.246236
0.230271
-0.0274611
0.0357863
0.00567055
0.0401146
0.875833
-0.137141
0.117231
0.10801
-0.730022
0.0835415
0.879373
-0.461477
0.728641
-0.370048
0.857482
-0.280029
0.94518
0.0131301
-0.177052
0.103869
-0.10192
0.00466625
0.233568
0.380181
0.499192
-0.452057
0.828339
-0.376282
0.825077
-0.100195
-0.0739436
0.174138
0.130633
-0.075099
0.0125017
0.240056
-0.121599
0.168456
-0.98711
-0.831709
0.379652
-0.0115196
0.144311
0.470632
-0.810948
0.744231
0.0667174
-0.762846
0.82506
-0.0622141
-0.38629
0.22276
0.371677
-0.0690225
0.884042
-0.454527
-0.07184
0.30449
0.433762
0.149933
-0.583695
0.29073
0.0346368
0.639121
-0.556011
0.556078
-6.68868e-05
0.807334
-0.51697
-0.0390624
0.02787
0.0111924
0.690008
-0.0110181
-0.0762276
0.0105545
0.653208
-0.816537
0.430247
-0.00454164
0.0693058
0.0991172
-0.0759406
-0.00426847
0.0802091
0.146673
-0.126633
0.64507
-0.742903
-0.111037
0.219253
-0.0272115
-0.0865454
0.216005
0.0927032
-0.0184089
-0.172308
0.752079
-0.401508
0.795746
-0.394238
0.887784
-0.415528
-0.472256
0.628224
0.183386
0.00999748
0.00130639
-0.0113039
0.451071
-0.362011
-0.557603
-0.0203472
0.706842
0.689163
0.291248
-0.366466
0.773445
0.807344
-0.274466
0.280692
-0.8467
-0.0970897
-0.27143
0.362175
-0.192969
0.678958
0.0731213
0.0135283
0.684162
-0.461402
0.126162
0.175797
0.0263618
-0.113705
0.440378
-0.0608122
-0.371937
-0.0709548
-0.0312745
0.64824
0.239544
-0.150121
0.387279
-0.0358282
-0.109697
0.0515781
0.0121957
-0.0637739
-0.798939
0.281969
0.001199
0.674732
-0.234591
-0.596793
0.618118
-0.0213244
0.194448
0.762499
-0.867469
0.371824
0.0899494
-0.183775
0.630127
0.132373
0.665561
0.231733
-0.237879
0.773933
-0.369665
0.868857
-0.588207
0.344904
0.243303
-0.487817
-0.0691064
0.048501
0.0647487
-0.0475286
0.771967
0.714646
0.0926983
0.61714
0.197005
-0.841008
-0.0835835
-0.656386
0.649692
-0.0255135
-0.591021
0.395864
0.86136
0.664764
-0.14352
-0.0145432
-0.14983
-0.313434
0.530617
0.279924
-0.79181
-0.0585601
0.511221
0.357636
0.656439
0.307861
-0.0783571
0.883045
-0.682706
0.86478
-0.182073
-0.414951
-0.173257
-0.00152461
0.0794534
0.0389814
0.551027
0.0768951
0.00759931
0.604116
0.322222
-0.692271
0.590406
-0.134044
0.227998
0.595703
0.337902
-0.933605
0.274506
-0.921956
0.0202677
-0.668056
-0.167501
0.742066
-0.574564
-0.652126
0.0364324
-0.000646152
-0.0579943
-0.872824
0.0180866
-0.041054
0.840632
-0.058341
0.157589
-0.0992478
0.00419433
-0.673856
-0.0463065
-0.130746
-0.819575
-0.136775
-0.0113975
-0.361563
-0.0557888
-0.559704
0.0036937
0.556069
0.305291
0.452132
0.521086
-0.226806
-0.37895
0.605757
-0.304991
-0.671586
0.671586
0.0211288
-0.890917
0.869788
0.0326717
-0.155389
0.646301
-0.0902322
-0.232605
0.497219
-0.337924
0.50185
0.515081
-0.396039
0.167805
-0.0960573
-0.717813
0.47761
0.0784675
0.0618503
0.0115251
-0.775076
-0.681064
-0.279573
0.715628
0.284372
-0.681064
0.715628
-0.681435
-0.271251
-0.681435
-0.69419
0.69419
0.30581
-0.0144605
-0.0249872
-0.0784448
0.111443
-0.158761
-0.52517
0.634817
-0.0444114
0.641757
-0.4788
-0.162957
-0.0547447
0.0530951
0.00164957
-0.0890185
0.156378
0.434182
0.0195381
0.0497709
-0.431045
-0.356768
0.126199
0.0327088
0.802203
-0.247517
0.444171
-0.274239
-0.0425226
0.183873
-0.0318477
0.645838
0.0610035
-0.591255
-0.0545468
0.0199075
-0.113753
0.097695
0.540269
-0.443071
-0.0971977
0.895871
0.54434
-0.805749
0.86383
0.0119102
-0.0648712
0.108312
-0.130918
-0.119449
1.05015
-0.454449
0.00151872
0.0172745
0.54606
-0.443574
0.0216191
-0.0216191
0.0211453
-0.0211453
-0.00474392
0.00474392
0.00226408
0.365158
0.441469
0.00954948
-0.717846
0.408572
0.201838
0.038218
-0.0875976
-0.465762
0.492611
0.119932
-0.79897
-0.756541
0.23739
-0.115254
0.0322281
0.000550299
-0.00325595
0.00325595
0.376536
-0.00467098
0.00467098
0.682257
0.0915771
-0.06112
0.00657317
0.00675467
-0.0685912
-0.0224989
0.0224989
-0.00716702
0.00716702
-0.0222498
0.0222498
-0.00590627
0.00590627
-0.140982
-0.304526
-0.0823669
0.228782
-0.00891836
0.00891836
-0.367012
0.510858
-0.143846
0.505126
-0.213704
0.291299
0.152872
0.544273
0.10226
0.0722947
0.545823
0.563678
-0.0247231
0.0247231
-0.219578
0.0250115
-0.0250115
-0.0131761
0.0131761
0.718133
-0.795351
-0.0333177
0.584206
-0.469647
0.046136
-0.046136
0.00619679
-0.00619679
0.0181884
-0.0181884
0.0231895
-0.0231895
-0.0233047
0.0233047
0.0355986
-0.0355986
0.472433
-0.0317168
0.0317168
-0.0586377
0.0586377
0.023751
-0.023751
-0.0131263
0.0131263
0.01614
-0.01614
0.0321639
-0.0261852
0.0261852
0.397058
0.0165514
-0.0402974
0.0402974
0.0083922
-0.0083922
0.004167
-0.004167
0.0337074
-0.0337074
0.0260167
-0.0260167
0.0339403
-0.0339403
-0.0265207
0.0265207
-0.425576
0.277642
-0.0092714
0.0092714
-0.0678653
0.0678653
-0.0392121
0.0392121
-0.0286239
0.0286239
0.0426365
-0.0426365
-0.343496
0.722249
0.352798
-0.0331266
0.0331266
-0.00804961
-0.00519026
0.00519026
-0.0723009
0.0723009
0.037989
-0.037989
0.261156
0.0195359
0.0221667
-0.0221667
-0.0228314
0.0228314
-0.448864
0.0447119
-0.710176
-0.0318512
0.0318512
-0.427146
0.0338656
0.0191909
-0.30568
-0.610199
-0.0385157
0.0385157
-0.200192
0.13938
-0.0448225
-0.0743974
0.0743974
-0.000977765
0.0499211
0.235384
-0.325843
-0.255847
0.58169
0.197424
-0.0174329
0.0174329
-0.381316
0.387849
-0.00653305
0.722023
-0.329371
-0.392651
-0.453938
-0.590008
0.115542
-0.389781
0.217894
0.233784
-0.563165
-0.109687
0.198828
-0.935998
0.0166192
-0.0166192
-0.0589448
0.0589448
0.0321596
-0.0321596
0.0272225
-0.0272225
-0.0554009
0.0554009
-0.0417618
0.0417618
-0.456761
-0.0442475
0.165843
-0.29021
0.0536776
-0.0536776
-0.0467606
0.0467606
-0.0425396
0.0425396
-0.128008
-0.000891262
0.128899
0.00667133
0.299796
-0.534387
-0.0487577
0.0487577
-0.0033309
0.0033309
-0.0785127
-0.339192
0.454734
-0.0427266
0.0427266
-0.0908459
0.0416252
0.703999
-0.463497
-0.0838211
0.547318
-0.606028
-0.106933
0.454097
-0.0404889
0.0404889
-0.668
0.286042
0.0542547
-0.0542547
-0.64488
0.329379
0.264332
0.098779
-0.0585486
0.0585486
-0.773571
-0.0421007
0.0421007
0.316148
0.403487
0.0072464
-0.0594049
0.0594049
-0.0312059
0.0312059
-0.0450008
0.0450008
-0.0567035
0.0567035
-0.0455022
0.0455022
-0.0632107
0.0632107
-0.0382951
0.0382951
-0.0489357
0.0489357
-0.107233
-0.0487502
0.0487502
0.0197186
-0.0197186
0.0521414
-0.0521414
-0.0261904
0.0261904
0.0491444
-0.0491444
0.330481
-0.0128427
0.0128427
-0.00359638
0.00359638
-0.080021
0.0924564
-0.00443844
0.00443844
8.40318e-05
-8.40318e-05
-0.0669062
0.0669062
0.335366
-0.0111635
0.0111635
-0.0652449
0.0652449
-0.00497858
0.00497858
-0.0770191
0.0770191
-0.0155037
0.0155037
-0.0938247
0.0938247
-0.0226535
0.0226535
-0.108866
0.108866
-0.660256
-0.272583
-0.488981
0.467657
-0.808814
-0.197727
-0.557556
0.364587
0.407376
-0.385632
0.0013468
-0.0013468
-0.165515
-0.655214
0.0449777
-0.0334526
-0.528889
0.654452
0.578362
0.276786
0.0025179
0.208831
-0.3996
-0.54201
0.015668
0.364765
-0.653722
-0.0215336
0.0215336
-0.718809
0.0195518
-0.0195518
-0.0310393
0.0310393
0.430437
-0.0559415
-0.00392153
0.00392153
0.0192621
0.0146297
0.586032
-0.488502
-0.162962
-0.051912
0.0640692
-0.0804835
0.479042
-0.398559
0.432981
-0.581936
-0.00243409
0.714836
0.104819
0.0568943
-0.404883
0.43848
-0.488704
-0.729588
-0.328724
-0.071077
0.0175794
-0.446094
-0.000383887
-0.00574991
-0.00491439
0.0673301
0.750166
-0.527278
-0.036455
0.0628169
-0.0366581
-0.372901
0.347914
0.415124
0.246761
-0.198951
0.241985
0.130821
-0.0686864
-0.528327
-0.0332499
0.0321154
0.125473
-0.019074
-0.68034
-0.0746938
0.258868
-0.343377
0.38501
-0.061114
-0.664183
-0.114746
0.0278196
0.0526111
-0.339532
0.44777
0.0260196
0.0164664
-0.042486
-0.0268767
0.0268767
0.0513224
-0.489591
0.0306107
-0.0373404
-0.0796313
0.0541178
-0.0642495
-0.00570752
0.069957
-0.0942537
-0.165975
-0.0587021
0.026162
-0.288152
-0.336729
0.624881
0.0157146
0.059234
0.149684
-0.0324524
0.100662
0.0578773
-0.15217
0.307486
0.127571
0.0465668
-0.0239549
0.173638
0.0101175
0.261534
0.0374165
-0.0374165
-0.156013
0.812452
0.0854984
-0.169082
0.00512488
0.00617653
0.436647
0.606864
0.00313094
-0.00239926
-0.513154
0.0241724
-0.373968
0.0951023
-0.664745
0.226287
-0.0723374
0.336374
-0.624526
0.148508
0.498706
-0.108323
0.108323
0.00490054
-0.902441
0.445055
0.457387
-0.211282
0.153287
0.0578982
0.0582447
-0.576245
0.10633
-0.0092266
-0.00138614
0.936549
0.459061
-0.602581
-0.0719018
-0.367009
-0.584162
0.00930098
-0.359191
0.801567
0.569334
-0.269539
-0.581756
0.726067
0.302078
0.19971
-0.277594
-0.00524012
-0.453153
0.309307
0.147084
-0.147084
-0.0538392
0.0444547
0.00938448
-0.000991863
0.109417
0.0179022
0.208802
0.24227
0.224885
-0.189074
-0.0358108
0.542328
-1.00673
0.0596242
-0.588654
0.670056
-0.112415
-0.177796
-0.0370166
-0.0790974
-0.484281
0.0532368
-0.286044
-0.00123529
-0.019074
0.391162
-0.0050399
-0.000576919
-0.00301209
0.0432563
0.0475058
-0.090762
-0.0954918
-0.0311709
-0.180888
0.212059
-0.135227
-0.317926
0.0192621
0.332563
-0.000446338
-0.368792
0.0844471
0.00276172
-0.11328
0.122829
-0.0130901
0.0130901
-0.00121238
-0.000970228
-0.00936506
-0.00425772
0.0215913
0.000690602
-0.00105492
-0.201377
0.00450073
-0.0164524
0.0164524
-0.118994
0.478688
-0.00210438
-0.321982
0.781937
1.07862
-0.474759
0.304096
-0.435468
0.100139
-0.0695285
0.22293
-0.222111
-0.000199956
0.0442167
-0.00410215
0.00580367
-0.186687
-0.422333
0.830906
0.0464378
-0.503199
-0.1334
-0.0018912
0.377702
-0.464875
-0.00100653
0.0133193
0.0308974
-0.262415
0.0010853
-0.00035808
0.670903
-0.613026
-0.242593
-0.316775
0.366982
-0.00443557
-0.00435402
-0.0448225
-0.00583449
0.818932
-0.431353
0.50982
-0.800462
0.855506
-0.80723
0.575489
-0.210902
0.684459
-0.00430664
0.01149
0.0207381
-0.0591541
0.146445
-0.0792386
0.00469841
-0.0676881
0.0639167
-0.0514746
-0.0124421
-0.00473376
-0.00377727
-0.000196368
0.00397363
-0.134008
0.0691626
-0.0147535
0.0032662
0.503688
-0.407181
-0.0008361
-0.00612119
0.775617
-0.330563
0.39441
-0.00635614
0.0154526
0.413753
-0.524791
-0.0420317
-0.117839
-0.0164684
-0.00402393
0.119948
-0.0239726
-0.00206727
0.376538
-0.00451854
-0.0206209
0.0206209
-0.126045
0.0741331
-0.00172331
-0.304348
-0.00357205
0.0745874
-0.112329
0.224352
0.118739
-0.0726618
-0.00491989
-0.00924636
0.438194
-0.00314767
0.0156979
-0.0172225
-0.00246117
-0.00521996
-0.49996
0.398061
-0.706602
0.366341
-0.788675
-0.339576
0.0115207
-0.734671
0.339297
-0.353813
0.471715
-0.0162146
-0.0250737
-0.00515026
-0.00211325
-0.535627
-0.00393489
0.0072071
0.00152604
0.994424
-0.703694
-0.00320571
0.0121047
-0.00750123
0.0133477
0.111306
-0.0229029
0.0229029
-0.00491154
0.00394131
-0.00489455
-0.0101129
0.00119195
-0.00176887
-0.158735
0.0896281
-0.0105251
-0.0168057
0.0414678
-0.0169592
0.061561
-0.0439816
-0.612964
0.573863
0.0157784
0.00126276
0.499364
-0.530638
-0.0702642
-0.659766
-0.0736748
-0.116121
-0.0979001
0.0954389
0.652612
-0.00637728
0.0335809
-0.0379349
-0.0669793
0.0568104
-0.142613
0.0858024
-0.0671574
-0.605337
0.805267
-0.514591
0.0202494
0.0128772
0.111258
0.0202494