/*--------------------------------*- C++ -*----------------------------------*\
| =========                 |                                                 |
| \\      /  F ield         | OpenFOAM: The Open Source CFD Toolbox           |
|  \\    /   O peration     | Version:  2306                                  |
|   \\  /    A nd           | Website:  www.openfoam.com                      |
|    \\/     M anipulation  |                                                 |
\*---------------------------------------------------------------------------*/
FoamFile
{
    version     2.0;
    format      ascii;
    arch        "LSB;label=32;scalar=64";
    class       volVectorField;
    location    "2";
    object      U;
}
// * * * * * * * * * * * * * * * * * * * * * * * * * * * * * * * * * * * * * //

dimensions      [0 1 -1 0 0 0 0];

internalField   nonuniform List<vector> 
2186
(
(1.24075 -0.0366672 1.55205e-19)
(1.7902 -0.948879 -1.8266e-19)
(1.58124 -0.928192 -4.58793e-21)
(0.747102 -0.589056 -1.08213e-19)
(0.116988 -0.175678 -3.14313e-20)
(1.02077 -0.0340581 0)
(0.757825 -0.695965 0)
(-0.183286 0.103894 3.61639e-20)
(1.43392 0.658035 8.05079e-20)
(0.559702 -0.306083 -2.23814e-21)
(0.680853 0.600766 0)
(1.87069 -0.121819 -2.22781e-19)
(-0.0527086 0.160874 -8.64204e-21)
(1.08878 -0.0151048 -2.73947e-19)
(2.02185 -0.557627 -1.68115e-19)
(1.07087 -0.00788495 1.27312e-19)
(1.01436 0.0308017 0)
(0.522198 -0.284996 0)
(1.01082 -0.0141111 0)
(0.0579652 -0.0142054 -2.04806e-19)
(0.489887 0.0773435 -8.9945e-20)
(1.14395 0.269611 2.43403e-19)
(1.03559 0.0175777 2.2776e-19)
(0.154971 -0.499898 2.35619e-20)
(1.02515 -0.0522181 -1.76508e-19)
(0.79519 -0.558301 0)
(0.745337 -0.0364604 1.0983e-19)
(0.636679 -0.610695 -1.19031e-19)
(1.22948 0.684964 0)
(0.969595 -0.0204327 -2.44671e-19)
(-0.180552 0.642275 0)
(0.990664 -0.000335344 8.38934e-21)
(0.49587 -0.508804 0)
(1.12418 0.0619181 -6.21363e-21)
(0.151106 -0.349162 -3.00089e-20)
(1.60925 0.703275 -1.84535e-20)
(1.09329 0.0393536 -1.64597e-21)
(0.516835 0.129732 -2.66828e-19)
(1.51472 -0.393447 -1.62007e-19)
(1.00442 0.0055456 2.38708e-22)
(0.00491862 0.27838 0)
(1.01363 0.401884 0)
(2.13652 -0.792517 1.45903e-19)
(0.831852 -0.0531998 0)
(1.04646 0.227225 1.08474e-19)
(0.6024 -0.288445 2.18387e-19)
(1.0002 -0.82889 0)
(1.2335 -0.74941 5.93098e-20)
(1.04952 -0.0795008 0)
(0.194282 -0.534319 4.19879e-20)
(-0.354117 0.418515 3.01856e-19)
(0.640961 0.586403 5.41601e-20)
(2.26507 -0.502266 1.68441e-19)
(0.56656 0.272052 -2.11814e-19)
(0.54732 -0.673088 1.04057e-19)
(0.781629 -0.66006 0)
(1.98559 -0.996535 2.74616e-20)
(0.600322 -0.557225 0)
(1.50091 -0.396285 2.48071e-20)
(1.13839 -0.148721 -2.508e-19)
(1.0546 -0.00302711 -4.71058e-21)
(1.31348 0.238055 -1.08235e-19)
(1.29889 0.537383 0)
(1.04264 0.00168103 -2.61535e-22)
(1.3237 0.368712 -6.01691e-20)
(1.29905 -0.705597 -7.3379e-20)
(1.18666 0.617789 3.26143e-20)
(0.694745 0.0483011 -4.27792e-19)
(0.806102 0.0237937 0)
(1.4714 0.47727 -2.27329e-20)
(-0.239746 0.166868 -6.5597e-20)
(1.05629 -0.0456904 6.30174e-21)
(0.702027 -0.0496086 -1.88432e-19)
(0.882742 -0.508127 0)
(0.809463 0.169622 -6.86821e-20)
(0.56433 -0.523398 -2.24319e-19)
(1.09321 -0.0616292 0)
(1.05231 -0.0266006 2.67188e-19)
(0.0777278 -0.161344 0)
(2.11054 -0.365876 0)
(0.95153 -0.377476 -1.6776e-21)
(1.03852 0.0527835 2.88813e-23)
(1.04421 -0.0183492 2.94457e-20)
(1.32173 0.318954 1.64513e-20)
(0.970982 0.0476776 3.10041e-19)
(0.989713 0.0137594 -7.32937e-21)
(0.640695 0.160388 -2.55175e-19)
(1.02611 0.00282886 -1.26978e-22)
(0.919811 0.0120493 0)
(-0.207887 -0.397854 1.93024e-19)
(0.877547 -0.619989 -1.15366e-19)
(-0.37043 -0.19754 4.47404e-20)
(1.039 -0.0915218 1.75518e-19)
(0.801505 -0.183414 0)
(1.00005 -0.012526 3.0168e-20)
(1.41292 0.578611 0)
(1.72194 -0.913586 0)
(1.29774 0.235148 0)
(0.196678 -0.371187 0)
(0.807119 -0.673784 2.10037e-19)
(0.926064 -0.241186 1.29187e-20)
(0.922468 -0.281218 -9.94489e-21)
(1.34736 0.122754 0)
(1.01342 -0.12261 -1.60492e-19)
(0.976227 0.0150689 1.32987e-19)
(0.600432 -1.23543 2.00683e-19)
(0.612393 0.489807 0)
(1.55327 0.208268 -1.10947e-20)
(0.969216 -0.458935 5.82311e-20)
(0.933257 0.0185793 -1.12217e-20)
(1.98136 -0.471504 2.17139e-19)
(0.00313848 -0.52742 -1.20379e-19)
(0.863701 -0.774467 0)
(0.53847 0.345438 1.28042e-19)
(1.58872 0.623452 -3.01366e-19)
(0.0722686 0.0954114 -2.66208e-21)
(1.04033 -0.00857402 -7.4532e-21)
(0.987715 -0.0435438 0)
(-0.345054 -0.681555 -5.89252e-19)
(0.686375 -0.0938268 5.97266e-20)
(1.62471 0.852554 0)
(0.448019 -0.629402 -2.19937e-20)
(0.894101 0.757144 -1.86364e-19)
(0.618535 -0.228771 -3.17728e-20)
(0.971289 -0.0157253 0)
(0.997979 0.0527931 9.39041e-21)
(0.0816128 -0.301221 0)
(0.705192 -0.498045 -7.98009e-20)
(0.543577 -0.243607 1.56209e-20)
(0.827253 -0.746432 0)
(0.440375 -0.277676 3.227e-19)
(0.555512 -0.465671 2.12902e-19)
(0.46328 -0.416186 0)
(1.01758 -0.794164 -7.20039e-20)
(0.946864 -0.334967 0)
(0.268407 -0.649601 -3.2783e-20)
(0.833676 -0.708602 9.74406e-20)
(1.51346 0.366472 6.05045e-20)
(1.48216 -0.179942 0)
(-0.883546 -0.376541 0)
(0.702174 0.647493 -2.21498e-19)
(1.83574 -0.475493 3.89671e-20)
(-0.30559 -0.111089 0)
(1.01073 -0.816553 -8.27607e-21)
(1.07156 -0.226096 0)
(1.02015 -0.150206 2.75416e-19)
(1.60342 0.17579 -3.71448e-20)
(0.18214 -0.234818 0)
(1.24478 -0.509429 -3.28433e-20)
(0.88353 -0.133777 -1.29963e-19)
(-0.179519 -0.197174 0)
(1.13277 -0.814786 1.28781e-20)
(1.04369 -0.0330033 -4.47152e-19)
(0.665554 -0.485211 -7.92041e-21)
(0.815816 -0.514083 0)
(1.26064 -0.703244 -5.10836e-20)
(0.613036 0.226614 1.98453e-19)
(1.20987 0.0896144 0)
(1.50043 0.0462988 -9.70307e-20)
(1.26962 -0.856502 -7.26476e-20)
(-0.907942 -0.639281 -1.98921e-19)
(0.637705 0.483485 -1.0236e-20)
(1.00154 0.014708 1.66039e-19)
(0.927139 -0.443233 -7.32292e-20)
(1.0534 0.00542918 1.17556e-22)
(1.01336 -0.0223884 2.02976e-21)
(1.41244 -0.365367 2.25471e-19)
(1.28224 -0.0212765 -6.88781e-19)
(1.00539 -0.0447887 0)
(1.01899 0.0238102 -6.80534e-21)
(1.4358 0.666385 5.02782e-20)
(0.817679 -0.617158 -1.53207e-19)
(1.02999 0.0386824 9.23012e-21)
(0.730164 -0.537981 2.19451e-19)
(1.34625 0.750364 5.36833e-20)
(1.48034 -0.0498238 7.03906e-21)
(0.165944 -0.185661 0)
(1.02267 0.00317707 -1.75803e-19)
(0.697107 0.178271 1.98382e-20)
(1.04507 0.453282 5.47364e-20)
(1.65444 -0.0839136 4.15088e-19)
(1.00086 0.00944634 -3.2073e-20)
(-0.419156 0.202693 -4.33087e-19)
(1.32429 0.478113 -3.64455e-20)
(1.16541 0.874417 0)
(0.218886 -0.192462 2.87926e-22)
(-0.00242392 0.00496918 0)
(0.641455 0.54476 -2.03546e-19)
(1.52005 -0.187027 -9.49389e-21)
(0.0859804 0.202248 1.33431e-20)
(0.281512 -0.0483947 6.02629e-20)
(0.738547 0.0518117 1.8762e-19)
(1.09111 -0.14027 1.22373e-21)
(0.982037 -0.331467 -2.20255e-20)
(-0.907613 -0.796123 0)
(0.955198 0.0075747 -1.77638e-20)
(1.41929 0.988409 5.03874e-20)
(0.84283 0.0560634 -1.01818e-19)
(0.552347 0.511475 1.40409e-19)
(0.955803 0.334088 0)
(0.290007 0.920036 -1.03175e-19)
(0.983722 -0.000693035 -1.27873e-20)
(1.40801 -0.992429 -1.73242e-22)
(1.0047 0.0105836 -1.34802e-19)
(0.169218 -0.521142 -9.09353e-21)
(-0.112552 0.0802159 5.9805e-20)
(0.316033 -0.820483 -3.74597e-19)
(1.0183 -0.0278596 0)
(0.988202 -0.0191777 -2.30461e-19)
(1.15967 -0.143061 -3.69501e-21)
(1.31431 -0.582047 4.90197e-20)
(1.04404 0.0287158 -1.5023e-21)
(0.560661 0.323801 0)
(0.94427 0.73754 -1.07851e-20)
(0.694117 0.631044 1.26887e-19)
(0.913477 -0.553876 1.04911e-19)
(0.664717 0.48009 0)
(1.02652 0.00602563 5.90972e-21)
(0.905429 -0.665268 1.48518e-19)
(0.834977 0.393933 -3.34879e-19)
(1.28115 -0.0225642 0)
(-0.0124169 -0.0069783 -4.37959e-21)
(0.0461703 -0.567196 -2.11552e-19)
(1.61913 0.67437 0)
(1.45071 -0.933617 1.48323e-22)
(0.52323 -0.32851 0)
(0.0887914 -0.21898 2.66196e-20)
(0.735833 0.635936 -6.99743e-20)
(0.856964 -0.199663 0)
(0.976568 0.587801 0)
(2.33091 -0.290755 0)
(0.93817 -0.0358827 -2.59651e-20)
(1.28768 -0.877272 4.84098e-20)
(1.20055 -0.573937 3.6476e-20)
(1.21696 -0.172444 -1.19197e-19)
(0.901559 -0.696616 -1.15833e-19)
(0.192261 -0.196301 0)
(0.692268 -0.106781 0)
(1.01311 -0.488169 1.18802e-19)
(-0.735134 -0.136771 0)
(0.266088 -0.452355 0)
(0.0760407 0.0897086 2.0721e-21)
(0.79367 0.652746 6.0705e-20)
(1.01678 0.777778 0)
(0.68131 0.532626 -6.2428e-20)
(0.785489 -0.0373281 -1.67924e-19)
(0.737679 0.537285 -1.66013e-19)
(0.586029 0.536562 -1.20923e-19)
(-0.410134 0.329115 -1.81158e-20)
(0.748366 -0.664108 0)
(0.87012 0.145501 -2.37167e-19)
(-0.16127 0.373449 2.52171e-20)
(0.60713 0.555057 2.66591e-19)
(0.963133 0.791414 0)
(0.930166 -0.0609079 -2.15966e-20)
(0.235094 0.701027 7.40232e-19)
(0.871728 1.20103 -3.11896e-19)
(0.649655 0.551612 -1.08524e-20)
(0.943893 0.0353696 4.44664e-20)
(0.0898116 0.279233 0)
(1.21557 0.154835 -3.85148e-21)
(1.01662 -0.0277255 1.54726e-20)
(0.675024 -0.620246 -5.29744e-20)
(0.71403 -0.291338 -9.97642e-22)
(1.1983 0.421198 1.14288e-19)
(0.888079 0.390628 0)
(1.14157 -0.223729 1.25138e-19)
(0.651284 1.30771 1.80133e-20)
(-0.621217 0.310431 9.7549e-19)
(1.07312 0.00811788 -3.78613e-20)
(1.16421 0.106004 0)
(1.33186 0.0331866 -5.13892e-20)
(1.35096 -0.0680295 0)
(0.544316 0.250529 -3.51391e-19)
(-0.120433 0.0530709 0)
(-0.397717 0.126952 1.37855e-19)
(1.02767 0.148001 0)
(0.63565 -0.524773 -1.36122e-19)
(1.06179 -0.068824 1.50641e-19)
(0.223782 -0.298336 3.11207e-21)
(1.14235 -0.0702441 -5.00482e-21)
(1.66454 0.306661 -8.04974e-20)
(1.06761 0.241163 -1.54884e-19)
(-0.047339 0.356731 -2.661e-20)
(1.12191 -0.854855 0)
(0.876474 0.0182152 -1.09717e-19)
(0.926441 -0.369927 -2.11878e-19)
(1.81633 -0.370432 -1.28259e-20)
(1.4066 0.0575544 6.66517e-20)
(1.00126 0.0217084 2.82506e-19)
(0.464816 1.32881 -1.34409e-19)
(1.01046 -0.433858 -8.76441e-20)
(0.201856 -0.194016 1.93337e-19)
(1.08873 0.0325591 0)
(1.01855 0.00462714 0)
(1.01542 -0.0138096 -6.00308e-21)
(0.252331 -0.791926 -5.48011e-20)
(0.395686 -0.085213 -2.53098e-19)
(0.922904 -0.000390033 -2.5409e-22)
(1.04417 -0.093286 0)
(1.07271 -0.133726 6.11059e-21)
(1.01867 -0.861652 -2.86817e-20)
(2.02787 -0.270543 -1.26998e-19)
(1.11923 0.812967 0)
(0.485731 -0.466434 0)
(0.586503 0.504458 -1.31323e-19)
(1.04469 0.244328 -2.78273e-19)
(1.72568 0.225375 2.08518e-22)
(0.854104 0.152059 1.02231e-19)
(0.484076 1.00853 -1.38735e-19)
(1.01499 -0.0398781 4.87392e-21)
(0.452839 0.58609 0)
(-0.770246 -0.389736 0)
(0.20841 0.255125 0)
(1.40081 -0.687725 -1.97422e-20)
(-0.26453 -0.233192 -1.73162e-19)
(-0.506746 0.13133 0)
(1.36311 0.984877 4.28243e-21)
(1.08751 0.119371 -2.93247e-19)
(0.998182 -0.00136129 4.05022e-21)
(1.12873 0.938942 2.27096e-20)
(-0.00436416 -0.699454 6.91358e-20)
(1.01952 -0.0181944 0)
(0.200779 0.220511 -4.40902e-21)
(-0.0439986 -0.441908 1.02694e-19)
(0.771757 0.0102832 1.38026e-19)
(1.63174 0.891564 9.25238e-20)
(1.00882 0.0161754 4.50327e-21)
(-0.210701 -0.340235 3.32455e-20)
(0.77765 -0.702608 -2.39258e-20)
(1.35761 -0.0665745 0)
(1.41711 -0.0304375 0)
(1.3016 0.0228168 0)
(0.982402 0.0142492 1.35659e-20)
(0.222031 0.327004 4.69871e-21)
(1.05738 0.834658 0)
(1.00771 -0.0214101 3.66671e-19)
(0.765281 0.581969 -1.65251e-19)
(0.960331 0.00674966 9.24495e-21)
(0.849245 0.0150425 -3.0449e-20)
(0.739975 -0.666995 -1.49635e-19)
(1.42126 0.648736 -6.016e-21)
(0.57634 -0.45696 -2.22601e-19)
(1.03052 -0.00812492 -3.33612e-19)
(1.07492 -0.0313889 3.22631e-20)
(1.43785 -0.10381 3.11775e-20)
(1.01414 -0.00912533 5.42118e-21)
(-0.771243 -0.623271 -1.17119e-20)
(1.06222 0.453043 -1.82183e-19)
(1.71148 0.665388 1.52811e-19)
(0.866357 0.92175 0)
(0.500434 0.779086 4.51484e-20)
(-0.00987766 0.0102163 1.43804e-21)
(-0.158414 -0.89501 -2.72673e-19)
(0.473583 0.314837 0)
(0.978621 -0.00887881 0)
(-0.766708 0.795397 -3.2763e-19)
(-0.19882 0.493707 4.73939e-21)
(1.01108 0.00242771 1.31869e-19)
(0.0925329 -0.110745 -3.82432e-21)
(1.02091 -0.0854697 1.77778e-20)
(0.343718 -0.97978 0)
(0.866062 -0.76031 -1.90996e-19)
(1.00167 -0.0147329 -1.13357e-20)
(0.675998 0.308748 -1.15615e-20)
(0.687548 0.128366 2.48309e-19)
(0.636408 0.117103 8.1379e-20)
(0.515878 -0.487698 1.50308e-19)
(-0.291795 -0.0145032 -4.87816e-20)
(1.00011 -0.00541264 0)
(0.3916 0.345978 -1.48868e-19)
(1.01255 0.00817559 -2.08171e-19)
(0.343912 -0.0883049 -2.31844e-20)
(1.42552 0.31859 -4.30137e-20)
(-0.637701 -0.0542453 -4.39901e-20)
(0.783037 -0.702203 2.08628e-20)
(0.800583 0.189508 -1.53329e-19)
(0.966938 0.417904 1.59122e-20)
(1.10713 -0.0953579 2.38157e-20)
(0.607666 -0.229456 -2.29084e-19)
(1.83487 0.118077 -1.54127e-19)
(0.909917 -0.0133184 0)
(0.998618 0.0497439 4.09749e-21)
(0.942557 0.0326674 -2.02484e-21)
(1.00371 0.440329 2.96504e-21)
(1.99735 0.208828 -3.89188e-19)
(0.989219 -0.039729 -2.41138e-21)
(0.413322 0.38747 -1.90663e-19)
(0.687584 -0.448555 -4.04715e-21)
(1.19151 0.414647 0)
(1.01831 -1.9509e-05 0)
(0.920228 -0.799883 3.24166e-20)
(-0.157325 0.546736 -8.19368e-19)
(0.755614 -0.151847 1.93254e-20)
(-0.732197 -0.518782 -2.93282e-19)
(0.437239 -0.464912 -4.33201e-22)
(0.575909 0.434886 0)
(-0.92827 -0.65704 1.02075e-19)
(1.38042 -1.29832 -1.60309e-19)
(-0.111825 0.0664203 -1.30062e-19)
(0.760086 -0.112131 0)
(1.04839 0.0177462 -7.3737e-21)
(-0.0112067 -0.00506796 0)
(0.998183 0.00587375 2.71015e-19)
(0.601663 0.628395 -4.11868e-22)
(0.550683 -0.426333 2.98325e-19)
(0.631573 0.153225 -3.28191e-20)
(0.909701 0.00251173 0)
(0.894441 -1.14962 6.54403e-20)
(1.01399 0.0299752 -8.06866e-21)
(1.34779 -0.0127346 0)
(1.00664 -0.019481 -4.22487e-20)
(0.886489 -0.737801 -1.91112e-19)
(0.993749 -0.0171767 0)
(0.912712 -0.26593 1.48085e-19)
(0.71241 -0.75908 1.82965e-20)
(-0.764531 -0.894764 0)
(0.2747 0.818939 -1.32326e-21)
(0.739893 -0.644655 -3.0572e-19)
(0.998092 0.0275831 -1.94549e-19)
(0.313227 1.15061 7.22263e-19)
(-0.578224 0.0852896 1.32543e-19)
(0.461638 0.523574 0)
(0.951675 0.458823 0)
(0.705205 0.404082 -4.83462e-21)
(1.06332 0.15949 5.5745e-21)
(1.10945 0.89986 8.89268e-21)
(1.04544 0.145614 -8.96643e-20)
(1.15432 0.0737281 -1.43636e-19)
(1.17296 -0.154266 -5.68295e-20)
(0.124244 0.990552 -5.159e-19)
(1.0896 -0.0784783 1.80242e-20)
(1.01656 -0.0711306 1.45876e-19)
(1.0729 0.110656 -1.10075e-21)
(1.16272 0.11235 0)
(0.980333 0.0642294 -1.77714e-20)
(0.982398 -0.0244487 -3.66964e-19)
(1.78285 0.544674 -5.20111e-20)
(0.737932 -0.44916 -1.19727e-19)
(-0.318178 -0.773515 4.41207e-19)
(0.826012 -0.715415 2.54705e-19)
(1.22173 0.166924 4.79182e-20)
(1.02088 -0.0348109 1.86321e-19)
(0.368718 1.10405 -1.11074e-19)
(1.06175 0.0397532 0)
(1.06524 -0.0351488 9.64404e-21)
(-0.736736 -1.05431 0)
(1.02053 -0.0112213 -1.09759e-19)
(0.983811 -0.0197962 2.93974e-20)
(1.58363 0.114966 8.47695e-22)
(0.0454225 0.0672292 -3.41682e-21)
(1.41534 -0.0271398 -1.10293e-20)
(1.0402 -0.0146427 3.82423e-20)
(1.31113 -0.0440909 0)
(1.49435 -0.533865 -4.12318e-20)
(1.00876 0.0581225 -1.13406e-19)
(1.47178 0.764984 2.71934e-20)
(1.31147 0.0209087 0)
(1.05351 0.0106547 -1.42408e-21)
(-0.797251 0.966841 0)
(1.46422 0.0752883 0)
(0.166868 0.359941 0)
(1.1818 0.437163 0)
(1.83596 -0.486952 4.19937e-20)
(0.737088 0.593595 2.89199e-19)
(0.30013 -0.301574 -1.77911e-19)
(-0.317282 0.486971 -2.38739e-19)
(-0.963221 -0.946547 0)
(0.999899 -0.0213591 -8.01635e-21)
(1.95558 0.439208 0)
(1.43959 0.181008 0)
(0.230186 0.228523 8.69982e-22)
(0.819161 0.714304 8.36849e-20)
(1.54983 -0.035702 0)
(-0.0389252 0.0893113 1.66925e-20)
(0.884928 0.213898 1.39217e-19)
(1.04049 -0.00653503 5.90202e-21)
(1.28719 0.912229 1.55458e-20)
(1.00424 -0.886578 -5.13222e-21)
(0.90151 -0.0155377 6.3898e-21)
(0.808986 0.72357 8.36958e-20)
(1.23091 0.928131 0)
(1.07694 -0.0163349 -6.99572e-21)
(0.992531 0.0347461 0)
(1.06139 -0.0102586 -6.8462e-21)
(2.21508 -0.480153 4.9504e-19)
(1.00565 0.024943 0)
(0.98101 0.0470523 -1.88819e-20)
(0.881658 -0.154445 3.48971e-20)
(0.640451 -0.404126 0)
(0.67825 -0.3718 1.59924e-19)
(1.23439 0.527127 -2.00168e-20)
(0.464198 0.438677 2.04532e-19)
(-0.0927479 0.00634285 1.22748e-20)
(1.91595 -1.05487 2.50811e-19)
(1.06849 0.126258 0)
(1.41449 -0.899411 1.73576e-20)
(1.01011 0.00977344 2.92181e-19)
(2.18474 0.0375534 3.06235e-19)
(0.0200097 0.114478 1.32388e-20)
(0.728115 0.156874 0)
(1.14849 -0.173639 -7.77733e-20)
(-0.793228 -0.93127 -4.07052e-19)
(0.936989 0.102501 2.14719e-21)
(-0.213994 0.33143 -2.93758e-22)
(-0.220486 0.226933 5.76909e-19)
(1.03301 -0.00673478 -1.5823e-21)
(1.29513 0.126191 5.16572e-21)
(1.19527 0.369843 -1.84325e-19)
(1.13496 -0.0268382 0)
(1.29811 -0.0815152 2.95426e-20)
(1.2622 0.0604097 1.68767e-20)
(0.93717 -0.780622 8.96083e-20)
(1.2815 -1.04156 1.98295e-20)
(0.471459 0.43483 1.35789e-19)
(0.996835 0.0814533 0)
(1.85554 0.328095 8.3444e-20)
(-0.839329 -0.993501 -8.40849e-19)
(0.899399 0.773837 0)
(1.00565 0.000182849 0)
(0.300939 -0.30022 -3.78645e-21)
(0.327009 0.306033 0)
(0.753179 0.0728853 3.19604e-20)
(-0.0114727 -0.111422 -4.32586e-20)
(2.18512 -0.106305 0)
(1.28522 0.00140212 7.50079e-20)
(0.757702 -0.215741 -1.61388e-20)
(0.549832 -0.52043 -3.35348e-19)
(1.18082 0.0706053 -2.73203e-21)
(0.629479 -0.568935 0)
(1.14638 0.0686802 0)
(2.24948 0.26559 0)
(1.08269 0.202616 -1.62982e-19)
(1.18785 0.0770059 2.30206e-19)
(0.884461 -0.0306781 0)
(0.881523 -0.133549 0)
(1.07691 -0.0137672 1.24123e-21)
(-0.68162 0.196861 2.07651e-19)
(1.17731 -0.0846604 5.72711e-21)
(1.41759 -0.589318 3.37135e-19)
(0.9559 -0.0398371 4.80863e-21)
(0.624828 -0.162258 1.2572e-20)
(1.15613 -0.0855363 -2.67045e-20)
(0.945703 -0.0304163 3.02045e-19)
(1.56643 0.457536 0)
(-0.00750952 -0.349528 1.27225e-20)
(1.03718 -0.841098 9.77803e-20)
(0.813798 -0.0388913 3.55904e-20)
(0.645069 -0.430677 0)
(1.9302 -0.304956 1.36953e-20)
(1.12237 -0.162705 1.01327e-19)
(0.934376 -0.0496182 0)
(0.635484 -0.587176 2.8544e-19)
(1.006 0.0234542 6.11984e-21)
(1.07964 -0.12333 -1.58443e-20)
(-0.542717 0.0758259 -2.87812e-19)
(1.3463 0.580205 6.9932e-20)
(1.16737 0.382121 2.43237e-21)
(0.906873 0.353667 1.63623e-19)
(1.01967 0.134473 7.11708e-21)
(-0.0783719 0.925725 4.36906e-20)
(1.06527 0.494477 0)
(-0.10543 -0.466788 6.28822e-19)
(1.23835 -1.0488 0)
(1.07107 -0.653847 1.38028e-20)
(1.01203 0.215284 1.53577e-20)
(1.04271 -0.0535678 2.90904e-21)
(0.475044 0.281825 2.23066e-20)
(0.96723 0.466342 1.22254e-19)
(0.977535 0.0264999 -1.49773e-20)
(0.870012 -0.00831129 0)
(0.905494 -0.0456021 0)
(0.900454 1.0584e-07 -3.51973e-22)
(0.89392 -0.0317889 0)
(1.25987 -0.145756 -1.04268e-19)
(0.695445 -0.0670031 -4.52646e-20)
(1.89141 0.388328 6.8791e-20)
(1.04695 0.0112093 0)
(0.558919 -0.344617 7.84394e-20)
(0.969689 -0.0128909 1.44856e-19)
(0.99106 0.0125071 1.09174e-20)
(0.544679 -0.406566 0)
(1.10541 -0.445857 3.21988e-19)
(1.01968 -0.00132458 3.42615e-23)
(1.11882 -0.498278 -1.40554e-19)
(1.65522 -0.24365 7.76215e-20)
(1.3083 0.771415 0)
(1.04576 0.0103174 0)
(0.110749 0.186278 -1.65239e-20)
(-0.779019 0.793493 3.71069e-19)
(0.943885 0.343189 -1.48526e-19)
(0.792264 0.953598 -4.1854e-20)
(0.612477 0.393635 1.82442e-19)
(1.00014 -0.0138723 0)
(0.561122 -0.518169 0)
(1.01026 0.0231286 6.08965e-22)
(1.27829 -0.492491 -5.99082e-20)
(2.2012 0.855552 2.89224e-20)
(0.703337 -0.151522 8.92957e-20)
(-0.788582 0.354055 -6.43859e-19)
(1.04742 -0.247134 -7.87202e-21)
(0.668623 0.613813 0)
(1.29623 0.647504 0)
(1.44159 0.142429 0)
(0.426885 0.43684 -6.20365e-21)
(1.61449 0.620507 4.03804e-19)
(1.24288 0.0219676 2.66881e-21)
(1.03289 -0.0154478 0)
(1.04867 0.00671829 0)
(1.23976 -0.031086 -1.76172e-20)
(0.995703 0.0295872 -1.29157e-20)
(1.04313 -0.0211606 -1.43881e-19)
(1.46143 0.438478 0)
(0.467473 -0.51733 0)
(1.22495 0.25955 1.92778e-19)
(1.01001 0.502223 -8.87415e-20)
(1.02385 0.000399783 0)
(1.02029 0.120662 0)
(2.31276 0.513628 -5.53887e-19)
(-0.378513 -0.556396 3.86545e-20)
(1.0189 -0.0185221 0)
(0.688688 0.45242 -2.46821e-20)
(0.994713 -0.854701 0)
(1.01693 0.00378261 3.39123e-20)
(0.986806 -0.0264861 1.24797e-20)
(0.892303 -0.327361 2.22284e-19)
(1.00053 -0.0119055 -9.61092e-21)
(1.41824 0.195536 6.3148e-20)
(1.03392 0.0358827 -6.51262e-21)
(0.847607 -0.0824321 0)
(1.13643 -0.0229031 0)
(0.703231 0.263946 0)
(0.680047 0.645844 -1.26856e-19)
(-0.73834 0.531272 4.14075e-19)
(1.12019 0.296333 -3.10478e-19)
(0.28835 -0.25847 0)
(0.832689 0.622633 1.19791e-19)
(1.02137 -0.301357 0)
(1.01033 -0.0323752 8.432e-20)
(0.971581 0.0810853 -2.63549e-21)
(1.00972 0.389997 1.75081e-19)
(1.07065 -0.295773 0)
(1.40977 -0.188732 -1.20301e-20)
(0.803576 -0.118639 -2.68138e-19)
(0.802239 0.0873297 3.65827e-20)
(0.983434 0.0679036 0)
(0.84879 0.232739 1.29827e-19)
(1.27411 0.269011 0)
(0.774947 0.497387 2.64686e-19)
(0.761754 -0.0334837 -1.53778e-20)
(-0.636413 0.316626 0)
(0.58996 0.552176 -5.06889e-20)
(1.04538 -0.647837 -9.74348e-20)
(0.480139 -0.242707 -9.51546e-20)
(0.983425 -0.0123182 0)
(0.694778 -0.357878 1.14077e-20)
(0.65249 -0.580429 5.97822e-20)
(0.891308 0.272908 0)
(1.0221 -0.0162804 -6.95861e-21)
(1.00559 0.838469 1.47183e-20)
(1.03202 -0.0396353 -1.07264e-20)
(1.77359 1.19258 -4.48005e-19)
(0.233427 -0.0400428 -4.34429e-19)
(-0.747603 -0.278362 1.33078e-20)
(0.816206 0.336102 1.80951e-19)
(-0.18055 -0.210663 -2.83333e-21)
(1.46045 -0.596571 1.58576e-21)
(0.979601 0.0349708 -2.50142e-19)
(0.507057 0.343229 0)
(1.02504 0.0184994 -2.93489e-19)
(1.09577 0.116075 -5.91894e-21)
(0.888251 0.672707 1.94395e-19)
(1.04788 -0.095143 1.14949e-19)
(0.932685 -0.0535343 1.16608e-19)
(1.02767 -0.0316389 -2.55818e-21)
(-0.0105672 0.0212691 -6.7455e-22)
(1.97785 -0.828748 1.96955e-20)
(1.32076 0.00551951 -5.52379e-20)
(1.0406 -0.0173796 6.16101e-20)
(0.90232 -0.286179 6.55253e-20)
(0.845108 -0.0123758 0)
(0.958618 0.719034 0)
(0.960112 0.109883 3.14026e-21)
(1.61114 -0.0499051 -1.07005e-20)
(0.653172 0.053481 -1.74307e-20)
(1.01705 -0.526224 -3.49692e-19)
(0.630925 -0.544489 2.91117e-19)
(1.28416 -0.654478 -2.04062e-20)
(1.26851 1.25851 1.04087e-20)
(0.977042 -0.0143208 0)
(0.736482 0.0843272 -5.08896e-21)
(0.971275 0.0311341 1.34066e-20)
(1.03814 0.742681 0)
(0.99794 -0.0204406 0)
(0.927573 -0.178744 0)
(-0.456844 -0.00651382 -4.00294e-20)
(1.20792 0.171968 0)
(1.02496 0.0277483 -1.47871e-20)
(1.18029 0.152368 4.37193e-21)
(0.919671 -0.00612269 -1.16884e-20)
(1.05708 -0.0199904 -2.31645e-21)
(1.86587 0.041019 -1.45991e-19)
(1.84165 0.198706 -1.82394e-20)
(-0.224476 0.323133 -4.25038e-19)
(0.472196 0.700734 9.83524e-22)
(1.04741 -0.025739 0)
(0.848314 -0.00297426 0)
(0.963292 0.0217692 -1.73082e-21)
(0.438331 0.394101 0)
(1.18348 0.03545 -3.45236e-20)
(0.856249 0.00127187 0)
(1.00639 -0.0644449 9.53661e-20)
(1.0345 0.000523381 -3.28348e-20)
(1.00398 -0.196501 -8.45417e-21)
(1.0105 0.0196461 -6.72131e-22)
(0.950763 -0.156494 -3.94252e-20)
(0.984326 -0.0627068 2.67119e-19)
(0.686973 -0.622122 1.33408e-19)
(0.949685 -0.0305594 1.35728e-20)
(0.98773 -0.0280681 -2.45084e-21)
(-0.792806 0.802403 0)
(1.13748 0.769606 0)
(0.969681 0.00294016 0)
(1.01942 -0.779351 -6.35811e-20)
(1.14273 -0.948553 -2.13535e-20)
(1.02934 0.0469844 4.26624e-21)
(0.940814 0.0260473 3.49166e-20)
(1.05076 0.0118912 9.77154e-22)
(0.593795 -0.377472 -4.81653e-19)
(0.992092 -0.00263791 7.69994e-21)
(0.974857 -0.0113357 -6.73796e-21)
(1.78277 0.257431 8.8493e-20)
(1.00622 0.0304605 5.559e-21)
(-0.139604 0.0743509 -4.15999e-20)
(1.10372 0.520311 1.27629e-19)
(1.28013 0.656594 0)
(0.686373 0.573623 2.70328e-20)
(-0.615701 -0.756015 1.28845e-20)
(1.01972 0.00320938 2.40855e-19)
(1.04933 -0.0398132 -6.1653e-21)
(1.0264 0.0110042 -6.7246e-20)
(1.00812 0.0175096 -1.48604e-21)
(1.56967 0.238255 1.78205e-20)
(0.408947 -0.38288 -2.37635e-19)
(0.987628 0.0212318 -9.13118e-21)
(1.02936 0.0392143 -1.76066e-19)
(1.09052 -0.0017029 2.52236e-21)
(1.00481 0.000149763 0)
(1.10969 0.548464 -2.36354e-19)
(0.947865 -0.013689 7.07705e-20)
(0.667265 0.587152 1.89109e-19)
(1.04467 -0.0232626 -2.00015e-22)
(0.993218 0.0742533 -2.20073e-20)
(1.01098 -0.00737939 6.20865e-22)
(1.18947 -0.109839 -1.31488e-22)
(0.849613 -0.00762772 0)
(1.02746 -0.00707459 0)
(1.01594 0.00180218 4.26054e-19)
(1.04922 0.0163595 0)
(-0.866794 -0.809723 0)
(1.244 -0.721985 0)
(1.06082 0.0188446 -4.03069e-19)
(1.19112 -0.654319 4.51319e-20)
(0.997026 -0.0289016 8.38501e-21)
(1.41159 0.934472 7.14099e-21)
(1.61498 0.990798 -2.38894e-19)
(0.98265 -0.00794414 -2.02341e-21)
(0.991864 0.122535 -8.37953e-21)
(0.9086 -0.0153926 0)
(0.2271 -0.876163 0)
(1.05907 0.202454 -1.12522e-20)
(0.977065 0.0229835 0)
(0.989843 -0.0159202 -1.25998e-19)
(1.02048 -0.00586182 2.45289e-19)
(1.25223 0.114508 -4.49335e-20)
(0.0921221 -0.0700813 4.85739e-19)
(1.01348 -0.00221168 1.30774e-19)
(1.02732 -0.00560502 -1.5009e-21)
(1.05135 -0.0313087 5.7839e-21)
(1.0213 -0.0177738 -4.31008e-23)
(1.04869 0.0143378 -1.33045e-19)
(1.02699 -0.0147523 1.56482e-19)
(0.968434 -0.0124122 9.31348e-21)
(0.836145 0.0354136 0)
(0.891534 -0.0107686 0)
(0.874555 0.0144414 3.12877e-22)
(0.860225 0.020609 0)
(0.911867 0.00175814 0)
(0.859085 0.0144514 0)
(0.849206 -0.0386135 -1.49285e-21)
(1.05044 -0.0424328 9.40183e-22)
(1.01066 0.00943892 0)
(1.01258 0.00765766 -8.72577e-22)
(1.00154 -0.00958716 0)
(0.862323 0.0133228 0)
(0.854289 -0.00561413 0)
(0.86419 0.00869732 -2.17748e-21)
(0.861936 -0.025252 -1.13388e-20)
(0.891292 0.0447216 0)
(0.872872 -0.018541 0)
(1.04501 0.0445931 -1.65496e-19)
(0.876011 -0.0409614 3.09339e-19)
(1.01008 0.00804019 0)
(1.026 0.0182119 2.96519e-19)
(1.01296 0.000717171 9.55441e-23)
(0.844186 -0.0303605 2.61643e-19)
(1.00178 -0.037573 -1.49921e-19)
(1.04565 0.00155418 0)
(0.814593 0.0474418 -5.78868e-21)
(0.969857 0.00558062 -1.48603e-19)
(0.940213 -0.0186117 -2.57191e-19)
(1.01888 0.000838461 0)
(0.995806 0.0117166 0)
(0.991328 0.00382065 0)
(1.043 0.0108359 -3.71961e-21)
(1.01757 0.0051425 4.50889e-21)
(0.972876 -0.0306586 0)
(0.0395289 -0.0639329 2.11139e-20)
(0.974715 0.0308008 1.85591e-20)
(0.998902 0.00241903 -1.95578e-19)
(0.0780776 0.503423 -1.38564e-20)
(1.08058 -0.0159034 -1.56521e-19)
(1.1697 -0.13592 -6.59532e-20)
(0.794474 -0.463086 2.21535e-19)
(-0.823321 -0.65614 -1.49104e-19)
(1.04511 0.0317636 0)
(1.08829 0.0394149 -4.16463e-20)
(1.01139 -0.0105386 0)
(-0.742494 0.576624 7.33792e-19)
(1.07973 0.0164787 0)
(0.296103 0.363459 -6.05809e-21)
(1.03036 -0.0115585 3.57837e-21)
(1.73919 0.563046 1.47687e-19)
(-0.339145 1.07033 0)
(0.978957 -0.0242556 1.31957e-19)
(1.04062 0.00101242 1.49953e-22)
(0.9217 -0.0323689 2.05688e-19)
(1.05055 0.0194402 -1.32683e-19)
(1.78653 0.768955 1.27632e-19)
(0.51163 0.481265 0)
(0.441426 0.403225 1.55012e-19)
(1.03888 -0.0756855 1.0977e-21)
(1.08903 0.108761 1.35392e-19)
(1.1072 -0.717698 0)
(1.01666 0.0240175 0)
(1.02742 -0.0429853 -3.00704e-19)
(1.00598 0.0110536 -3.00225e-19)
(-0.719757 -0.0710567 0)
(1.25099 0.793779 -5.47959e-20)
(1.01554 0.0103158 2.12945e-22)
(0.980815 -0.00357543 1.15329e-19)
(1.01439 0.0255209 -1.44489e-19)
(0.309099 0.26704 4.56115e-22)
(0.963412 -0.0165807 -8.08012e-21)
(0.965694 0.00593539 4.87992e-19)
(1.02543 0.027323 0)
(1.99662 0.419216 -1.32362e-19)
(1.02693 -0.00917969 -1.53453e-19)
(1.14963 0.0348721 4.05897e-22)
(1.01663 -0.00353942 -3.49935e-22)
(1.02286 0.0457327 3.0186e-20)
(1.45225 0.341703 -5.15314e-20)
(1.00868 0.0248713 1.48978e-19)
(1.02778 -0.00442603 1.43941e-24)
(0.944079 0.0302037 0)
(0.910291 0.142344 3.61481e-20)
(0.904 0.0188865 -2.85948e-22)
(1.03032 0.018097 1.46841e-19)
(1.05549 0.0152512 -3.28541e-21)
(1.0271 -0.00553817 -1.14372e-21)
(1.23559 0.306656 2.53339e-19)
(1.02189 0.00407289 1.00726e-19)
(0.956592 -0.0161444 3.09859e-22)
(1.64631 0.109006 -5.60534e-22)
(2.11855 0.974164 -1.93285e-19)
(0.80636 -0.718052 3.66077e-20)
(0.453634 -0.322063 -2.35742e-19)
(1.00302 0.0387377 0)
(1.00681 0.0077377 3.74132e-20)
(1.02681 -0.0384758 7.66749e-20)
(1.01618 -0.000829492 1.04948e-21)
(0.977156 0.0261901 -1.52786e-19)
(1.03867 -0.0663329 1.72138e-19)
(1.01647 -0.0230466 -1.44757e-19)
(0.99935 0.00308974 -6.60512e-22)
(1.01813 0.0274645 1.19333e-21)
(1.01515 0.0102074 1.47818e-19)
(0.919269 0.0682847 3.73121e-19)
(1.04921 0.000180149 0)
(0.941445 0.181826 -1.05312e-20)
(1.00598 -0.0106723 0)
(1.03148 0.0137692 -4.23373e-20)
(1.49989 0.286732 -2.74097e-20)
(0.995002 0.00914065 0)
(1.02776 -0.0439166 8.37363e-21)
(1.00929 0.040278 2.7029e-21)
(1.07091 -0.0329233 0)
(1.13262 0.257673 0)
(0.996881 0.0206342 1.32676e-20)
(1.04382 0.0473396 1.0675e-21)
(1.02681 -0.0454652 -1.53085e-19)
(1.12198 -0.548599 -3.90827e-20)
(0.95181 -0.00546893 2.76595e-22)
(1.02977 0.0123255 0)
(1.01205 0.00875439 0)
(0.978128 -0.00640396 0)
(0.949516 -1.16046 5.37811e-20)
(1.0215 0.00952214 4.66201e-21)
(0.97372 0.00566067 0)
(0.766506 -0.56948 4.75226e-21)
(1.81358 0.928655 -1.87416e-19)
(1.01514 -0.00946938 -3.01716e-19)
(1.05983 0.024738 2.03604e-21)
(0.949412 -0.000273159 2.00265e-19)
(0.951301 -0.00591581 0)
(-0.720503 -0.0724731 -6.92539e-20)
(0.585224 0.421014 -2.56555e-19)
(1.04053 0.0125806 -8.42165e-21)
(0.724947 -0.855781 0)
(0.994598 -0.0884379 5.5779e-20)
(0.511669 0.48664 3.80104e-20)
(1.21765 0.864514 -1.21118e-20)
(-0.588054 -0.932395 3.08822e-19)
(0.989066 0.0431987 0)
(1.01815 -0.00309425 2.77066e-21)
(1.00836 0.0153402 1.12522e-19)
(1.32632 -0.154018 0)
(1.01629 0.0200517 1.89184e-19)
(0.716754 0.73519 -1.37686e-20)
(1.0062 0.0276663 -1.17597e-19)
(1.00028 -0.00636286 0)
(1.02771 -0.00278114 -3.70617e-23)
(0.979543 0.0203921 -8.20736e-20)
(1.00081 -0.0346668 2.0398e-19)
(1.00553 0.0843293 -3.52273e-21)
(1.01935 0.0119996 -5.26886e-21)
(-0.122764 -0.786571 7.12861e-19)
(1.77237 -0.522741 9.74754e-20)
(1.00496 -9.4997e-05 5.94047e-21)
(0.917446 0.00881152 -2.84201e-19)
(0.942937 -0.027091 0)
(1.03554 0.00471625 4.2567e-21)
(1.01987 -0.00167636 -2.25914e-20)
(0.93119 0.0200777 0)
(1.01237 -0.00866366 -1.43756e-19)
(1.00343 -0.000779841 -6.14728e-21)
(0.79911 0.0206505 -1.53918e-20)
(2.24426 -0.172802 0)
(0.89756 -0.0513436 3.79154e-20)
(1.45556 -0.283754 0)
(1.04185 0.024311 4.31312e-20)
(1.01188 0.00749149 -4.55962e-25)
(1.06686 -0.00735901 1.22188e-19)
(0.781263 -0.0901888 -3.14923e-20)
(1.01963 -0.0090001 0)
(1.02201 -0.00579995 -3.05201e-19)
(1.01537 -0.0145836 1.56348e-19)
(1.00905 0.00826485 0)
(1.01041 -0.000135724 2.37929e-21)
(0.990388 0.00742918 -1.36498e-19)
(-0.00681551 0.724797 1.64074e-19)
(0.994864 0.0187638 -1.53637e-19)