/*--------------------------------*- C++ -*----------------------------------*\
| =========                 |                                                 |
| \\      /  F ield         | OpenFOAM: The Open Source CFD Toolbox           |
|  \\    /   O peration     | Version:  2306                                  |
|   \\  /    A nd           | Website:  www.openfoam.com                      |
|    \\/     M anipulation  |                                                 |
\*---------------------------------------------------------------------------*/
FoamFile
{
    version     2.0;
    format      ascii;
    arch        "LSB;label=32;scalar=64";
    class       volVectorField;
    location    "18.4";
    object      U;
}
// * * * * * * * * * * * * * * * * * * * * * * * * * * * * * * * * * * * * * //

dimensions      [0 1 -1 0 0 0 0];

internalField   nonuniform List<vector> 
2186
(
(1.34249 -0.0737877 2.11844e-19)
(1.63945 -0.964657 -7.47783e-20)
(1.48462 -0.939926 2.72349e-21)
(0.763898 -0.606552 -1.40153e-19)
(-0.347857 0.384191 -1.53059e-19)
(1.38638 -0.15997 0)
(0.744172 -0.688212 0)
(-0.290927 -0.460416 1.1048e-19)
(1.46798 -0.267047 1.8129e-19)
(0.572488 -0.342783 -2.38696e-21)
(0.659409 0.593543 0)
(0.798108 -0.285501 -1.27049e-19)
(-0.355208 -0.550756 -4.48001e-20)
(1.19888 0.0226598 -3.59329e-19)
(1.82701 -0.711713 -8.29632e-20)
(1.01183 -0.00662813 1.69657e-19)
(0.985875 0.0122806 0)
(-0.62767 0.398579 0)
(1.31416 -0.0176772 0)
(-0.0779609 0.200284 -5.69544e-20)
(0.480435 0.051386 -1.11582e-19)
(-0.198773 0.157155 7.7624e-20)
(1.18564 0.026536 2.9664e-19)
(-0.219109 -0.0159575 5.77934e-21)
(1.0327 0.00595741 -2.33379e-19)
(0.814649 -0.581881 0)
(0.763376 -0.05475 1.40298e-19)
(0.631914 -0.611532 -1.61387e-19)
(1.18567 0.694898 0)
(0.966275 0.0225623 -3.18552e-19)
(-0.0345802 0.050506 0)
(1.02485 -0.0148279 1.1035e-20)
(-0.0623182 0.189929 0)
(2.67561 0.145859 2.48153e-19)
(-0.123797 -0.197218 3.06977e-21)
(1.50578 0.762091 8.09997e-20)
(1.9186 0.12458 1.53208e-19)
(0.503012 0.100169 -3.32974e-19)
(1.86553 0.30858 -2.75038e-19)
(1.12575 -0.0477619 1.75368e-20)
(-0.406055 -0.603967 0)
(-0.15596 0.114396 0)
(1.90436 -0.909881 8.46449e-20)
(-0.382399 0.12032 0)
(1.09393 0.268109 1.50885e-19)
(0.614672 -0.324266 2.71733e-19)
(0.944647 -0.806692 0)
(1.21429 -0.812192 1.02962e-19)
(2.34553 -0.146907 0)
(-0.309786 0.527861 1.6229e-19)
(-0.0250637 0.0975038 8.41698e-20)
(0.613644 0.566104 7.98996e-20)
(2.10378 -0.796435 9.99453e-20)
(0.580629 0.238838 -2.68584e-19)
(-0.246417 0.0184166 2.93948e-20)
(0.788219 -0.6739 0)
(1.68534 -0.992778 1.84775e-20)
(0.601694 -0.561597 0)
(2.26346 0.279446 8.94261e-20)
(1.15456 -0.175136 -3.4296e-19)
(2.02773 -0.117539 1.76295e-19)
(1.33428 0.301102 -1.76743e-19)
(1.31892 0.5209 0)
(0.759652 -0.0219773 -1.92085e-20)
(1.33887 0.382765 -1.08328e-19)
(1.27565 -0.753984 -1.42456e-19)
(1.14487 0.64566 5.2744e-20)
(0.674622 0.0423911 -5.4024e-19)
(0.816683 0.0356381 0)
(2.12553 -0.247201 -6.61235e-20)
(-0.282686 -0.517256 -1.28717e-19)
(2.12808 -0.144418 -1.75133e-19)
(0.727968 -0.0669972 -2.37411e-19)
(0.897541 -0.540747 0)
(0.8169 0.158222 -8.812e-20)
(0.569937 -0.531777 -2.84266e-19)
(2.62709 -0.148312 0)
(1.00528 0.00866058 3.49214e-19)
(-0.117708 -0.263528 0)
(1.93032 0.407089 0)
(0.709064 0.381973 1.09494e-19)
(0.895689 -0.0962114 -3.04524e-20)
(1.02833 0.00485053 3.87635e-20)
(1.29939 0.414764 2.72791e-20)
(0.970729 0.0238997 4.06488e-19)
(1.04426 0.0287133 -9.6406e-21)
(0.658101 0.144775 -3.23382e-19)
(1.33068 -0.0519157 -1.36915e-22)
(0.863539 -0.177463 0)
(-0.06605 -0.0421394 9.24628e-20)
(0.885786 -0.646156 -1.5582e-19)
(-0.0726061 0.339258 -1.18948e-21)
(1.12696 -0.0848206 2.37299e-19)
(0.83054 -0.20647 0)
(0.976002 0.0217349 3.88372e-20)
(1.33718 0.633301 0)
(1.6546 -0.98049 0)
(1.28314 0.217731 0)
(-0.37368 0.489736 0)
(0.817863 -0.691285 2.76812e-19)
(0.295611 0.299583 -3.29612e-19)
(0.654336 0.255674 2.10582e-19)
(1.53803 0.193675 0)
(1.15661 -0.10711 -2.16928e-19)
(1.11756 0.0227202 1.7282e-19)
(-0.0356021 0.461888 1.05239e-19)
(0.616089 0.479386 0)
(2.23492 -0.191842 -1.31116e-19)
(0.985383 -0.49939 7.76435e-20)
(-1.41209 0.31368 2.73223e-19)
(1.69331 0.317502 1.01112e-19)
(-0.228296 0.535399 -2.33555e-19)
(0.838949 -0.763571 0)
(0.546042 0.315427 1.63204e-19)
(1.68178 -0.271398 -5.22571e-19)
(-0.47969 -0.453956 -4.27129e-19)
(1.31523 0.292306 1.58814e-20)
(1.94209 -0.19488 0)
(-0.0884336 -0.0515645 -2.76913e-19)
(0.714355 -0.102007 7.49573e-20)
(1.52658 0.865028 0)
(-0.279278 0.612938 -2.54571e-19)
(0.864555 0.741953 -2.68695e-19)
(-0.820404 0.301281 3.89492e-19)
(1.02796 -0.0247708 0)
(1.49643 0.343778 -2.00122e-20)
(-0.302887 0.476897 0)
(0.721334 -0.521108 -1.01905e-19)
(-0.750533 0.349994 -2.07612e-19)
(0.812178 -0.742083 0)
(0.456399 -0.315276 3.95468e-19)
(0.565385 -0.483422 2.66191e-19)
(0.422897 -0.383119 0)
(1.01086 -0.806326 -1.1837e-19)
(0.654064 0.315174 0)
(-0.142442 0.609344 -1.27275e-19)
(0.837341 -0.722672 1.3219e-19)
(2.46283 -0.276196 2.9255e-19)
(2.27793 0.193721 0)
(-0.0994582 -0.171407 0)
(0.667469 0.620238 -3.35681e-19)
(1.81184 -0.649999 7.09605e-21)
(-0.180606 -0.240186 0)
(1.01202 -0.832228 -1.28933e-20)
(1.1583 -0.104076 0)
(1.09838 -0.131996 3.7638e-19)
(2.16876 -0.202355 -1.22296e-19)
(-0.382773 0.3853 0)
(1.24633 -0.57086 -5.12274e-20)
(-0.256442 0.272927 -3.66903e-20)
(-0.190507 0.410324 0)
(1.12092 -0.838291 1.24511e-20)
(1.007 0.00392014 -5.83328e-19)
(0.675056 -0.507112 -1.00204e-20)
(0.840885 -0.540898 0)
(1.22723 -0.752264 -8.67944e-20)
(0.641933 0.205574 2.51703e-19)
(1.21146 0.115887 0)
(1.47108 0.0947273 -2.45907e-19)
(1.22489 -0.880487 -1.83032e-19)
(-0.0900394 -0.15361 -1.0266e-19)
(-0.0994324 -0.41047 -1.89514e-19)
(1.06443 0.00532141 2.19342e-19)
(0.940204 -0.48704 -9.76357e-20)
(1.39147 -0.0549361 1.26762e-22)
(1.27211 -0.0706817 -1.15877e-20)
(0.711692 -0.11252 1.12454e-19)
(-0.185248 -0.0672086 -2.48761e-19)
(1.67378 -0.480177 0)
(1.74755 -0.51015 6.19531e-20)
(1.41797 0.637171 1.37508e-19)
(0.834096 -0.638923 -2.01929e-19)
(0.99495 0.00808113 1.19512e-20)
(0.745965 -0.556854 2.80136e-19)
(1.27505 0.784714 1.26022e-19)
(1.83018 0.113595 1.58373e-20)
(-0.423738 0.293245 0)
(1.07948 0.048783 -2.27417e-19)
(-0.770363 -0.231866 -2.64988e-19)
(1.05214 0.476539 7.7752e-20)
(0.0392917 -0.118067 1.50339e-19)
(1.15462 0.0270682 -4.1403e-20)
(-0.144566 0.144661 -1.38116e-19)
(1.26837 0.572254 -7.65509e-20)
(1.11125 0.866648 0)
(-0.479674 0.287864 -8.17107e-20)
(-0.222167 -0.235181 0)
(0.633235 0.540792 -2.6983e-19)
(2.01644 0.237597 -1.96671e-20)
(-0.453891 -0.580469 1.51523e-19)
(-0.776271 0.0985026 -5.70696e-19)
(0.72069 0.0449662 2.37317e-19)
(2.05177 0.141257 -5.38751e-20)
(1.0006 -0.366923 -2.86829e-20)
(-0.0389563 -0.0534013 0)
(-0.980999 0.346527 4.12948e-19)
(1.2961 0.950687 -2.35036e-20)
(0.834853 0.0528934 -1.30152e-19)
(0.539323 0.505343 1.87914e-19)
(0.423465 0.188878 0)
(-0.0731736 -0.546826 -2.17682e-19)
(-0.618439 0.462198 2.40456e-19)
(1.32474 -0.982121 3.48645e-22)
(0.99287 -0.0450378 -1.81215e-19)
(-0.184851 -0.143581 7.27747e-21)
(-0.135703 0.174109 1.27516e-19)
(-0.294912 -0.155285 -1.79548e-19)
(1.95263 -0.265088 0)
(1.12998 0.0392727 -3.05589e-19)
(2.2461 0.145196 2.45172e-19)
(1.29971 -0.639183 9.19387e-20)
(0.41659 -0.155588 4.89586e-21)
(0.575325 0.29477 0)
(0.920128 0.730229 -1.59198e-20)
(0.665654 0.611752 1.796e-19)
(0.921675 -0.587079 1.40906e-19)
(0.663042 0.474661 0)
(1.02351 -0.00181301 7.78397e-21)
(0.908247 -0.687925 2.00604e-19)
(0.81832 0.39805 -4.41935e-19)
(1.26913 -0.1129 0)
(-0.212979 -0.245683 -2.90593e-19)
(0.0126528 0.304008 -8.42361e-20)
(1.55408 0.709786 0)
(1.38059 -0.964856 -2.98411e-22)
(-0.633135 0.430398 0)
(-0.319226 0.439161 9.70785e-20)
(0.714857 0.631488 -9.52347e-20)
(0.862211 -0.240341 0)
(-0.204881 -0.184454 0)
(1.60706 -0.480815 0)
(-1.25361 -0.0425422 5.82935e-19)
(1.24254 -0.909457 1.1988e-19)
(1.20201 -0.624668 5.68832e-20)
(1.07893 -0.178749 -1.55682e-19)
(0.906255 -0.718694 -1.5814e-19)
(0.193374 -0.197855 0)
(-1.04432 0.127489 0)
(1.02583 -0.532479 1.654e-19)
(-0.141832 -0.23911 0)
(-0.305367 0.531046 0)
(-0.456055 -0.425946 3.64372e-19)
(0.770241 0.649078 8.26185e-20)
(0.988144 0.774154 0)
(0.674616 0.52836 -8.22689e-20)
(0.833781 -0.0658676 -2.13773e-19)
(0.723386 0.537545 -2.20071e-19)
(0.573565 0.532161 -1.61857e-19)
(-0.24239 -0.505679 1.75908e-21)
(0.74175 -0.666439 0)
(0.8965 0.156199 -3.09947e-19)
(-0.336898 -0.607045 5.86935e-20)
(0.586406 0.5432 3.65305e-19)
(0.933003 0.77679 0)
(-1.08261 0.000869479 4.06663e-19)
(-0.106863 -0.385933 3.09711e-19)
(-0.027546 -0.270804 -1.599e-19)
(0.642557 0.546146 -1.42981e-20)
(0.969219 -0.00818236 5.64876e-20)
(-0.421056 -0.606623 0)
(2.41879 -0.0743916 -3.23809e-19)
(1.86249 -0.553688 -2.66333e-19)
(0.674627 -0.625679 -7.11216e-20)
(-0.485898 0.263674 1.34765e-20)
(1.17246 0.452336 1.75617e-19)
(0.868534 0.390101 0)
(1.06265 -0.18336 1.82611e-19)
(0.0754265 -0.429594 -5.43154e-21)
(-0.0669156 0.0869978 3.20457e-19)
(0.929797 0.0181476 -5.01938e-20)
(1.10914 0.140908 0)
(1.99235 -0.075226 -2.99884e-19)
(1.89608 0.127736 0)
(0.532109 0.218512 -4.41072e-19)
(-0.146778 0.205766 0)
(-0.261516 -0.463559 2.52632e-19)
(0.706505 0.106245 0)
(0.64537 -0.540945 -1.72311e-19)
(1.13534 0.0166713 1.99333e-19)
(-0.416513 0.426662 3.6082e-20)
(2.18736 -0.0947645 4.58591e-21)
(2.1346 -0.28712 -1.31724e-19)
(1.09936 0.218409 -2.10422e-19)
(-0.354574 -0.630968 -1.15734e-19)
(1.10336 -0.876395 0)
(0.811468 0.0151289 -1.45095e-19)
(0.946073 -0.399179 -2.74074e-19)
(1.75991 -0.597457 -5.79685e-21)
(1.77747 0.0320771 2.63467e-19)
(1.0773 -0.0072958 3.65855e-19)
(0.0966295 -0.432293 -1.54476e-19)
(1.01609 -0.459025 -1.18914e-19)
(0.203941 -0.196444 2.43203e-19)
(1.00668 -0.00794195 0)
(1.00539 -0.00673195 0)
(1.01108 -0.447763 1.25496e-19)
(-0.0677482 0.579515 -8.626e-20)
(0.170582 -0.121693 -1.34705e-19)
(2.04326 -0.0473551 5.85868e-21)
(1.1441 -0.0691939 0)
(1.91706 0.122302 -1.58144e-19)
(0.967468 -0.843829 -7.28032e-20)
(1.82282 -0.586771 -7.5493e-20)
(1.07863 0.816841 0)
(0.491262 -0.473968 0)
(0.583769 0.493433 -1.71136e-19)
(1.08208 0.272586 -3.88307e-19)
(2.32274 -0.282499 4.1547e-22)
(0.852473 0.141085 1.33013e-19)
(0.0895879 -0.483516 -4.63135e-19)
(1.08115 -0.421951 -1.48023e-20)
(-0.206376 -0.454634 0)
(-0.110031 -0.185284 0)
(-0.502853 -0.531776 0)
(1.36758 -0.74554 -7.62736e-20)
(-0.189965 0.417479 -1.86729e-19)
(-0.062823 0.145171 0)
(1.25777 0.952765 -3.46589e-20)
(1.0993 0.136017 -4.03385e-19)
(1.98544 0.525056 -4.36965e-20)
(1.05239 0.899533 8.31495e-20)
(-0.193213 0.539587 1.20056e-19)
(0.682278 -0.181889 0)
(-0.504476 -0.471301 -3.14836e-19)
(-0.255862 0.512109 2.2567e-19)
(0.773218 0.00811498 1.7513e-19)
(1.49822 0.928217 -9.31709e-21)
(1.75624 0.53198 5.97152e-21)
(-0.101808 0.313001 -2.09434e-21)
(0.768261 -0.701938 -3.45691e-20)
(1.09976 -0.0128034 0)
(1.70708 -0.0859042 0)
(1.06016 0.0523156 0)
(-1.20165 0.59777 -2.47301e-19)
(-0.447333 -0.528713 1.15481e-19)
(1.02069 0.822775 0)
(1.00278 -0.0124819 4.86934e-19)
(0.745126 0.580369 -2.20768e-19)
(-1.67753 0.379178 -2.43166e-19)
(0.85901 3.79279e-06 -3.92794e-20)
(0.737368 -0.673899 -2.05068e-19)
(1.35417 0.69264 -3.20458e-20)
(0.58698 -0.480207 -2.76631e-19)
(1.12814 -0.00253596 -4.39024e-19)
(0.818006 0.041501 4.26564e-20)
(1.56849 -0.186561 5.93931e-20)
(1.46797 -0.144388 -5.62251e-20)
(-0.0587858 -0.07875 -4.96188e-23)
(1.06129 0.452989 -2.58486e-19)
(1.28582 0.596353 6.49429e-20)
(-0.0994324 -0.335449 0)
(0.0483689 -0.455608 1.72173e-19)
(-0.299925 -0.347507 1.21909e-19)
(-0.190246 -0.097698 -1.28238e-19)
(0.455685 0.27884 0)
(1.35504 -0.553235 0)
(0.00288496 0.000237054 -1.16674e-19)
(-0.276628 -0.631975 -6.53165e-20)
(1.04567 -0.0313456 1.73982e-19)
(-0.358591 0.276054 -3.69927e-20)
(1.4573 0.0066403 -5.34201e-19)
(-0.0784773 0.602244 0)
(0.857874 -0.761735 -2.79808e-19)
(1.08259 -0.162455 6.57195e-20)
(-0.394788 -0.309419 1.65627e-19)
(0.708981 0.131102 3.15087e-19)
(0.614489 0.101989 1.01963e-19)
(0.520682 -0.494141 1.91196e-19)
(-0.203134 -0.301664 -1.34532e-19)
(1.43934 0.471928 0)
(0.372876 0.311962 -1.87579e-19)
(1.02695 -0.016981 -2.76886e-19)
(-0.836492 0.100967 2.22159e-19)
(1.39051 0.477325 -1.1764e-19)
(-0.164977 -0.302042 -5.07884e-20)
(0.703514 -0.64302 -4.26123e-20)
(0.802292 0.163459 -1.98064e-19)
(0.9608 0.408133 2.2053e-20)
(1.1655 -0.145334 3.27813e-20)
(0.62174 -0.262087 -2.85126e-19)
(2.05064 -0.385581 -1.59717e-19)
(1.70877 -0.13315 0)
(1.5551 0.408948 -2.98011e-20)
(1.93714 0.0964816 -1.801e-20)
(0.834808 -0.266847 1.29927e-19)
(0.900598 0.339426 -1.59879e-19)
(0.936039 -0.180251 4.86862e-20)
(0.40037 0.36497 -2.43363e-19)
(-0.212859 0.291937 2.33346e-19)
(1.95645 -0.220383 0)
(0.929452 0.00222 0)
(0.897086 -0.794905 5.38099e-20)
(-0.103442 -0.451848 -3.3889e-19)
(-0.807114 0.097981 -2.6324e-19)
(-0.0800159 -0.116869 -2.1871e-19)
(-0.431069 0.556026 -1.50997e-19)
(-0.281865 -0.393363 0)
(-0.0924538 -0.146088 3.87448e-20)
(0.190271 0.455237 -8.03748e-20)
(-0.153242 0.19305 -2.90893e-19)
(0.812642 -0.135128 0)
(1.63063 -0.610684 1.09769e-19)
(-0.267917 -0.332504 0)
(0.995727 0.0243818 3.51279e-19)
(-0.0385875 -0.464747 2.14942e-20)
(0.562495 -0.452273 3.70764e-19)
(-0.809689 -0.211989 4.39097e-19)
(-1.56178 0.0231086 0)
(0.205636 0.551302 9.60383e-20)
(1.00814 0.021134 -1.0561e-20)
(-0.144232 -0.150809 0)
(1.00542 -0.00823053 -5.47236e-20)
(0.886304 -0.750125 -2.68068e-19)
(1.4908 -0.465826 0)
(0.94859 -0.290972 1.96172e-19)
(0.0592491 0.578489 2.12578e-19)
(-0.0247331 -0.023038 0)
(-0.112937 -0.509687 -6.30017e-21)
(0.750165 -0.65689 -3.98715e-19)
(0.965003 -0.030937 -2.5292e-19)
(-0.0806288 -0.492252 4.18563e-19)
(-0.209227 -0.42142 1.54803e-19)
(-0.252286 -0.444528 0)
(0.939152 0.454954 0)
(-0.299035 -0.459812 2.09771e-19)
(1.85279 -0.0459068 -2.48573e-19)
(1.04828 0.874599 1.83588e-20)
(1.05871 0.19942 -1.18316e-19)
(1.15761 0.000829328 -2.09612e-19)
(1.06671 -0.0765486 -7.39796e-20)
(-0.0667926 -0.528806 -3.84868e-19)
(2.00747 0.10909 4.72859e-19)
(0.668609 0.0264364 1.9863e-19)
(2.0576 -0.110697 1.63218e-19)
(1.06889 -0.152877 0)
(-0.0505245 0.487002 5.53849e-19)
(1.13591 0.0251973 -4.7598e-19)
(1.71128 0.610523 1.2899e-20)
(0.763506 -0.480362 -1.52086e-19)
(-0.0748642 -0.0475829 2.07055e-19)
(0.821597 -0.722413 3.52564e-19)
(1.22227 0.190448 7.13347e-20)
(1.00606 -0.00778581 2.42444e-19)
(0.119683 -0.501864 -1.70028e-19)
(1.01958 0.0150392 0)
(1.68668 0.145302 -2.34941e-19)
(-0.0389258 -0.0326834 0)
(1.01879 0.0126752 -1.42816e-19)
(-1.55993 0.0357917 -6.53779e-19)
(1.66587 0.311734 3.44912e-20)
(-0.423615 -0.386471 1.51078e-19)
(1.59883 -0.00631718 -5.60053e-21)
(1.01255 -0.0190499 5.0211e-20)
(1.36493 -0.0900982 0)
(1.47245 -0.627029 -1.22159e-19)
(1.0192 0.0298697 -1.48577e-19)
(1.40958 0.772216 -5.93403e-20)
(1.41543 -0.0623863 0)
(0.712036 0.0273834 -1.3898e-20)
(0.000905121 0.000569494 0)
(1.38397 0.0495962 0)
(-0.432298 -0.57086 0)
(1.22127 0.432717 0)
(1.82013 0.308323 4.35607e-20)
(0.719289 0.59386 3.86973e-19)
(0.30219 -0.304148 -2.26295e-19)
(-0.252283 -0.585588 -3.70729e-19)
(-0.0421057 -0.0565744 0)
(1.90991 -0.40644 1.13e-19)
(1.29948 0.50715 0)
(1.42871 0.296067 0)
(-0.53009 -0.432765 1.39028e-19)
(0.787411 0.695257 1.25123e-19)
(1.72529 -0.0257095 0)
(-0.363042 -0.495173 8.56262e-20)
(0.902319 0.203241 1.81938e-19)
(2.03884 -0.415731 -5.15259e-20)
(1.21279 0.907162 4.49144e-20)
(0.94404 -0.850459 -3.04352e-20)
(1.42424 -0.186319 -1.30848e-20)
(0.7739 0.699153 1.28646e-19)
(1.15065 0.905404 0)
(2.50584 -0.233615 1.94463e-19)
(1.00508 0.743887 0)
(1.44353 -0.65355 3.32837e-20)
(0.920111 0.0957023 1.62477e-19)
(1.00476 -0.00621909 0)
(0.208 0.498111 5.09873e-19)
(0.899266 -0.191415 4.54274e-20)
(0.651721 -0.436075 0)
(0.689489 -0.409125 2.00652e-19)
(1.21503 0.543849 -3.26853e-20)
(0.459636 0.432395 2.67978e-19)
(-0.180214 0.251855 3.43937e-20)
(0.0169581 -0.0206484 8.20526e-20)
(0.761907 0.0652701 0)
(1.35063 -0.924408 -6.20685e-20)
(1.03122 -0.0441128 3.86258e-19)
(1.45771 0.331585 1.26725e-19)
(-0.398947 -0.537546 7.42169e-20)
(-0.893494 -0.274227 0)
(1.24754 -0.257278 -1.06018e-19)
(-0.0238436 -0.0248597 -1.78399e-19)
(0.0118505 -0.0747879 -6.18295e-20)
(-0.124922 0.0419507 -6.31994e-22)
(-0.194688 0.0874272 2.62854e-19)
(1.41051 -0.190486 -6.62161e-21)
(2.4308 -0.072986 4.33564e-19)
(1.17092 0.452228 -2.83194e-19)
(0.846699 -0.0481685 0)
(1.90822 -0.141025 2.40525e-19)
(1.89956 0.111815 1.26289e-19)
(0.936944 -0.788689 1.30819e-19)
(1.18062 -0.997755 -3.1057e-20)
(0.464373 0.430255 1.79908e-19)
(1.48636 0.390194 0)
(1.72248 0.571279 2.33701e-20)
(-0.0319071 -0.039824 -3.63592e-19)
(0.86291 0.752615 0)
(1.35567 0.416468 0)
(0.303722 -0.303675 -3.83023e-21)
(0.306371 0.273803 0)
(-1.16265 -0.169368 -4.12588e-19)
(-0.250991 0.377549 -1.0181e-19)
(1.75579 -0.446734 0)
(1.23496 0.104233 1.76665e-19)
(-0.59689 0.143276 2.19785e-19)
(0.552646 -0.525325 -4.35995e-19)
(2.03959 -0.0992175 -5.61118e-20)
(0.631754 -0.57464 0)
(1.02166 0.118783 0)
(1.36085 -0.263437 0)
(1.10154 0.215027 -2.2452e-19)
(1.32888 0.103487 3.17932e-19)
(-1.32952 -0.0570325 0)
(0.894164 -0.0648399 0)
(2.15161 -0.129653 -3.91834e-21)
(-0.0655895 0.146267 8.86493e-20)
(2.6043 -0.0125113 -3.22175e-19)
(1.07364 -0.524707 1.84877e-19)
(2.02912 0.0252112 -3.41302e-19)
(-0.994055 0.197505 -1.72211e-19)
(1.97253 0.130604 -2.03974e-19)
(1.01701 -0.0282995 3.95935e-19)
(1.4874 0.593598 0)
(-0.290404 0.473098 2.72755e-20)
(1.03013 -0.852547 1.59537e-19)
(0.859171 -0.0342609 4.59132e-20)
(0.656512 -0.458382 0)
(1.93282 -0.560127 6.19211e-21)
(1.2266 -0.202993 1.38478e-19)
(1.74334 -0.61694 0)
(0.62616 -0.582157 4.12286e-19)
(0.688609 0.080382 -2.13221e-20)
(2.4075 0.00118168 5.46986e-19)
(-0.0964882 0.236776 -1.82951e-19)
(1.30644 0.60505 1.46852e-19)
(1.13068 0.396458 3.55618e-21)
(0.89246 0.353749 2.16841e-19)
(1.95254 0.0245492 -2.79026e-19)
(-0.0744028 -0.557323 -4.89842e-21)
(0.786795 -0.214758 0)
(-0.154654 -0.10088 3.40533e-19)
(1.11299 -0.970307 0)
(1.08805 -0.673022 2.00861e-20)
(1.18558 -0.154413 -7.34256e-19)
(1.44233 0.0722864 -1.50468e-20)
(-0.591921 -0.255809 -3.93308e-19)
(0.969785 0.465616 1.69615e-19)
(-0.181551 0.743874 2.73526e-19)
(0.690644 -0.0383758 0)
(1.924 -0.0923533 0)
(1.57952 0.168584 2.50804e-20)
(0.779724 -0.0129213 0)
(1.39088 -0.224233 -1.42492e-19)
(-1.44666 0.073796 5.26705e-19)
(1.89035 0.494546 5.18313e-21)
(1.04014 -0.0318442 0)
(0.572589 -0.379154 9.88481e-20)
(1.01039 0.0260423 1.88446e-19)
(0.278592 0.715227 -2.3456e-19)
(-0.443 0.54137 0)
(1.13065 -0.494088 4.5363e-19)
(1.79791 -0.127979 -5.10069e-22)
(1.1202 -0.51517 -1.97538e-19)
(2.30366 0.270875 1.56649e-19)
(1.261 0.772978 0)
(0.860854 0.0178778 0)
(-0.459012 -0.557642 -1.86933e-19)
(0.00160523 1.92817e-05 1.31265e-19)
(0.937469 0.353184 -2.00409e-19)
(0.275991 -0.410292 -1.51685e-19)
(0.628516 0.380813 2.33894e-19)
(0.941781 0.0422229 0)
(0.555506 -0.516778 0)
(0.8083 -0.266863 5.38728e-21)
(1.25144 -0.524934 -9.11282e-20)
(0.654994 -0.0497948 1.31579e-20)
(0.739689 -0.181048 1.12617e-19)
(-0.0481203 0.0791437 -2.34895e-19)
(1.17604 0.160935 2.65743e-19)
(0.643746 0.599657 0)
(1.24398 0.679773 0)
(1.58982 0.261771 0)
(-0.379917 -0.406482 -1.72234e-19)
(1.22331 0.542574 1.7892e-19)
(2.06499 0.0645046 5.47255e-20)
(0.919248 -0.00797508 0)
(1.67441 -0.507968 0)
(2.19772 -0.0968186 -3.60319e-19)
(0.519035 0.47342 2.68866e-19)
(1.00535 0.00298894 -1.88569e-19)
(1.46545 0.462142 0)
(-0.32708 0.542119 0)
(1.22853 0.315741 2.78491e-19)
(1.00292 0.510032 -1.26044e-19)
(1.06659 0.0210521 0)
(1.72681 0.111095 0)
(1.93411 0.662406 -2.61773e-19)
(-0.0826485 0.420618 -2.12722e-21)
(0.997274 0.0115887 0)
(0.688243 0.447171 -3.22336e-20)
(0.959014 -0.846742 0)
(1.00681 0.0146159 4.37782e-20)
(0.779704 -0.571572 1.32357e-20)
(0.918676 -0.341981 2.88429e-19)
(0.912287 -0.398222 -7.79995e-20)
(2.23802 -0.157515 3.65556e-19)
(1.33801 0.135266 9.67148e-20)
(0.793949 -0.0258561 0)
(1.01939 0.0103397 0)
(-0.615284 -0.341681 0)
(0.648797 0.621031 -1.83782e-19)
(-0.025581 0.043884 1.58464e-19)
(1.15155 0.338914 -4.46355e-19)
(-0.541868 0.31288 0)
(0.80736 0.621071 1.6284e-19)
(1.02434 -0.35264 0)
(1.00557 -0.000895365 1.1035e-19)
(0.339628 0.0934055 7.72281e-20)
(1.01925 0.393292 2.48714e-19)
(1.31873 0.213285 0)
(2.13875 0.190821 -8.20729e-20)
(0.831315 -0.131488 -3.46072e-19)
(-1.16767 -0.185075 -5.81938e-19)
(1.11922 0.253718 0)
(0.87279 0.224144 1.68551e-19)
(2.0428 -0.193148 0)
(0.755181 0.497401 3.50669e-19)
(-1.49014 -0.029257 2.31653e-19)
(-0.0363317 0.0838356 0)
(0.574776 0.545951 -6.8523e-20)
(1.05004 -0.661091 -1.40914e-19)
(0.49714 -0.281939 -1.15925e-19)
(1.0197 -0.0194882 0)
(-0.411868 0.266321 -2.15048e-19)
(0.659587 -0.590049 7.656e-20)
(0.899041 0.272145 0)
(1.69052 -0.517994 1.42467e-19)
(0.959957 0.817834 2.37906e-20)
(0.983399 -0.577249 -1.48802e-20)
(0.19646 -0.192056 -2.52807e-19)
(0.242111 -0.0929086 -5.2696e-19)
(-0.127272 -0.232861 9.45102e-21)
(0.798996 0.333908 2.38173e-19)
(-0.211812 0.440982 -4.62551e-21)
(1.43625 -0.667057 3.52514e-21)
(1.02357 0.00401852 -3.27111e-19)
(-0.458395 -0.351549 0)
(1.0279 0.029456 -3.87226e-19)
(2.20565 0.189207 2.31985e-19)
(0.865186 0.668743 2.73733e-19)
(1.1401 -0.0756329 1.51457e-19)
(1.00601 -0.0352068 1.51381e-19)
(1.51029 0.0904515 1.36039e-20)
(-0.354926 -0.42462 -5.95121e-22)
(1.75505 -0.895774 1.53817e-20)
(1.16939 -0.141194 -7.07148e-20)
(0.807539 0.0474079 8.10472e-20)
(0.922611 -0.311572 8.48743e-20)
(0.969913 0.215403 0)
(0.938888 0.713758 0)
(0.855855 0.186745 -9.206e-20)
(2.07208 0.189022 -2.40702e-20)
(-1.06953 -0.107708 1.91273e-19)
(1.0498 -0.557742 -4.80104e-19)
(0.638448 -0.556392 3.67798e-19)
(1.159 0.236364 -1.33186e-19)
(0.257992 -0.410409 1.75113e-20)
(1.43546 -0.579624 0)
(0.746497 0.089571 -6.45796e-21)
(1.52114 -0.611218 -5.84034e-20)
(1.01571 0.741396 0)
(1.27781 -0.691348 0)
(0.400029 0.108918 0)
(-0.198939 -0.333247 -6.12836e-20)
(-0.116668 0.163603 0)
(1.61353 0.65676 3.28447e-19)
(1.20805 0.175785 6.14324e-21)
(-1.23844 0.0797262 2.52147e-19)
(1.82563 0.590501 1.10029e-20)
(1.78958 0.463069 -5.56756e-20)
(2.1864 -0.34715 -3.82649e-20)
(-0.166633 0.010914 -1.84356e-19)
(-0.128226 -0.494651 4.69461e-21)
(1.01502 0.105166 0)
(0.673941 -0.0333374 0)
(1.00157 0.000727474 2.4695e-22)
(-0.41415 -0.390162 0)
(1.56471 -0.00599888 -1.1682e-19)
(0.676393 -0.0312969 0)
(1.06306 0.00587757 1.21347e-19)
(0.994138 0.016333 -4.28504e-20)
(1.06122 0.217793 1.66404e-19)
(1.06073 -0.0192028 -8.84478e-22)
(0.961443 -0.207479 -5.13211e-20)
(1.02444 -0.0345736 3.51178e-19)
(0.693579 -0.632054 1.7276e-19)
(-1.07737 0.106413 -2.76257e-19)
(1.14794 0.39798 1.70016e-20)
(0.000513174 0.00641039 0)
(1.10043 0.775095 0)
(1.02909 -0.00985054 0)
(1.02707 -0.796491 -9.70165e-20)
(1.06153 -0.911021 3.34481e-20)
(0.92672 0.228449 -2.34404e-20)
(0.0655763 0.18598 -1.08696e-18)
(1.29105 -0.485649 2.00093e-20)
(0.606005 -0.411155 -5.9771e-19)
(1.27652 0.405503 -3.79316e-20)
(0.884812 -0.188838 -1.0015e-19)
(2.10743 -0.348125 1.13979e-19)
(0.436433 0.0900387 -1.61094e-20)
(-0.325305 -0.493153 -1.28493e-19)
(1.0933 0.536147 1.9191e-19)
(-0.102434 -0.341474 0)
(0.237785 -0.44669 3.84443e-19)
(-0.100102 -0.136995 -7.90422e-23)
(1.02854 -0.0434962 3.1652e-19)
(1.02504 -0.00157501 -8.12075e-21)
(1.1083 -0.0115232 -8.75078e-20)
(1.46179 0.0824926 4.21823e-21)
(1.59986 0.318436 5.7787e-20)
(0.415844 -0.391153 -2.96516e-19)
(0.8283 0.160341 4.29376e-20)
(1.03571 -0.00158338 -2.31595e-19)
(1.10639 0.280118 -1.7502e-20)
(1.41959 0.134217 0)
(1.08709 0.574844 -3.6008e-19)
(1.00242 -0.00346444 9.01127e-20)
(0.655773 0.583903 2.50593e-19)
(1.30546 -0.373194 -4.02002e-22)
(1.06367 -0.0114544 -2.8812e-20)
(1.12935 0.0120528 8.17018e-22)
(2.50525 0.0773734 1.96684e-20)
(0.37709 0.110601 0)
(1.04704 -0.0397034 0)
(1.05355 -0.0346298 5.54459e-19)
(1.00266 -0.00334833 0)
(-0.0661749 -0.0918155 0)
(0.961483 -0.590804 0)
(1.0008 -0.00121921 -5.23899e-19)
(1.18013 -0.702061 7.66813e-20)
(1.02168 -0.00481702 1.0975e-20)
(1.31354 0.936867 -2.77109e-20)
(1.49334 0.984861 1.61488e-20)
(1.15045 -0.28656 -3.00691e-20)
(1.5728 0.176863 2.59347e-19)
(1.38638 0.256387 0)
(0.0195195 0.498693 0)
(2.1921 -0.107588 5.38823e-19)
(1.246 -0.743442 0)
(0.999465 -0.00599266 -1.62344e-19)
(1.00978 -0.000888676 3.15401e-19)
(1.42538 0.139179 -6.68939e-20)
(-0.00502793 -0.123414 2.63519e-19)
(0.969409 -0.00158042 1.71544e-19)
(0.164046 0.000375288 2.50363e-20)
(0.210609 -0.0685472 -2.59202e-20)
(1.55381 0.108145 -3.97746e-23)
(0.927168 0.0163055 -1.72196e-19)
(1.00242 0.00355516 2.03462e-19)
(1.00055 -0.00072274 1.20244e-20)
(0.789809 -0.0131307 0)
(0.72807 -0.0264237 0)
(0.724225 -0.0267943 6.60375e-22)
(0.699897 -0.0288128 0)
(1.08954 -0.172721 0)
(0.362742 -0.0690253 0)
(-0.059143 -0.0816515 5.19504e-20)
(0.197843 0.0685484 -2.89455e-20)
(1.20192 0.0440066 0)
(1.28928 -0.0081997 5.97206e-21)
(1.54212 0.07379 0)
(0.0154636 0.0649084 0)
(-0.0567471 -0.00144772 0)
(0.110966 0.0413906 -3.40626e-21)
(0.685026 0.143902 3.65581e-20)
(0.79047 0.0236156 0)
(0.792975 0.0205863 0)
(0.964798 0.0194694 -2.12349e-19)
(0.818139 0.00863075 3.96708e-19)
(1.00698 -0.00147139 0)
(0.999848 -0.000386622 3.76059e-19)
(0.999919 -0.000737997 -3.77435e-22)
(0.795213 0.021944 3.37023e-19)
(0.990235 -0.00749193 -1.96914e-19)
(0.14615 0.0401837 0)
(-0.0124728 -0.000672372 2.59387e-20)
(1.00137 -0.00215772 -1.90175e-19)
(1.00001 0.000308174 -3.26187e-19)
(1.25111 0.012909 0)
(0.999443 0.00179272 0)
(0.99936 0.000319381 0)
(1.48269 -0.506031 1.05166e-20)
(0.810921 -0.150355 2.78765e-20)
(0.971382 0.296236 0)
(-0.321857 0.282468 1.72758e-19)
(-0.53038 0.571082 -4.97681e-19)
(1.01907 -0.0159419 -2.53344e-19)
(-0.343873 -0.60379 -1.1939e-19)
(1.01868 0.000193554 -2.03812e-19)
(1.19061 -0.228396 -9.21785e-20)
(0.81879 -0.495093 2.85329e-19)
(-0.0652446 -0.0907643 -8.84498e-20)
(1.02939 0.0086994 0)
(1.0507 -0.0134809 -5.54707e-20)
(0.859451 0.0229211 0)
(-0.0411708 0.0466906 2.31758e-19)
(1.17425 -0.630775 0)
(-0.47251 -0.463915 -3.01952e-19)
(0.237277 0.0437307 -1.95043e-20)
(1.62247 0.673408 -1.62894e-20)
(-0.057261 -0.022029 0)
(1.05773 -0.0382936 1.71411e-19)
(1.2005 -0.281004 3.7432e-21)
(0.925848 -0.0223537 2.69127e-19)
(1.01216 -0.00893331 -1.72659e-19)
(1.63978 0.847776 2.93401e-20)
(0.505849 0.472982 0)
(0.427051 0.374412 1.96146e-19)
(1.59592 -0.487121 -2.06305e-21)
(1.13981 0.118925 1.86518e-19)
(1.11067 -0.732047 0)
(1.02025 0.00130532 0)
(0.998321 -0.0187531 -3.97911e-19)
(1.01791 0.0149747 -3.86985e-19)
(-0.169288 -0.352427 0)
(1.1952 0.8028 -1.28654e-19)
(1.46309 -0.351877 4.28017e-22)
(1.01506 0.00468381 1.49133e-19)
(1.01176 0.0120991 -1.86897e-19)
(-0.561919 -0.398645 -2.95909e-20)
(1.16096 -0.133812 -8.21311e-20)
(1.01694 -0.0162572 6.36526e-19)
(1.2557 -0.212975 0)
(1.8195 0.643917 -3.70651e-20)
(1.01546 -0.0143229 -1.98177e-19)
(2.04871 0.0982211 -1.48204e-19)
(1.05982 0.00543105 -4.57689e-22)
(1.01015 -0.011561 3.96731e-20)
(2.10987 -0.272377 -3.07187e-19)
(1.01602 0.00474537 1.92057e-19)
(1.04625 0.195747 2.62999e-21)
(1.0177 -0.000230599 0)
(0.92977 0.136569 4.75653e-20)
(-1.22684 -0.0841036 6.58303e-21)
(0.998745 0.021311 1.90786e-19)
(1.03991 0.0191804 -5.91942e-22)
(1.30223 -0.209546 -5.35074e-21)
(1.23575 0.309802 3.99335e-19)
(0.999846 0.0153238 1.31047e-19)
(1.01576 -0.0155359 4.67638e-22)
(1.70695 0.262416 -2.28177e-20)
(1.72837 0.918696 -9.33702e-20)
(0.795537 -0.714962 5.40408e-20)
(0.469524 -0.355248 -2.8961e-19)
(1.0073 -0.0114493 0)
(1.01916 0.00226406 4.771e-20)
(1.01253 -0.00994955 1.00721e-19)
(1.06332 0.032294 5.26063e-21)
(1.01411 0.00501332 -1.99979e-19)
(1.0297 -0.0298653 2.28544e-19)
(1.00926 -0.00875216 -1.88373e-19)
(1.01646 0.00337664 -4.84074e-22)
(1.0127 0.000432837 -3.40099e-22)
(1.02404 0.0142487 1.91383e-19)
(0.894437 0.0723122 4.879e-19)
(1.72959 0.657055 0)
(0.547249 -0.228393 2.89889e-19)
(1.01218 -0.00432671 0)
(1.02086 -0.021617 -5.55568e-20)
(1.51326 0.445629 -8.02644e-20)
(1.93245 -0.0120267 0)
(2.30423 -0.317367 -1.18032e-19)
(1.21653 0.579969 -5.32008e-20)
(0.752862 -0.0131864 0)
(1.92453 -0.145161 0)
(0.0338004 0.322975 -1.71733e-19)
(1.32272 -0.000184141 -1.44857e-20)
(1.01907 -0.0056713 -2.0161e-19)
(1.13832 -0.581193 -5.58652e-20)
(1.24122 -0.114924 -2.41606e-20)
(1.37686 0.440758 0)
(1.35051 -0.517778 0)
(1.86855 0.484887 0)
(0.122049 0.465289 8.20822e-20)
(1.15365 0.131173 8.53032e-20)
(-0.153353 0.42747 0)
(-0.0928318 0.483068 -2.73435e-19)
(1.66364 0.950686 -4.31134e-20)
(1.00737 -0.00271179 -3.9397e-19)
(1.12138 0.0217979 2.08439e-20)
(1.01989 0.00574556 2.60793e-19)
(0.683977 -0.0396191 0)
(-0.151144 -0.310309 -2.69748e-20)
(0.595146 0.4067 -3.29735e-19)
(1.76619 0.630868 8.30554e-20)
(0.0591385 0.560435 0)
(0.796324 0.0834901 7.25386e-20)
(0.504802 0.48142 5.01092e-20)
(1.16061 0.866417 -3.50004e-20)
(-0.0433303 -0.0341554 1.31619e-19)
(1.01959 0.00904448 0)
(1.26865 0.249661 4.85496e-20)
(1.01247 -0.00472692 1.47935e-19)
(2.3927 0.169109 0)
(1.00939 0.00730685 2.48034e-19)
(0.300029 -0.447826 -1.81606e-19)
(1.02074 0.0108664 -1.5353e-19)
(1.3298 0.264242 0)
(2.05486 -0.302905 5.5167e-22)
(1.01022 0.00432889 -1.02991e-19)
(0.995012 -0.0380855 2.71935e-19)
(1.0843 0.0848995 -2.52073e-21)
(1.09349 0.322772 -4.71158e-20)
(-0.147226 -0.0803752 3.44831e-19)
(1.94066 0.316893 1.63351e-19)
(0.561775 0.116607 5.45996e-20)
(0.804194 0.015306 -3.71941e-19)
(0.795299 0.0246325 0)
(0.648002 -0.0454548 5.40633e-20)
(1.0212 -0.0189765 -2.98543e-20)
(0.97246 0.0151205 0)
(1.04951 -0.000123892 -1.89665e-19)
(0.283935 -0.525467 -3.67133e-20)
(-1.45274 -0.135431 2.63907e-19)
(2.18835 -0.613907 0)
(-1.10106 -0.0681526 -7.4702e-19)
(1.53923 -0.356461 0)
(1.03926 -0.0181539 5.56361e-20)
(1.10424 0.0632175 1.57765e-21)
(1.01513 -0.00328997 1.59931e-19)
(-0.97325 0.0435195 4.56072e-19)
(1.01736 0.00322468 0)
(0.991809 0.00387353 -3.85745e-19)
(1.00703 0.0076901 2.03428e-19)
(0.835054 0.104357 0)
(0.713662 -0.0629544 -8.76829e-21)
(0.95795 -0.00166912 -1.7399e-19)
(-0.246542 -0.605901 4.0482e-19)
(1.00599 -0.00292804 -1.98395e-19)
(1.00093 0.018992 -4.66792e-19)