/*--------------------------------*- C++ -*----------------------------------*\
| =========                 |                                                 |
| \\      /  F ield         | OpenFOAM: The Open Source CFD Toolbox           |
|  \\    /   O peration     | Version:  2306                                  |
|   \\  /    A nd           | Website:  www.openfoam.com                      |
|    \\/     M anipulation  |                                                 |
\*---------------------------------------------------------------------------*/
FoamFile
{
    version     2.0;
    format      ascii;
    arch        "LSB;label=32;scalar=64";
    class       volScalarField;
    location    "29.2";
    object      p;
}
// * * * * * * * * * * * * * * * * * * * * * * * * * * * * * * * * * * * * * //

dimensions      [0 2 -2 0 0 0 0];

internalField   nonuniform List<scalar> 
2186
(
1.00005
-0.121828
0.184445
1.31189
-0.796149
0.117347
0.909018
-0.669404
-0.745168
1.56357
1.26091
-0.712317
-0.64507
1.24429
-0.347874
1.25095
1.27355
-0.835758
0.148935
-0.695886
1.64107
-0.675466
1.25345
-0.790537
1.24497
1.28579
1.46922
1.13804
0.795229
1.24476
-0.677293
1.24513
-0.639505
-0.490573
-0.746965
0.299283
-0.543958
1.62725
-0.529764
0.0705982
-0.650156
-0.651977
-0.462908
-0.786307
1.12303
1.54462
0.576471
0.745742
-1.31795
-0.723787
-0.682722
1.10408
-0.457
1.55575
-0.667065
1.18844
-0.515323
1.21659
-0.598121
1.03773
-1.00465
0.848139
0.758533
0.0645424
0.782097
0.686379
0.87398
1.53233
1.4282
-0.751048
-0.674739
-1.01423
1.50491
1.23828
1.41379
1.40179
-1.16656
1.26827
-0.75896
-0.592309
-0.854489
0.0359391
1.24044
0.829786
1.23322
1.24131
1.5344
0.143734
-0.201761
-0.750505
1.18871
-0.68545
1.15837
1.40751
1.25411
0.618995
0.0593514
0.799658
-0.762529
1.23053
-1.16857
-1.03713
0.858505
1.17665
1.27538
-0.667829
1.43823
-0.4284
1.1689
-1.0999
-0.568754
-0.733288
0.772757
1.54874
-0.769183
-0.626126
-0.102486
-1.5205
-0.750412
1.50811
0.15821
-0.729808
1.06373
-0.941861
1.2559
-0.248574
-0.765295
1.39082
-0.878767
0.889606
1.63948
1.48941
0.464639
0.881232
-0.969773
-0.717986
1.15861
-0.658766
-0.470355
-0.725226
1.0058
0.00698967
-0.672772
0.933631
1.14656
1.18568
-0.408929
-0.794767
0.838945
-0.741094
-0.725648
0.809386
1.27134
1.43131
1.286
0.756275
1.52748
0.647981
0.548066
0.650075
-0.731276
-0.791027
1.22457
1.22646
0.141638
0.206824
-0.65714
-0.738404
-0.468244
-0.54842
0.559045
1.23534
1.27436
1.35582
0.623753
-0.134114
-0.8083
1.22615
-0.813031
1.07613
-0.72306
1.25943
-0.686189
0.750528
0.72909
-0.800929
-0.683511
1.35676
-0.387554
-0.626629
-0.772334
1.50061
-1.06922
1.21477
-0.732174
-1.06218
0.267038
1.42052
1.29072
-0.679947
-0.739977
-1.32325
0.306855
1.27541
-0.732102
-0.763505
-0.755674
-1.50006
1.19085
-1.02635
0.747284
-0.159833
1.53742
1.03568
1.13361
1.18922
1.41075
1.24865
1.13589
1.33066
0.598526
-0.624788
-0.66173
0.288038
0.415092
-0.816346
-0.774997
1.25897
1.37788
-0.83531
-0.669372
-1.59406
0.599326
0.883926
1.01092
1.13771
1.36859
-1.10304
1.12196
-0.707285
-0.743629
-0.634672
1.21862
0.935157
1.37775
1.42454
1.33696
1.31268
-0.699342
1.06387
1.3535
-0.67711
1.20443
0.983599
-1.56833
-0.753439
-0.796157
1.37837
1.27277
-0.635268
-0.557565
-0.935503
1.19764
-0.953904
0.965751
1.29952
1.09568
-0.771221
-0.6801
1.22299
0.845519
-0.337008
-0.357734
1.5817
-0.756905
-0.688238
1.07696
1.43584
1.23504
-0.781154
-0.888603
-0.586619
1.1453
-0.66344
0.777837
1.21917
1.26154
0.0134673
-0.226195
1.20962
-0.797421
1.16647
1.44721
1.26834
1.26552
-0.87881
-0.694656
-0.813411
-1.03303
-1.63475
-1.11289
0.608843
-0.344983
0.810819
1.4225
1.43403
1.1468
-0.471557
1.38623
-0.806572
-0.166345
-0.723373
-0.735123
-0.622823
0.578929
-0.721191
-0.70669
0.352358
1.16204
-0.850248
0.577344
-0.710611
-0.317038
-0.618938
-0.7377
1.46457
0.165814
-0.72299
-0.678752
1.0276
0.772933
-0.246543
0.75095
-0.98445
-0.630383
0.865123
1.27199
1.29889
-1.24233
1.39736
1.13078
0.574978
1.4999
1.24641
1.17952
0.591662
-0.709629
-0.719474
1.09139
-0.783047
-0.798175
-0.785674
-0.645979
-0.755602
1.59845
-1.25021
-0.684174
-0.693161
1.24588
-0.817696
-1.49814
-0.680853
0.998304
-0.455401
-0.788598
1.49821
1.55872
1.37752
-0.667748
-0.992344
1.61188
1.25047
-0.790844
0.655175
-0.703827
0.399527
1.41993
1.21385
1.11219
1.55571
-0.308953
-0.758633
-0.741194
-0.579219
-0.908616
-0.657675
0.0261291
1.53964
-0.821282
-0.718788
1.23735
0.817792
-0.752465
-1.14304
-0.714456
-0.760277
-0.760534
-0.738553
-0.66043
-0.76611
1.43906
-0.587855
-0.611861
1.26141
-0.818563
1.51881
-0.810944
-1.37617
-0.670003
1.24443
-0.721748
1.27122
1.08861
-1.53669
1.2848
-0.723031
-0.744781
-0.735118
1.25928
1.18391
-0.765479
-0.707509
-0.721627
1.21158
-0.817994
-0.484526
0.711047
1.18639
1.1183
0.937713
-0.751886
-0.831356
1.06583
-0.517
1.04063
-0.640683
1.26729
0.145334
1.38115
-0.74994
1.09406
0.926967
1.27832
-0.780359
1.24357
-0.593504
-0.744585
1.24762
-1.52673
0.332536
-0.65414
0.030623
1.25252
0.328192
0.51713
1.25148
0.434907
0.0828631
0.212397
-0.68419
0.466798
-0.641353
0.922666
-0.501735
1.29683
1.38662
-0.70352
-0.73526
-0.840456
-0.67184
0.634904
-0.625309
1.04893
0.188809
-0.639644
1.33982
-0.815846
0.569493
0.526498
-0.535774
1.01024
0.540445
-1.04007
-0.461954
-0.493636
-0.610197
1.26317
-0.665485
1.35346
1.48251
1.4678
0.864384
1.39489
-0.773431
-0.601234
1.13652
0.446483
1.23839
-0.666826
-0.61994
-0.83834
1.0248
-0.738961
-0.711919
-0.695985
-0.737576
0.265518
-0.523868
0.95409
0.932523
-0.484691
-0.425018
0.989315
0.302316
1.3641
-0.49938
-0.00118024
-0.738593
0.972507
-0.466357
1.42715
1.62644
-0.927234
-0.77247
-0.64583
0.498057
-1.08475
1.28748
-0.439134
1.2416
0.988381
-0.821743
1.10509
1.06679
-1.43695
1.11487
-0.966359
-0.691975
-1.13452
-0.70945
-0.898384
-0.963548
-0.613717
1.24784
0.410021
-0.745426
0.826175
1.39575
1.46886
-0.137177
0.984966
-0.374513
1.01733
-0.449036
-1.13745
-0.702199
0.702787
1.03796
1.2965
-0.499623
-0.748343
-0.917384
-0.748358
0.11062
0.968914
-0.385281
0.104519
-0.701305
1.16981
-0.914985
1.20004
-0.963682
-0.578731
1.19115
0.893383
-1.08174
0.00362269
1.21092
1.55115
1.2694
-0.707271
-0.81931
1.03684
-0.903202
1.02305
-0.409001
0.648081
1.20813
-0.616624
-0.682159
1.25493
-0.841226
1.47658
0.251907
1.1206
-0.190713
0.856945
-0.759145
1.48634
-0.685294
-1.06918
1.18406
0.728375
0.711073
-0.685458
-0.686098
-0.476348
1.00939
-0.252999
-0.750351
-0.589359
1.2637
0.599141
-0.748599
0.970844
1.12002
1.2314
-0.535504
-0.598359
-0.691943
1.26104
1.4085
0.725842
1.25708
-0.235815
1.30012
-0.10055
-0.503516
-0.696657
1.16466
1.21184
-0.806674
1.06953
-0.688073
1.03627
-0.791448
1.22721
1.19317
1.26454
-0.658643
1.15447
-0.927655
-0.578766
1.41578
-0.958438
-0.445151
1.3573
-0.677509
1.3375
-1.18257
-0.69516
1.27105
1.02033
1.61953
1.24645
-0.902184
1.33568
1.32567
-1.1364
0.847199
0.00641756
-0.755926
1.74572
-0.720664
1.37199
-0.733198
0.530928
1.24713
-0.704058
1.23719
-0.432601
1.14877
1.19114
1.2607
0.0686019
-0.615662
-0.390079
0.809121
0.896769
1.31175
-0.567644
1.04906
-0.589897
-0.217586
-0.898854
1.0732
1.40083
-0.68232
-0.825791
-0.153434
1.48343
-0.364358
0.952178
-0.219523
-1.26879
-0.687363
-0.690928
-0.635106
1.03739
-1.2483
-0.98454
-0.137256
-0.329622
-0.714861
-0.751898
-0.556828
1.21722
1.26663
-0.682118
-0.155049
1.23115
1.17746
1.26628
-1.19436
1.22935
1.30107
1.2423
1.31128
-1.56543
-0.355159
-0.683028
0.832092
1.24806
0.946569
0.384434
0.098842
-0.883602
0.0372538
1.51845
-0.609355
-0.0706407
-0.451181
-0.221737
-0.656289
1.0111
-0.814053
-0.84456
-0.745073
1.24866
1.24851
1.25923
0.0248934
0.552124
1.49604
0.220237
1.24367
-0.248309
0.0913791
0.984723
1.26649
1.32182
0.117362
1.22482
1.22286
-0.944538
-0.0531538
1.25962
1.27167
1.26813
-0.736851
-0.793773
1.26795
0.846828
1.24902
0.407337
0.0586824
0.138913
-0.49627
-0.523369
-0.678678
-0.486304
-0.463319
1.27393
1.27842
0.9883
-0.759121
1.24842
0.269595
-0.039986
0.00922501
1.24604
1.27227
1.26879
1.28193
1.25917
1.25248
1.24321
-0.418608
-0.113538
0.0161711
0.02046
0.055978
0.0325357
-0.0165284
0.234465
0.306864
0.206937
-0.386538
1.2405
1.26098
1.25567
1.27871
1.27652
1.26876
1.27223
1.25036
1.25689
0.269202
-0.0238576
1.26955
1.26829
0.0038199
1.2706
1.26927
0.0487243
-0.000837743
0.00517449
-0.820379
-0.592355
1.25186
-0.670256
1.24862
0.866454
1.32785
-0.722935
1.24808
1.19112
1.19416
-0.68042
-0.696078
-0.641924
0.0987663
0.148313
-0.680235
1.26518
0.0771244
1.34019
1.25536
0.00872683
1.41191
1.56228
-0.118811
1.11769
0.904706
1.24815
1.26602
1.25801
-0.724298
0.694923
0.108678
1.25443
1.26338
-0.637508
0.141759
1.25601
0.0930144
-0.157786
1.25543
-0.509739
1.23602
1.26785
-0.568494
1.26042
-0.267455
1.25122
1.32768
-1.0932
1.26584
1.27362
0.223386
0.920839
1.25212
1.25783
0.36075
-0.58809
0.959871
1.61397
1.26417
1.2542
1.25922
-0.0156365
1.25439
1.23964
1.26083
1.25477
1.25735
1.25316
1.35906
-0.943778
-0.503173
1.25576
1.25037
0.499937
-0.520123
-0.95386
-0.927548
1.12219
-0.622406
-1.10452
0.12621
1.25174
0.967732
0.255096
-0.867122
-0.0687263
-0.796801
-0.648216
-0.224307
-1.26787
-0.763431
-0.156088
1.25917
0.0953991
1.24662
1.17079
-0.738375
1.48784
-1.08877
-0.696517
0.990378
1.3718
0.668159
-0.747792
1.25121
-0.448704
1.25735
-0.737118
1.25751
-0.877753
1.24942
-0.305527
-0.944248
1.25977
1.27435
1.19814
-0.615294
-0.750011
-0.52586
-0.56597
1.27138
1.15467
-0.32214
1.25012
1.29297
1.24365
-0.333118
-1.09256
-0.451691
-1.553
0.562761
1.25654
0.0646569
1.25322
-1.27148
1.25137
1.29005
1.26119
0.0239639
0.0221541
1.2871
-0.701624
1.26319
1.26679
0.242498
-0.658782
1.17963
1.38713
1.2472
1.24491
-0.775476
-0.965831
1.22121
0.650629
1.26188
1.0907
-0.797108
-0.68148
1.09886
1.50152
1.25224
0.579503
-1.15418
-0.254068
-1.68549
-1.1843
1.23536
-1.06673
1.23775
-0.911468
-0.729475
-0.779537
0.684936
-0.778969
-1.4073
-1.06337
1.2483
-0.7489
1.15106
-0.710428
0.0567613
-0.742328
0.245187
-1.23448
1.22394
-0.268157
-0.73281
-0.975818
-0.733833
1.23864
-1.15161
0.283219
-1.35725
1.33348
-1.36864
-0.715631
1.32063
1.23702
1.2273
0.715122
-0.721051
1.25684
1.28333
-0.478606
-0.725503
1.2477
1.04156
1.49916
1.26925
-1.30574
-1.17551
-0.715346
-0.716113
-0.792192
-0.743319
-0.16921
-0.872278
1.04556
0.210555
1.25818
1.46165
1.24784
-0.748402
-0.758405
1.25003
-1.45281
-1.1176
1.22777
-0.0326673
-0.815349
-1.27733
-1.14632
1.20272
1.17478
-0.475361
1.07773
0.91754
-1.5917
1.2334
-0.854659
1.06501
-0.6571
1.23052
-1.82894
0.658318
1.25087
1.33736
-1.37288
-0.970721
1.08406
1.62468
1.27142
1.26371
-1.22403
1.50719
-0.797772
-1.24313
-0.602209
0.710826
-1.51858
1.36278
1.41505
-0.701447
-0.516501
1.24799
-0.6315
1.09494
1.28093
1.22043
-1.34558
1.25166
0.0554115
1.27828
0.0584486
-1.16535
0.0615929
1.25452
-0.0112537
-0.286674
-1.51073
1.24883
-1.30188
1.43822
0.499199
1.56843
1.23131
-0.622124
1.2297
-0.695446
1.22641
1.22626
-0.964803
-1.41338
1.37348
1.24105
1.46961
1.20869
0.314023
1.21224
1.23682
1.12035
1.25884
-0.85153
-0.779346
-1.55092
1.34919
-0.429041
-0.842504
-0.687278
-0.463977
-1.46922
-0.0226359
1.11242
-1.30878
1.20272
1.25738
-0.731398
-0.79635
-0.673103
-0.616137
-0.686879
-0.700379
1.25647
-1.62984
1.26845
1.49293
1.30803
0.0176306
1.27516
1.18803
-0.433881
1.2079
1.23636
-0.7785
1.23532
1.19019
0.0611079
-0.785072
1.71725
-1.66937
-0.811668
-0.658876
0.473443
1.22685
-0.858765
-0.807547
-0.677924
1.39017
-1.01888
1.10227
1.26758
1.23266
-0.525103
1.2161
-1.58768
1.26503
1.27969
-0.231436
1.26944
0.742566
1.23856
0.951362
-1.3751
0.0903528
0.00380578
0.0951145
1.49062
0.265058
1.28331
1.64185
-0.615229
-0.00222852
1.31669
-0.0018898
1.31375
0.036209
0.105735
1.31457
1.3193
0.665633
-0.893959
1.01155
-0.608699
-0.705268
-0.504939
1.27522
1.24537
1.69007
-0.748482
-1.18946
0.988241
-0.643098
1.33012
1.24554
1.23776
1.24418
1.20606
-0.842408
-0.743687
-0.737765
1.06887
1.17878
-1.5876
-0.712154
-0.718251
1.26658
1.28258
-0.449881
-1.03604
1.28932
-1.70573
0.460356
1.02213
1.17252
-0.782316
-0.663445
-0.0048063
-0.613491
-0.637534
-0.398984
-1.72797
1.6424
1.60664
-0.83692
-0.606426
1.26686
1.24325
-0.797656
0.163509
-0.131222
0.902632
1.35042
-0.8338
1.25975
-1.57537
-0.669678
-0.67119
-0.820431
-0.776368
1.23191
-0.605618
-0.750137
1.60994
-0.612892
1.26104
1.47978
-0.713743
1.30276
1.51737
-0.790339
1.49031
-0.623085
-0.698323
1.27774
-1.10994
1.27099
1.26244
-0.635808
1.30906
0.382572
-0.88449
1.2964
1.29004
-0.686041
-0.754436
1.20409
1.25355
-0.674356
-1.49634
1.52901
-0.648917
1.16863
-0.411047
1.18963
-0.750165
-0.785272
-0.706908
-0.803516
1.34384
1.28249
1.55666
1.45526
1.23055
1.31535
1.31624
-0.715353
1.38398
1.40563
-0.75174
-0.661621
-0.781174
1.56874
-1.56927
-0.704635
0.00031013
1.1907
-0.765156
-0.864207
1.27358
1.27901
-0.697595
-0.720006
-0.692415
0.198822
-1.49096
-0.777806
-0.722538
1.14388
1.14859
-0.699657
-0.24333
-0.646762
1.09502
-0.652463
-0.819871
-0.728595
1.20152
-0.847944
-0.729068
1.59835
1.14336
0.636365
1.45996
-0.51348
1.2383
1.26696
1.37441
1.47362
-1.16186
0.936342
1.26357
0.506398
-0.733574
1.67857
1.21081
1.15646
1.31314
-0.739831
-0.745026
1.10034
1.06233
1.21473
-0.770364
-1.08697
1.23938
-0.734309
1.06929
-1.19766
1.6577
-0.73798
0.99083
0.990674
-0.687703
-0.741658
-0.751852
1.31604
-0.690907
-0.75071
0.951195
0.872974
-0.75213
1.32362
1.0843
-0.694574
-0.933664
1.21484
-0.664944
-0.744933
-0.721616
-0.67803
-0.492101
1.23955
1.26098
-1.02051
0.869218
1.25871
1.59613
0.517989
0.541455
0.269799
1.13668
-0.22069
-0.685624
-1.58096
-0.370304
-0.684044
1.24959
-0.683191
0.429365
-0.746747
0.804433
0.818468
-0.682043
0.885977
-0.51623
0.744466
-0.680519
0.728709
-0.686762
0.637383
-0.75019
0.643672
-0.679055
1.07278
-0.812553
-0.681006
-0.688982
-0.751969
1.26949
0.33009
-0.718999
-0.755814
0.293286
0.372057
-0.68171
-0.748543
-0.763604
0.119763
-0.769099
0.125989
-0.802775
-0.0858742
-0.843568
-0.0550789
1.14994
-0.0129682
-0.77781
1.24033
0.169064
-0.163706
0.690389
1.22164
-0.919026
-0.980841
-0.752628
-0.828749
1.13963
1.66602
-0.496691
-1.42492
0.260899
-0.611693
-0.148296
-0.132093
1.23222
-0.807101
1.20326
-0.988705
1.72753
0.695566
1.69155
-0.71233
1.45491
-0.330192
1.26629
-0.52851
-0.751796
1.33717
1.24631
-1.21891
-0.747216
-0.686104
1.23158
-0.606372
1.24129
-0.779732
-0.726908
-0.705024
1.56051
1.29617
1.37315
1.27411
1.26906
-1.4834
-0.291598
1.45531
-0.509621
-0.610948
1.65977
-0.702098
1.17178
1.20222
1.62897
1.69193
-0.68899
-0.906502
1.28884
0.464558
-0.227342
-0.638198
-0.652652
-0.823645
-0.718656
0.794343
-0.859936
1.46627
-0.476748
1.2998
1.3896
1.29608
-0.862508
-0.760184
-0.65016
1.34258
-0.650334
1.42403
-0.522656
-0.740303
1.48748
1.5728
-0.755987
0.335973
1.19626
-0.719236
-0.804736
0.904469
1.52107
1.48024
-0.755563
1.13921
1.10168
-0.749318
1.49373
0.535913
-0.705277
-1.25385
0.115112
0.0240197
1.37065
-0.68374
0.51248
-0.178844
-0.114801
-0.785433
-0.768575
1.24878
-1.12064
1.28104
0.143733
0.32488
0.933217
0.494951
-0.750703
-0.409883
-0.971672
-0.549903
-0.0350817
-0.872484
1.18914
-0.772403
-0.546036
1.26967
-0.662673
-0.754457
1.26699
-0.884807
1.22552
0.104458
-0.738774
-0.112121
1.034
-0.677339
-0.846744
1.135
-0.717975
1.32566
-0.35529
-0.680866
-0.603137
-0.749564
1.75587
-1.41504
1.37963
-0.162141
1.21446
1.4428
0.9647
1.27567
1.40972
0.0856419
-1.3908
1.2198
1.34914
1.62323
-0.606993
1.30541
0.92645
-0.615797
1.03552
1.47447
-0.377762
1.58786
0.389171
-0.85856
1.0842
-0.628405
-0.684617
1.19095
-0.262923
1.31044
1.31563
1.22004
-0.833321
1.16454
1.5091
-0.803738
-0.112654
-1.55969
-1.02672
-0.658066
-0.744771
1.62192
0.997712
-0.798285
1.16477
-0.642041
-0.670737
1.53823
1.47362
-1.00761
-0.784846
-0.749658
-0.724195
1.22443
-0.784279
0.306718
-0.667962
-0.237507
1.31794
-0.668297
1.63249
1.30407
1.1238
1.28153
1.54852
-0.729293
-0.654699
1.2657
1.40107
-0.85354
1.25868
-1.25932
-0.710315
-0.684378
1.33504
1.36361
-0.701279
-0.781731
0.789062
0.150951
-0.6937
1.2398
1.21295
-0.83613
1.25291
1.29553
-0.885305
-0.757795
-0.812959
-0.718771
-0.691222
1.57768
-0.99235
1.16632
-0.772353
1.57741
1.13939
1.11745
1.20382
-0.771046
-0.441779
-0.725658
0.776176
-0.724246
1.17325
0.534715
-0.373901
1.12354
1.26117
1.29343
1.26588
0.0264482
1.29285
0.0763539
0.649697
1.0598
-0.371035
-0.744941
-0.782819
-0.505875
1.2653
1.22283
1.26482
-0.831735
-0.589255
-0.731049
-0.618114
1.26339
1.53484
1.27657
-0.734082
-0.747717
-0.762185
-0.351382
-0.74698
-0.750336
0.00497305
1.25316
-0.883944
-0.696862
-0.0339994
0.136123
0.968083
-0.963475
-0.736396
-0.857513
1.1973
1.68672
0.0481649
1.35506
1.73658
0.906322
1.46001
-0.761404
-0.776591
1.66692
-0.739904
0.542719
-0.7159
-0.686487
-0.681311
-0.689258
1.22719
0.979975
1.43996
1.40235
0.0248763
1.02813
0.272684
0.0349014
-0.743273
1.36475
0.969835
1.27141
1.28815
0.213075
0.0308959
1.28421
-0.500926
-0.752352
-0.692507
-0.691934
0.828579
-0.686588
1.21262
0.915355
-0.740752
1.49652
-0.73839
-0.125505
1.23465
-0.729125
-0.634422
-0.625373
0.84095
-0.702253
-0.709518
1.16188
1.27969
-0.220766
0.268602
-0.62877
-0.745873
-0.735836
-0.771188
0.0232563
0.846266
-0.701951
-0.685314
1.51036
0.490807
0.595699
-0.683295
-0.681505
1.25484
1.30239
0.768587
0.779792
-0.681187
-0.607792
-0.595061
0.689717
0.686982
-0.679759
1.10034
0.369447
-0.677541
1.6868
-0.681752
-0.765997
-0.691251
-0.627765
1.09393
-0.699037
-0.793895
-0.759042
0.24138
-0.737885
0.219659
-0.831874
0.218691
1.42908
-0.796427
0.0549663
-0.785989
0.0337849
1.58463
1.66202
1.47668
1.26124
1.45347
-0.533191
1.24809
-0.746183
1.29863
-0.753582
-0.82928
1.5279
-0.603827
0.717406
-0.843246
1.66056
0.172941
1.59604
0.839088
1.02709
-0.708468
-0.724315
-0.752449
-0.689231
1.566
1.44628
1.24641
0.865694
1.24962
1.11904
1.05614
-0.678465
-0.735636
0.486907
0.24949
1.0303
1.26415
0.202282
-0.705572
-0.675715
-0.964033
-0.752002
-1.30916
1.61097
1.28261
1.25914
0.180482
0.0287778
1.28044
-0.585878
-0.745847
-0.524323
-0.620539
1.01937
-0.696649
-0.680699
-0.087337
1.26125
-0.839195
-0.694676
1.2494
0.854563
0.954262
1.24913
-0.748768
1.11148
1.44094
1.08834
-0.749048
1.2423
0.596536
0.689036
-0.698668
-0.688821
1.69304
0.477362
-0.733277
0.249907
1.15007
1.22286
-0.612097
-0.749379
0.166909
-0.606739
-0.679639
-0.800714
-0.0911657
1.24446
-0.773351
1.24562
1.5341
1.34932
1.24482
1.33379
1.39495
1.25261
-0.786603
-0.44311
-0.22124
-0.830298
-0.7137
-0.680668
1.39957
1.29754
-0.645752
1.20947
-0.818904
-1.03804
-0.681705
-0.969441
0.773383
-0.897287
1.2415
1.14475
-0.743239
-0.178165
1.58937
-0.915354
-1.14329
-0.886404
-0.805586
-0.653299
1.29219
1.01184
1.34607
-0.673597
-0.58516
-0.711973
-0.167332
-0.638554
-0.509945
-0.853181
-0.718041
1.15257
-0.595003
1.72088
-0.934409
-0.372779
-0.778189
-0.680129
1.17404
-0.785052
-0.666381
-0.851102
-0.113953
1.43611
1.47675
-0.667055
-0.556363
1.06219
-0.767945
-0.729994
1.35506
-0.789816
-1.30898
-0.672037
0.987776
-0.225313
-0.631307
1.24474
0.244084
-0.67022
1.25789
-0.786129
-0.911954
-0.794628
-0.761911
0.132233
-0.630749
1.5581
-0.737077
0.387142
-0.75275
1.0294
-0.591918
-0.696984
0.880439
0.999316
1.30703
1.20876
1.4281
-0.697593
1.08754
0.784104
-0.825297
1.18555
-0.18439
-0.596659
-0.749775
1.43377
1.41846
-0.582398
-0.727544
-0.692522
1.2536
-0.784479
0.304302
-0.936303
-0.683757
1.52465
1.25795
-0.715937
-0.822838
-0.714693
-0.702128
1.15755
-0.755204
1.22276
0.45235
0.941119
1.07375
-0.665439
-0.744128
1.1833
-0.683229
0.0258201
1.53325
-0.726516
-0.69975
1.05444
-0.822008
-0.805687
0.01798
-0.615547
1.60934
-0.440859
0.364837
-0.721038
1.57032
-0.734313
-0.82988
0.875531
-0.904845
-0.753561
1.59366
0.905998
1.26234
-0.803147
1.47188
-0.992553
-0.63582
-0.790113
-0.791003
-0.74013
1.50383
0.806377
-0.694929
-0.730467
-0.620292
1.37584
-0.859778
1.545
-0.752452
0.964484
-0.692363
0.597012
0.7686
0.733494
0.650446
0.416275
-0.838591
1.25472
-0.782941
-0.513461
-0.874625
0.502876
1.5869
-0.0980448
-0.806512
-0.746411
-0.695022
0.487633
-0.928045
-0.689983
1.09366
0.413889
-0.70822
1.65399
-0.626822
-0.958457
1.61583
-0.698602
0.369904
-0.827328
-0.681253
-0.687689
1.62739
-0.675029
1.53292
-0.686118
-0.770736
1.42189
-0.0224419
-0.824532
0.796208
-0.611536
0.232022
-0.215508
-0.691013
1.04558
-0.759018
-0.690656
-0.682223
-0.682901
-0.756419
1.08363
0.0536555
-0.235007
-0.711324
1.5607
-0.647881
-0.812889
-0.660573
0.0542177
-0.817602
-0.669176
-0.705576
0.106701
1.48681
-0.744326
-0.744303
-0.795708
-0.555167
-0.0296302
-0.761487
1.64938
1.57849
0.641576
-0.740292
-0.753528
0.554227
-0.749876
1.65855
0.430102
1.32974
0.932707
1.54921
0.308346
-0.826693
-0.721436
0.151041
-0.783531
0.150917
0.108556
-0.685808
1.55457
-0.0828327
0.442048
-0.191001
-0.725851
-0.76139
)
;

boundaryField
{
    frontback
    {
        type            empty;
    }
    Top
    {
        type            zeroGradient;
    }
    outlet
    {
        type            fixedValue;
        value           uniform 0;
    }
    bottom
    {
        type            zeroGradient;
    }
    Inlet
    {
        type            zeroGradient;
    }
    rectangle
    {
        type            zeroGradient;
    }
}


// ************************************************************************* //
