/*--------------------------------*- C++ -*----------------------------------*\
| =========                 |                                                 |
| \\      /  F ield         | OpenFOAM: The Open Source CFD Toolbox           |
|  \\    /   O peration     | Version:  2306                                  |
|   \\  /    A nd           | Website:  www.openfoam.com                      |
|    \\/     M anipulation  |                                                 |
\*---------------------------------------------------------------------------*/
FoamFile
{
    version     2.0;
    format      ascii;
    arch        "LSB;label=32;scalar=64";
    class       surfaceScalarField;
    location    "2.7";
    object      phi;
}
// * * * * * * * * * * * * * * * * * * * * * * * * * * * * * * * * * * * * * //

dimensions      [0 3 -1 0 0 0 0];

oriented        oriented;

internalField   nonuniform List<scalar> 
3181
(
-1.00754
0.374806
0.632736
-0.41223
0.376527
0.0357031
0.532977
-0.370878
-0.1621
0.116153
-0.195982
0.0798285
-0.0468149
0.0333795
0.0134354
0.688983
0.482235
-1.17122
0.150491
-0.144332
-0.00615828
0.0104579
0.0449938
-0.0554517
0.151749
-0.760504
0.608755
-0.0713283
0.132284
-0.060956
-0.0103981
-0.0504325
0.0608307
0.213623
0.0116785
-0.225302
-0.0689176
-0.00640228
0.0753199
-1.01298
0.108303
0.904682
-0.315137
0.734025
-0.418889
-1.11239
0.64154
0.470854
0.0608906
-0.937341
0.876451
0.16604
-0.181576
0.0155364
-0.635737
-0.371078
0.0217243
0.169468
-0.191192
0.0360493
-0.0864704
0.0504211
0.11022
-0.0257313
-0.0844888
1.00819
-0.966942
-0.0412431
0.119861
0.00628851
-0.126149
-0.95297
0.323165
0.629805
-0.109982
0.226135
0.295584
-0.234267
-0.0613168
0.0295079
0.0630323
-0.0925402
-0.408403
0.331847
0.076556
-0.00479921
-0.15176
0.195651
-0.0438911
-0.0457447
-0.907225
0.0476675
0.0216863
-0.0693538
0.0829252
0.665277
-0.748202
-0.0744887
0.163891
-0.0894025
0.193739
0.260661
-0.4544
0.890618
-0.807693
0.0739547
-0.0379054
1.27474
-0.871714
-0.403031
-0.295565
0.984547
-0.0461759
-0.0227417
0.239264
-0.129044
-0.43758
0.122443
-0.0285955
0.26786
-0.627872
0.133958
0.493914
-0.142724
0.0713953
-0.175619
0.179709
-0.00408992
-0.267355
-0.0845674
0.351922
0.0511393
0.650944
-0.702084
0.138733
-0.234925
0.0961924
-0.130035
-0.0999543
0.105756
-0.005802
0.480281
0.253744
-0.0967743
0.140155
-0.0433808
-0.140873
0.18854
-0.170849
0.196666
-0.0258167
0.163645
0.0736172
-0.237262
0.109068
-0.115126
0.00605802
0.674424
0.600321
-0.832881
-0.17466
-0.0230159
-0.815467
0.838483
0.56352
0.204
-0.76752
-0.452689
-0.1988
0.651489
-0.974643
0.679079
-0.237038
0.800558
-0.318574
-0.113104
0.431678
-0.208112
-0.200291
-0.191459
0.167366
0.0240928
0.137317
0.281606
-0.418923
-0.58047
0.732219
-0.111037
0.121495
-0.977397
0.954381
0.178633
0.116951
-0.171043
-0.113688
0.284731
-0.266325
0.351432
-0.0851067
-0.0791979
0.0883086
-0.00911063
-0.926257
-0.93885
-0.00687915
0.945729
-0.146115
0.071626
-1.28043
0.636191
0.644241
0.417041
-0.570578
0.153536
-0.969521
-0.0051218
1.08339
-0.975089
-0.689727
1.11602
-0.211338
1.03765
0.164739
-0.176018
0.0112793
1.1496
-0.667365
1.07049
-1.07049
-0.00561515
-0.00239577
0.00801091
-0.206823
-0.0554192
0.262242
0.121213
-0.15066
0.0294472
-0.417569
0.77888
-0.361311
-0.0172759
-0.227289
0.244565
-1.01986
0.0529129
0.333779
0.068359
-0.402138
0.120748
-0.82551
1.02951
0.089771
-0.111297
0.0215265
-0.0193117
-0.151537
-0.513048
0.471784
0.041264
-0.540919
0.0278702
0.0835212
-0.909031
0.30626
-0.723829
0.860261
-0.799371
-0.0454317
-0.176743
0.222174
0.0850331
0.0501332
-0.135166
-1.00324
-0.255387
1.25863
-0.237292
0.404835
-0.167543
0.862157
-0.33536
-0.526796
-0.491916
-0.788515
0.0324434
0.10629
-0.156668
0.150414
0.00625412
-0.0776889
-0.013872
0.0915609
-0.802922
0.0424183
-0.0106893
0.0127881
-0.0020988
-0.947717
-0.0209476
0.968664
0.934501
-0.283557
-0.0591287
0.0535136
0.0349377
0.143696
-0.195295
0.389034
0.0519603
-0.323442
0.271482
0.135586
0.0699001
-0.205486
-0.119741
-0.0753273
0.195069
-0.586813
-0.525582
-0.776307
-0.171409
0.0379439
0.0518271
-0.10058
0.180984
-0.0804043
0.0462983
0.023944
0.126547
-0.0541776
0.067822
-0.0136443
-0.0931452
-0.0205024
0.113648
0.0795043
-0.0795043
-0.187393
0.211337
-0.123877
-0.182965
0.103383
0.0932826
-1.07193
0.491461
-1.10473
-0.0900919
1.19482
0.184941
-0.178645
-0.00629606
-0.0277528
-0.0514609
0.0792137
0.493374
0.021917
-0.515291
-0.104157
0.0947888
0.00936852
-0.199771
0.0123781
0.128111
0.650769
-0.361448
0.489559
0.112726
-1.11597
-3.18213e-05
-0.046783
0.482171
-0.291123
-0.191048
0.0623105
-0.110857
0.0485463
0.0530065
-0.320361
0.0143417
-0.953191
0.0498006
-0.15038
-0.281025
-0.403141
0.0679642
1.4169
-1.01171
-0.405189
1.0755
0.341398
0.0729831
0.278939
0.150565
0.0343762
0.210576
-0.311877
0.101301
-0.234
-0.563344
0.797343
-0.35098
0.513863
0.651413
-1.02249
0.333484
0.0235667
0.163423
-0.18699
-0.869153
-0.0355715
0.904725
0.048143
-0.917296
-0.330946
0.664725
-0.923
-0.0149979
-0.00133529
-0.264383
0.265718
1.20575
-1.41835
0.2126
-0.0182552
0.0182234
0.533604
-0.767603
-0.0659221
0.292088
-0.226166
-0.298039
-0.111804
0.409843
0.357051
-0.929673
-0.0901824
-0.0942412
-0.0969512
-0.558281
0.35948
-0.249334
0.0212498
0.228084
-0.0292238
0.0109686
0.004276
-0.004276
-0.117571
0.129797
-0.0122263
0.0128357
-1.11756
-0.0160723
0.03786
-0.0217877
0.0103885
-0.00330703
-0.0070815
-0.22029
0.0288307
0.868597
-0.0582146
-0.810383
-0.183277
0.438122
-0.254846
0.158141
-0.151846
-0.0062947
0.54177
0.320387
-0.195053
-0.00286183
0.197915
-0.17036
0.307677
-0.100402
0.0987629
0.00163878
0.084793
0.0345404
-0.119333
0.0943091
-0.234321
0.140012
0.400294
-0.839711
0.439416
-0.22809
-0.0501481
0.278238
-0.690862
0.659772
0.0310905
-0.0285068
0.0347953
0.0467443
-0.057206
0.0104617
-0.159078
0.0329285
0.56011
0.374391
0.167827
-0.84828
0.680454
-0.0786853
1.04764
-0.968955
0.369067
0.225281
0.845211
0.0624662
0.204737
-0.0691506
-0.0707032
-0.0292511
0.229312
0.153918
-0.0688845
0.733129
-0.409965
0.0615795
0.200663
0.052314
-0.164849
0.112535
-0.873808
-0.0970007
0.970808
-0.00994735
0.00994735
-0.0237454
-0.295051
0.555713
0.00703166
-0.235122
-0.148762
-0.0328141
0.0529339
-0.01499
0.133634
-0.144032
-0.335106
0.31783
-0.331829
0.235035
0.0967942
0.417657
-0.405978
-0.719934
0.378226
0.341708
-0.207515
0.280498
0.196307
-0.48743
-0.296829
0.671635
0.164963
-0.0332064
0.0332064
0.121423
-0.221138
0.0997155
0.37463
0.0302052
-0.154328
0.143776
0.0105525
-0.0151051
-3.1765e-05
-0.0106575
-0.0495858
0.18322
-0.178635
0.243416
-0.0647806
0.128575
0.0253431
-0.380603
0.146335
0.186865
-0.0582904
-0.0449706
-0.0554311
-0.0321333
0.150074
-0.117941
0.14867
-0.105626
-0.0430439
-0.0153655
0.388694
-0.373328
-0.0800449
-0.0309919
0.103105
-0.107532
0.00442662
0.0261017
-0.426112
-0.293822
-0.063669
0.0189503
0.0447187
0.260079
-0.213139
-0.0469399
-0.0922275
0.0982183
-0.717393
0.619175
-0.0622482
-0.997313
-0.052505
1.04982
0.0198395
0.835113
-0.854953
0.0832514
0.319004
-0.394332
0.263793
0.26148
-0.525273
-0.201947
0.254261
0.199742
-0.88948
0.689738
0.140657
0.119421
-0.175738
0.0814969
-1.07441
0.431921
0.642491
1.01171
-0.928187
-1.36667
1.11128
-1.20575
1.11566
0.0424574
-0.0858382
-0.0203534
0.0670976
0.0893613
0.96371
-0.763968
0.119642
-0.0698415
0.419744
0.696275
-0.0252566
-0.976459
0.897774
-0.746246
-0.325685
-0.243957
-0.383915
-0.102787
-0.165371
0.218377
-0.654668
-0.366741
0.183465
0.782378
-0.289004
-0.784178
-0.582492
0.701431
-0.193693
0.334351
0.27058
0.0371174
-0.0371174
0.694077
0.130668
-0.824744
-0.220269
0.914346
0.632267
-0.939754
0.307488
-0.282414
0.0994489
-0.000156473
0.0187308
-0.0185743
-0.815467
-0.815043
0.531486
0.44946
0.419137
-0.0372885
-0.13833
-0.309588
0.789869
-0.196699
-0.0526347
-0.00274406
-0.0764539
-0.0548977
0.105031
0.37035
-0.236392
-0.633521
-0.281691
0.353439
0.00230077
-0.35574
-0.71366
0.938941
0.127743
-0.232414
0.10467
0.222579
-0.0720145
0.0156042
-0.0417064
0.0261023
0.0179349
0.413743
-0.0651784
0.127489
-0.0168099
0.124698
-0.107888
-0.0215321
-0.173521
-0.695246
0.350202
0.345045
0.548852
-0.92008
0.371229
0.140274
-0.163118
0.0228438
0.164818
-0.132375
-0.163383
-0.907109
8.74886e-05
0.0155167
0.011449
0.0948407
0.156625
-0.351919
-1.0967
0.688273
0.408427
0.0974679
0.0931065
0.0555633
-0.873808
-0.424337
0.824631
0.00110946
-0.0428159
0.0467163
-0.618497
-0.072365
0.0592061
0.127659
-0.297941
0.0363308
-0.455254
0.12279
0.356213
-0.287853
-0.113088
0.0199425
0.197114
0.810728
-1.00784
0.120506
-0.844794
0.724288
-0.884801
0.787801
-0.829262
-0.0297042
0.858966
-0.123135
0.120918
0.00221719
0.166804
-0.464843
0.251231
-0.150974
-0.100257
-0.169167
-0.0439722
0.077284
0.276155
-0.00567135
-0.0155876
-0.14349
0.0219911
0.0801217
-0.102113
0.652106
0.097005
-0.0952458
-0.0017592
0.1103
-0.141292
0.838654
0.0276508
-0.00942743
-0.270732
-0.544311
-0.21754
-0.0648737
0.00672387
0.0863826
-0.858966
0.907109
-0.231337
0.212488
0.0188484
-0.251401
0.075383
0.123744
-0.112464
-0.00116702
0.0894756
-0.0591636
-0.70754
-0.38916
-0.0441286
0.0661197
0.734878
-0.264024
0.0469276
-0.0365391
0.320544
-0.0690924
-0.0852359
-0.00905277
0.0885571
0.146507
0.204925
0.162164
-0.329812
0.167648
0.143143
0.507625
-0.0396348
-0.103089
0.798428
-0.122575
-0.675854
-0.829262
-0.126912
0.675764
0.890618
-0.622037
0.544418
0.0776192
0.491577
-0.101413
-0.390164
-0.237955
-0.731566
-0.0751545
0.0761873
-0.0010328
0.0758108
0.318371
-0.394182
-0.0540708
-0.609921
0.663992
0.0211046
0.758424
-0.779529
-0.0459659
-0.110703
-0.0411316
-0.0225374
-0.273872
0.395295
-0.0890345
-0.0341009
-0.198531
0.0828074
0.115723
0.0321543
0.178422
0.0455012
0.177078
0.364323
-0.541065
-0.0546323
-0.00257367
0.186838
-0.414127
0.053101
0.782012
0.0108625
-0.000915132
-0.923708
-0.00596474
-0.234593
-0.0701781
-0.0429096
0.0718634
-0.137786
-0.493381
0.652037
-0.158656
-0.512547
0.295007
-0.944441
-0.0306478
-0.168406
-0.654467
0.752685
-0.0171646
0.182127
-0.416772
-0.522983
0.192764
-0.44525
0.252486
0.217879
-0.541322
0.103429
-0.100371
-0.00305835
-0.0437414
0.13805
-0.0201084
-0.131429
0.759362
-0.638856
0.0782898
0.0809815
0.159898
0.315452
-0.153289
-0.130035
0.651868
0.0179228
-0.66979
-0.121828
0.143078
-0.485928
-0.209318
-0.583219
0.695653
-0.666881
-0.0287724
-0.0108285
0.0891183
-0.976459
0.696574
-0.696574
-1.04721
1.04721
0.96371
0.765129
-0.39665
-0.368479
-0.815667
-0.108041
0.651113
-0.351255
-0.299859
0.153998
-0.234402
-0.0248674
-0.0342613
-0.845908
-0.0631225
-0.925468
0.208075
-0.140777
0.143078
0.690718
-0.112667
-0.578051
0.759492
0.131126
0.0296186
0.0738106
-0.985684
-0.316677
0.694903
-0.154107
-0.543676
0.697783
-0.00570311
-0.847106
-0.571242
0.242107
-0.828919
-0.970808
1.33358
-0.362776
-0.154654
0.286881
-0.132228
-0.0424921
0.73321
-0.0981876
-0.935079
0.935079
-1.05107
0.463246
0.587827
0.0363438
0.0606612
-0.0611387
-0.425934
0.917888
-0.281697
-0.0848263
-0.0343734
-0.00764022
0.0704521
0.0876885
0.864195
-0.8939
-0.398916
0.483709
-0.624321
0.974435
-0.350114
-0.0199336
0.0200211
0.125009
-0.0551088
0.398506
0.023674
-0.0300762
0.349658
0.039036
0.0464179
-0.252339
0.205921
0.143464
0.0362444
0.0972561
0.186692
0.851864
0.102517
-0.310584
0.800526
-0.489942
-0.858293
0.822722
0.615809
-0.347949
0.089095
-0.772124
0.683029
0.454545
0.132072
-0.467178
-0.0734121
0.130438
-0.0570255
0.125243
-0.198655
-0.453617
-0.104664
-0.0717193
0.075069
-0.00334966
-0.0256772
-0.0289551
0.558494
-0.369954
0.763968
-0.724288
-0.0396798
-0.296874
0.303905
0.831833
0.839865
-0.348288
-0.000105086
0.0379651
0.227052
0.0650355
0.112941
-0.531795
0.418854
-0.0844722
-0.0158986
0.364112
0.125371
-0.489483
0.0141273
-0.0179047
0.00377741
-0.0238259
0.0122232
0.0116026
-1.00486
0.337497
-0.172429
-0.824884
-0.192137
-0.928187
1.11566
1.11128
-0.193047
-0.179787
0.129639
-0.0628427
0.0686504
-0.00580767
-0.304321
0.762065
-0.457744
0.519499
0.131615
0.0211037
-0.105576
0.123358
-0.0880344
0.0343734
-0.0490483
0.00491969
0.349592
-0.122539
-0.0123251
0.065259
-0.326578
0.744235
1.0755
0.0451323
-0.0607445
0.000877636
0.0598668
1.21964
-0.108356
-0.0610435
-0.0540826
-1.11137
0.183186
0.715926
-0.358875
-0.464574
-0.106245
0.570819
0.768869
-0.338111
-0.430758
-0.0412318
-0.452149
-0.897774
0.0823068
-0.0100452
-0.199179
0.209224
0.203689
0.843951
-0.203394
0.203238
-0.0260694
1.3807
-0.265039
-0.654176
0.0511788
0.602997
0.369673
0.0632761
-0.344272
0.47279
0.745677
-0.0762812
0.0770856
-0.0215222
-0.769916
-0.00560365
0.77552
0.653149
0.169732
-0.186542
-0.0426579
-0.358469
0.105013
-0.30696
0.509227
0.142641
0.0915022
-0.102331
-0.1111
-0.510937
-0.0433902
0.0148834
0.115045
-0.15618
0.0411345
-0.298094
0.308333
-0.010239
0.509114
-0.491191
-0.958647
0.0386896
0.919958
-0.0967787
0.112746
-0.0159674
0.271531
0.043921
0.350595
-0.774932
-0.80626
0.80626
0.838483
0.759492
-0.844794
0.267264
0.478412
0.226484
-0.126769
0.944437
-0.424939
0.0312306
-0.839358
0.808128
0.127204
0.0050807
0.0445944
-0.482158
0.832753
-0.0729512
-0.178357
-0.113787
0.292144
0.0092206
-0.50562
0.327263
-0.858878
-0.289189
-0.77503
0.00431457
-0.0812127
-0.0140331
-0.224799
0.227808
-0.583548
0.0310819
-0.14283
0.111749
-0.61237
-0.438703
-0.0056715
0.0687038
-0.988918
0.436231
0.552686
-0.560509
0.369461
-0.433974
0.669009
0.221776
-0.0353507
-0.140387
-0.684567
0.626353
0.0335009
0.069604
0.103372
0.0565253
0.236543
0.0146873
-0.414799
0.741342
0.404236
0.318368
0.880875
-0.79178
0.770988
-0.450444
-0.581369
0.155434
0.159728
-0.758691
0.730323
0.0283679
0.709984
-0.200757
-0.25763
-0.141287
-0.0262861
-0.124374
0.987589
-0.869532
-0.118057
-0.177768
0.108884
0.0264261
0.123988
0.897407
0.828339
-0.665502
-0.162836
-0.324481
-0.04226
-0.544782
-0.444136
0.352412
0.906215
0.896828
-0.137336
0.202303
0.528823
-0.731126
-0.0136775
0.0506475
-0.127234
0.0918835
-0.495671
-0.0856976
-0.0366875
0.00746372
-0.184611
0.135025
-0.513693
0.258848
-0.992393
-0.700971
-0.297195
-0.808445
1.01667
0.178146
-0.267792
0.21218
0.137411
0.272123
0.294514
0.0551441
0.762778
-0.816849
-0.185262
0.126971
0.193931
0.14088
-0.334811
-0.115984
0.105939
0.0483304
-0.0655567
-0.232537
-0.115134
0.683833
-0.40555
-0.278283
-0.0759605
0.131875
-0.0955336
-0.0363411
0.234471
0.0600423
0.0328148
-0.887768
-0.0962311
0.142947
0.81828
0.0100591
-0.559198
0.512258
-0.0215451
0.0189026
0.00264259
-0.0689698
-0.109675
-0.237787
0.0729376
-0.0160161
-0.55861
0.403957
0.0296566
-0.0252337
-0.071545
-0.676011
0.821863
-0.679222
0.0180164
-0.192198
0.174181
-0.136463
-0.492724
0.629187
0.0673103
-0.685807
-0.837572
-0.121075
-0.0288346
0.00445747
0.0243771
-0.273935
-0.695653
-0.178154
-0.131717
-0.769916
-0.231621
0.162471
-0.336859
-0.904961
0.230866
-0.186447
-0.0444188
0.260843
0.110531
0.0135705
0.750015
-0.763586
0.410229
-0.603923
0.790586
-0.094294
-0.696292
-0.22257
-0.0763157
0.899038
-0.2428
0.178019
-0.82071
0.744395
0.574653
-0.102868
-0.0334385
0.1228
-0.127145
0.847316
-0.528948
0.662723
0.106146
-0.914761
0.207221
0.334903
0.609535
0.923949
-0.125521
-0.00969852
-0.896828
-0.77503
-0.701743
0.694864
0.0781387
-0.784178
0.758424
0.622899
-0.977574
0.667617
0.0101245
-0.768815
-0.313178
0.61998
-0.757547
0.137567
0.0802743
0.0516004
0.396962
0.005314
0.993601
-0.998915
-0.00841998
-0.0727927
-0.264716
0.212081
0.68729
0.218862
-0.206484
-0.18884
0.854312
-0.875259
-0.454331
0.0858523
0.597397
0.436907
-1.0343
-0.797297
0.791694
0.967278
-0.531047
0.290429
0.780834
-0.77552
0.0198682
0.217706
-0.0723725
-0.45131
0.216717
-0.00370786
-0.19032
0.194028
-0.991563
-0.0162787
0.32758
-0.749456
-0.447548
1.11601
-0.668459
0.369734
0.604701
-0.048123
0.0513362
-0.00321321
-0.0318364
0.886148
-0.706368
0.905567
0.517107
-0.964655
0.312776
-0.0950696
-0.57389
-0.418503
-0.405055
1.00245
-0.0372805
-0.829234
-1.06742
0.098461
0.780834
0.0490239
-0.79848
0.815257
-0.661692
-0.153565
-0.97044
0.39655
0.115953
0.129777
0.0029988
-0.132776
-0.979018
0.560515
-0.206834
0.888784
-0.919432
0.191488
-0.21302
-0.0938573
0.250482
0.989594
0.25224
0.1573
-0.80788
0.138089
0.832912
-0.909193
-0.557103
-0.525558
1.08266
0.442897
0.0222771
-0.00354635
-0.795808
0.779529
0.779305
-0.811141
-0.845211
0.792847
0.0523636
0.612393
0.503615
0.866006
-0.870805
-0.498367
-0.454824
-0.475016
-0.504002
0.798199
-0.798199
0.746784
-0.746784
-0.795808
-0.787726
0.787726
-0.792847
-0.504088
-0.370149
-0.411038
-0.894979
0.894979
0.779305
-0.811141
0.866006
0.817892
-0.817892
0.870805
0.779263
-0.779263
0.501633
0.524984
0.474442
-0.115674
-0.495998
-0.545176
1.07016
-0.514335
-1.02101
0.615959
0.508962
0.458316
0.0303075
0.00154421
0.0261066
-0.871465
0.0908774
0.780588
-0.0295054
-0.0732811
-0.975672
0.565707
0.910127
-0.642862
-0.127027
0.114622
-0.0184409
-0.770847
-0.0774334
-0.642491
-0.114097
0.195594
0.0122015
0.0412582
-0.0840742
0.204458
-0.0968958
0.0430603
0.0538355
-0.795049
0.102151
0.692898
0.453708
0.535886
-0.521318
0.411933
0.109385
0.89787
-0.732276
-0.165593
0.0985116
0.290522
-0.0128033
-0.0589161
-0.0606697
-0.0144848
0.230428
-0.944088
-0.802685
0.101499
-0.74831
0.79398
-0.0456697
0.107134
-0.884789
0.777655
-0.80334
0.902977
-0.0996371
-0.19024
0.12127
0.0242546
-0.288637
0.533475
0.468976
-0.071482
-0.799983
0.921396
-0.0767905
-0.844606
-0.0569481
0.0370145
0.96267
0.826388
-0.637742
0.507238
-0.375623
0.0886475
-0.888631
0.807693
0.239517
-0.758664
-0.0101506
0.990486
-0.883353
0.843873
0.96006
-0.514614
-0.445446
-0.872025
-0.103647
-0.409075
0.0357465
0.320488
-0.479144
-0.823857
0.823857
-0.612086
-0.0882776
-0.860478
0.128202
-0.946099
0.791992
0.063884
-0.214858
-0.0579497
0.0572364
0.0105856
0.162674
0.827813
0.814699
0.760429
0.139141
-0.89957
-0.482015
0.940331
-0.781033
-0.109433
0.890466
0.179219
-0.885587
-0.697804
0.878486
-0.789838
-0.104733
0.452051
-0.0234878
-0.428563
-0.317863
0.874127
-0.556264
0.0285023
-0.425116
0.396614
-0.885765
-0.834121
0.0858103
0.489463
0.281525
-0.861085
0.529453
-0.720045
0.720045
-0.710273
-0.0976066
0.355973
0.47678
-0.838744
0.877434
0.769052
-0.195286
0.876297
-0.5388
0.524607
-0.913233
0.388626
-0.267772
-0.652308
-0.148224
0.478045
0.379182
0.445449
-0.176303
0.322659
-0.224148
0.785914
-0.885551
0.561068
0.379263
-0.156212
0.721919
0.728827
-0.728827
-0.212421
0.140406
0.108844
-0.0777616
0.510155
0.363972
-0.246315
0.0593406
0.0246253
-0.083966
-0.654582
0.685897
-0.0313143
0.420746
-0.93536
0.0998519
-0.88969
-0.677055
0.663179
0.0138757
-0.223502
0.85993
-0.625643
1.04639
-0.750549
0.585634
-0.657999
-0.634919
0.148991
-0.410753
0.037926
0.514857
-0.92552
0.514768
0.00878221
-0.976492
0.0623578
0.731622
0.673815
-0.0881812
0.0659831
0.772671
-0.451701
1.00651
-0.554806
0.406111
0.463291
-0.467344
-0.888855
0.655806
0.233048
-0.692282
-0.136638
0.980352
0.277705
0.11759
-0.0535328
0.482571
0.517429
-0.755226
-0.130325
-0.48046
-0.540518
-0.466017
-0.557293
0.421367
0.578633
-0.0512468
-0.0900454
-0.832016
-0.0782659
-0.579733
-0.187499
-0.230604
0.418103
-0.0592878
0.000124229
0.110835
0.0723855
-0.124197
-0.11359
0.756283
-0.633338
0.699321
-0.400716
-0.524805
0.852416
-0.349495
-0.502921
-0.667979
-0.217558
0.885537
-0.244803
0.227643
-0.02698
-0.000399254
0.0113679
0.0613503
0.856345
-0.136301
0.116546
0.105229
-0.728486
0.0739032
0.885426
-0.461725
0.72409
-0.382381
0.855962
-0.270909
0.967184
0.0140062
-0.113483
0.0874138
-0.11747
-0.0380023
0.193573
0.376925
0.508501
-0.448717
0.820151
-0.371434
0.842093
-0.104625
-0.0953927
0.200018
0.128851
-0.096779
0.00774443
0.231184
-0.116139
0.146194
-0.984938
-0.828387
0.37967
-0.0166052
0.281952
0.470656
-0.927147
0.792048
0.135099
-0.766738
0.838536
-0.0717978
-0.382938
0.182763
0.39189
-0.0724885
0.887079
-0.450961
-0.0703567
0.299205
0.439819
0.152829
-0.592648
0.38536
0.0353151
0.650582
-0.546043
0.542462
0.00358046
0.817814
-0.545691
-0.115377
0.108323
0.00705375
0.685882
-0.0109197
-0.0803642
0.0202083
0.662627
-0.814143
0.431205
0.09964
0.0743726
0.0383735
-0.0450136
0.0200808
0.0249328
0.133349
-0.137057
0.66016
-0.754454
-0.173319
0.216723
-0.0265406
-0.0828103
0.22189
0.10154
-0.00546418
-0.0912426
0.748239
-0.394159
0.790115
-0.395957
0.900288
-0.423278
-0.47701
0.620978
0.1509
-0.0201407
0.00288026
0.0172605
0.418585
-0.354238
-0.558995
-0.0126506
0.714081
0.689236
0.288866
-0.371923
0.768886
0.800197
-0.349557
0.219522
-0.845557
0.0174287
-0.261207
0.352166
-0.189543
0.685594
0.0626455
0.0132192
0.676271
-0.493508
0.108327
0.159771
0.0263744
-0.112845
0.428194
-0.0569523
-0.374727
-0.0686254
0.10981
0.653301
0.246987
-0.152234
0.405539
-0.0433214
-0.109159
0.0862265
0.00932345
-0.0955499
-0.811117
0.265426
0.00313684
0.751632
-0.23504
-0.60009
0.620329
-0.0202382
0.174108
0.759497
-0.871296
0.368375
0.0857675
-0.179625
0.632892
0.126605
0.679202
0.259739
-0.248271
0.755509
-0.364336
0.872837
-0.584427
0.347595
0.236831
-0.491626
-0.0660199
0.0453759
0.0662498
-0.0467009
0.852569
0.722064
0.0781327
0.612741
0.184602
-0.845839
-0.0763778
-0.656216
0.646066
-0.0263227
-0.588306
0.400807
0.859631
0.668207
-0.0916641
-0.0619441
-0.160041
-0.307137
0.558877
0.262986
-0.794712
0.0688371
0.510668
0.36217
0.658681
0.309984
-0.0766353
0.879043
-0.683355
0.853637
-0.170282
-0.383348
-0.201078
-0.0668303
0.122298
0.0745776
0.613892
0.13878
-0.0140822
0.60809
0.302808
-0.68519
0.589941
-0.12726
0.222854
0.618784
0.32092
-0.939704
0.265614
-0.927306
0.01698
-0.696202
-0.161421
0.738591
-0.57717
-0.647643
-0.00853751
0.00813825
-0.0571722
-0.875698
0.0207765
-0.0423216
0.834294
-0.0347903
0.0958842
-0.0610939
-0.0906441
-0.654668
-0.0121373
-0.101346
-0.824037
-0.0890756
-0.00782025
-0.363506
-0.05744
-0.565436
0.0193932
0.548732
0.310899
0.491705
0.558113
-0.249453
-0.37728
0.626733
-0.27965
-0.644633
0.644633
-0.0471536
-0.930455
0.977608
0.031693
-0.153521
0.65704
-0.108308
-0.233246
0.467239
-0.34965
0.507285
0.508919
-0.374144
0.172298
-0.104334
-0.728045
0.474606
0.0678565
0.0596554
0.0142993
-0.789644
-0.657059
-0.269228
0.716949
0.283051
-0.657059
0.716949
-0.661616
-0.263897
-0.661616
-0.706213
0.706213
0.293787
-0.0143419
-0.13284
-0.080329
0.245855
-0.032926
-0.505901
0.632595
-0.0426534
0.632802
-0.495619
-0.137183
-0.0550164
0.0543882
0.000628195
-0.0675751
0.126916
0.426609
0.0191359
-0.0156898
-0.432563
-0.347991
0.123192
0.0431047
0.809138
-0.280315
0.416448
-0.279037
-0.0132419
0.106877
-0.00175675
0.639276
0.0748053
-0.573472
-0.129611
0.0217228
-0.109259
0.101123
0.543253
-0.47289
-0.0703629
0.928262
0.544414
-0.812728
0.859197
0.0116165
-0.0630774
0.105886
-0.121534
-0.0275489
1.06793
-0.449144
0.0141098
-0.00979525
0.537616
-0.460562
0.0210753
-0.0210753
0.0212188
-0.0212188
-0.0129721
0.0129721
0.0108625
0.368417
0.443636
-0.0375499
-0.7193
0.430296
0.195867
0.0353173
-0.0866971
-0.471884
0.552892
0.105582
-0.797863
-0.748123
0.225141
-0.118193
0.0234176
-0.0111944
-0.0116332
0.0116332
0.455286
-0.0160907
0.0160907
0.691175
0.0919338
-0.122624
-0.0069875
0.00667693
-0.0674214
-0.0216423
0.0216423
-0.0198492
0.0198492
-0.022797
0.022797
-0.0182231
0.0182231
-0.0135226
-0.287949
-0.0811519
0.216541
-0.0241473
0.0241473
-0.342175
0.491718
-0.149543
0.501424
-0.214543
0.288284
0.128165
0.547994
0.125725
0.072464
0.547865
0.562363
-0.0419987
0.0419987
-0.181582
0.025636
-0.025636
-0.032506
0.032506
0.71174
-0.797053
-0.00451455
0.574787
-0.449416
0.0546864
-0.0546864
0.0177257
-0.0177257
0.0180938
-0.0180938
0.022285
-0.022285
-0.0237709
0.0237709
0.0345813
-0.0345813
0.477637
-0.0313131
0.0313131
-0.0624308
0.0624308
0.0239015
-0.0239015
-0.0316384
0.0316384
0.0326302
-0.0326302
0.0115433
-0.0266688
0.0266688
0.373732
0.124528
-0.039008
0.039008
0.0211767
-0.0211767
0.0108547
-0.0108547
0.0329518
-0.0329518
0.0255964
-0.0255964
0.045363
-0.045363
-0.0471034
0.0471034
-0.42387
0.285657
-0.0237503
0.0237503
-0.064648
0.064648
-0.0379088
0.0379088
-0.0281498
0.0281498
0.0484784
-0.0484784
-0.379589
0.714492
0.325681
-0.0321068
0.0321068
-0.0394196
-0.0147827
0.0147827
-0.0618005
0.0618005
0.0374386
-0.0374386
0.285244
-0.0657229
0.0437722
-0.0437722
-0.0220069
0.0220069
-0.449035
0.043806
-0.717642
-0.0313806
0.0313806
-0.427833
0.0326479
0.0186883
-0.301094
-0.613667
-0.0375852
0.0375852
-0.196557
0.139604
-0.0432599
-0.0555058
0.0555058
0.00201551
0.0484056
0.265286
-0.291282
-0.268656
0.559938
0.184581
-0.0381626
0.0381626
-0.402719
0.342865
0.0598546
0.722493
-0.389528
-0.332965
-0.444166
-0.605222
0.0647066
-0.343744
0.190861
0.215251
-0.558007
-0.0911505
0.190698
-0.948155
0.0162991
-0.0162991
-0.0376184
0.0376184
0.0312934
-0.0312934
0.026616
-0.026616
-0.0350755
0.0350755
-0.0217197
0.0217197
-0.629627
0.0590494
0.167515
-0.294543
0.0423212
-0.0423212
-0.0457518
0.0457518
-0.0415439
0.0415439
-0.0926776
0.0165169
0.0761606
0.00575304
0.282663
-0.517704
-0.0467147
0.0467147
-0.0083981
0.0083981
-0.0870545
-0.349414
0.41412
-0.0186614
0.0186614
0.0499662
0.0666067
0.797859
-0.462921
-0.0744139
0.537335
-0.610073
-0.120456
0.440944
-0.0395936
0.0395936
-0.662543
0.281515
0.0522196
-0.0522196
-0.651198
0.351339
0.259517
0.102591
-0.029853
0.029853
-0.835669
-0.0158199
0.0158199
0.335305
0.397906
0.166305
-0.0568561
0.0568561
-0.00850598
0.00850598
-0.0438895
0.0438895
-0.0554376
0.0554376
-0.0140607
0.0140607
-0.0616917
0.0616917
-0.00891886
0.00891886
-0.0475692
0.0475692
-0.122517
-0.0473498
0.0473498
-0.00113002
0.00113002
0.0504599
-0.0504599
-0.00401076
0.00401076
0.0481382
-0.0481382
0.271567
-0.00012496
0.00012496
0.000681544
-0.000681544
-0.159357
0.0885571
-0.00309587
0.00309587
-0.00109642
0.00109642
-0.063645
0.063645
0.31552
-0.0146985
0.0146985
-0.0620164
0.0620164
-0.00592719
0.00592719
-0.0728745
0.0728745
-0.0155755
0.0155755
-0.0883241
0.0883241
-0.024723
0.024723
-0.103151
0.103151
-0.653694
-0.278708
-0.50678
0.486542
-0.847106
-0.202745
-0.565548
0.376005
0.379516
-0.455476
-0.00385736
0.00385736
-0.114584
-0.680811
0.0449645
-0.0306652
-0.552926
0.684052
0.585985
0.270821
-0.0147248
0.162967
-0.396972
-0.549976
-0.00877285
0.360913
-0.711922
-0.0203829
0.0203829
-0.731972
0.0195307
-0.0195307
-0.0484853
0.0484853
0.37592
-0.0270245
0.00352579
-0.00352579
0.0189194
0.0142869
0.578982
-0.452518
-0.162968
-0.0377551
0.0280565
-0.10151
0.484211
-0.382701
0.510572
-0.658796
-0.00157745
0.805924
0.141468
0.0549018
-0.408231
0.443977
-0.482644
-0.798878
-0.317088
-0.0724644
0.0175667
-0.468526
0.04341
0.0118729
-0.00408379
0.0733539
0.764041
-0.529863
-0.0365694
0.0629438
-0.0342399
-0.471722
0.338882
0.413038
0.246733
-0.18435
0.23157
0.0672722
-0.0327318
-0.53517
-0.0143008
0.0121102
0.083774
-0.0184291
-0.731222
-0.0695854
0.260069
-0.350423
0.389459
-0.0940019
-0.714443
0.000746505
0.0310283
0.00598624
-0.351703
0.461088
-0.00488747
0.0142511
-0.00936358
-0.0272511
0.0272511
0.121177
-0.469466
0.00152011
-0.00482714
-0.0813565
0.0550338
-0.0623171
-0.00605169
0.0683687
-0.154061
-0.160431
-0.0183049
-0.0116063
-0.300402
-0.322465
0.622867
0.0157923
0.0603951
0.14464
-0.0280936
0.0677023
0.0580459
-0.154092
0.31382
0.158576
0.041442
-0.0259967
0.170637
0.00709923
0.258619
0.0504308
-0.0504308
-0.158103
0.816784
0.0898239
-0.166202
-0.0113034
0.00560033
0.436202
0.610187
0.00606806
-0.0103441
-0.519907
0.0131265
-0.407386
0.0935543
-0.66686
0.241921
-0.0669721
0.337185
-0.637587
0.151944
0.503863
-0.100966
0.100966
0.0029988
-0.914247
0.455937
0.45831
-0.210334
0.153162
-0.00714144
0.125662
-0.616853
0.0624489
-0.0660262
0.0456728
0.928932
0.570808
-0.662472
-0.0707297
-0.378081
-0.586573
-0.113688
-0.33513
0.80792
0.55571
-0.273047
-0.532647
0.814599
0.382851
0.161567
-0.258856
0.133828
-0.460559
0.311017
0.138468
-0.138468
-0.0261408
0.00889404
0.0172467
-0.000770763
0.102048
0.0189026
0.181687
0.236899
0.223035
-0.186113
-0.0369221
0.532176
-1.02039
0.0489345
-0.593246
0.671812
-0.113767
-0.180775
-0.0400236
-0.07511
-0.480359
0.0477963
-0.286988
-0.00213242
-0.0184291
0.386543
-0.00544997
-0.0021174
-0.00592418
0.0170982
0.0186139
-0.0357122
-0.0946424
-0.0263341
-0.174957
0.201291
-0.117884
-0.342675
0.0189194
0.328017
-0.00181062
-0.371011
0.0738164
0.00283903
-0.0886673
0.0511175
-0.0128569
0.0128569
-0.000931565
-0.00212347
-0.00928884
-0.00835866
0.00294761
0.000642643
-0.000973985
-0.164099
0.026313
-0.0011613
0.0011613
0.0245696
0.502117
-0.00390116
-0.318493
0.890096
1.14058
-0.469587
0.301082
-0.434848
0.0445769
-0.0430568
0.218998
-0.222926
-0.00233004
0.0736014
-0.0122511
0.0183895
-0.196088
-0.409135
0.839432
-0.0345478
-0.595079
-0.102474
-0.0016295
0.394103
-0.617605
-0.00294297
0.0156153
0.0579861
-0.257087
0.00109912
-0.0002781
0.685786
-0.627741
-0.247819
-0.321251
0.375337
0.00284752
-0.00333125
-0.0432599
-0.00578423
0.811216
-0.430426
0.498282
-0.809746
0.861684
-0.82119
0.576697
-0.200693
0.676965
-0.00652422
0.0100244
0.0133931
-0.0935458
0.137152
-0.0198687
0.00569225
-0.0598726
0.0655642
-0.051765
-0.0137993
-0.00560956
0.00474373
0.00988552
-0.0146292
-0.119357
0.03197
-0.00734468
-0.00229133
0.49498
-0.417299
-0.00245663
0.00176375
0.789535
-0.333597
0.391568
-0.00629185
0.0178875
0.478533
-0.651852
-0.0403061
-0.116816
-0.0177403
-0.00395868
0.117556
-0.000767198
-0.00154455
0.392348
-0.00138186
-0.0297477
0.0297477
-0.0724495
0.0346944
0.00724572
-0.310865
-0.0034802
0.0729218
-0.0919857
0.233363
0.130667
-0.0623137
0.00439347
-0.000806503
0.426779
0.00522249
0.0253353
-0.0921656
-0.00234559
0.00195243
-0.665508
0.419193
-0.719231
0.40163
-0.810766
-0.306004
0.0101554
-0.734097
0.30194
-0.478242
0.504301
-0.0158441
-0.0341628
-0.00463651
-0.00175964
-0.535938
-0.00367973
0.00514182
-0.0154956
1.06647
-0.68111
-0.00289068
0.0049081
-0.00678891
0.0038858
0.0952565
-0.0224783
0.0224783
-0.0334887
0.0313653
-0.00702361
-0.00922949
0.0182599
-0.0203773
-0.159284
0.0932641
-0.00964833
-0.0154496
0.0407439
-0.0174306
0.0623963
-0.0448295
-0.610371
0.564701
0.0605734
-0.00276094
0.620054
-0.510244
-0.0679827
-0.649728
-0.0742635
-0.114745
-0.0960898
0.0937442
0.675208
-0.00194556
0.0840216
-0.0873529
-0.154936
0.0579431
-0.141044
0.0831008
-0.0673502
-0.609365
0.815597
-0.506282
0.0196769
0.0124299
0.109667