/*--------------------------------*- C++ -*----------------------------------*\
| =========                 |                                                 |
| \\      /  F ield         | OpenFOAM: The Open Source CFD Toolbox           |
|  \\    /   O peration     | Version:  2306                                  |
|   \\  /    A nd           | Website:  www.openfoam.com                      |
|    \\/     M anipulation  |                                                 |
\*---------------------------------------------------------------------------*/
FoamFile
{
    version     2.0;
    format      ascii;
    arch        "LSB;label=32;scalar=64";
    class       volVectorField;
    location    "22.2";
    object      U;
}
// * * * * * * * * * * * * * * * * * * * * * * * * * * * * * * * * * * * * * //

dimensions      [0 1 -1 0 0 0 0];

internalField   nonuniform List<vector> 
2186
(
(1.31011 -0.0699503 2.55314e-19)
(1.57768 -0.928103 4.0194e-22)
(1.43027 -0.904685 8.74513e-21)
(0.728801 -0.569597 -1.63617e-19)
(-0.316049 0.347211 -1.73399e-19)
(1.56261 -0.541471 0)
(0.70806 -0.654281 0)
(-0.17369 -0.238405 7.02753e-20)
(1.33553 -0.28573 9.35198e-20)
(0.542398 -0.293325 -2.07734e-21)
(0.69635 0.628966 0)
(0.750569 -0.268568 -7.39755e-20)
(-0.215435 -0.267623 -2.90858e-20)
(1.20202 0.0243852 -4.01749e-19)
(1.75897 -0.686668 -1.07558e-20)
(1.01487 -0.00277417 1.87365e-19)
(0.980752 0.0127145 0)
(-0.507997 -0.225184 0)
(1.54935 -0.348513 0)
(-0.0878057 0.256657 -7.11186e-20)
(0.488699 0.119208 -1.19497e-19)
(-0.149679 0.187869 9.77415e-20)
(1.18994 0.0287888 3.3094e-19)
(-0.191887 0.00512775 5.02785e-21)
(1.03102 0.00862319 -2.60581e-19)
(0.7799 -0.54706 0)
(0.761177 -0.0155412 1.55058e-19)
(0.598916 -0.578675 -1.94472e-19)
(1.23354 0.72792 0)
(0.962025 0.0236986 -3.55366e-19)
(-0.0433803 0.0878671 0)
(1.02262 -0.010125 1.23159e-20)
(-0.113736 0.153696 0)
(2.75372 0.023934 2.51187e-19)
(-0.130488 -0.14717 2.88873e-21)
(1.57006 0.785024 7.06603e-20)
(2.0783 0.119602 1.48952e-19)
(0.517381 0.166774 -3.55446e-19)
(1.95969 0.169618 -2.93051e-19)
(1.20266 -0.318374 -3.90567e-21)
(-0.261315 -0.306816 0)
(-0.0866256 0.163794 0)
(1.82602 -0.873527 4.9426e-20)
(-0.410038 0.19166 0)
(1.12401 0.289461 1.59497e-19)
(0.588745 -0.276112 3.02708e-19)
(0.90066 -0.769072 0)
(1.16938 -0.780867 1.40488e-19)
(2.25313 0.0364696 0)
(-0.179998 0.301745 1.76027e-19)
(-0.0326368 0.141139 1.05108e-19)
(0.648258 0.598205 8.17472e-20)
(2.0204 -0.769446 3.89954e-20)
(0.604992 0.293804 -2.85084e-19)
(-0.282284 -0.0708854 3.80612e-20)
(0.751336 -0.639487 0)
(1.61169 -0.948664 1.68927e-20)
(0.569397 -0.530192 0)
(2.26433 0.178855 8.26016e-20)
(1.12665 -0.163352 -4.12764e-19)
(1.98093 -0.114627 1.51114e-19)
(1.37613 0.312764 -1.83978e-19)
(1.36481 0.548781 0)
(0.979601 -0.330199 4.27744e-21)
(1.37975 0.39811 -1.111e-19)
(1.23296 -0.724003 -2.03172e-19)
(1.19103 0.675567 5.36635e-20)
(0.680872 0.0874061 -5.84696e-19)
(0.823694 0.0696132 0)
(1.92139 -0.295949 -3.49422e-20)
(-0.196876 -0.287285 -7.97913e-20)
(2.27616 0.060223 -1.67821e-19)
(0.724302 -0.0225193 -2.5903e-19)
(0.86508 -0.508438 0)
(0.833948 0.195207 -9.48896e-20)
(0.536409 -0.496701 -3.26692e-19)
(2.39619 -0.00243739 0)
(1.00671 0.009928 3.8749e-19)
(-0.122378 -0.203024 0)
(2.07777 0.318714 0)
(0.567862 -0.0775687 7.30992e-20)
(0.989604 -0.353378 1.09071e-20)
(1.02431 0.00688581 4.32895e-20)
(1.34438 0.424456 2.80747e-20)
(0.967142 0.0241473 4.54542e-19)
(1.0373 0.0296097 -1.07596e-20)
(0.675155 0.19403 -3.46338e-19)
(1.48346 -0.400213 2.57594e-21)
(1.24875 -0.289643 0)
(-0.0662262 -0.0348765 5.37223e-20)
(0.850238 -0.612967 -1.87069e-19)
(-0.0975776 0.28428 -3.15126e-22)
(1.1052 -0.0713978 2.73216e-19)
(0.812397 -0.170866 0)
(0.972654 0.0228615 4.32621e-20)
(1.39043 0.654829 0)
(1.59192 -0.943978 0)
(1.32429 0.229198 0)
(-0.267641 0.333376 0)
(0.779788 -0.654218 3.2752e-19)
(-0.386795 0.198387 -1.79335e-19)
(0.288478 -0.0794962 1.14323e-19)
(1.58429 0.194665 0)
(1.14079 -0.10057 -2.49768e-19)
(1.12025 0.0238768 1.91814e-19)
(-0.0280248 0.294894 1.27197e-19)
(0.65463 0.523954 0)
(2.19481 -0.229676 -7.37491e-20)
(0.954393 -0.468638 9.18116e-20)
(-1.13033 0.320809 2.5494e-19)
(1.80374 0.272999 1.27846e-19)
(-0.150482 0.414642 -2.65918e-19)
(0.800049 -0.727546 0)
(0.580427 0.368134 1.71637e-19)
(1.53969 -0.281326 -2.65995e-19)
(-0.208437 -0.160643 -3.2196e-19)
(1.26492 0.423832 2.3094e-20)
(1.67135 0.0448699 0)
(-0.0871575 -0.0371624 -1.61049e-19)
(0.70564 -0.0571053 8.23206e-20)
(1.59452 0.894985 0)
(-0.114434 0.148734 -2.37972e-19)
(0.906184 0.779964 -2.76084e-19)
(-0.54169 -0.345739 2.7557e-19)
(1.03132 -0.022449 0)
(1.60014 0.494852 -2.91033e-20)
(-0.252789 0.402186 0)
(0.688223 -0.483258 -1.17523e-19)
(-0.532049 -0.310045 -1.53774e-19)
(0.774208 -0.706378 0)
(0.423626 -0.2543 4.38765e-19)
(0.529095 -0.44203 3.02771e-19)
(0.400962 -0.36289 0)
(0.96802 -0.771113 -1.57e-19)
(0.190163 -0.014812 0)
(-0.0785967 0.292014 -1.3794e-19)
(0.79855 -0.686062 1.59382e-19)
(2.38083 -0.316439 1.63167e-19)
(2.21587 0.133403 0)
(-0.0566708 -0.106954 0)
(0.703468 0.654048 -3.42513e-19)
(1.74696 -0.630835 -2.48919e-20)
(-0.0922504 -0.120955 0)
(0.970131 -0.795792 -1.67023e-20)
(1.13936 -0.0980781 0)
(1.08065 -0.119943 4.33034e-19)
(2.095 -0.218646 -5.53895e-20)
(-0.32053 0.304029 0)
(1.20736 -0.548838 -6.70029e-20)
(-0.241055 0.26914 -4.74868e-20)
(-0.171792 0.378674 0)
(1.0792 -0.803651 1.14618e-20)
(1.00606 0.00479838 -6.47225e-19)
(0.640223 -0.466663 -1.1474e-20)
(0.807601 -0.505259 0)
(1.1844 -0.722569 -1.17218e-19)
(0.668011 0.254489 2.67261e-19)
(1.23911 0.131621 0)
(1.51455 0.0701015 -2.46805e-19)
(1.18047 -0.845196 -2.77058e-19)
(-0.0506653 -0.0962168 -6.11106e-20)
(-0.109122 -0.52937 -1.11486e-19)
(1.07534 0.0104262 2.40547e-19)
(0.908759 -0.455364 -1.1546e-19)
(1.54997 -0.443735 -2.38466e-21)
(1.38028 -0.337237 -3.2475e-20)
(0.659036 -0.095008 6.53144e-20)
(-0.2018 -0.0486913 -1.42073e-19)
(1.85103 -0.35014 0)
(2.1794 -0.406638 7.85634e-20)
(1.47273 0.662603 1.35104e-19)
(0.798635 -0.604224 -2.38881e-19)
(0.995649 0.00922432 1.32615e-20)
(0.710111 -0.520327 3.23146e-19)
(1.32827 0.813269 1.23635e-19)
(1.82893 0.0639322 1.52157e-20)
(-0.340369 0.199571 0)
(1.08773 0.0557057 -2.48621e-19)
(-0.3573 -0.606307 -1.91745e-19)
(1.0885 0.502481 8.07967e-20)
(0.0233773 -0.0908162 8.58746e-20)
(1.15869 0.028874 -4.60606e-20)
(-0.194573 0.148103 -1.70973e-19)
(1.31801 0.593589 -7.6458e-20)
(1.15979 0.903544 0)
(-0.345918 0.103678 -8.49046e-20)
(-0.0442649 0.00849593 0)
(0.671479 0.578404 -2.80718e-19)
(2.02413 0.132828 -1.95941e-20)
(-0.250961 -0.256714 1.02064e-19)
(-0.46939 -0.325535 -4.84022e-19)
(0.729057 0.0923169 2.56843e-19)
(1.94409 0.0918038 -2.87141e-20)
(0.971606 -0.33884 -3.34509e-20)
(-0.00919059 -0.018881 0)
(-0.99059 0.229967 4.23641e-19)
(1.35936 0.990471 -1.29796e-20)
(0.846252 0.0881821 -1.40726e-19)
(0.572235 0.537242 1.95273e-19)
(0.504433 0.200354 0)
(-0.160927 -0.378758 -1.26171e-19)
(-0.92897 0.298457 3.15517e-19)
(1.27199 -0.943238 7.73549e-22)
(0.986296 -0.0263262 -2.0229e-19)
(-0.172529 -0.126126 6.93583e-21)
(-0.144787 0.184327 1.47378e-19)
(-0.286765 -0.125323 -1.06123e-19)
(1.8575 -0.0892136 0)
(1.13933 0.0446117 -3.33227e-19)
(2.19161 0.116191 1.73001e-19)
(1.2586 -0.615182 1.29686e-19)
(0.742987 -0.0910867 -6.5557e-21)
(0.606278 0.348742 0)
(0.961824 0.766071 -1.63087e-20)
(0.701732 0.646167 1.8483e-19)
(0.887557 -0.554786 1.68604e-19)
(0.701014 0.517347 0)
(1.02114 0.00360979 8.66852e-21)
(0.871232 -0.654233 2.40787e-19)
(0.850725 0.437122 -4.64229e-19)
(1.22112 -0.106565 0)
(-0.0491306 -0.0370139 -2.28105e-19)
(-0.0116931 0.211125 -1.04212e-19)
(1.6191 0.72961 0)
(1.32606 -0.927516 -6.61961e-22)
(-0.38791 -0.134618 0)
(-0.288565 0.423129 1.10375e-19)
(0.753257 0.669139 -9.8678e-20)
(0.84595 -0.207256 0)
(-0.187241 -0.0967489 0)
(1.52393 -0.461887 0)
(-0.811944 0.271848 4.54429e-19)
(1.19264 -0.873231 1.81062e-19)
(1.16267 -0.598148 7.44153e-20)
(1.04899 -0.165919 -1.90154e-19)
(0.866681 -0.684063 -1.91366e-19)
(0.180689 -0.184435 0)
(-0.747731 -0.426621 0)
(0.991474 -0.505146 2.02267e-19)
(-0.0873582 -0.146308 0)
(-0.22965 0.263474 0)
(-0.221308 -0.160903 2.77022e-19)
(0.808878 0.68627 8.56276e-20)
(1.03109 0.809684 0)
(0.71257 0.569454 -8.58015e-20)
(0.829909 -0.030317 -2.34868e-19)
(0.761196 0.577529 -2.29604e-19)
(0.608031 0.566424 -1.68087e-19)
(-0.182051 -0.314373 1.05607e-21)
(0.706499 -0.634087 0)
(0.9073 0.186324 -3.32455e-19)
(-0.245829 -0.33899 3.59998e-20)
(0.620563 0.575697 3.77787e-19)
(0.97541 0.813754 0)
(-0.942204 0.443477 3.12586e-19)
(-0.105305 -0.318616 1.7907e-19)
(-0.0472979 -0.238765 -8.82911e-20)
(0.680918 0.586608 -1.48926e-20)
(0.968683 -0.0072467 6.24604e-20)
(-0.278766 -0.302859 0)
(2.38513 -0.182302 -2.19602e-19)
(1.86239 -0.317071 -3.12912e-19)
(0.639261 -0.591469 -8.51971e-20)
(-0.528892 -0.291787 8.7442e-21)
(1.21179 0.472291 1.81474e-19)
(0.899198 0.426951 0)
(1.04048 -0.170235 2.1364e-19)
(0.0172148 -0.343862 -6.18874e-21)
(-0.107227 0.116998 3.96027e-19)
(0.918077 0.0189197 -5.64925e-20)
(1.13632 0.151647 0)
(1.97151 -0.0930972 -1.50685e-19)
(1.86485 0.0735151 0)
(0.554482 0.27606 -4.68485e-19)
(-0.153456 0.214154 0)
(-0.175341 -0.265748 1.56063e-19)
(0.68359 0.10251 0)
(0.609151 -0.500862 -1.97737e-19)
(1.13581 0.0195137 2.23703e-19)
(-0.318057 0.240483 3.84534e-20)
(2.03744 -0.0564026 5.94679e-21)
(2.03156 -0.310028 -6.51352e-20)
(1.12646 0.237233 -2.24179e-19)
(-0.262595 -0.338088 -7.15298e-20)
(1.05899 -0.839801 0)
(0.80951 0.0166129 -1.62679e-19)
(0.9194 -0.367343 -3.16417e-19)
(1.70357 -0.579024 3.04115e-21)
(1.7333 0.0297875 9.43772e-20)
(1.08922 -0.00312932 3.99784e-19)
(-0.00927119 -0.331712 -8.73968e-20)
(0.986248 -0.429905 -1.42148e-19)
(0.190108 -0.18278 2.7811e-19)
(1.00799 -0.00649101 0)
(1.00478 -0.00407543 0)
(0.548459 -0.0520122 1.49826e-19)
(-0.023081 0.346014 -9.65643e-20)
(0.167446 -0.119624 -8.26213e-20)
(1.98964 0.0630724 -3.36993e-21)
(0.982927 0.231365 0)
(1.69874 0.0836231 -1.07942e-19)
(0.923641 -0.804707 -1.09862e-19)
(1.75398 -0.566536 -2.94517e-20)
(1.12474 0.85196 0)
(0.460475 -0.441544 0)
(0.622086 0.535436 -1.78598e-19)
(1.10986 0.288925 -4.1025e-19)
(2.25391 -0.311824 1.80106e-22)
(0.869059 0.170721 1.43104e-19)
(-0.0630901 -0.374033 -2.58694e-19)
(1.34916 -0.465708 1.64385e-20)
(-0.227214 -0.424367 0)
(-0.0732656 -0.125121 0)
(-0.317834 -0.284202 0)
(1.32073 -0.718534 -1.27286e-19)
(-0.169094 0.382427 -2.19338e-19)
(-0.0850464 0.1509 0)
(1.31658 0.992433 -3.06905e-20)
(1.12512 0.154502 -4.31351e-19)
(2.37025 0.581902 -6.96927e-20)
(1.1026 0.940948 7.90578e-20)
(-0.128782 0.419477 1.36628e-19)
(1.03059 -0.140581 0)
(-0.307444 -0.270273 -2.25573e-19)
(-0.201282 0.444507 2.57518e-19)
(0.779323 0.045391 1.91295e-19)
(1.56687 0.958305 7.00311e-21)
(1.94621 0.701961 -9.75192e-21)
(-0.114027 0.270154 -5.48945e-22)
(0.730797 -0.667335 -4.31686e-20)
(1.13508 -0.0308665 0)
(1.68372 -0.0535014 0)
(1.01452 0.0494098 0)
(-1.31095 0.241245 -3.02433e-19)
(-0.333039 -0.333331 7.55714e-20)
(1.06575 0.859784 0)
(0.995934 0.00258203 5.42977e-19)
(0.783853 0.620113 -2.29451e-19)
(-1.6642 0.325588 -2.39913e-19)
(0.86479 0.0288027 -4.31139e-20)
(0.702434 -0.640122 -2.48673e-19)
(1.40905 0.717096 -3.02142e-20)
(0.550532 -0.434792 -3.12811e-19)
(1.13417 0.000299929 -4.84115e-19)
(0.802725 0.0464897 4.86826e-20)
(1.52062 -0.189166 9.73176e-20)
(1.64121 -0.126657 -7.26122e-20)
(-0.0234295 -0.0364671 1.28313e-22)
(1.09559 0.483073 -2.701e-19)
(1.38768 0.632965 8.41583e-20)
(-0.0940684 -0.284846 0)
(-0.0625846 -0.408202 9.67222e-20)
(-0.0776915 -0.0557527 9.68753e-20)
(-0.19295 -0.064454 -7.47387e-20)
(0.493321 0.340062 0)
(1.07508 -0.442485 0)
(-0.0265471 0.0301391 -1.44669e-19)
(-0.232012 -0.36808 -3.89938e-20)
(1.05025 -0.0284778 1.91894e-19)
(-0.322438 0.268885 -4.11755e-20)
(1.05378 0.453024 -3.17849e-19)
(0.00795543 0.340748 0)
(0.818731 -0.726084 -3.52047e-19)
(1.35713 -0.139042 9.31415e-20)
(-0.205659 -0.614306 1.1556e-19)
(0.728205 0.177431 3.37437e-19)
(0.62983 0.159231 1.08996e-19)
(0.489447 -0.462487 2.20439e-19)
(-0.106816 -0.154486 -8.53275e-20)
(1.54535 0.662082 0)
(0.410122 0.370003 -1.96861e-19)
(1.02874 -0.0135699 -3.05788e-19)
(-0.491476 -0.343245 1.90663e-19)
(1.44509 0.484811 -1.15599e-19)
(-0.106942 -0.189711 -3.10917e-20)
(0.667542 -0.610017 -9.28674e-20)
(0.826978 0.199555 -2.11305e-19)
(0.990991 0.43878 2.31259e-20)
(1.1395 -0.132882 3.85949e-20)
(0.600391 -0.213124 -3.17761e-19)
(1.97229 -0.384235 -4.56222e-20)
(1.90653 -0.0455891 0)
(1.81435 0.446536 -4.04303e-20)
(2.2035 0.026635 -7.26105e-21)
(0.661061 -0.312244 7.50562e-20)
(1.06373 0.359529 -2.01143e-19)
(1.17013 -0.374945 -2.1627e-20)
(0.435743 0.407566 -2.54877e-19)
(-0.285527 -0.112418 1.84202e-19)
(1.72106 -0.290897 0)
(0.936744 0.00478582 0)
(0.855925 -0.757589 7.16155e-20)
(-0.109521 -0.357233 -1.95998e-19)
(-0.711619 -0.328862 -1.68942e-19)
(-0.037957 -0.0630796 -1.31706e-19)
(-0.254292 0.0727537 -1.39525e-19)
(-0.274683 -0.534374 0)
(-0.0577715 -0.0926772 2.28087e-20)
(0.0834183 0.309497 -9.73737e-20)
(-0.164024 0.203935 -3.35748e-19)
(0.797488 -0.0984113 0)
(1.62862 -0.439332 1.30896e-19)
(-0.0808622 -0.068861 0)
(0.993513 0.0247554 3.90468e-19)
(-0.0921217 -0.493269 1.57132e-20)
(0.526592 -0.406368 4.19374e-19)
(-0.551193 -0.669364 3.17085e-19)
(-1.17858 0.194413 0)
(0.145651 0.28302 1.07577e-19)
(1.00295 0.0251137 -1.17679e-20)
(-0.179391 -0.0959891 0)
(1.00473 -0.00781619 -6.0474e-20)
(0.847616 -0.714871 -3.29378e-19)
(1.19612 -0.204392 0)
(0.927087 -0.259714 2.26053e-19)
(0.0214092 0.121788 1.98403e-19)
(-0.00674342 -0.000949908 0)
(-0.183953 -0.372925 -3.64307e-21)
(0.713902 -0.621315 -4.68406e-19)
(0.94764 -0.0279323 -2.88826e-19)
(-0.120163 -0.369956 2.4028e-19)
(-0.15151 -0.269847 9.42588e-20)
(-0.249877 -0.458255 0)
(0.971888 0.487614 0)
(-0.183768 -0.632333 1.35835e-19)
(1.7002 -0.258778 -1.93587e-19)
(1.09554 0.913859 1.81395e-20)
(1.07773 0.219441 -1.27622e-19)
(1.13893 0.00897995 -2.45236e-19)
(1.03837 -0.066544 -9.0791e-20)
(-0.115465 -0.38138 -2.24417e-19)
(1.88718 0.0919041 3.68328e-19)
(0.684679 0.0322969 2.13627e-19)
(2.13724 -0.165775 1.30087e-19)
(1.0455 -0.14946 0)
(0.0172066 0.374547 5.34829e-19)
(1.14006 0.0263795 -5.29024e-19)
(1.7797 0.620711 2.95077e-21)
(0.730683 -0.442414 -1.73894e-19)
(-0.0692994 -0.0306782 1.20448e-19)
(0.783509 -0.687225 4.30069e-19)
(1.25737 0.203016 7.54833e-20)
(1.00686 -0.00760421 2.67776e-19)
(-0.0359288 -0.369488 -9.78577e-20)
(1.02734 0.0211377 0)
(1.92472 0.152215 -2.51215e-19)
(-0.0203211 -0.00669221 0)
(1.01418 0.0145782 -1.59065e-19)
(-1.35138 0.260288 -5.34553e-19)
(1.70699 0.285625 3.20801e-20)
(-0.176881 -0.102997 1.27766e-19)
(1.61486 0.006401 -7.27421e-21)
(1.01407 -0.0176646 5.53831e-20)
(1.31977 -0.0824752 0)
(1.42526 -0.60808 -1.96549e-19)
(1.02533 0.0392652 -1.62898e-19)
(1.46847 0.800856 -4.94398e-20)
(1.37954 -0.0546297 0)
(0.758339 0.108919 -2.31319e-20)
(-0.0318669 0.0337834 0)
(1.33226 0.0394085 0)
(-0.321112 -0.331054 0)
(1.25689 0.458053 0)
(1.93019 0.232251 5.02078e-20)
(0.758112 0.631831 4.02147e-19)
(0.283131 -0.284349 -2.60984e-19)
(-0.209906 -0.359982 -2.25443e-19)
(-0.0123371 -0.0198585 0)
(2.22996 -0.275982 1.29041e-19)
(1.42593 0.528073 0)
(1.48073 0.29741 0)
(-0.332355 -0.301256 9.89922e-20)
(0.826801 0.730674 1.279e-19)
(1.66994 -0.0398581 0)
(-0.1904 -0.218332 5.58738e-20)
(0.919765 0.23405 1.9501e-19)
(2.11573 -0.255191 -6.62364e-20)
(1.26569 0.943527 4.33929e-20)
(0.899568 -0.810129 -5.12463e-20)
(1.71648 -0.110978 -2.53787e-20)
(0.813562 0.735267 1.31047e-19)
(1.20303 0.94314 0)
(2.42972 -0.0607533 1.86305e-19)
(0.939495 0.332167 0)
(1.53363 -0.478716 5.42709e-20)
(1.13691 0.0991599 2.19658e-19)
(1.00514 -0.00328163 0)
(0.145303 0.286861 5.16702e-19)
(0.88193 -0.158878 5.14501e-20)
(0.619073 -0.393363 0)
(0.659152 -0.365906 2.26404e-19)
(1.26009 0.570253 -3.3381e-20)
(0.491589 0.464426 2.79227e-19)
(-0.190659 0.264234 3.94588e-20)
(0.206787 -0.0994141 1.0674e-19)
(0.744696 0.0687165 0)
(1.30163 -0.888881 -1.28311e-19)
(1.0332 -0.0426788 4.25577e-19)
(1.58325 0.33731 1.59242e-19)
(-0.210395 -0.227806 4.81901e-20)
(-0.587755 -0.609987 0)
(1.21727 -0.240179 -1.29348e-19)
(-0.00356311 -0.00148593 -1.04751e-19)
(0.244238 -0.401253 -5.89946e-20)
(-0.150301 0.0695083 -1.03505e-21)
(-0.220654 0.117139 3.30554e-19)
(1.45262 -0.465907 -1.52734e-20)
(2.42675 -0.164793 2.94034e-19)
(1.21166 0.469215 -2.92654e-19)
(0.871794 -0.0567411 0)
(1.81067 -0.0936943 1.99421e-19)
(1.88145 0.0894322 7.08412e-20)
(0.896692 -0.753119 1.64303e-19)
(1.12932 -0.953676 -7.12389e-20)
(0.495654 0.460685 1.87163e-19)
(1.36261 0.113192 0)
(1.79971 0.568679 3.56745e-20)
(-0.00835566 -0.00940839 -2.13866e-19)
(0.903574 0.78891 0)
(1.36642 0.573361 0)
(0.283582 -0.28311 -3.48815e-21)
(0.343006 0.329936 0)
(-0.557838 -0.557649 -3.13939e-19)
(-0.243042 0.380879 -1.17052e-19)
(1.68707 -0.433292 0)
(1.25632 0.105087 1.79763e-19)
(-0.587147 -0.377772 1.40689e-19)
(0.521387 -0.49425 -5.10844e-19)
(2.05583 -0.11527 -3.88704e-20)
(0.598153 -0.542268 0)
(1.04714 0.129146 0)
(1.31088 -0.242304 0)
(1.12928 0.236015 -2.39901e-19)
(1.36318 0.109261 3.40486e-19)
(-0.947289 -0.0164117 0)
(0.880559 -0.0602982 0)
(2.01644 -0.089685 -4.31123e-21)
(-0.0963765 0.15442 1.0847e-19)
(2.34853 0.0453959 -2.25343e-19)
(1.02117 -0.495578 1.04735e-19)
(1.93955 0.0813725 -2.72844e-19)
(-0.679932 -0.3767 -1.14615e-19)
(1.89998 0.0636706 -1.71069e-19)
(1.01563 -0.01948 4.41364e-19)
(1.54887 0.605649 0)
(-0.235035 0.417917 3.15707e-20)
(0.98631 -0.815671 2.11062e-19)
(0.857098 -0.00316746 5.03939e-20)
(0.622182 -0.41662 0)
(1.86155 -0.547784 -3.2479e-21)
(1.19563 -0.185174 1.72399e-19)
(1.73876 -0.416773 0)
(0.594097 -0.551287 5.14971e-19)
(0.851357 0.130621 -2.46657e-20)
(2.33221 0.0912372 3.24661e-19)
(-0.110984 0.221925 -2.20637e-19)
(1.3583 0.631595 1.46711e-19)
(1.16653 0.418612 3.70601e-21)
(0.920153 0.389073 2.28865e-19)
(1.8329 -0.202312 -2.46609e-19)
(-0.135413 -0.381595 -2.19524e-21)
(0.588981 -0.286981 0)
(-0.154377 -0.0924655 1.9983e-19)
(1.06177 -0.925234 0)
(1.04797 -0.643913 2.51818e-20)
(1.10314 -0.378193 -5.62935e-19)
(1.32428 0.0422071 -4.23338e-20)
(-0.411031 -0.514712 -2.67373e-19)
(1.00592 0.497896 1.76564e-19)
(-0.291514 0.460571 3.34328e-19)
(0.697268 -0.0387025 0)
(2.01923 0.0115793 0)
(1.87762 0.142583 2.22618e-20)
(0.777934 -0.0142219 0)
(1.35463 -0.211016 -1.77396e-19)
(-0.692826 -0.46398 3.7591e-19)
(1.95611 0.492811 2.07705e-20)
(1.0461 -0.0322376 0)
(0.539393 -0.330641 1.12768e-19)
(1.00862 0.0265226 2.09379e-19)
(0.406272 0.36533 -3.29745e-19)
(-0.25243 -0.104697 0)
(1.09732 -0.473131 5.59344e-19)
(1.86856 -0.122821 -5.37186e-22)
(1.0858 -0.487741 -2.43203e-19)
(2.2981 0.20568 1.60982e-19)
(1.31149 0.80664 0)
(0.873427 0.0203323 0)
(-0.259856 -0.247639 -1.26194e-19)
(-0.0291653 0.029075 1.62803e-19)
(0.964705 0.381342 -2.11366e-19)
(0.116446 -0.328628 -8.19933e-20)
(0.662527 0.427844 2.45611e-19)
(0.948747 0.150561 0)
(0.524769 -0.487889 0)
(0.48403 -0.141616 4.53124e-21)
(1.21356 -0.501371 -1.16912e-19)
(0.566478 0.0158461 6.51406e-21)
(0.730004 -0.136505 1.2484e-19)
(-0.0850937 0.101712 -2.8892e-19)
(1.03187 -0.0750509 1.56413e-19)
(0.680332 0.634894 0)
(1.29433 0.708307 0)
(1.64032 0.263811 0)
(-0.334054 -0.432582 -1.07208e-19)
(1.32257 0.582067 2.26627e-19)
(2.09546 0.0109723 3.79053e-20)
(0.941812 -0.0109993 0)
(2.19012 -0.490233 0)
(2.04499 -0.0592556 -2.79882e-19)
(0.619423 0.485378 3.8465e-19)
(1.00489 0.0058045 -2.09008e-19)
(1.51082 0.484027 0)
(-0.229719 0.0352426 0)
(1.2656 0.327795 2.92374e-19)
(1.041 0.542095 -1.30947e-19)
(1.07449 0.0262277 0)
(1.63877 -0.120268 0)
(2.06845 0.66657 -3.29493e-19)
(-0.0978215 0.348202 -5.16743e-22)
(0.996413 0.0144719 0)
(0.724644 0.491509 -3.37458e-20)
(0.915091 -0.807372 0)
(1.00158 0.015907 4.8703e-20)
(0.0571239 -0.30794 -1.90246e-20)
(0.8938 -0.310902 3.34328e-19)
(0.546555 -0.395533 -6.66692e-20)
(2.1742 -0.193199 1.916e-19)
(1.59479 0.162854 1.11724e-19)
(0.788039 -0.027724 0)
(1.00917 0.0105813 0)
(-0.384597 -0.652604 0)
(0.684704 0.656027 -1.88557e-19)
(-0.0622838 0.0720928 1.94596e-19)
(1.18295 0.359583 -4.69238e-19)
(-0.378522 0.0382083 0)
(0.846353 0.659401 1.68979e-19)
(0.996224 -0.32275 0)
(1.00584 0.000716475 1.22211e-19)
(0.477433 -0.145892 7.55751e-20)
(1.05077 0.418373 2.59812e-19)
(1.26281 0.125721 0)
(2.1037 0.098711 -6.71457e-20)
(0.823778 -0.0967148 -3.84548e-19)
(-0.807261 -0.512222 -4.55832e-19)
(1.1033 0.163312 0)
(0.890159 0.256 1.79474e-19)
(1.92103 -0.297535 0)
(0.79212 0.538283 3.65882e-19)
(-0.827545 -0.424852 1.73311e-19)
(-0.067475 0.103129 0)
(0.609298 0.580203 -7.10815e-20)
(1.0124 -0.631055 -1.75771e-19)
(0.465413 -0.221886 -1.28297e-19)
(1.01972 -0.010583 0)
(-0.309121 -0.178864 -1.45355e-19)
(0.624524 -0.55468 8.86507e-20)
(0.920151 0.303799 0)
(1.64541 -0.348902 1.65367e-19)
(1.00404 0.855567 2.40976e-20)
(0.82023 -0.43423 6.78619e-21)
(0.13962 -0.186228 -1.29108e-19)
(0.219099 0.0116968 -5.7198e-19)
(-0.081158 -0.154119 5.69206e-21)
(0.832503 0.373574 2.50544e-19)
(-0.185855 0.408527 -5.35206e-21)
(1.39063 -0.643427 3.25835e-21)
(1.0216 0.0138603 -3.64624e-19)
(-0.370545 -0.522753 0)
(1.03576 0.0377569 -4.24887e-19)
(2.23568 -0.0324669 2.05039e-19)
(0.904658 0.705951 2.8259e-19)
(1.12689 -0.0655727 1.72841e-19)
(1.00245 -0.0237038 1.68716e-19)
(1.30342 0.0626369 3.84503e-20)
(-0.141268 -0.149385 3.52988e-22)
(1.68658 -0.86187 1.41569e-20)
(1.12655 -0.131979 -9.01801e-20)
(0.777835 0.0511457 1.04171e-19)
(0.901479 -0.281876 9.66786e-20)
(1.23591 0.247977 0)
(0.979911 0.750513 0)
(0.813166 -0.0339263 -9.00663e-20)
(2.07123 0.168275 -2.3126e-20)
(-0.615996 -0.604212 1.41169e-19)
(1.01595 -0.528706 -5.8197e-19)
(0.60324 -0.519003 4.21526e-19)
(1.36179 0.112079 -1.1385e-19)
(0.161597 -0.326957 9.51889e-21)
(1.49788 -0.518432 0)
(0.759365 0.132789 -6.9768e-21)
(1.59762 -0.474285 -9.64177e-20)
(1.05842 0.776833 0)
(1.19101 -0.47839 0)
(-0.234237 -0.0327512 0)
(-0.126023 -0.190056 -3.75104e-20)
(-0.0629849 0.159172 0)
(1.89279 0.589954 4.64325e-19)
(1.23797 0.187709 6.55793e-21)
(-1.00058 0.0959203 2.21162e-19)
(2.07723 0.74527 1.8696e-20)
(1.87419 0.437189 -7.72246e-20)
(2.1207 -0.356621 -1.96482e-20)
(-0.190716 0.0335575 -2.3283e-19)
(-0.197051 -0.42529 2.71465e-21)
(1.24042 0.146466 0)
(0.680736 -0.0335053 0)
(1.00129 0.00156717 1.97684e-22)
(-0.339693 -0.471742 0)
(1.54026 -0.00971175 -3.15012e-20)
(0.681679 -0.0306961 0)
(1.05194 0.0118918 1.38707e-19)
(0.989327 0.0164771 -4.76055e-20)
(0.968064 0.138426 8.74056e-20)
(1.07013 -0.0160391 -9.71961e-22)
(0.941639 -0.180909 -5.81262e-20)
(1.01951 -0.0275276 3.93313e-19)
(0.657652 -0.594999 2.01702e-19)
(-1.00952 0.314241 -2.90269e-19)
(1.20977 0.484121 1.81418e-20)
(-0.0339217 0.037177 0)
(1.14622 0.810126 0)
(1.02489 -0.00087277 0)
(0.987629 -0.762416 -1.24777e-19)
(1.01374 -0.870928 7.67022e-20)
(1.00166 0.298142 -1.78338e-20)
(0.118304 0.059735 -1.05006e-18)
(1.07859 -0.389356 1.66022e-20)
(0.571106 -0.363078 -6.72282e-19)
(1.46502 0.458636 -5.20471e-20)
(0.470374 -0.17745 -1.03738e-19)
(2.01924 -0.35453 4.15355e-20)
(0.545585 0.0894982 -1.84253e-20)
(-0.190313 -0.240037 -8.13979e-20)
(1.13199 0.567555 1.97842e-19)
(-0.108939 -0.271263 0)
(0.100359 -0.456069 2.17893e-19)
(-0.0746144 -0.0855346 5.73328e-23)
(1.0274 -0.0424247 3.49106e-19)
(1.02118 0.0063404 -9.04363e-21)
(1.1134 -0.0102808 -9.66002e-20)
(1.45929 0.0593531 2.30532e-20)
(1.65383 0.323041 5.71075e-20)
(0.385548 -0.360161 -3.36828e-19)
(0.726935 0.240361 3.23006e-20)
(1.03119 0.0060921 -2.59258e-19)
(1.28079 0.369488 -1.86784e-20)
(1.47299 0.172788 0)
(1.12905 0.605869 -3.70498e-19)
(1.00286 -0.00313207 9.97831e-20)
(0.694084 0.622344 2.60664e-19)
(1.37821 -0.493275 -2.19781e-21)
(1.07533 -0.00742064 -3.15733e-20)
(1.1343 0.0154172 8.97829e-22)
(2.27596 0.050684 1.25693e-20)
(0.536412 0.148634 0)
(1.04413 -0.0395149 0)
(1.04917 -0.0341213 6.12185e-19)
(1.00237 -0.00277543 0)
(-0.0340605 -0.0472094 0)
(0.915757 -0.556484 0)
(1.00035 -0.000212046 -5.80321e-19)
(1.13903 -0.672956 1.03556e-19)
(1.02172 -0.0018187 1.22292e-20)
(1.37183 0.971528 -2.39622e-20)
(1.56155 1.01999 -2.51226e-20)
(1.00914 -0.318181 -2.86402e-20)
(1.5686 -0.0407609 2.6443e-19)
(1.68449 0.264239 0)
(0.00895073 0.347233 0)
(2.02805 -0.228484 4.13454e-19)
(1.01644 -0.492037 0)
(0.999863 -0.0047736 -1.79275e-19)
(1.01059 -0.000666182 3.48504e-19)
(1.46542 0.142739 -7.07852e-20)
(0.000294889 -0.124387 1.57324e-19)
(0.974688 -0.000573538 1.89222e-19)
(0.110055 0.0377711 1.68104e-20)
(0.450113 -0.117096 2.79539e-20)
(1.59056 0.0926645 8.38564e-23)
(0.925264 0.0179412 -1.92165e-19)
(1.00352 0.00452766 2.25722e-19)
(1.00018 -3.26249e-05 1.33185e-20)
(0.791193 -0.0124943 0)
(0.730576 -0.0260596 0)
(0.726161 -0.0264363 8.2238e-22)
(0.702877 -0.0284313 0)
(1.4419 -0.167533 0)
(0.82701 -0.174196 0)
(0.187759 -0.123516 -1.64931e-20)
(0.189169 -0.114812 1.40065e-20)
(1.3047 -0.271119 0)
(1.3981 -0.23251 1.98264e-20)
(1.55313 0.0387901 0)
(-0.0053494 0.116664 0)
(0.0495005 0.0102451 0)
(0.273226 0.0738415 -3.11414e-21)
(0.897085 0.178405 4.21621e-20)
(0.779965 0.0234028 0)
(0.788594 0.0207101 0)
(0.963316 0.0208243 -2.36667e-19)
(0.816945 0.00833565 4.40339e-19)
(1.00745 -0.00133174 0)
(0.999813 -0.000168994 4.16783e-19)
(1.00007 -0.000388362 -2.79965e-22)
(0.787701 0.0220804 3.75886e-19)
(0.994263 -0.00709145 -2.17307e-19)
(-0.00619608 0.117276 0)
(0.453055 -0.103963 -2.79715e-20)
(1.00121 -0.000682642 -2.10403e-19)
(1.00051 0.0014462 -3.6151e-19)
(1.34154 0.055857 0)
(0.998632 0.00214594 0)
(0.999494 0.000747507 0)
(1.69022 -0.598117 -1.37893e-20)
(0.390541 -0.0774057 3.84021e-20)
(0.903397 0.346682 0)
(-0.322748 0.302718 1.93945e-19)
(-0.503121 0.221208 -5.05702e-19)
(1.02013 -0.0131564 -2.80621e-19)
(-0.28721 -0.358225 -7.37051e-20)
(1.01639 0.00604477 -2.26403e-19)
(1.15637 -0.21163 -1.25424e-19)
(0.787353 -0.459103 3.30098e-19)
(-0.0284817 -0.044951 -5.28333e-20)
(1.02942 0.0136638 0)
(1.06039 -0.011227 -6.0627e-20)
(0.849409 0.0269495 0)
(-0.0861167 0.0834329 2.87368e-19)
(0.748392 -0.433446 0)
(-0.365682 -0.375007 -1.98535e-19)
(0.263814 0.0794746 -1.22141e-20)
(1.69281 0.685696 1.0196e-20)
(-0.0726813 0.00467812 0)
(1.05297 -0.0367236 1.89311e-19)
(0.932014 -0.311868 4.32934e-21)
(0.928971 0.000178654 2.96261e-19)
(1.01311 -0.00556279 -1.90949e-19)
(1.71423 0.869225 4.77591e-20)
(0.540539 0.508811 0)
(0.464814 0.424983 2.05692e-19)
(2.03035 -0.516371 -6.03615e-22)
(1.16598 0.131332 1.99308e-19)
(1.07057 -0.701148 0)
(1.02297 0.00550684 0)
(0.999517 -0.0170792 -4.39543e-19)
(1.0175 0.0174257 -4.30071e-19)
(-0.125724 -0.246553 0)
(1.24465 0.836964 -1.26202e-19)
(1.55861 -0.559242 2.34025e-21)
(1.01583 0.00754189 1.65204e-19)
(1.01093 0.015082 -2.07493e-19)
(-0.385304 -0.366343 -2.03222e-20)
(0.965484 -0.234127 -1.17667e-19)
(1.01928 -0.0127957 7.04027e-19)
(1.39811 -0.460604 0)
(1.90765 0.641816 -5.6584e-20)
(1.01655 -0.00970634 -2.19514e-19)
(2.13237 0.0494502 -1.17617e-19)
(1.06568 0.00992191 -5.04035e-22)
(1.00981 -0.00891363 4.38396e-20)
(2.02294 -0.323945 -1.72739e-19)
(1.01518 0.00779562 2.13389e-19)
(0.919148 0.467475 1.48596e-21)
(1.01794 0.00633653 0)
(0.943181 0.160448 5.12114e-20)
(-1.02493 -0.195171 5.58001e-21)
(0.996721 0.022253 2.12069e-19)
(1.03836 0.0211986 -5.59942e-22)
(1.32915 -0.460088 -1.39344e-20)
(1.27382 0.325139 4.17e-19)
(0.996813 0.0174103 1.46027e-19)
(1.01759 -0.0122942 5.20731e-22)
(1.76151 0.243763 -2.12208e-20)
(1.84474 0.966903 -1.154e-19)
(0.757889 -0.680379 6.82832e-20)
(0.433941 -0.298865 -3.23371e-19)
(1.0083 -0.00923645 0)
(1.01884 0.00414788 5.29867e-20)
(1.0117 -0.00775178 1.11487e-19)
(0.78397 0.163548 6.00133e-21)
(1.01424 0.00787432 -2.22134e-19)
(1.02413 -0.0200047 2.55523e-19)
(1.00912 -0.00611681 -2.08417e-19)
(1.01451 0.00707024 -5.2387e-22)
(1.01354 0.00522374 -3.77793e-22)
(1.02323 0.0171692 2.1284e-19)
(0.908638 0.100158 5.29984e-19)
(1.84971 0.717433 0)
(0.676896 -0.66213 2.67696e-19)
(1.01092 -0.00203848 0)
(1.02269 -0.0161348 -6.15405e-20)
(1.56783 0.445876 -7.90204e-20)
(2.10194 -0.0935568 0)
(2.31533 -0.15726 -1.3479e-19)
(1.30579 0.466375 -7.75354e-20)
(0.764664 -0.0161555 0)
(1.79056 -0.299873 0)
(0.345373 0.41245 -3.15283e-19)
(1.20069 -0.10042 -3.49971e-20)
(1.01746 -0.0020326 -2.23597e-19)
(1.10189 -0.555532 -6.95398e-20)
(1.25463 -0.37652 -4.43352e-20)
(1.23124 0.540091 0)
(1.53448 -0.525247 0)
(2.07149 0.482976 0)
(0.0273669 0.168265 9.40565e-20)
(0.857152 0.279258 1.2627e-19)
(-0.497643 0.0689973 0)
(-0.0397121 0.0355171 -2.15547e-19)
(1.74053 0.980385 -7.01594e-20)
(1.00765 -0.000853669 -4.37267e-19)
(0.817263 0.0596021 4.07416e-20)
(1.0206 0.0113969 2.89699e-19)
(0.691443 -0.0419199 0)
(-0.115819 -0.233305 -1.58415e-20)
(0.63054 0.453842 -3.46266e-19)
(1.8215 0.601037 1.57743e-19)
(0.11365 0.157851 0)
(0.772028 0.078381 8.90073e-20)
(0.537684 0.515101 5.21425e-20)
(1.20991 0.901789 -3.3808e-20)
(-0.0312951 -0.0138915 7.67858e-20)
(1.02126 0.0174476 0)
(1.06559 0.389912 5.11466e-20)
(1.01159 0.000241817 1.64027e-19)
(2.2624 0.0788388 0)
(1.01068 0.0101546 2.75301e-19)
(0.11154 -0.430848 -1.02058e-19)
(1.01912 0.0145115 -1.70352e-19)
(1.35958 0.452661 0)
(2.30258 -0.135332 5.8099e-22)
(1.00868 0.00649292 -1.14288e-19)
(0.994773 -0.0207069 3.0138e-19)
(1.10541 0.100871 -3.46674e-21)
(1.12525 0.600648 -2.16617e-20)
(-0.150354 -0.060237 2.01009e-19)
(2.06749 0.208242 1.74192e-19)
(0.255048 0.222114 2.31344e-20)
(0.802287 0.0149954 -4.133e-19)
(0.813469 0.0268114 0)
(0.154439 0.0761156 5.63868e-20)
(1.02366 -0.0130793 -3.30505e-20)
(0.973463 0.0342304 0)
(1.05359 0.00219104 -2.09191e-19)
(-0.267207 0.0163603 3.18723e-21)
(-0.833724 -0.290922 2.15526e-19)
(2.10264 -0.59896 0)
(-0.958827 0.19599 -5.58536e-19)
(1.49195 -0.344654 0)
(1.04203 -0.0167386 6.14669e-20)
(1.1342 0.0699815 1.40488e-21)
(1.01329 0.00123607 1.77649e-19)
(-0.781771 -0.338634 3.05518e-19)
(1.01885 0.0066821 0)
(0.993721 0.00397316 -4.256e-19)
(1.00806 0.00958285 2.25763e-19)
(0.763768 -0.113146 0)
(0.733666 -0.00525122 -1.00149e-20)
(0.957505 -0.00094944 -1.92993e-19)
(-0.238388 -0.373519 2.43331e-19)