/*--------------------------------*- C++ -*----------------------------------*\
| =========                 |                                                 |
| \\      /  F ield         | OpenFOAM: The Open Source CFD Toolbox           |
|  \\    /   O peration     | Version:  2306                                  |
|   \\  /    A nd           | Website:  www.openfoam.com                      |
|    \\/     M anipulation  |                                                 |
\*---------------------------------------------------------------------------*/
FoamFile
{
    version     2.0;
    format      ascii;
    arch        "LSB;label=32;scalar=64";
    class       volVectorField;
    location    "31.8";
    object      U;
}
// * * * * * * * * * * * * * * * * * * * * * * * * * * * * * * * * * * * * * //

dimensions      [0 1 -1 0 0 0 0];

internalField   nonuniform List<vector> 
2186
(
(1.32052 -0.0659759 1.90356e-19)
(1.65365 -0.963685 -1.1011e-19)
(1.49436 -0.939354 -1.00184e-22)
(0.763186 -0.604743 -1.29712e-19)
(-0.0834244 0.258062 -1.62756e-19)
(1.41324 -0.140348 0)
(0.748061 -0.691331 0)
(-0.224298 -0.270973 1.22059e-19)
(1.49462 -0.196203 2.03581e-19)
(0.571564 -0.33801 -2.51634e-21)
(0.660716 0.595327 0)
(0.859097 -0.283913 -1.5181e-19)
(-0.246107 -0.256258 -4.81364e-20)
(1.21132 0.0219779 -3.37028e-19)
(1.84344 -0.701656 -1.16315e-19)
(1.01206 -0.00436558 1.60426e-19)
(0.979429 0.0117941 0)
(-0.293725 0.430697 0)
(0.970016 0.23908 0)
(-0.122956 0.17935 -5.84951e-20)
(0.481664 0.0580476 -1.07121e-19)
(-0.160663 0.197929 8.09417e-20)
(1.19716 0.025746 2.78819e-19)
(-0.205247 -0.0701661 6.22939e-21)
(1.03482 0.00516433 -2.19315e-19)
(0.814433 -0.579487 0)
(0.764502 -0.0506014 1.32938e-19)
(0.634572 -0.614018 -1.46418e-19)
(1.19079 0.699831 0)
(0.966419 0.0232001 -2.99429e-19)
(-0.0619457 0.0835298 0)
(1.02716 -0.0137042 1.037e-20)
(-0.205839 0.0287716 0)
(2.02622 0.163195 1.84138e-19)
(-0.124377 -0.189658 1.53143e-21)
(1.51255 0.763796 7.57611e-20)
(1.83253 0.0810437 1.3366e-19)
(0.505139 0.106935 -3.19777e-19)
(1.86067 0.251179 -2.30572e-19)
(1.47567 -0.0107115 2.75542e-21)
(-0.275043 -0.255061 0)
(-0.106963 0.14596 0)
(1.92972 -0.901419 1.01539e-19)
(-0.383055 0.105023 0)
(1.09705 0.272587 1.45458e-19)
(0.613685 -0.319301 2.57876e-19)
(0.951557 -0.810879 0)
(1.2174 -0.810352 8.53152e-20)
(2.19007 0.0472137 0)
(-0.126518 0.454162 1.4524e-19)
(-0.0603551 0.112976 8.64177e-20)
(0.61321 0.565902 7.69042e-20)
(2.12154 -0.776074 1.27387e-19)
(0.584379 0.246264 -2.58086e-19)
(-0.314476 -0.155663 3.15545e-20)
(0.788866 -0.673304 0)
(1.71374 -0.995119 1.95383e-20)
(0.604094 -0.563569 0)
(2.22317 0.230444 6.75689e-20)
(1.15397 -0.176335 -3.08434e-19)
(2.15323 -0.0962173 1.87529e-19)
(1.32962 0.299652 -1.71407e-19)
(1.32705 0.527697 0)
(1.74974 -0.0453069 -3.01948e-21)
(1.34921 0.385659 -1.05636e-19)
(1.28196 -0.75401 -1.13763e-19)
(1.15076 0.65063 5.08015e-20)
(0.678087 0.0487315 -5.16456e-19)
(0.81745 0.0393285 0)
(2.31329 -0.171238 -7.59538e-20)
(-0.229274 -0.291411 -1.44273e-19)
(2.54145 0.0493341 -1.99993e-19)
(0.729395 -0.061026 -2.26419e-19)
(0.898351 -0.538538 0)
(0.820075 0.162082 -8.43161e-20)
(0.570535 -0.531694 -2.65794e-19)
(2.3979 0.0166564 0)
(1.00714 0.00821761 3.29376e-19)
(-0.119272 -0.226109 0)
(1.97392 0.34854 0)
(0.613516 0.320329 6.69449e-20)
(1.50053 -0.0771507 -2.23946e-20)
(1.02356 0.00453199 3.64031e-20)
(1.29777 0.407446 2.65106e-20)
(0.974006 0.0221553 3.81201e-19)
(1.04261 0.0256878 -9.05959e-21)
(0.661592 0.152083 -3.10143e-19)
(1.10749 -0.0327032 5.84183e-21)
(1.33917 -0.226424 0)
(-0.0723842 -0.0673474 1.11544e-19)
(0.886197 -0.644787 -1.41538e-19)
(-0.109788 0.0533711 -1.03531e-21)
(1.12736 -0.0819473 2.1888e-19)
(0.830387 -0.202674 0)
(0.97495 0.022621 3.65326e-20)
(1.34329 0.636071 0)
(1.66446 -0.976679 0)
(1.28895 0.219517 0)
(-0.120487 0.40386 0)
(0.817196 -0.689873 2.54012e-19)
(0.560458 0.33929 -2.2904e-19)
(0.59283 0.379187 1.36588e-19)
(1.55264 0.191669 0)
(1.15947 -0.106761 -2.0009e-19)
(1.12426 0.0228929 1.63011e-19)
(-0.178762 0.204553 1.05051e-19)
(0.619632 0.484595 0)
(2.26085 -0.172832 -1.405e-19)
(0.988273 -0.497744 7.10636e-20)
(-1.16217 0.288721 2.03406e-19)
(1.70938 0.312021 1.08061e-19)
(-0.0801498 0.327888 -2.30071e-19)
(0.843714 -0.76714 0)
(0.549887 0.322664 1.57052e-19)
(1.76539 -0.215425 -5.97279e-19)
(-0.195526 -0.0512135 -4.51156e-19)
(1.66832 0.422138 1.99662e-19)
(1.81701 0.0590356 0)
(-0.0963079 -0.0937222 -3.33464e-19)
(0.71549 -0.0968721 7.13673e-20)
(1.53322 0.86734 0)
(-0.0815775 0.493772 -1.90491e-19)
(0.866973 0.744314 -2.58719e-19)
(-0.465614 0.417261 2.79682e-19)
(1.02841 -0.0263477 0)
(1.60264 0.348171 -2.51578e-19)
(-0.0658375 0.283438 0)
(0.720144 -0.517927 -9.49991e-20)
(-0.346676 0.406785 -1.51562e-19)
(0.815696 -0.744987 0)
(0.454837 -0.309463 3.77021e-19)
(0.564752 -0.481042 2.50553e-19)
(0.428457 -0.388106 0)
(1.01338 -0.805888 -1.00394e-19)
(0.451955 0.244255 0)
(-0.0789388 0.506335 -1.13887e-19)
(0.837868 -0.722226 1.19817e-19)
(2.40776 -0.231183 3.22785e-19)
(2.15816 0.19402 0)
(-0.140215 -0.187948 0)
(0.667662 0.620044 -3.22923e-19)
(1.82774 -0.639328 2.21061e-20)
(-0.167707 -0.189829 0)
(1.01307 -0.831565 -1.11269e-20)
(1.16091 -0.101218 0)
(1.09256 -0.129338 3.47446e-19)
(2.08752 -0.145916 -1.39295e-19)
(-0.115137 0.334134 0)
(1.25116 -0.569535 -4.37892e-20)
(-0.298408 0.188138 -3.93667e-20)
(-0.0217785 0.0807121 0)
(1.12409 -0.838174 1.29676e-20)
(1.0071 0.00413131 -5.50233e-19)
(0.674205 -0.504298 -9.38479e-21)
(0.841355 -0.538599 0)
(1.23124 -0.751609 -7.25432e-20)
(0.645808 0.212601 2.41869e-19)
(1.20334 0.119644 0)
(1.47621 0.0817282 -2.44344e-19)
(1.2294 -0.880423 -1.38769e-19)
(-0.132925 -0.179751 -1.20751e-19)
(-0.376147 -0.139087 -1.9424e-19)
(1.06537 0.00299564 2.08327e-19)
(0.942074 -0.483971 -8.93613e-20)
(0.815194 0.0560015 -5.40799e-21)
(0.373443 0.336386 -4.28014e-20)
(0.766387 -0.124578 1.35406e-19)
(-0.113643 -0.0869796 -3.05846e-19)
(2.02412 -0.330508 0)
(2.56795 -0.447398 1.56564e-19)
(1.42315 0.638243 1.32208e-19)
(0.833846 -0.637244 -1.85296e-19)
(0.995589 0.00803791 1.12735e-20)
(0.74548 -0.554114 2.61135e-19)
(1.28082 0.787019 1.20473e-19)
(1.80728 0.0728543 1.21156e-20)
(-0.143349 0.333725 0)
(1.08041 0.050986 -2.16499e-19)
(-0.637017 -0.0263032 -2.32609e-19)
(1.05394 0.478103 7.50526e-20)
(0.137192 -0.137126 1.84809e-19)
(1.16445 0.0264176 -3.89768e-20)
(-0.211025 0.03676 -1.41752e-19)
(1.27338 0.572745 -7.35762e-20)
(1.11486 0.868927 0)
(-0.17862 0.356285 -8.91488e-20)
(-0.0495436 0.0117265 0)
(0.635368 0.544169 -2.59935e-19)
(2.06985 0.184502 -1.62588e-20)
(-0.257464 -0.197061 1.57836e-19)
(-0.350176 0.222114 -5.46095e-19)
(0.723013 0.0504249 2.26859e-19)
(1.92873 0.170612 -3.8959e-20)
(1.00208 -0.362463 -2.6429e-20)
(-0.0883501 -0.102431 0)
(-1.09695 0.441761 3.49262e-19)
(1.30014 0.952661 -1.96653e-20)
(0.836347 0.0552776 -1.24396e-19)
(0.539164 0.505596 1.81038e-19)
(0.433077 0.1938 0)
(-0.173402 -0.318289 -2.37465e-19)
(-0.937437 0.674449 3.04598e-19)
(1.33288 -0.983954 1.49557e-22)
(0.9932 -0.0424649 -1.70496e-19)
(-0.165907 -0.168377 6.19959e-21)
(0.025981 -0.0165967 1.36819e-19)
(-0.234186 -0.211874 -2.15426e-19)
(1.91048 0.0172732 0)
(1.12405 0.0422611 -2.91448e-19)
(2.45003 0.165817 2.05685e-19)
(1.30577 -0.637012 7.41009e-20)
(1.02104 -0.0870824 2.41253e-20)
(0.578761 0.301606 0)
(0.923389 0.733326 -1.53266e-20)
(0.665727 0.612062 1.72955e-19)
(0.922954 -0.58541 1.28145e-19)
(0.667313 0.480765 0)
(1.02423 -0.00159421 7.32261e-21)
(0.908982 -0.686864 1.82216e-19)
(0.823372 0.404767 -4.25406e-19)
(1.2279 -0.110897 0)
(-0.0725466 -0.0449228 -3.16567e-19)
(-0.126916 0.0648093 -8.88368e-20)
(1.56136 0.710193 0)
(1.3869 -0.963485 -1.28012e-22)
(-0.265941 0.451108 0)
(-0.0497457 0.191232 1.02129e-19)
(0.717464 0.63447 -9.17555e-20)
(0.862526 -0.235624 0)
(-0.202312 -0.171682 0)
(1.66341 -0.468751 0)
(-0.760716 0.460004 4.90426e-19)
(1.24687 -0.908607 9.11624e-20)
(1.20666 -0.623463 4.86233e-20)
(1.07168 -0.177802 -1.38375e-19)
(0.906139 -0.716865 -1.42968e-19)
(0.195667 -0.199958 0)
(-0.667905 0.396494 0)
(1.02812 -0.529736 1.47944e-19)
(-0.164605 -0.216075 0)
(-0.106269 0.467496 0)
(-0.195908 -0.0204541 3.88026e-19)
(0.773541 0.65258 7.96021e-20)
(0.991699 0.776791 0)
(0.6786 0.533625 -7.92479e-20)
(0.835164 -0.0614399 -2.03071e-19)
(0.727542 0.542937 -2.12002e-19)
(0.573976 0.532972 -1.55935e-19)
(-0.206202 -0.308874 4.0606e-22)
(0.744103 -0.667605 0)
(0.893223 0.159137 -2.96813e-19)
(-0.261944 -0.30352 6.45365e-20)
(0.585851 0.543086 3.51926e-19)
(0.93611 0.779416 0)
(-0.161229 0.207542 3.37683e-19)
(-0.118796 -0.235318 3.70897e-19)
(-0.0928107 -0.0897048 -1.93097e-19)
(0.645583 0.55028 -1.37723e-20)
(0.969197 -0.00873457 5.33775e-20)
(-0.283272 -0.211983 0)
(2.18133 0.0232247 -3.13351e-19)
(2.03109 -0.262741 -4.82723e-19)
(0.676828 -0.627276 -6.47806e-20)
(-0.206971 0.464184 9.336e-21)
(1.17429 0.449065 1.6963e-19)
(0.871093 0.396216 0)
(1.07051 -0.18204 1.66898e-19)
(0.00413579 -0.281124 -1.33149e-21)
(-0.120694 0.0314841 3.28983e-19)
(0.924645 0.0174195 -4.69697e-20)
(1.10441 0.142004 0)
(1.85489 0.00391177 -3.20696e-19)
(1.86129 0.087074 0)
(0.535676 0.224898 -4.23858e-19)
(0.0299284 -0.0152347 0)
(-0.22013 -0.287408 2.83498e-19)
(0.709691 0.104138 0)
(0.644056 -0.538293 -1.61211e-19)
(1.14583 0.016701 1.86641e-19)
(-0.135134 0.403255 3.56266e-20)
(2.15777 -0.0438571 9.53005e-21)
(2.15892 -0.229614 -1.52588e-19)
(1.09969 0.220574 -2.02397e-19)
(-0.272155 -0.284235 -1.22675e-19)
(1.10588 -0.876073 0)
(0.81669 0.0177838 -1.35884e-19)
(0.948272 -0.395599 -2.54039e-19)
(1.75504 -0.586905 -9.88336e-21)
(1.7691 -0.0103744 2.97125e-19)
(1.07227 -0.00893585 3.4838e-19)
(0.0159658 -0.290561 -1.77277e-19)
(1.01814 -0.456121 -1.07876e-19)
(0.206014 -0.198475 2.28119e-19)
(1.00785 -0.00863361 0)
(1.00473 -0.0074447 0)
(1.24688 -0.118246 2.1445e-19)
(-0.0589507 0.417315 -7.99396e-20)
(0.188434 -0.118178 -1.60883e-19)
(2.05589 0.039622 -9.24904e-21)
(1.17837 0.144726 0)
(1.77685 0.166602 -1.29306e-19)
(0.974057 -0.84788 -5.55639e-20)
(1.83705 -0.573683 -9.62099e-20)
(1.08245 0.819176 0)
(0.492379 -0.474709 0)
(0.586635 0.497634 -1.64782e-19)
(1.08297 0.270844 -3.74374e-19)
(2.26213 -0.233101 4.87197e-22)
(0.85697 0.143441 1.27263e-19)
(-0.0747825 -0.293586 -5.02577e-19)
(1.65219 -0.348773 -5.17528e-20)
(-0.376847 -0.150595 0)
(-0.140942 -0.196277 0)
(-0.289796 -0.111456 0)
(1.3736 -0.742825 -5.19944e-20)
(-0.0286488 0.0820112 -1.93896e-19)
(0.00676011 -0.0308258 0)
(1.26162 0.9544 -3.21956e-20)
(1.09925 0.142554 -3.8754e-19)
(2.00699 -0.0185735 -3.75573e-20)
(1.05497 0.900725 7.87207e-20)
(-0.0925627 0.269263 1.17295e-19)
(1.25697 -0.16544 0)
(-0.276644 -0.0590283 -3.25173e-19)
(-0.0589694 0.235576 2.24898e-19)
(0.776162 0.012305 1.66773e-19)
(1.50358 0.929149 -4.51161e-21)
(1.39189 -0.0664093 -1.4185e-19)
(-0.12913 0.0356175 -1.46811e-21)
(0.771542 -0.704014 -3.0605e-20)
(1.10579 -0.0216523 0)
(1.69738 -0.0533078 0)
(1.06318 0.0528837 0)
(-1.29613 0.316614 -2.19864e-19)
(-0.320226 -0.10798 1.15732e-19)
(1.02389 0.825274 0)
(1.00184 -0.0101891 4.58143e-19)
(0.748873 0.58539 -2.12702e-19)
(-1.13817 0.33238 -1.86618e-19)
(0.861391 0.00242124 -3.72814e-20)
(0.73879 -0.674884 -1.85217e-19)
(1.36117 0.696428 -3.04545e-20)
(0.585791 -0.477061 -2.6131e-19)
(1.12426 -3.6413e-05 -4.15598e-19)
(0.817103 0.0371673 3.96085e-20)
(1.552 -0.174637 4.18376e-20)
(1.87289 -0.1141 -1.36974e-19)
(-0.101433 -0.117317 -3.77178e-22)
(1.06105 0.454556 -2.49256e-19)
(1.29265 0.600835 6.7771e-20)
(-0.15148 -0.165836 0)
(-0.155847 -0.199726 1.84989e-19)
(-0.0884182 -0.027868 1.33705e-19)
(-0.163146 -0.158966 -1.546e-19)
(0.458619 0.28537 0)
(1.54576 -0.31159 0)
(-0.0242115 0.0192052 -1.19539e-19)
(-0.229503 -0.329852 -6.67017e-20)
(1.04461 -0.0318963 1.64651e-19)
(-0.114876 0.268419 -4.25002e-20)
(1.41406 0.116894 -4.10111e-19)
(-0.139318 0.374964 0)
(0.860099 -0.762777 -2.46492e-19)
(1.59256 -0.138698 2.22113e-19)
(-0.508496 -0.119767 1.56396e-19)
(0.712374 0.137079 3.02181e-19)
(0.617549 0.108772 9.78645e-20)
(0.522064 -0.494983 1.78401e-19)
(-0.184287 -0.216153 -1.48639e-19)
(1.48653 -0.266172 0)
(0.37543 0.316881 -1.80446e-19)
(1.02792 -0.0174349 -2.61822e-19)
(-0.370763 0.225491 2.15895e-19)
(1.39462 0.472502 -1.13107e-19)
(-0.176838 -0.245361 -5.8147e-20)
(0.712558 -0.650417 -1.89488e-20)
(0.806366 0.16877 -1.89958e-19)
(0.960977 0.410542 2.12563e-20)
(1.1671 -0.147969 2.9853e-20)
(0.62122 -0.256476 -2.70527e-19)
(2.05523 -0.354064 -2.04772e-19)
(2.01021 -0.0336342 0)
(1.89246 -0.095804 -4.08353e-20)
(1.56698 0.0609808 -1.13029e-20)
(0.829641 -0.160226 1.41644e-19)
(0.917329 0.354839 -1.69331e-19)
(1.80124 -0.13092 3.55924e-20)
(0.401752 0.367686 -2.34202e-19)
(-0.0520193 0.477001 1.58505e-19)
(2.14848 -0.096377 0)
(0.9357 0.00590907 0)
(0.90134 -0.797758 4.55326e-20)
(-0.109107 -0.270474 -4.06428e-19)
(-0.492841 0.425308 -1.88016e-19)
(-0.121062 -0.146953 -2.54076e-19)
(-0.173437 0.483974 -1.23142e-19)
(-0.416866 -0.137634 0)
(-0.134936 -0.177078 4.60883e-20)
(-0.19568 0.224352 -8.09104e-20)
(0.0236292 -0.0109189 -3.1184e-19)
(0.813551 -0.130039 0)
(1.84797 -0.367193 2.12013e-19)
(-0.105987 -0.0834893 0)
(0.995584 0.0237123 3.30856e-19)
(-0.244875 -0.204182 1.8995e-20)
(0.561538 -0.449191 3.50199e-19)
(-0.594012 -0.0916586 3.85492e-19)
(-0.934089 0.233678 0)
(0.0151722 0.32448 8.00113e-20)
(1.00531 0.0210907 -9.93768e-21)
(-0.0499451 -0.1461 0)
(1.00497 -0.00955323 -5.17192e-20)
(0.886629 -0.749772 -2.39977e-19)
(1.4135 -0.00914409 0)
(0.950678 -0.287417 1.81585e-19)
(0.0289691 0.495643 1.5901e-19)
(-0.0644743 -0.068081 0)
(-0.222901 -0.272148 -6.6834e-21)
(0.749965 -0.656193 -3.67786e-19)
(0.965857 -0.0258186 -2.34583e-19)
(-0.0960499 -0.287662 4.91879e-19)
(-0.192374 -0.285584 1.77026e-19)
(-0.387513 -0.144024 0)
(0.942392 0.459699 0)
(-0.391554 -0.180921 2.03962e-19)
(1.90474 0.11739 -2.00037e-19)
(1.05134 0.876321 1.7552e-20)
(1.06234 0.204369 -1.1347e-19)
(1.1421 0.00646664 -1.91578e-19)
(1.06239 -0.0739891 -6.56067e-20)
(-0.0937146 -0.320434 -4.45848e-19)
(1.9015 0.117976 3.99835e-19)
(0.672198 0.0328718 1.90867e-19)
(1.74618 -0.00582293 1.47659e-19)
(1.06162 -0.159223 0)
(-0.749203 0.293183 3.67351e-19)
(1.1445 0.0249385 -4.48395e-19)
(1.72148 0.610136 1.05812e-20)
(0.762997 -0.476947 -1.4234e-19)
(-0.0961174 -0.0929932 2.49289e-19)
(0.82309 -0.722737 3.17186e-19)
(1.22445 0.192698 6.90058e-20)
(1.00662 -0.00841323 2.29163e-19)
(0.00920297 -0.331047 -1.90853e-19)
(1.02016 0.0128132 0)
(1.65563 0.0460813 -2.22376e-19)
(-0.082955 -0.0842878 0)
(1.01389 0.0120051 -1.34413e-19)
(-0.670932 0.185574 -5.43927e-19)
(1.72127 0.305043 3.45899e-20)
(-0.148668 0.00247823 1.69777e-19)
(1.59306 0.0153402 -8.80765e-22)
(1.01348 -0.019566 4.75145e-20)
(1.30505 -0.0857525 0)
(1.47727 -0.622248 -8.66806e-20)
(1.01953 0.0293715 -1.41125e-19)
(1.41552 0.775537 -5.50073e-20)
(1.31564 -0.0278113 0)
(1.37777 0.54676 6.91288e-21)
(-0.0337718 0.0236442 0)
(1.38696 0.0492861 0)
(-0.316921 -0.175493 0)
(1.22596 0.437998 0)
(1.82926 0.274316 3.97575e-20)
(0.722519 0.597918 3.72832e-19)
(0.304791 -0.306805 -2.11149e-19)
(-0.214673 -0.328392 -4.15815e-19)
(-0.0929759 -0.109694 0)
(2.5753 -0.269764 1.87346e-19)
(1.31125 0.51539 0)
(1.44218 0.290058 0)
(-0.289465 -0.0237329 1.42515e-19)
(0.788762 0.69654 1.20397e-19)
(1.71445 -0.016865 0)
(-0.232589 -0.238382 9.24123e-20)
(0.899209 0.205274 1.74237e-19)
(2.22734 -0.229016 -1.35365e-19)
(1.2168 0.909132 4.27199e-20)
(0.951532 -0.856165 -2.07067e-20)
(1.83628 -0.0876497 -9.54745e-20)
(0.774796 0.699875 1.23725e-19)
(1.15406 0.90684 0)
(2.42345 -0.0278228 2.22011e-19)
(0.894404 0.830161 0)
(1.59007 -0.513561 1.30497e-19)
(1.02007 0.0978968 1.79707e-19)
(1.0053 -0.00627225 0)
(-0.156733 0.820652 3.49836e-19)
(0.901421 -0.187946 4.24501e-20)
(0.650271 -0.431882 0)
(0.688743 -0.404922 1.89226e-19)
(1.21898 0.546372 -3.15151e-20)
(0.459559 0.432793 2.5806e-19)
(0.0199698 0.0111864 3.72459e-20)
(-0.0037407 -0.0973368 8.5795e-20)
(0.764905 0.0605684 0)
(1.35705 -0.923936 -3.09285e-20)
(1.03089 -0.0454054 3.6587e-19)
(1.49084 0.341942 1.3418e-19)
(-0.236855 -0.204108 7.9103e-20)
(-0.665612 -0.00539971 0)
(1.25099 -0.246276 -9.42993e-20)
(-0.0668516 -0.0712048 -2.12444e-19)
(-0.225768 0.473025 -4.21099e-20)
(-0.131172 0.0565207 -7.8373e-22)
(-0.19807 0.0964523 2.71347e-19)
(0.245208 -0.107839 -1.71711e-20)
(2.39092 0.00198153 4.19638e-19)
(1.17341 0.451831 -2.7354e-19)
(0.849535 -0.0551749 0)
(1.87362 -0.11139 1.91959e-19)
(1.88298 0.0733572 1.32089e-19)
(0.938248 -0.788773 1.15384e-19)
(1.19064 -1.00324 -1.22182e-20)
(0.464011 0.430304 1.73325e-19)
(1.61906 0.623962 0)
(1.73119 0.570552 2.47361e-20)
(-0.0794882 -0.0927873 -4.32281e-19)
(0.864862 0.754073 0)
(1.71406 0.0813834 0)
(0.306307 -0.305968 -4.00401e-21)
(0.308044 0.277629 0)
(-0.896725 0.21587 -3.35504e-19)
(-0.00615575 0.0815327 -1.06545e-19)
(1.77813 -0.436804 0)
(1.23272 0.0873859 1.79464e-19)
(-0.485064 0.502804 1.56696e-19)
(0.554444 -0.52705 -4.0282e-19)
(1.85114 -0.0330144 -5.42762e-20)
(0.633822 -0.575905 0)
(1.01949 0.122639 0)
(1.3865 -0.266875 0)
(1.10846 0.219494 -2.15991e-19)
(1.34044 0.104707 3.05831e-19)
(-1.01306 0.40301 0)
(0.890496 -0.0597274 0)
(2.16961 -0.0789636 -1.19465e-20)
(-0.0499421 -0.0091873 9.18891e-20)
(2.37778 0.0899015 -2.68096e-19)
(1.10722 -0.529566 2.23935e-19)
(1.97349 0.0712741 -3.11892e-19)
(-0.506102 0.367856 -1.16043e-19)
(1.92278 0.0907711 -1.63639e-19)
(1.01941 -0.0269679 3.72526e-19)
(1.49394 0.593583 0)
(-0.0600164 0.23776 2.88869e-20)
(1.03274 -0.852936 1.35626e-19)
(0.860136 -0.0315155 4.35776e-20)
(0.655511 -0.454509 0)
(1.95135 -0.544214 1.05571e-20)
(1.22887 -0.199791 1.2149e-19)
(1.8841 -0.434242 0)
(0.629332 -0.584952 3.64959e-19)
(1.55338 0.025639 -6.02474e-20)
(2.25605 0.0979535 4.20554e-19)
(-0.0273714 -0.00673065 -1.92346e-19)
(1.31075 0.607865 1.41149e-19)
(1.1323 0.39742 3.43183e-21)
(0.892182 0.357852 2.08575e-19)
(1.92309 0.359695 -2.24976e-19)
(-0.0948302 -0.33805 -2.79411e-21)
(0.840475 -0.160414 0)
(-0.137925 -0.113229 4.0871e-19)
(1.12566 -0.978936 0)
(1.09136 -0.671933 1.77154e-20)
(0.961966 0.0219413 -6.39183e-19)
(1.04612 1.09665 3.25403e-20)
(-0.463696 -0.0319108 -3.68377e-19)
(0.971817 0.470816 1.6355e-19)
(-0.393902 0.832574 2.42998e-19)
(0.689783 -0.0406409 0)
(2.09049 0.0068466 0)
(1.25498 -0.0147279 8.69456e-21)
(0.786119 -0.00885933 0)
(1.3761 -0.20912 -1.25012e-19)
(-0.736347 0.33157 4.00722e-19)
(1.9022 0.498009 7.6958e-21)
(1.04003 -0.0347335 0)
(0.571728 -0.374382 9.27749e-20)
(1.00949 0.0264017 1.77607e-19)
(-0.115754 0.576133 -1.03799e-19)
(-0.190978 0.513259 0)
(1.13298 -0.490211 4.03676e-19)
(2.0582 -0.107088 -7.0894e-22)
(1.12351 -0.513306 -1.7596e-19)
(2.27506 0.267596 1.28816e-19)
(1.26697 0.776888 0)
(0.867671 0.0204885 0)
(-0.258387 -0.153228 -1.95203e-19)
(-0.0250453 0.0126724 1.34514e-19)
(0.936802 0.354138 -1.92906e-19)
(0.136138 -0.317652 -1.7217e-19)
(0.632872 0.387394 2.25126e-19)
(1.34361 0.578557 0)
(0.558702 -0.519579 0)
(-0.156607 -0.463606 -8.54407e-21)
(1.2574 -0.521534 -7.89001e-20)
(0.768426 -0.0684312 1.6897e-20)
(0.739252 -0.175933 1.06771e-19)
(-0.0727482 0.00107178 -2.41034e-19)
(0.954745 0.194419 1.88177e-19)
(0.64368 0.599667 0)
(1.25012 0.684192 0)
(1.60004 0.258635 0)
(-0.43931 -0.0975758 -1.71489e-19)
(1.23061 0.547384 1.84615e-19)
(1.9969 0.0715706 5.29532e-20)
(0.920685 -0.0114006 0)
(2.59454 -0.489017 0)
(2.12567 -0.0550629 -3.00232e-19)
(-0.113713 0.316939 1.25655e-19)
(1.00524 0.00263519 -1.77908e-19)
(1.47954 0.473657 0)
(-0.0928818 0.493082 0)
(1.22585 0.311489 2.69575e-19)
(1.00697 0.514916 -1.21665e-19)
(1.0676 0.0229993 0)
(1.84009 0.229956 0)
(1.95624 0.661085 -2.71535e-19)
(-0.107566 0.0924721 -2.37601e-22)
(0.99688 0.0119647 0)
(0.692755 0.453766 -3.10405e-20)
(0.96434 -0.850139 0)
(1.00123 0.0148522 4.12129e-20)
(0.333271 -0.81052 -2.59652e-19)
(0.920933 -0.337787 2.66677e-19)
(-0.263543 -0.442463 1.78273e-19)
(2.12573 -0.0794304 4.01175e-19)
(1.58926 -0.00393238 1.06488e-19)
(0.794652 -0.0235388 0)
(1.01877 0.00837218 0)
(-0.506794 -0.17071 0)
(0.648285 0.620401 -1.76933e-19)
(-0.0459232 -0.00774873 1.62793e-19)
(1.15551 0.341913 -4.31826e-19)
(-0.196557 0.380133 0)
(0.811305 0.626012 1.56907e-19)
(1.02621 -0.348293 0)
(1.00551 -0.00213956 1.04195e-19)
(-0.366412 0.194021 5.43893e-20)
(1.01964 0.393286 2.39837e-19)
(1.29997 0.250751 0)
(2.16967 0.147039 -6.46792e-20)
(0.831355 -0.128428 -3.26691e-19)
(-0.81543 0.295301 -4.4751e-19)
(0.759653 0.308139 0)
(0.869793 0.227149 1.61745e-19)
(2.08989 -0.0761759 0)
(0.759814 0.50392 3.37813e-19)
(-0.891596 0.348067 1.75014e-19)
(-0.0203285 -0.0250373 0)
(0.574635 0.545905 -6.60162e-20)
(1.0524 -0.660213 -1.2458e-19)
(0.496501 -0.276356 -1.10765e-19)
(1.02135 -0.0184966 0)
(-0.195271 0.524828 -1.43201e-19)
(0.659676 -0.589449 7.1233e-20)
(0.895559 0.274908 0)
(1.88015 -0.196874 2.42473e-19)
(0.962472 0.819394 2.2865e-20)
(0.145188 -0.829457 2.12446e-19)
(0.226465 -0.0423882 -3.13246e-19)
(0.242193 -0.0865931 -5.06088e-19)
(-0.155446 -0.220061 1.09853e-20)
(0.803099 0.34108 2.2923e-19)
(-0.02173 0.113009 -4.75338e-21)
(1.44451 -0.665013 3.57346e-21)
(1.02477 0.00565365 -3.0775e-19)
(-0.4592 -0.0909411 0)
(1.02928 0.029528 -3.67664e-19)
(2.07222 0.291691 1.8705e-19)
(0.869244 0.673188 2.63773e-19)
(1.14172 -0.0727723 1.40328e-19)
(1.00751 -0.0337388 1.42418e-19)
(0.999052 0.996548 -3.12831e-20)
(-0.185163 -0.165121 3.06213e-23)
(1.77482 -0.891811 1.60511e-20)
(1.14564 -0.134792 -6.09744e-20)
(0.818919 0.0534458 6.95057e-20)
(0.923869 -0.306908 7.91957e-20)
(1.43077 -0.0309786 0)
(0.942718 0.717805 0)
(0.119182 0.212818 -6.48885e-20)
(1.97735 0.184344 -1.8414e-20)
(-0.760822 0.114185 1.52663e-19)
(1.05323 -0.556899 -4.32311e-19)
(0.637913 -0.554854 3.44423e-19)
(1.12298 0.185166 -9.33787e-20)
(0.160995 -0.274422 1.9899e-20)
(1.34251 -0.401061 0)
(0.749541 0.0944891 -6.17581e-21)
(1.61181 -0.510509 -2.42609e-19)
(1.01969 0.745334 0)
(0.889936 -0.657532 0)
(0.511969 0.44333 0)
(-0.189909 -0.246466 -6.93139e-20)
(-0.0996621 0.183056 0)
(1.23735 0.176676 1.52994e-19)
(1.21056 0.177061 5.91559e-21)
(-1.00134 0.349294 2.0327e-19)
(1.56802 -0.0817934 3.6894e-20)
(1.80221 0.450963 -5.77338e-20)
(2.14135 -0.30776 -4.31482e-20)
(-0.170472 0.0263434 -1.90757e-19)
(-0.258123 -0.230548 4.98418e-21)
(1.50003 0.0221832 0)
(0.673274 -0.0355017 0)
(1.00064 -0.000322337 2.24867e-22)
(-0.447916 -0.078862 0)
(1.43056 0.0552711 -1.36006e-19)
(0.675453 -0.031881 0)
(1.05944 0.00431588 1.12605e-19)
(0.988801 0.0145013 -4.03791e-20)
(1.10763 0.236543 1.16511e-19)
(1.05869 -0.0198574 -8.3928e-22)
(0.960894 -0.202781 -4.79575e-20)
(1.0275 -0.0356443 3.29275e-19)
(0.693532 -0.631588 1.59908e-19)
(-0.986202 0.28268 -2.59619e-19)
(1.80451 -0.0591609 5.66151e-20)
(-0.0285883 0.00913843 0)
(1.10458 0.778681 0)
(1.0318 -0.0101928 0)
(1.02844 -0.795739 -8.40631e-20)
(1.07015 -0.9163 1.31589e-20)
(2.07388 0.325726 -4.59478e-20)
(-0.659418 -0.0693669 -7.24631e-19)
(0.143382 0.00990388 -2.51695e-20)
(0.605476 -0.407222 -5.65664e-19)
(1.90672 -0.136464 -8.09037e-20)
(-0.386749 -0.45301 2.23209e-19)
(2.11556 -0.305848 1.40161e-19)
(1.56044 0.0712767 -5.08619e-20)
(-0.241188 -0.256245 -1.41443e-19)
(1.09568 0.540052 1.8525e-19)
(-0.163787 -0.268927 0)
(-0.0476771 -0.231886 4.05398e-19)
(-0.139582 -0.172825 -2.16327e-22)
(1.02589 -0.0460422 2.99583e-19)
(1.02566 -0.00187283 -7.63942e-21)
(1.10519 -0.0113325 -8.27559e-20)
(1.19012 0.978178 -6.65359e-20)
(1.60651 0.315802 5.731e-20)
(0.417106 -0.391943 -2.79263e-19)
(1.71625 0.398874 7.19361e-20)
(1.03768 -0.00126811 -2.17209e-19)
(2.21018 0.144467 -5.83142e-20)
(1.30726 0.924875 0)
(1.09137 0.578787 -3.47489e-19)
(1.00254 -0.00517154 8.50133e-20)
(0.657756 0.586583 2.41396e-19)
(1.21548 -0.371068 2.34002e-21)
(1.06189 -0.0124879 -2.7392e-20)
(1.12188 0.0134436 7.75268e-22)
(2.30836 0.128489 1.4548e-20)
(1.55269 0.0564072 0)
(1.04254 -0.0412249 0)
(1.04882 -0.0353075 5.2444e-19)
(1.00254 -0.00327717 0)
(-0.114798 -0.140603 0)
(0.988496 -0.601572 0)
(1.00105 -0.00128434 -4.94334e-19)
(1.18481 -0.701605 6.40915e-20)
(1.02444 -0.0049316 1.03272e-20)
(1.31821 0.938508 -2.56309e-20)
(1.49913 0.985964 4.2304e-21)
(-0.111624 -0.466674 4.25095e-20)
(1.47883 0.325832 1.76817e-19)
(1.38794 -0.0234443 0)
(-0.163524 0.222342 0)
(2.19727 0.11783 4.55309e-19)
(1.32722 -0.614196 0)
(0.999901 -0.00529219 -1.5346e-19)
(1.01067 -0.00119028 2.98046e-19)
(1.4408 0.139449 -6.47101e-20)
(0.00329655 -0.116009 3.16132e-19)
(0.975456 0.000630423 1.62334e-19)
(1.20242 0.155525 1.62275e-20)
(0.848273 -0.0208976 -4.16347e-20)
(1.17125 0.998869 -5.2757e-22)
(0.93221 0.0171962 -1.61809e-19)
(1.00372 0.00351938 1.91948e-19)
(1.00026 -0.00072544 1.13479e-20)
(0.788899 -0.0134442 0)
(0.726047 -0.0272311 0)
(0.721362 -0.0276265 6.11523e-22)
(0.696964 -0.029892 0)
(1.50479 -0.177986 0)
(0.934083 -0.128347 0)
(0.657563 -0.00959723 4.63913e-20)
(0.808595 0.0407559 -2.73583e-20)
(1.39576 0.0955289 0)
(1.15068 0.828278 3.53261e-20)
(1.03621 0.940269 0)
(0.77402 0.107171 0)
(1.08667 0.188175 0)
(1.43193 0.166394 1.36038e-20)
(1.5245 -0.00466215 1.08372e-19)
(0.778749 0.0230046 0)
(0.786657 0.0200739 0)
(0.969587 0.0198841 -1.99676e-19)
(0.814336 0.00795004 3.74111e-19)
(1.00809 -0.0013012 0)
(1.00022 -0.000589812 3.5485e-19)
(1.00019 -0.00074642 -3.83125e-22)
(0.786246 0.022185 3.16787e-19)
(0.995463 -0.00592745 -1.86329e-19)
(0.841326 0.189174 0)
(0.698319 -0.0542391 4.16651e-20)
(1.00067 -0.00165343 -1.79626e-19)
(0.999485 0.000582171 -3.0779e-19)
(0.873006 0.641457 0)
(0.999072 0.00149512 0)
(0.99969 0.000104555 0)
(1.6516 -0.321164 2.14747e-20)
(0.149093 0.200014 -4.77808e-20)
(1.84466 0.141195 0)
(-0.0845874 0.202728 1.97012e-19)
(-1.05084 0.297031 -3.40475e-19)
(1.01893 -0.0174936 -2.39157e-19)
(-0.311899 -0.253813 -1.21875e-19)
(1.01945 0.000371564 -1.91945e-19)
(1.18819 -0.223457 -7.63377e-20)
(0.818932 -0.492065 2.65014e-19)
(-0.110261 -0.132442 -1.03575e-19)
(1.03214 0.0100667 0)
(1.05087 -0.0134526 -5.2813e-20)
(0.857719 0.0199104 0)
(-0.0974994 0.0362607 2.37646e-19)
(1.25329 -0.479827 0)
(-0.3581 -0.0812231 -2.99626e-19)
(1.46065 0.116957 -2.88433e-20)
(1.63007 0.674574 -1.03667e-20)
(-0.0703985 0.0192064 0)
(1.05218 -0.0386247 1.62151e-19)
(-0.43591 -0.068624 -5.87316e-21)
(0.927197 -0.0193126 2.54984e-19)
(1.01142 -0.00979944 -1.63134e-19)
(1.64719 0.847915 3.33285e-20)
(0.506575 0.474257 0)
(0.429268 0.378581 1.88716e-19)
(2.43945 -0.416022 -1.13381e-20)
(1.13807 0.121953 1.79435e-19)
(1.11354 -0.731765 0)
(1.02193 0.00138942 0)
(0.999548 -0.0189982 -3.76056e-19)
(1.01942 0.0142662 -3.64636e-19)
(-0.168137 -0.26171 0)
(1.19981 0.806298 -1.22988e-19)
(1.06891 -0.179379 -2.4914e-21)
(1.01598 0.00284571 1.40779e-19)
(1.01229 0.0123414 -1.76212e-19)
(-0.33632 -0.0166444 -2.93117e-20)
(-0.446101 -0.0338926 1.50001e-19)
(1.01755 -0.0159289 6.01291e-19)
(1.35701 -0.151587 0)
(1.8297 0.6374 -3.92327e-20)
(1.01524 -0.0128728 -1.87073e-19)
(1.96715 0.106641 -1.35173e-19)
(1.05941 0.00665459 -4.3385e-22)
(1.00912 -0.0107001 3.74945e-20)
(2.09742 -0.18039 -3.35094e-19)
(1.01655 0.00581039 1.80995e-19)
(0.219489 -0.138718 2.03479e-20)
(1.01865 0.000961259 0)
(0.927251 0.139347 4.55122e-20)
(-0.852261 0.428683 4.67626e-21)
(1.00113 0.0215021 1.79714e-19)
(1.04158 0.0204228 -6.38878e-22)
(0.839894 -0.371173 -3.48999e-21)
(1.24451 0.311513 3.86836e-19)
(0.997702 0.0146111 1.23307e-19)
(1.0164 -0.0153041 4.35501e-22)
(1.72147 0.250546 -2.2882e-20)
(1.73795 0.923204 -9.60008e-20)
(0.798813 -0.717113 4.74854e-20)
(0.468537 -0.350502 -2.75423e-19)
(1.00692 -0.0111947 0)
(1.02116 0.00202416 4.49842e-20)
(1.01086 -0.0100897 9.51068e-20)
(0.33079 0.258632 1.67957e-20)
(1.01491 0.00410444 -1.88429e-19)
(1.03151 -0.0267999 2.145e-19)
(1.00762 -0.00929269 -1.77887e-19)
(1.01385 0.00406123 -4.7504e-22)
(1.01294 0.000975997 -3.23356e-22)
(1.02629 0.0126721 1.8024e-19)
(0.898144 0.0735271 4.65111e-19)
(1.25047 -0.040401 0)
(0.295538 0.310611 2.06981e-19)
(1.01191 -0.00493364 0)
(1.02052 -0.0208282 -5.24254e-20)
(1.51161 0.436195 -7.97008e-20)
(1.64256 0.0569266 0)
(2.35705 -0.119217 -1.95696e-19)
(0.757923 0.12351 -2.34191e-20)
(0.751202 -0.0172473 0)
(2.03186 0.0220391 0)
(-0.769 0.325371 -1.17501e-19)
(1.01672 0.879112 7.12098e-21)
(1.01753 -0.00598372 -1.90135e-19)
(1.14233 -0.580064 -4.94221e-20)
(-0.292293 -0.342963 5.60855e-21)
(0.218523 -0.281401 0)
(1.58019 -0.374024 0)
(1.7379 -0.0685476 0)
(-0.159133 0.0983793 6.71764e-20)
(0.534564 0.410964 -2.74223e-19)
(-0.634869 0.682385 0)
(0.02334 0.512555 -1.8593e-19)
(1.67193 0.951333 -4.89731e-20)
(1.00821 -0.00416692 -3.71367e-19)
(0.48525 0.646779 -3.49236e-20)
(1.02174 0.00508468 2.45608e-19)
(0.683917 -0.0424292 0)
(-0.155004 -0.241559 -3.21021e-20)
(0.599325 0.413061 -3.17378e-19)
(1.17617 0.00365802 4.27591e-20)
(0.0853488 0.425928 0)
(0.806071 0.0776167 6.43283e-20)
(0.504843 0.481897 4.827e-20)
(1.16485 0.868377 -3.32898e-20)
(-0.0797181 -0.0811436 1.57796e-19)
(1.01962 0.00930625 0)
(0.531166 0.0498809 -1.78537e-19)
(1.0119 -0.00377244 1.39543e-19)
(2.26852 0.176754 0)
(1.01231 0.00637643 2.33802e-19)
(0.0125813 -0.292121 -1.93966e-19)
(1.01863 0.00883106 -1.4477e-19)
(1.38808 0.409522 0)
(2.59487 -0.0953096 7.66734e-22)
(1.00903 0.00209931 -9.71607e-20)
(0.995407 -0.0353914 2.56655e-19)
(1.08379 0.0914342 -2.19599e-21)
(0.165152 -0.685291 1.47575e-19)
(-0.125596 -0.127254 4.15729e-19)
(1.96441 0.240601 1.36689e-19)
(-0.182425 -0.735697 -1.61658e-19)
(0.799476 0.0147823 -3.50439e-19)
(0.802802 0.026556 0)
(-0.0253306 -0.206468 -8.06816e-20)
(1.02042 -0.0178816 -2.81947e-20)
(0.972495 0.0193873 0)
(1.04937 0.000195092 -1.79492e-19)
(0.135682 -0.859843 1.601e-19)
(-0.930932 0.344981 2.04127e-19)
(2.20319 -0.587171 0)
(-0.820126 0.345299 -6.12384e-19)
(1.54258 -0.352078 0)
(1.03929 -0.0187197 5.25812e-20)
(1.1469 0.668614 -5.28743e-22)
(1.01449 -0.00378302 1.50694e-19)
(-0.759808 0.44951 3.3894e-19)
(1.01873 0.000784071 0)
(0.994051 0.00361478 -3.64884e-19)
(1.00872 0.00643631 1.91773e-19)
(1.55377 0.00598353 0)
(0.643894 0.270806 7.26696e-21)
(0.956253 -0.0012533 -1.64215e-19)