/*--------------------------------*- C++ -*----------------------------------*\
| =========                 |                                                 |
| \\      /  F ield         | OpenFOAM: The Open Source CFD Toolbox           |
|  \\    /   O peration     | Version:  2306                                  |
|   \\  /    A nd           | Website:  www.openfoam.com                      |
|    \\/     M anipulation  |                                                 |
\*---------------------------------------------------------------------------*/
FoamFile
{
    version     2.0;
    format      ascii;
    arch        "LSB;label=32;scalar=64";
    class       volVectorField;
    location    "23.5";
    object      U;
}
// * * * * * * * * * * * * * * * * * * * * * * * * * * * * * * * * * * * * * //

dimensions      [0 1 -1 0 0 0 0];

internalField   nonuniform List<vector> 
2186
(
(1.29613 -0.0719803 2.63907e-19)
(1.56385 -0.915216 1.39255e-20)
(1.41621 -0.892314 9.89491e-21)
(0.715918 -0.55569 -1.69018e-19)
(-0.363234 0.300686 -1.67798e-19)
(1.62266 -0.565094 0)
(0.698235 -0.644792 0)
(-0.0817369 -0.0994541 6.18145e-20)
(1.34186 -0.24178 6.99567e-20)
(0.531949 -0.274861 -2.04217e-21)
(0.708932 0.64095 0)
(0.77129 -0.267094 -6.5791e-20)
(-0.09969 -0.127517 -2.55574e-20)
(1.20171 0.0262334 -4.12922e-19)
(1.74408 -0.674714 2.27616e-21)
(1.01588 -0.00119818 1.92368e-19)
(0.979831 0.0133757 0)
(-0.515247 -0.195325 0)
(1.61909 -0.433375 0)
(-0.0888822 0.292049 -7.15155e-20)
(0.491944 0.144258 -1.21662e-19)
(-0.151747 0.216195 9.77043e-20)
(1.19028 0.0293446 3.39984e-19)
(-0.190884 -0.0157528 4.70927e-21)
(1.02953 0.011015 -2.67707e-19)
(0.766663 -0.533052 0)
(0.759909 -0.000977736 1.58912e-19)
(0.589561 -0.569227 -2.01792e-19)
(1.25146 0.741546 0)
(0.961317 0.0248921 -3.65075e-19)
(-0.0422375 0.109976 0)
(1.02222 -0.006975 1.26539e-20)
(-0.0890291 0.214797 0)
(2.70343 -0.0584133 2.27521e-19)
(-0.147888 -0.124093 1.92026e-21)
(1.59006 0.800943 7.43878e-20)
(2.10857 0.0983205 1.39972e-19)
(0.522358 0.191646 -3.6176e-19)
(2.02203 0.176234 -3.19273e-19)
(1.27979 -0.386353 -1.2412e-20)
(-0.136984 -0.177609 0)
(-0.0914288 0.195706 0)
(1.8122 -0.858269 4.33718e-20)
(-0.428559 0.232375 0)
(1.13462 0.296815 1.63418e-19)
(0.579332 -0.25763 3.10572e-19)
(0.889616 -0.758893 0)
(1.1546 -0.768178 1.48108e-19)
(2.28334 -0.0156406 0)
(-0.235013 0.271068 1.79522e-19)
(-0.033872 0.168598 1.05709e-19)
(0.65915 0.608352 8.34957e-20)
(2.00352 -0.749842 2.83996e-20)
(0.613718 0.314944 -2.90086e-19)
(-0.282821 -0.0128129 3.82548e-20)
(0.738989 -0.627304 0)
(1.60082 -0.935429 1.68416e-20)
(0.559994 -0.52087 0)
(2.31566 0.174771 9.21203e-20)
(1.11906 -0.160414 -4.26659e-19)
(1.91504 -0.0863351 1.42891e-19)
(1.38981 0.318206 -1.89138e-19)
(1.38108 0.559126 0)
(1.06844 -0.370865 1.35929e-20)
(1.39478 0.403547 -1.14555e-19)
(1.21836 -0.711045 -2.15271e-19)
(1.20857 0.688632 5.50246e-20)
(0.682748 0.104711 -5.97058e-19)
(0.823901 0.082951 0)
(1.88961 -0.254783 -2.51951e-20)
(-0.116073 -0.135737 -6.96229e-20)
(2.26891 0.0335699 -1.51239e-19)
(0.722934 -0.0054234 -2.64845e-19)
(0.852014 -0.49473 0)
(0.839313 0.207568 -9.69499e-20)
(0.525669 -0.485091 -3.36808e-19)
(2.28248 -0.0188551 0)
(1.00665 0.0101583 3.97834e-19)
(-0.143461 -0.158196 0)
(2.10386 0.344978 0)
(0.478645 -0.166124 7.72893e-20)
(1.04941 -0.358814 2.33724e-20)
(1.02393 0.00894144 4.44856e-20)
(1.35975 0.431072 2.88997e-20)
(0.965374 0.024509 4.67194e-19)
(1.03497 0.0316247 -1.10549e-20)
(0.6802 0.213065 -3.53122e-19)
(1.54031 -0.447123 3.24065e-21)
(1.33344 -0.270704 0)
(-0.0674441 -0.040859 4.77514e-20)
(0.837005 -0.599679 -1.93946e-19)
(-0.107081 0.356972 -7.37474e-22)
(1.09974 -0.0653535 2.81445e-19)
(0.805214 -0.157283 0)
(0.97091 0.0236015 4.44447e-20)
(1.40969 0.668015 0)
(1.57555 -0.929497 0)
(1.33818 0.233732 0)
(-0.324559 0.290882 0)
(0.766266 -0.640596 3.38957e-19)
(-0.449174 0.177901 -2.10951e-19)
(0.143577 0.0112236 1.22791e-19)
(1.60265 0.195348 0)
(1.13638 -0.0938373 -2.57292e-19)
(1.12157 0.0244246 1.96916e-19)
(-0.00571038 0.340041 1.33318e-19)
(0.668554 0.540542 0)
(2.1465 -0.215119 -5.22162e-20)
(0.942484 -0.455451 9.49434e-20)
(-1.10138 0.0183972 2.20177e-19)
(1.83426 0.293655 1.29974e-19)
(-0.207387 0.382939 -2.70779e-19)
(0.789667 -0.717594 0)
(0.593064 0.388783 1.74302e-19)
(1.53276 -0.237826 -2.02777e-19)
(-0.117614 -0.142728 -2.81817e-19)
(1.2575 0.505016 2.19771e-20)
(1.69629 0.0421727 0)
(-0.0889843 -0.0465759 -1.43039e-19)
(0.702941 -0.0399334 8.42477e-20)
(1.61474 0.910925 0)
(-0.165354 0.11889 -2.45789e-19)
(0.921475 0.793592 -2.81878e-19)
(-0.509057 -0.28419 2.60998e-19)
(1.03163 -0.0219562 0)
(1.58613 0.559723 -2.76971e-20)
(-0.317429 0.360347 0)
(0.675571 -0.468495 -1.21191e-19)
(-0.520355 -0.261369 -1.47371e-19)
(0.763577 -0.696206 0)
(0.412215 -0.231607 4.50056e-19)
(0.516751 -0.427159 3.11739e-19)
(0.396473 -0.358698 0)
(0.954857 -0.759005 -1.64974e-19)
(0.0711702 -0.0491153 0)
(-0.133893 0.23008 -1.40659e-19)
(0.785657 -0.673307 1.65369e-19)
(2.30705 -0.286449 1.1596e-19)
(2.23252 0.139287 0)
(-0.0447431 -0.0591692 0)
(0.715354 0.665023 -3.50163e-19)
(1.72795 -0.615971 -3.07804e-20)
(-0.0268625 -0.0351235 0)
(0.956464 -0.782957 -1.74977e-20)
(1.13258 -0.0916796 0)
(1.07307 -0.113793 4.45992e-19)
(2.04215 -0.198434 -3.51847e-20)
(-0.36541 0.265362 0)
(1.19336 -0.53771 -7.0215e-20)
(-0.216012 0.304329 -4.77327e-20)
(-0.230609 0.435199 0)
(1.06606 -0.791013 1.13625e-20)
(1.00601 0.00555672 -6.64518e-19)
(0.627694 -0.451639 -1.1822e-20)
(0.794655 -0.490994 0)
(1.1699 -0.70997 -1.23414e-19)
(0.676273 0.273313 2.72005e-19)
(1.25328 0.13721 0)
(1.5362 0.0667698 -2.53253e-19)
(1.16694 -0.832533 -2.95726e-19)
(-0.04417 -0.0572475 -5.3394e-20)
(-0.0882552 -0.480954 -8.70952e-20)
(1.0788 0.0130766 2.46987e-19)
(0.895828 -0.441696 -1.19402e-19)
(1.59917 -0.491395 -2.99999e-21)
(1.32768 -0.333778 -4.24042e-20)
(0.681051 -0.10717 5.8799e-20)
(-0.184165 -0.0420698 -1.28744e-19)
(1.84097 -0.259606 0)
(2.2613 -0.351455 7.10923e-20)
(1.48994 0.673747 1.3957e-19)
(0.785496 -0.59075 -2.47209e-19)
(0.995597 0.00927823 1.36154e-20)
(0.696953 -0.506185 3.33246e-19)
(1.34705 0.827634 1.27504e-19)
(1.86848 0.0443967 1.60518e-20)
(-0.371032 0.16999 0)
(1.09209 0.0592554 -2.55344e-19)
(-0.323852 -0.478143 -1.51422e-19)
(1.10307 0.512012 8.26678e-20)
(0.0573061 -0.101941 7.78091e-20)
(1.15924 0.0298453 -4.73059e-20)
(-0.197131 0.195614 -1.72438e-19)
(1.33636 0.605194 -7.87322e-20)
(1.17743 0.918076 0)
(-0.371198 0.0913312 -7.84945e-20)
(-0.033487 0.00313954 0)
(0.684546 0.591637 -2.85605e-19)
(2.07473 0.126691 -2.08311e-20)
(-0.113815 -0.164156 8.94615e-20)
(-0.431352 -0.248154 -4.32883e-19)
(0.730395 0.109085 2.62296e-19)
(1.98854 -0.0064959 -3.00344e-20)
(0.961485 -0.328271 -3.45186e-20)
(-0.00863674 -0.010013 0)
(-1.16629 -0.124464 3.95219e-19)
(1.3774 1.00615 -1.49337e-20)
(0.847628 0.101724 -1.4385e-19)
(0.582309 0.547016 1.98817e-19)
(0.486246 0.203413 0)
(-0.157187 -0.286932 -1.03297e-19)
(-0.987269 -0.138679 3.15244e-19)
(1.2583 -0.931253 8.55382e-22)
(0.98451 -0.0197066 -2.07838e-19)
(-0.160061 -0.132746 6.37273e-21)
(-0.206 0.247269 1.44923e-19)
(-0.279587 -0.137633 -9.57485e-20)
(1.85628 -0.0693045 0)
(1.14405 0.0481106 -3.42357e-19)
(2.23274 0.0520546 1.75412e-19)
(1.2433 -0.602418 1.3722e-19)
(0.841238 -0.113606 -8.36149e-21)
(0.617151 0.36943 0)
(0.977699 0.779573 -1.66646e-20)
(0.713467 0.657351 1.88564e-19)
(0.874343 -0.541154 1.7468e-19)
(0.715213 0.533602 0)
(1.02075 0.00564908 8.90598e-21)
(0.857981 -0.641099 2.49622e-19)
(0.863963 0.451144 -4.73291e-19)
(1.19966 -0.101421 0)
(-0.0275205 -0.0285013 -2.0362e-19)
(0.00425136 0.276772 -1.05936e-19)
(1.63858 0.743525 0)
(1.311 -0.914416 -7.31951e-22)
(-0.411906 -0.110409 0)
(-0.344886 0.404942 1.08062e-19)
(0.767124 0.682381 -1.0055e-19)
(0.839345 -0.194975 0)
(-0.188432 -0.0530463 0)
(1.5299 -0.45077 0)
(-0.563575 0.0219586 4.18959e-19)
(1.17804 -0.860633 1.93247e-19)
(1.14834 -0.585223 7.79893e-20)
(1.03412 -0.166758 -1.97406e-19)
(0.852743 -0.670775 -1.98643e-19)
(0.177694 -0.181123 0)
(-0.628171 -0.304292 0)
(0.978227 -0.492251 2.10008e-19)
(-0.0512341 -0.0672413 0)
(-0.299235 0.216815 0)
(-0.134049 -0.144329 2.42911e-19)
(0.823519 0.699762 8.72598e-20)
(1.04744 0.823414 0)
(0.726828 0.584938 -8.73098e-20)
(0.828273 -0.0168533 -2.40489e-19)
(0.775612 0.592436 -2.33826e-19)
(0.618927 0.577145 -1.71105e-19)
(-0.128103 -0.163597 5.21346e-22)
(0.696062 -0.624011 0)
(0.91212 0.197149 -3.39864e-19)
(-0.155873 -0.188004 3.10535e-20)
(0.630966 0.585638 3.84974e-19)
(0.991576 0.827656 0)
(-0.746751 0.284905 2.91013e-19)
(-0.132986 -0.20926 1.54981e-19)
(-0.100675 -0.103685 -7.46182e-20)
(0.694651 0.601218 -1.51456e-20)
(0.968673 -0.00709918 6.41638e-20)
(-0.145867 -0.205801 0)
(2.30184 -0.202149 -1.63018e-19)
(1.82645 -0.24246 -2.75975e-19)
(0.628794 -0.581048 -8.83351e-20)
(-0.495738 -0.238054 8.64916e-21)
(1.22671 0.47944 1.86178e-19)
(0.911259 0.439762 0)
(1.03008 -0.159016 2.20775e-19)
(-0.0501325 -0.218742 -4.43404e-21)
(-0.117749 0.161397 3.99308e-19)
(0.913938 0.0198485 -5.8107e-20)
(1.14931 0.160217 0)
(1.91765 -0.0863466 -9.91577e-20)
(1.90731 0.0537506 0)
(0.563076 0.297519 -4.76371e-19)
(-0.219661 0.286127 0)
(-0.101586 -0.122245 1.36036e-19)
(0.674934 0.103326 0)
(0.596188 -0.486084 -2.038e-19)
(1.13429 0.0194982 2.30024e-19)
(-0.371969 0.206938 3.70325e-20)
(2.01328 -0.0650258 4.18507e-21)
(1.99061 -0.276274 -4.80622e-20)
(1.13746 0.243677 -2.29726e-19)
(-0.163289 -0.204645 -6.16198e-20)
(1.04529 -0.827231 0)
(0.807894 0.0173447 -1.67259e-19)
(0.908003 -0.354802 -3.26084e-19)
(1.68414 -0.566981 4.66747e-21)
(1.69517 0.0287017 4.34899e-20)
(1.09317 -0.00180578 4.10609e-19)
(-0.0542931 -0.22161 -6.95969e-20)
(0.975023 -0.417869 -1.47131e-19)
(0.186625 -0.179298 2.86538e-19)
(1.00847 -0.00656885 0)
(1.0047 -0.00463786 0)
(0.316554 0.0567809 1.07835e-19)
(-0.0746653 0.319484 -1.00152e-19)
(0.175507 -0.116641 -7.45029e-20)
(1.91407 0.0643468 -4.5135e-22)
(0.937728 0.181121 0)
(1.76787 0.00961368 -1.12736e-19)
(0.912508 -0.793967 -1.17283e-19)
(1.73786 -0.5536 -2.1447e-20)
(1.14177 0.866104 0)
(0.450958 -0.431283 0)
(0.635521 0.55051 -1.81454e-19)
(1.12167 0.294556 -4.20317e-19)
(2.20517 -0.292354 1.17275e-22)
(0.874322 0.18111 1.46312e-19)
(-0.0841421 -0.315651 -1.99906e-19)
(1.41751 -0.420433 2.10734e-20)
(-0.16054 -0.39348 0)
(-0.0715 -0.0816346 0)
(-0.166482 -0.243833 0)
(1.30541 -0.705944 -1.37195e-19)
(-0.224493 0.446601 -2.22628e-19)
(-0.130363 0.226769 0)
(1.33433 1.00804 -3.21515e-20)
(1.13547 0.161282 -4.42212e-19)
(2.50356 0.545545 -8.86261e-20)
(1.11908 0.955698 8.18166e-20)
(-0.168812 0.425889 1.39562e-19)
(1.11854 -0.120629 0)
(-0.166418 -0.244156 -1.95669e-19)
(-0.255984 0.43742 2.61123e-19)
(0.780443 0.0591081 1.95697e-19)
(1.586 0.974914 4.70894e-21)
(1.98392 0.822813 -2.11163e-20)
(-0.129621 0.345968 -3.68184e-22)
(0.720159 -0.657008 -4.50038e-20)
(1.1538 -0.0380646 0)
(1.70468 -0.0252883 0)
(0.992328 0.0478411 0)
(-1.19476 -0.0071827 -3.48266e-19)
(-0.185645 -0.293474 6.47261e-20)
(1.08264 0.874006 0)
(0.995021 0.00811651 5.57718e-19)
(0.798442 0.634975 -2.33609e-19)
(-1.53733 -0.04039 -2.23356e-19)
(0.865795 0.0399906 -4.41618e-20)
(0.691554 -0.629316 -2.58237e-19)
(1.42808 0.731714 -3.14101e-20)
(0.537845 -0.418268 -3.21846e-19)
(1.13503 0.00216285 -4.97073e-19)
(0.796477 0.0472954 5.01368e-20)
(1.49951 -0.183779 1.04737e-19)
(1.63739 -0.0903167 -6.90121e-20)
(-0.00991818 -0.0127163 2.16462e-22)
(1.10881 0.49295 -2.7638e-19)
(1.39373 0.644846 8.38531e-20)
(-0.150642 -0.164762 0)
(-0.0687289 -0.371906 7.516e-20)
(-0.0529899 -0.0475684 8.65019e-20)
(-0.188218 -0.0830457 -6.65511e-20)
(0.506513 0.363111 0)
(1.06069 -0.42508 0)
(-0.0358474 0.0421718 -1.45446e-19)
(-0.172608 -0.215364 -3.2553e-20)
(1.052 -0.0271787 1.97063e-19)
(-0.338804 0.230189 -3.84946e-20)
(1.07841 0.301672 -2.90061e-19)
(0.00313223 0.328065 0)
(0.806971 -0.714827 -3.67406e-19)
(1.40585 -0.104405 9.23382e-20)
(-0.176845 -0.525971 9.33922e-20)
(0.733479 0.193336 3.44093e-19)
(0.634423 0.180913 1.11004e-19)
(0.479867 -0.452503 2.27353e-19)
(-0.0333671 -0.051651 -7.49551e-20)
(1.64853 0.762094 0)
(0.422875 0.390398 -1.99501e-19)
(1.02889 -0.0116091 -3.13958e-19)
(-0.459056 -0.26049 1.70758e-19)
(1.46381 0.494912 -1.19427e-19)
(-0.066115 -0.090588 -2.71802e-20)
(0.660084 -0.602776 -1.02466e-19)
(0.834269 0.211832 -2.15676e-19)
(1.00281 0.448799 2.36465e-20)
(1.13501 -0.126437 3.98307e-20)
(0.592554 -0.194244 -3.26035e-19)
(1.94645 -0.359372 -2.23693e-20)
(1.85568 -0.0451763 0)
(1.94025 0.451052 -4.63613e-20)
(2.2443 -0.0402611 3.86244e-23)
(0.567184 -0.257323 5.23161e-20)
(1.04237 0.372253 -2.01007e-19)
(1.28346 -0.38982 -4.13773e-20)
(0.446954 0.421732 -2.58534e-19)
(-0.350017 -0.115609 1.91373e-19)
(1.66746 -0.256418 0)
(0.940358 0.00629851 0)
(0.844551 -0.74687 7.52897e-20)
(-0.135536 -0.226014 -1.69782e-19)
(-0.594558 -0.221876 -1.63191e-19)
(-0.017732 -0.0257022 -1.14894e-19)
(-0.290366 0.051583 -1.37046e-19)
(-0.199218 -0.475352 0)
(-0.0598391 -0.0653529 1.99668e-20)
(0.136164 0.341495 -1.01861e-19)
(-0.228435 0.264852 -3.29581e-19)
(0.792452 -0.0842882 0)
(1.59929 -0.349096 1.14255e-19)
(-0.0401705 -0.0447515 0)
(0.993205 0.0242011 4.01e-19)
(-0.0868814 -0.449913 1.43849e-20)
(0.514247 -0.389741 4.31515e-19)
(-0.42989 -0.495688 2.50466e-19)
(-1.08092 0.0546723 0)
(0.131322 0.263614 1.15061e-19)
(1.00081 0.0262073 -1.20913e-20)
(-0.161654 -0.0720439 0)
(1.00494 -0.00857182 -6.20794e-20)
(0.834518 -0.70244 -3.42654e-19)
(1.17511 -0.318788 0)
(0.919858 -0.250033 2.32835e-19)
(-0.0259064 0.095585 2.04903e-19)
(-0.0126585 -0.0057598 0)
(-0.157882 -0.307955 -2.9455e-21)
(0.701391 -0.60875 -4.84391e-19)
(0.941395 -0.0257322 -2.97435e-19)
(-0.144399 -0.227227 2.01467e-19)
(-0.105992 -0.14053 8.19417e-20)
(-0.168709 -0.422258 0)
(0.985079 0.49938 0)
(-0.156415 -0.549252 1.05505e-19)
(1.60044 -0.317428 -1.50527e-19)
(1.11221 0.928792 1.86556e-20)
(1.08663 0.226528 -1.30926e-19)
(1.12635 0.0105804 -2.53428e-19)
(1.02692 -0.0654945 -9.44249e-20)
(-0.13881 -0.241911 -1.87974e-19)
(1.87582 0.093772 3.77448e-19)
(0.694714 0.0342816 2.19582e-19)
(2.07834 -0.172177 1.08504e-19)
(1.03018 -0.144233 0)
(0.063212 0.238057 4.62535e-19)
(1.14084 0.0268049 -5.43292e-19)
(1.79924 0.634543 4.55641e-21)
(0.718 -0.42746 -1.79069e-19)
(-0.0744763 -0.0400215 1.07001e-19)
(0.771622 -0.675634 4.46971e-19)
(1.27013 0.208629 7.76004e-20)
(1.00768 -0.00779798 2.7484e-19)
(-0.0755327 -0.288014 -7.85834e-20)
(1.02917 0.0244383 0)
(2.03172 0.133997 -2.51814e-19)
(-0.0275617 -0.0118336 0)
(1.0145 0.0144879 -1.63381e-19)
(-1.20806 0.0348929 -4.94031e-19)
(1.73677 0.295024 3.29077e-20)
(-0.124257 -0.0953438 1.12747e-19)
(1.63508 0.0218336 -7.9958e-21)
(1.01512 -0.0164635 5.68558e-20)
(1.29549 -0.0832254 0)
(1.40824 -0.596324 -2.10977e-19)
(1.0268 0.0442443 -1.67221e-19)
(1.48776 0.815222 -5.2457e-20)
(1.34881 -0.0583054 0)
(0.681944 0.167737 -2.40712e-20)
(-0.041611 0.0481127 0)
(1.30224 0.0390605 0)
(-0.182086 -0.263541 0)
(1.27006 0.466826 0)
(1.97575 0.247079 5.34354e-20)
(0.772404 0.645595 4.09473e-19)
(0.278196 -0.279216 -2.69196e-19)
(-0.159152 -0.203645 -1.94196e-19)
(-0.0143647 -0.0114773 0)
(2.2636 -0.237853 1.15744e-19)
(1.42446 0.541368 0)
(1.49922 0.299476 0)
(-0.193493 -0.275549 8.54626e-20)
(0.840557 0.743059 1.30712e-19)
(1.63369 -0.0386984 0)
(-0.0729296 -0.0932089 4.92426e-20)
(0.926054 0.244531 1.99329e-19)
(2.03891 -0.176266 -6.05711e-20)
(1.28376 0.958574 4.48315e-20)
(0.888687 -0.799802 -5.53231e-20)
(1.70993 -0.0863521 -2.80336e-20)
(0.827136 0.747545 1.34033e-19)
(1.22027 0.958075 0)
(2.30593 -0.0308138 1.67891e-19)
(0.944229 -0.0062793 0)
(1.52471 -0.40373 5.32971e-20)
(1.12573 0.119295 2.19989e-19)
(1.00577 -0.0033913 0)
(-0.0969073 -0.0563751 4.87663e-19)
(0.876078 -0.147804 5.28817e-20)
(0.606812 -0.376951 0)
(0.647641 -0.349237 2.32722e-19)
(1.27636 0.579972 -3.42541e-20)
(0.501021 0.474019 2.83736e-19)
(-0.257039 0.319049 3.84278e-20)
(0.246688 -0.0598475 1.09555e-19)
(0.739277 0.0652712 0)
(1.28757 -0.876246 -1.41119e-19)
(1.03549 -0.0420691 4.36991e-19)
(1.58974 0.353971 1.59143e-19)
(-0.0832296 -0.120275 4.23667e-20)
(-0.497323 -0.449651 0)
(1.20446 -0.232703 -1.34116e-19)
(-0.00927409 -0.00439319 -9.18095e-20)
(0.0472625 -0.601493 -4.74022e-20)
(-0.150177 0.0695697 -9.51275e-22)
(-0.222246 0.116407 3.29277e-19)
(1.41816 -0.437579 -1.57695e-20)
(2.34448 -0.176232 2.18296e-19)
(1.22746 0.478169 -3.00246e-19)
(0.887547 -0.0629518 0)
(1.82505 -0.0662835 2.12756e-19)
(1.8333 0.0808856 4.99877e-20)
(0.883657 -0.740931 1.7143e-19)
(1.1173 -0.941915 -7.89411e-20)
(0.504846 0.469704 1.90407e-19)
(1.27093 -0.11822 0)
(1.82444 0.587466 3.48529e-20)
(-0.0138661 -0.00883218 -1.8735e-19)
(0.918164 0.802037 0)
(1.40161 0.65733 0)
(0.278293 -0.277529 -3.45622e-21)
(0.354903 0.349008 0)
(-0.508196 -0.412534 -2.49941e-19)
(-0.308345 0.404332 -1.16135e-19)
(1.67917 -0.422162 0)
(1.27683 0.0995388 1.85323e-19)
(-0.523891 -0.318139 1.36667e-19)
(0.512092 -0.484945 -5.28065e-19)
(1.99239 -0.103557 -3.02758e-20)
(0.588131 -0.532264 0)
(1.05975 0.13527 0)
(1.31659 -0.231143 0)
(1.13963 0.243472 -2.46116e-19)
(1.37764 0.111211 3.49819e-19)
(-0.886654 -0.0936462 0)
(0.873383 -0.0568385 0)
(1.96851 -0.0859326 -1.69646e-21)
(-0.125763 0.22381 1.0936e-19)
(2.2916 0.00980877 -2.28011e-19)
(1.01957 -0.487595 9.13673e-20)
(1.89471 0.0728497 -2.70814e-19)
(-0.592392 -0.274955 -1.10665e-19)
(1.93393 0.0432839 -1.82431e-19)
(1.01481 -0.0142477 4.53452e-19)
(1.56996 0.620221 0)
(-0.305774 0.40024 3.12619e-20)
(0.97296 -0.803538 2.21736e-19)
(0.855409 0.00833038 5.16183e-20)
(0.609677 -0.400682 0)
(1.84066 -0.529788 -4.98437e-21)
(1.18214 -0.181503 1.79504e-19)
(1.65502 -0.342344 0)
(0.585236 -0.542661 5.36891e-19)
(1.0102 0.15398 -2.2635e-20)
(2.39384 -0.000417008 3.33904e-19)
(-0.151072 0.305793 -2.22469e-19)
(1.3758 0.642907 1.51088e-19)
(1.17962 0.426217 3.79576e-21)
(0.930325 0.400415 2.33649e-19)
(1.70757 -0.250446 -2.01271e-19)
(-0.150653 -0.244366 -4.96546e-22)
(0.481721 -0.226388 0)
(-0.147969 -0.0953083 1.77322e-19)
(1.05105 -0.914628 0)
(1.03395 -0.631146 2.62566e-20)
(0.987274 -0.367845 -4.25552e-19)
(1.3586 0.13502 -5.08331e-20)
(-0.278606 -0.432668 -2.21217e-19)
(1.0197 0.509665 1.80369e-19)
(-0.515419 0.0703004 3.8485e-19)
(0.700777 -0.0391096 0)
(1.93763 0.0217422 0)
(1.99731 0.0883162 1.86e-20)
(0.773799 -0.0133995 0)
(1.33697 -0.204168 -1.84707e-19)
(-0.607978 -0.313522 3.25175e-19)
(1.97557 0.507399 2.01469e-20)
(1.05093 -0.0315303 0)
(0.527887 -0.31237 1.16128e-19)
(1.00792 0.026997 2.15025e-19)
(0.480699 0.168786 -3.79086e-19)
(-0.282446 -0.0820358 0)
(1.08327 -0.46104 5.81392e-19)
(1.82572 -0.0920319 -4.97695e-22)
(1.07369 -0.476017 -2.52736e-19)
(2.33252 0.204217 1.7415e-19)
(1.32991 0.820892 0)
(0.879576 0.0223239 0)
(-0.121198 -0.182129 -1.10666e-19)
(-0.0391051 0.0433761 1.63695e-19)
(0.9755 0.3904 -2.16027e-19)
(0.059651 -0.274027 -6.02054e-20)
(0.674996 0.445686 2.49589e-19)
(0.877851 0.225424 0)
(0.516428 -0.47993 0)
(0.329947 -0.0301441 3.76374e-21)
(1.1997 -0.489974 -1.22185e-19)
(0.609534 0.0291592 5.74698e-21)
(0.725855 -0.119486 1.27949e-19)
(-0.104342 0.152873 -2.91191e-19)
(1.13768 -0.0539685 1.78935e-19)
(0.691986 0.645864 0)
(1.3127 0.721909 0)
(1.65881 0.266232 0)
(-0.216262 -0.400375 -8.98429e-20)
(1.32989 0.593738 2.25237e-19)
(2.04867 -0.00220969 2.95267e-20)
(0.951574 -0.0137125 0)
(2.28668 -0.444974 0)
(2.04464 -0.0567092 -2.88276e-19)
(0.665379 0.278013 4.46034e-19)
(1.00511 0.00643882 -2.1463e-19)
(1.52845 0.495213 0)
(-0.285274 0.0233021 0)
(1.27883 0.333289 3.00032e-19)
(1.05579 0.553923 -1.33967e-19)
(1.0776 0.0299887 0)
(1.50674 -0.243348 0)
(2.08796 0.685482 -3.28138e-19)
(-0.113482 0.425093 -2.07283e-21)
(0.995408 0.0157011 0)
(0.738255 0.508405 -3.43456e-20)
(0.903328 -0.796274 0)
(1.00137 0.0178931 5.00197e-20)
(-0.222059 -0.237399 -1.40711e-20)
(0.88393 -0.299413 3.4472e-19)
(0.421732 -0.343136 -5.93662e-20)
(2.10993 -0.178699 1.31202e-19)
(1.77256 0.168079 1.17361e-19)
(0.781661 -0.026619 0)
(1.00485 0.0128232 0)
(-0.319408 -0.52508 0)
(0.696015 0.666892 -1.92514e-19)
(-0.0828698 0.11448 1.96036e-19)
(1.19465 0.367184 -4.81447e-19)
(-0.415824 0.0411287 0)
(0.861523 0.673874 1.72228e-19)
(0.987364 -0.312482 0)
(1.00567 -0.000458074 1.25489e-19)
(0.385642 -0.378303 6.59322e-20)
(1.06321 0.426569 2.65853e-19)
(1.42165 0.109964 0)
(2.15245 0.0848714 -7.1957e-20)
(0.820343 -0.0836322 -3.9435e-19)
(-0.705051 -0.382759 -3.56285e-19)
(1.05454 -0.00811797 0)
(0.897207 0.266607 1.83234e-19)
(1.85973 -0.285531 0)
(0.806459 0.55396 3.72586e-19)
(-0.694027 -0.270035 1.42301e-19)
(-0.0986362 0.161947 0)
(0.619944 0.590486 -7.24158e-20)
(0.998926 -0.618116 -1.83063e-19)
(0.45464 -0.199736 -1.31581e-19)
(1.01872 -0.0087583 0)
(-0.322753 -0.214109 -1.4788e-19)
(0.612775 -0.542489 9.14807e-20)
(0.927796 0.313966 0)
(1.62466 -0.309377 1.47331e-19)
(1.01988 0.869615 2.46806e-20)
(0.73291 -0.339297 3.37051e-21)
(0.0747294 -0.0713158 -1.09796e-19)
(0.209306 0.0481702 -5.8374e-19)
(-0.0632932 -0.0840313 4.96617e-21)
(0.844678 0.387704 2.55461e-19)
(-0.249403 0.447758 -5.40514e-21)
(1.3741 -0.630799 3.20679e-21)
(1.02024 0.0175909 -3.74608e-19)
(-0.251934 -0.457683 0)
(1.03746 0.0424646 -4.36273e-19)
(2.11986 -0.153771 1.6735e-19)
(0.920404 0.72003 2.88431e-19)
(1.12318 -0.063891 1.77957e-19)
(1.00138 -0.0180288 1.73369e-19)
(1.37694 0.168765 4.62416e-20)
(-0.0495233 -0.0705528 -4.28834e-23)
(1.67368 -0.848128 1.40879e-20)
(1.11301 -0.121847 -9.43984e-20)
(0.766985 0.0495398 1.09128e-19)
(0.892311 -0.270853 9.94431e-20)
(1.43088 0.263278 0)
(0.996175 0.764615 0)
(0.835638 -0.277497 -7.85679e-20)
(2.09363 0.188721 -2.43968e-20)
(-0.520614 -0.426235 1.19833e-19)
(1.00346 -0.515858 -6.03709e-19)
(0.591116 -0.505716 4.34392e-19)
(1.43824 0.106349 -1.28856e-19)
(0.0542124 -0.234349 7.21891e-21)
(1.47238 -0.457723 0)
(0.761662 0.1487 -7.12514e-21)
(1.57956 -0.371952 -9.70717e-20)
(1.07521 0.790903 0)
(1.06734 -0.376324 0)
(-0.287038 -0.0576104 0)
(-0.0660518 -0.0762281 -3.26072e-20)
(-0.0899579 0.174682 0)
(1.80304 0.406655 5.2057e-19)
(1.24944 0.192988 6.73689e-21)
(-1.03439 -0.189127 2.04593e-19)
(2.12527 0.852252 2.28211e-20)
(1.90421 0.457385 -7.71659e-20)
(2.08264 -0.337587 -1.42106e-20)
(-0.191644 0.0341015 -2.32085e-19)
(-0.167051 -0.373277 2.19443e-21)
(1.42919 0.163698 0)
(0.682749 -0.0339107 0)
(1.00125 0.000777182 1.6361e-22)
(-0.213997 -0.430863 0)
(1.50519 -0.0126783 -7.04236e-21)
(0.683643 -0.0307414 0)
(1.0468 0.0131282 1.42865e-19)
(0.989431 0.0160087 -4.88896e-20)
(1.15324 -0.0310579 9.94074e-20)
(1.07236 -0.0133778 -9.98117e-22)
(0.934924 -0.17252 -5.9744e-20)
(1.01873 -0.0216219 4.04184e-19)
(0.645591 -0.582294 2.08374e-19)
(-0.884573 -0.00270046 -2.71438e-19)
(1.25335 0.554174 1.87258e-20)
(-0.0459171 0.0578537 0)
(1.16357 0.824256 0)
(1.02237 0.00447402 0)
(0.974374 -0.749627 -1.30564e-19)
(1.00221 -0.860392 8.49873e-20)
(1.02433 0.341894 -1.16845e-20)
(-0.0669411 -0.0866015 -9.09659e-19)
(0.918041 -0.264305 1.69432e-20)
(0.559092 -0.345374 -6.90965e-19)
(1.57443 0.526993 -6.1518e-20)
(0.311471 -0.101004 -9.24765e-20)
(1.98767 -0.323742 2.51785e-20)
(0.647228 0.115295 -1.41934e-20)
(-0.0794509 -0.0983455 -7.13978e-20)
(1.14696 0.578766 2.02738e-19)
(-0.169641 -0.213576 0)
(0.0749292 -0.420661 1.63461e-19)
(-0.0830608 -0.0714396 -3.53707e-23)
(1.02843 -0.0427017 3.58449e-19)
(1.02058 0.00845382 -9.29139e-21)
(1.11351 -0.00931679 -9.91728e-20)
(1.45695 0.123977 1.69503e-20)
(1.67525 0.328513 5.90976e-20)
(0.376305 -0.35041 -3.46715e-19)
(0.713317 0.287304 2.08051e-20)
(1.03004 0.0107454 -2.66411e-19)
(1.35541 0.432865 -1.92813e-20)
(1.42182 0.253867 0)
(1.14509 0.617346 -3.79708e-19)
(1.0024 -0.00291452 1.02436e-19)
(0.707203 0.635477 2.65172e-19)
(1.31807 -0.447249 -2.8677e-21)
(1.07866 -0.00483165 -3.24282e-20)
(1.13655 0.0171705 9.2199e-22)
(2.25116 0.00485607 1.28805e-20)
(0.621638 0.18059 0)
(1.04416 -0.0386229 0)
(1.04818 -0.0339051 6.28408e-19)
(1.00277 -0.00140624 0)
(-0.0372728 -0.0331557 0)
(0.913844 -0.550168 0)
(1.00075 0.000920999 -5.958e-19)
(1.12466 -0.660125 1.09029e-19)
(1.02019 -0.000198101 1.25653e-20)
(1.39034 0.987442 -2.52368e-20)
(1.58098 1.03657 -1.95454e-20)
(0.866014 -0.247552 -2.9007e-20)
(1.49739 -0.194083 2.33107e-19)
(1.86569 0.259311 0)
(0.0113652 0.381149 0)
(1.9197 -0.23327 3.1653e-19)
(0.94299 -0.321751 0)
(0.999485 -0.00408502 -1.84003e-19)
(1.01084 -0.000741442 3.57728e-19)
(1.48123 0.143964 -7.27709e-20)
(0.0066139 -0.121468 1.4023e-19)
(0.977267 0.0001308 1.94265e-19)
(0.116243 0.0399555 9.85465e-21)
(0.557909 -0.119929 3.58588e-20)
(1.58313 0.14294 3.54083e-24)
(0.924298 0.0182043 -1.97465e-19)
(1.00347 0.00492105 2.31764e-19)
(1.00018 0.00047015 1.36723e-20)
(0.791143 -0.0125346 0)
(0.730848 -0.0260613 0)
(0.727187 -0.0266674 8.46345e-22)
(0.70398 -0.0286422 0)
(1.48302 -0.1482 0)
(0.957155 -0.178474 0)
(0.377284 -0.149323 -4.4599e-20)
(0.270142 -0.117029 2.81521e-20)
(1.37613 -0.368673 0)
(1.38932 -0.255633 2.76602e-20)
(1.55955 0.0525354 0)
(0.00182011 0.143099 0)
(0.0888402 0.0285919 0)
(0.335507 0.0957754 -3.02222e-21)
(1.03336 0.207293 3.62693e-20)
(0.776441 0.0236507 0)
(0.787437 0.0201296 0)
(0.96325 0.0217261 -2.43129e-19)
(0.816522 0.00817055 4.52086e-19)
(1.00777 -0.00149638 0)
(1.00007 -0.00065623 4.27911e-19)
(1.00019 -0.000778218 -2.8173e-22)
(0.785625 0.0225845 3.862e-19)
(0.99609 -0.00627454 -2.23102e-19)
(-0.0462052 0.145098 0)
(0.616024 -0.130396 -3.58814e-20)
(1.0009 -0.000249289 -2.15997e-19)
(1.00006 0.00246658 -3.71162e-19)
(1.3002 0.0661905 0)
(0.998721 0.00185358 0)
(0.999506 0.000276086 0)
(1.70002 -0.572536 -1.9615e-20)
(0.213221 0.0357763 4.22689e-20)
(0.932185 0.398053 0)
(-0.343597 0.264995 1.82102e-19)
(-0.483187 -0.103852 -4.79235e-19)
(1.02132 -0.0119333 -2.88175e-19)
(-0.190376 -0.258686 -6.26715e-20)
(1.01749 0.00880097 -2.32547e-19)
(1.14093 -0.205217 -1.32259e-19)
(0.7747 -0.444564 3.4043e-19)
(-0.0175176 -0.0191746 -4.60828e-20)
(1.02835 0.0167642 0)
(1.06613 -0.00902542 -6.22716e-20)
(0.844988 0.0275876 0)
(-0.097706 0.114826 2.89115e-19)
(0.653168 -0.352774 0)
(-0.214632 -0.347868 -1.69128e-19)
(0.306893 0.0919382 -5.8948e-21)
(1.71472 0.702601 6.31366e-21)
(-0.0741691 0.0177197 0)
(1.05242 -0.0371878 1.94348e-19)
(0.75944 -0.188146 4.46311e-21)
(0.929591 0.00991594 3.03792e-19)
(1.01322 -0.00474979 -1.96088e-19)
(1.73427 0.886703 4.61425e-20)
(0.551339 0.520054 0)
(0.477424 0.44253 2.08506e-19)
(2.12756 -0.490122 -5.91583e-22)
(1.17686 0.135812 2.04476e-19)
(1.0569 -0.688458 0)
(1.02318 0.00906581 0)
(0.99942 -0.0166065 -4.51207e-19)
(1.01755 0.0189607 -4.41707e-19)
(-0.103458 -0.143027 0)
(1.26254 0.851463 -1.30146e-19)
(1.52946 -0.535353 3.05352e-21)
(1.0168 0.0086838 1.69653e-19)
(1.01117 0.016014 -2.13061e-19)
(-0.232449 -0.328778 -1.72744e-20)
(0.804731 -0.171266 -1.14036e-19)
(1.0201 -0.0118844 7.22931e-19)
(1.47068 -0.470212 0)
(1.93068 0.660714 -5.52815e-20)
(1.01672 -0.00828898 -2.25421e-19)
(2.10692 0.0262482 -9.82128e-20)
(1.06743 0.0124396 -5.17607e-22)
(1.00992 -0.0078853 4.5007e-20)
(1.96817 -0.290974 -1.22093e-19)
(1.01464 0.00877186 2.19157e-19)
(1.00065 0.530698 3.94712e-21)
(1.01938 0.00786072 0)
(0.948013 0.170534 5.24123e-20)
(-1.08949 -0.354178 4.4516e-21)
(0.996741 0.0226193 2.17791e-19)
(1.03841 0.0213628 -5.44715e-22)
(1.26883 -0.420067 -1.57697e-20)
(1.28716 0.330282 4.28461e-19)
(0.995021 0.0182016 1.49994e-19)
(1.01828 -0.0108841 5.02316e-22)
(1.79154 0.246496 -2.17683e-20)
(1.86072 0.98433 -1.15294e-19)
(0.74723 -0.670164 7.131e-20)
(0.422015 -0.278171 -3.32077e-19)
(1.00828 -0.00827815 0)
(1.01902 0.0051187 5.44176e-20)
(1.01146 -0.00560901 1.14502e-19)
(0.768719 0.331356 5.14264e-21)
(1.01361 0.00988117 -2.28139e-19)
(1.02368 -0.0160689 2.62499e-19)
(1.0091 -0.00434636 -2.13968e-19)
(1.01389 0.0100432 -5.26173e-22)
(1.0131 0.00642415 -3.87736e-22)
(1.02357 0.0173958 2.18608e-19)
(0.911812 0.111312 5.42584e-19)
(1.9232 0.69662 0)
(0.593802 -0.69766 2.05082e-19)
(1.01016 0.000866659 0)
(1.02279 -0.0121874 -6.32031e-20)
(1.58609 0.454658 -8.22898e-20)
(2.07592 -0.120422 0)
(2.22142 -0.096719 -1.20902e-19)
(1.4016 0.374847 -9.14873e-20)
(0.775599 -0.0177877 0)
(1.71105 -0.310555 0)
(0.44195 0.351525 -4.04337e-19)
(1.14566 -0.00950645 -3.79533e-20)
(1.01787 0.000279029 -2.29621e-19)
(1.0885 -0.543414 -7.23891e-20)
(1.19344 -0.335336 -4.91287e-20)
(1.14763 0.637032 0)
(1.5458 -0.469925 0)
(2.182 0.438444 0)
(0.0280748 0.164767 1.03826e-19)
(0.875745 0.32102 1.12009e-19)
(-0.50865 -0.0555277 0)
(-0.0832124 0.0514477 -2.23904e-19)
(1.7604 0.99767 -6.778e-20)
(1.00801 -0.000572372 -4.49028e-19)
(0.710956 0.176787 4.71465e-20)
(1.02104 0.0154755 2.97561e-19)
(0.699464 -0.0427773 0)
(-0.110818 -0.151434 -1.38273e-20)
(0.643766 0.471944 -3.52014e-19)
(1.84648 0.584336 2.11267e-19)
(0.102087 0.143283 0)
(0.762187 0.0677792 9.25623e-20)
(0.547577 0.525253 5.30142e-20)
(1.22745 0.916415 -3.49264e-20)
(-0.0388564 -0.0213618 6.77584e-20)
(1.02341 0.0190847 0)
(1.07768 0.405935 3.96664e-20)
(1.01097 0.00212703 1.68437e-19)
(2.27545 0.0289144 0)
(1.01131 0.0112826 2.82715e-19)
(0.0899413 -0.376553 -7.55144e-20)
(1.01949 0.0148146 -1.74952e-19)
(1.41687 0.5799 0)
(2.31841 -0.11264 5.38282e-22)
(1.00891 0.00693388 -1.17354e-19)
(0.996111 -0.0139729 3.09395e-19)
(1.1147 0.107298 -3.63202e-21)
(1.14849 0.627516 -2.37033e-20)
(-0.145978 -0.0718112 1.7887e-19)
(2.11097 0.22753 1.90955e-19)
(0.192037 0.261499 2.48413e-20)
(0.801004 0.0150535 -4.24429e-19)
(0.820838 0.0279689 0)
(0.0747233 0.0771766 5.32406e-20)
(1.02432 -0.00828674 -3.39423e-20)
(0.973664 0.0421474 0)
(1.05481 0.00420818 -2.14827e-19)
(-0.27755 0.299544 5.79572e-21)
(-0.750647 -0.231687 1.61742e-19)
(2.08227 -0.575825 0)
(-0.91714 0.161568 -5.16997e-19)
(1.47459 -0.336007 0)
(1.04246 -0.0157467 6.31063e-20)
(1.07675 0.120673 1.88244e-21)
(1.01234 0.00285468 1.82451e-19)
(-0.633948 -0.230137 2.7794e-19)
(1.01939 0.00749108 0)
(0.994204 0.00379701 -4.36711e-19)
(1.00809 0.0108136 2.31827e-19)
(0.827392 -0.189454 0)
(0.661103 0.00905754 -1.1833e-20)