/*--------------------------------*- C++ -*----------------------------------*\
| =========                 |                                                 |
| \\      /  F ield         | OpenFOAM: The Open Source CFD Toolbox           |
|  \\    /   O peration     | Version:  2306                                  |
|   \\  /    A nd           | Website:  www.openfoam.com                      |
|    \\/     M anipulation  |                                                 |
\*---------------------------------------------------------------------------*/
FoamFile
{
    version     2.0;
    format      ascii;
    arch        "LSB;label=32;scalar=64";
    class       volScalarField;
    location    "7";
    object      p;
}
// * * * * * * * * * * * * * * * * * * * * * * * * * * * * * * * * * * * * * //

dimensions      [0 2 -2 0 0 0 0];

internalField   nonuniform List<scalar> 
2186
(
0.741835
-0.376604
-0.071398
1.02442
-1.24798
0.00674682
0.645272
-1.16522
-1.08751
1.25661
0.94465
-0.990758
-1.19341
0.957357
-0.592126
0.955654
0.978244
-1.90399
0.00206102
-1.10476
1.33503
-1.03171
0.959937
-1.08098
0.952716
1.00014
1.16623
0.864585
0.461735
0.955408
-1.08622
0.953756
-1.03023
-0.404275
-0.964055
-0.0476226
-0.344466
1.32186
-1.00496
0.00484135
-1.224
-1.04433
-0.714454
-1.11505
0.801788
1.24001
0.31717
0.484691
-0.325137
-1.52236
-1.09963
0.779992
-0.694864
1.24973
-0.973202
0.911381
-0.767265
0.937422
-1.14138
0.781142
-0.218704
0.514521
0.420131
0.00923288
0.447538
0.425421
0.541973
1.22668
1.12424
-1.19473
-1.17195
-0.217559
1.20154
0.955266
1.10467
1.10587
-0.329462
0.972488
-0.970332
-0.967122
-2.335
0.00681797
0.937076
0.499928
0.944422
0.945512
1.22709
0.00904765
0.00831824
-0.992644
0.910486
-1.14197
0.876511
1.11381
0.965278
0.280499
-0.195172
0.472839
-1.40806
0.949899
-1.88986
-2.22902
0.543319
0.91061
0.977432
-1.18485
1.13055
-0.743995
0.889703
0.170054
-0.892305
-1.36732
0.512297
1.2443
-1.0065
-1.10469
0.0173719
-0.218385
-1.00103
1.20609
-0.189109
-1.8818
0.737639
-1.99318
0.958847
0.0155743
-1.32623
1.09644
-1.88801
0.626691
1.32632
1.18557
0.206883
0.618243
-2.19723
-1.59111
0.883898
-1.06422
-0.646422
-1.05442
0.677384
-0.231828
-1.12909
0.669157
0.866216
0.90523
-0.695211
-1.27709
0.570994
-1.11461
-1.22705
0.547858
0.976989
1.13348
0.999714
0.494402
1.22002
0.31914
0.213016
0.389982
-1.05309
-2.11823
0.923218
0.943976
0.00591058
0.00428294
-0.933009
-0.900252
-0.0112965
-0.0272442
0.219397
0.953995
0.978864
1.06446
0.286068
-0.43787
-1.22719
0.922569
-2.20882
0.750724
-0.910331
0.970089
-1.09448
0.412973
0.392279
-1.2664
-0.934493
1.04557
-0.644432
-1.20096
-1.3859
1.19476
-1.13943
0.932399
-1.04218
0.166524
-0.0805983
1.11471
0.975942
-1.06598
-1.43535
0.204661
0.0489739
0.981747
-0.991475
-1.21464
-1.01099
-0.113433
0.889211
-0.618944
0.483022
0.00666257
1.23166
0.708269
0.81112
0.910105
1.10094
0.958326
0.861756
1.01421
0.353673
-1.0195
-1.08544
-0.0599235
0.157039
-1.99892
-1.30069
0.942356
1.08689
-0.880659
-0.918478
0.0214263
0.340662
0.616314
0.748444
0.864182
1.07657
-1.71734
0.845965
-1.08464
-1.50538
-1.09631
0.899802
0.604013
1.06662
1.12465
1.02319
0.999503
-1.14006
0.794825
1.04257
-1.20825
0.88516
0.654152
-0.182377
-1.01327
-0.942726
1.06804
0.974614
-1.23664
-0.925508
0.0126656
0.920109
-2.20335
0.634735
0.981636
0.844817
-1.07312
-1.10274
0.931426
0.527262
-0.550277
-0.609636
1.27624
-1.21802
-1.14247
0.812106
1.13733
0.944864
-1.36849
-0.53006
-0.883957
0.825845
-1.24747
0.517129
0.927501
0.976973
-0.225669
-0.433235
0.907012
-1.21778
0.886117
1.14748
0.970358
0.965703
0.0723852
-1.49614
-1.06106
-0.257813
-0.210211
-0.859289
0.349376
-0.580121
0.476168
1.12442
1.12686
0.825859
-0.72781
1.07656
-1.63624
0.00686695
-1.6678
-1.04633
-1.24275
0.319376
-1.23047
-1.15161
0.00705899
0.843898
-0.0616518
0.237072
-1.34813
-0.012515
-1.20649
-1.32515
1.16039
-0.181953
0.0220154
-1.11426
0.760321
0.434203
-0.54826
0.515352
0.243276
-1.30425
0.531717
0.978966
0.983612
0.279104
1.09557
0.857689
0.236718
1.19558
0.949129
0.899206
0.340213
-0.0942502
-1.06663
0.765813
-1.17314
-0.949435
-1.79309
-0.981305
-0.999034
1.29668
0.0407874
-1.09342
-1.21876
0.953071
-1.17772
-0.417648
-1.49573
0.732757
-0.0463118
-2.29558
1.18997
1.25252
1.08415
-1.14198
0.022073
1.3114
0.950798
-1.45732
0.316498
-1.09904
0.141689
1.10919
0.893036
0.837663
1.2514
-0.511872
-0.127479
-0.0711899
-0.266824
-2.23201
-1.02402
0.0102746
1.23767
-2.23343
-1.46563
0.935098
0.556816
-1.03055
-1.75216
-1.0771
-1.81346
-2.02992
-1.03282
-1.15029
-1.20868
1.14138
-0.000905902
-1.04402
0.970924
-2.03822
1.21271
-1.95439
-0.00547287
-1.56162
0.949147
-0.884178
0.975008
0.817846
0.0684031
0.999149
-1.98359
-1.02198
-1.4514
0.976018
0.902088
-1.10382
-1.11078
-1.75669
0.890068
-2.38779
-1.33804
0.37359
0.870024
0.847367
0.684883
-1.15064
-0.561519
0.762528
-0.667319
0.798236
-0.0867866
0.9706
-0.201981
1.08774
-0.999941
0.823321
0.610835
0.980265
-1.53426
0.941418
-0.22538
-1.01845
0.957996
0.197212
-0.00159803
-1.04362
-0.27533
0.959192
0.0953366
0.258243
0.950051
0.0924048
-0.16412
0.0047622
-1.0929
0.224699
-1.2951
0.594712
-0.917597
0.982035
1.09279
-1.171
-1.04235
-0.0727871
-1.05329
0.284929
-1.23191
0.722469
-0.0590109
-1.18495
1.02655
-0.0338004
0.229039
0.267676
-0.0651148
0.682141
0.199423
-0.141686
0.0134467
0.0120773
-0.873571
0.966002
0.0258509
1.06328
1.18098
1.16812
0.532337
1.08631
-1.2179
-0.900268
0.873356
0.188871
0.936846
-0.965102
-1.17636
-2.09009
0.742881
-1.02706
-1.01205
-1.08594
-1.13822
0.0128167
-0.873219
0.625728
0.616717
-0.637295
-0.614
0.72318
0.0443523
1.05336
-0.284031
-0.344421
-1.0302
0.642735
0.0124352
1.12893
1.32674
-1.67179
-1.25621
-0.846188
0.133889
-2.06978
1.00205
-0.568975
0.960212
0.66735
-0.916565
0.785816
0.754494
-0.221528
0.851375
-0.33699
-1.11712
-0.558541
-0.957584
-0.406422
-1.83985
-0.684129
0.951631
0.0684755
-1.30498
0.564464
1.09552
1.16809
-0.374824
0.702552
0.0203594
0.750771
-0.0373261
-0.641979
-1.15411
0.366089
0.710376
0.979193
-0.898568
-1.17513
-2.04995
-1.00402
-0.14648
0.701141
-1.6587
0.00427359
-1.70413
0.846832
0.154549
0.903219
-0.1872
-0.218499
0.909575
0.615294
-1.68248
-0.326952
0.912559
1.24407
0.969413
0.148782
-2.10615
0.763572
-0.164159
0.747833
-0.772158
0.31141
0.910442
-1.19627
-1.09715
0.935908
-1.68468
1.16838
0.00722561
0.848688
0.0294639
0.587783
-0.731585
1.18629
-1.10183
-1.55776
0.863943
0.393542
0.377481
-1.66303
-1.08291
-0.6007
0.706684
-0.00395028
-0.648112
0.0919376
0.968028
0.25991
-1.97599
0.64731
0.794943
0.930806
-0.84432
-0.974451
-1.15413
0.969309
1.09764
0.465756
0.969118
0.0533776
1.01431
0.035928
-0.858783
-0.172815
0.891105
0.919481
-2.42197
0.74398
-1.11509
0.71311
-1.35796
0.908179
0.912211
0.965002
-0.361624
0.830893
-1.87143
-0.784328
1.11734
-1.44859
-0.0965139
1.04313
-1.33864
1.02292
-1.29773
-1.13292
0.955321
0.750198
1.30855
0.954161
-2.32401
1.0459
1.00993
-0.0403039
0.513112
0.0447758
-0.876497
1.43407
-1.07326
1.0575
-1.24571
0.273509
0.951944
-1.80807
0.931995
-0.633907
0.825746
0.915241
0.971863
0.0072909
-1.14443
-0.642945
0.573519
0.647391
1.02492
-0.0646895
0.721922
-0.847963
-0.484375
-1.76732
0.799411
1.10537
-1.41551
-1.28253
0.0209866
1.17631
0.023499
0.621599
0.0380509
-1.67451
-1.12954
-1.05237
0.0295686
0.719051
0.105162
0.0103329
-0.460147
-0.550359
-1.10867
-1.72256
-0.0803654
0.920147
0.971066
-1.68693
-0.386607
0.932561
0.905769
0.971923
-1.60201
0.928844
1.01264
0.950405
1.02374
0.204041
-0.00154635
-1.10156
0.498463
0.959659
0.681854
0.126329
0.00964543
-0.185037
0.0260368
1.21349
-0.0198907
0.0278654
-0.679228
-0.00996088
-1.16783
0.684394
-0.903236
-2.17982
-1.01646
0.943832
0.95835
0.956114
0.00700937
0.190833
1.19181
0.0101676
0.946738
0.00426519
0.00626239
0.654937
0.968328
1.0087
0.0186524
0.923147
0.923886
-0.707189
-0.00208755
0.958148
0.971281
0.972576
-1.03714
-1.03955
0.971146
0.581988
0.957771
0.0635343
-0.293024
0.0238154
-0.420775
-0.12298
-1.22819
-1.19094
0.0415815
0.974912
0.978686
0.667695
-1.00921
0.948754
0.0121626
0.0153069
0.00489808
0.951185
0.977363
0.973484
0.978372
0.962548
0.954205
0.942914
-0.0245922
0.0145155
0.00699616
0.00752557
0.0012362
0.00218946
0.00114475
0.00780626
0.00805193
0.00831613
-0.0196155
0.950273
0.967759
0.965996
0.984702
0.979774
0.97277
0.973883
0.957592
0.959931
0.00181227
0.0121866
0.972926
0.971034
4.82974e-06
0.975157
0.974048
0.0182669
0.0198529
0.00729328
-1.1633
0.232967
0.958006
-1.32099
0.956199
0.60402
1.03845
-1.06603
0.951042
0.890368
0.899722
-1.09333
0.0510275
-1.3956
-5.7457e-05
-0.201879
-1.07493
0.965887
0.0172213
1.04105
0.963993
-0.341231
1.10424
1.26057
0.00931434
0.80169
0.638925
0.951361
0.964805
0.965839
-1.07298
0.358396
0.0182047
0.961027
0.967825
-1.32731
0.0172427
0.961081
0.0125702
-0.515501
0.960709
-0.466137
0.936606
0.965871
-0.967473
0.968517
0.0266914
0.959686
1.01685
-0.307177
0.974388
0.976911
0.0175256
0.591371
0.961098
0.970122
-0.0167443
-0.965642
0.695002
1.30164
0.965729
0.957783
0.963895
0.0153881
0.961519
0.946311
0.967682
0.959132
0.962449
0.957677
1.05227
-0.00766435
-1.82195
0.966649
0.95346
0.164921
-0.384401
-0.0787129
0.039465
0.820043
-1.42767
0.120522
0.0049967
0.953793
0.697533
0.0111694
0.0328788
0.014658
-0.0854884
-1.36582
0.0190858
0.162826
-2.31204
-0.513323
0.967383
0.0112648
0.951734
0.874853
-1.03806
1.1811
-0.00244548
-1.81023
0.733
1.06186
0.330209
-1.00941
0.952145
0.0280539
0.96508
-0.878562
0.966141
-1.99121
0.95305
0.0224173
-0.136326
0.967172
0.979677
0.88752
0.0329268
-0.990796
-0.999193
0.0394014
0.978267
0.85734
0.0312723
0.952666
0.994174
0.94391
0.0542798
-1.20539
-0.675946
-0.316741
0.304419
0.968312
0.00457803
0.959054
-1.54069
0.955709
0.991942
0.967767
0.00153451
0.000264226
0.99262
-1.30452
0.965797
0.970238
-0.00695735
-1.16021
0.858922
1.07325
0.950044
0.943493
0.0531971
0.080329
0.929565
0.391131
0.969238
0.818987
-1.22424
-1.12959
0.795724
1.20122
0.955505
0.319786
0.0762571
0.0381925
0.0940491
0.149539
0.945838
-0.408652
0.935033
-1.69615
-1.04932
-1.23734
0.347126
-1.31762
0.0623122
0.117221
0.952024
-1.00873
0.828549
-1.08358
-0.199764
0.0620741
0.0101855
0.126112
0.928998
0.0421906
-0.698055
0.0883607
-1.2737
0.940024
0.174944
0.00805014
-1.26396
1.01757
0.031705
-1.07819
1.02152
0.941367
0.934253
0.468352
-0.877234
0.956058
0.978473
-0.129921
-1.18419
0.953692
0.773001
1.19133
0.969459
-0.143629
0.171105
-1.2554
-1.7673
-1.38106
-1.02436
0.0329442
-1.48813
0.776615
-0.0470738
0.966961
1.15206
0.948803
-0.994882
-1.45259
0.953805
0.172275
0.0964438
0.935491
-0.254264
-1.08826
-1.07703
0.0408448
0.898898
0.871914
-0.0329144
0.823258
0.586104
0.253871
0.943753
-2.56533
0.760773
-1.03995
0.946621
0.165083
0.396388
0.955218
1.02538
-1.07544
-1.57413
0.778885
1.31823
0.973761
0.946193
0.236778
1.20176
-0.869358
0.0781767
-0.85868
0.450788
-0.61307
1.06063
1.11971
-1.09868
-0.193076
0.950041
-0.758703
0.817266
0.982782
0.913256
-1.16316
0.956397
0.000251378
0.982183
0.00116369
0.0844343
-0.29006
0.959142
0.0177718
-0.65222
0.0761306
0.959479
0.111887
1.12803
0.240747
1.26544
0.913545
-1.08824
0.938135
-1.14033
0.924524
0.933205
0.0595854
0.108865
1.0603
0.944083
1.16319
0.909044
0.0661194
0.907148
0.950173
0.800803
0.959687
-1.101
-1.43248
0.208397
1.05712
-0.414345
0.117555
-1.11265
-0.387433
0.0611055
0.0197116
0.78862
0.0680391
0.917312
0.967642
-1.20047
-1.4235
-0.897262
-1.26835
-1.38812
-1.13394
0.955494
-0.0640922
0.971472
1.19232
1.00961
-0.337967
0.973928
0.88752
-0.662171
0.917807
0.93386
-1.22632
0.935294
0.868815
0.0153608
-0.764961
1.40475
-0.110968
-1.57803
-1.35348
0.215067
0.943457
-1.66651
-0.0557036
-1.07489
1.08253
0.153319
0.777061
0.963644
0.949195
-0.771632
0.932526
-0.444761
0.967593
0.976655
-0.546969
0.970285
0.405807
0.951203
0.678405
-1.4294
0.00192078
0.000768289
0.0333854
1.18191
0.0060504
0.97997
1.33773
-0.149612
-0.00433102
1.02221
0.00413123
1.02018
-0.00153202
0.00497549
1.0121
1.01519
0.405804
-2.43447
0.682807
-0.87553
-1.37779
-0.869354
0.977415
0.958253
1.37304
-1.01
0.138886
0.722745
-1.41514
1.02206
0.926883
0.953261
0.946111
0.923321
-1.47671
-1.02802
-1.9791
0.746656
0.875754
-0.54582
-1.15165
-1.0988
0.970041
0.992475
-0.353112
-1.62628
0.989592
0.131832
0.129762
0.694552
0.851729
-0.0275564
-1.49445
-0.348317
-1.16383
-0.903985
-1.64082
0.111532
1.32579
1.30786
-1.10396
-1.07585
0.967903
0.947559
-1.4167
-0.0776287
-0.386575
0.570703
1.0455
-1.81617
0.963447
0.0212703
-1.44924
-1.163
-1.56878
-1.1823
0.945314
-1.12591
-1.81342
1.30643
-1.15089
0.967358
1.17062
-1.16022
1.01592
1.21062
-1.21189
1.18723
-1.16861
-1.50846
0.959855
0.0547395
0.987399
0.963212
-1.17129
1.01594
0.125971
-1.09272
0.994472
1.00451
-0.934194
-2.1206
0.895588
0.953883
-1.13768
-0.932494
1.22765
-1.16565
0.859133
0.0197866
0.905523
-0.942913
-0.685926
-1.09225
-1.19046
1.0327
0.990913
1.24633
1.15022
0.912836
1.01454
1.00295
-1.078
1.07509
1.10963
-1.21254
-1.15881
-1.3017
1.26868
0.0213219
-1.43299
0.038511
0.870647
-1.2256
-1.03563
0.95802
0.994629
-1.10813
-1.17338
-1.35741
0.0147068
-0.99485
-1.21963
-1.06496
0.821591
0.874833
-1.136
-0.577869
-0.899684
0.770274
-1.16674
-1.15781
-1.05424
0.92441
-2.72109
-1.18792
1.28476
0.880422
0.380202
1.15899
0.0620933
0.957748
0.967842
1.07977
1.1714
0.00657059
0.604821
0.94537
0.247878
-1.04257
1.37192
0.926825
0.877148
1.02324
-1.20276
-2.57948
0.82322
0.738841
0.92573
-1.88744
-0.784296
0.94513
-1.05399
0.793619
0.034328
1.35932
-1.03355
0.661611
0.724607
-1.11042
-1.0247
-2.14623
1.02741
-1.11794
-1.01619
0.687382
0.539327
-1.64487
1.02093
0.808497
-1.12546
-0.914952
0.903548
-1.90697
-1.01653
-1.31477
-1.08758
-0.823057
0.926643
0.969028
-0.278931
0.606681
0.962904
1.29026
0.25856
0.199879
-0.0740719
0.860676
-0.473209
-1.10351
-0.0368829
-0.709218
-1.09627
0.948454
-1.11539
0.085378
-1.00975
0.468775
0.557769
-1.08579
0.622395
-1.11518
0.484628
-1.07519
0.391101
-1.10698
0.377528
-0.997137
0.30407
-1.06471
0.804861
-2.62904
-1.06357
-1.0715
-1.00436
0.973079
0.0723853
-1.11026
-0.994858
-0.0539133
0.0431787
-1.10115
-1.02531
-1.16022
-0.138318
-1.01222
-0.225382
-1.04812
-0.443947
-1.24251
-0.310673
0.837121
0.0194911
-2.25913
0.934176
-0.161165
0.00634978
0.430051
0.926582
-2.4675
-0.621585
-0.991222
-1.87095
0.864413
1.36342
-0.26116
0.0298919
0.00684772
-1.14009
-0.466854
-0.379557
0.920662
-1.12055
0.918602
-1.14967
1.42751
0.448257
1.37279
-1.16026
1.15417
-0.690727
0.981341
-0.889497
-0.991192
1.0472
0.957492
-1.79428
-1.01275
-1.08224
0.913483
-1.38609
0.942049
-1.2106
-1.20814
-1.09676
1.25444
0.984428
1.0805
0.963373
0.974442
0.0419617
-0.55239
1.14951
-2.19411
-1.07482
1.35987
-1.18818
0.867708
0.918969
1.32189
1.37807
-1.24395
-2.50191
0.993355
0.209856
-0.482506
-1.02218
-0.0800946
-0.364896
-1.1697
0.538013
-1.61935
1.16499
-0.551491
0.982948
1.0764
0.980496
-1.72427
-0.97717
-1.3479
1.04485
-1.18505
1.11703
-0.856317
-1.37658
1.18254
1.26251
-0.985132
-0.00827233
0.915155
-1.66152
-1.47381
0.634565
1.21814
1.18227
-1.58534
0.82538
0.776005
-0.99912
1.19441
0.196357
-1.14471
-0.053526
0.0109643
0.0198761
1.05656
-1.05367
0.171181
0.0184331
0.0417773
-0.937893
-0.961925
0.943025
-2.10779
0.967208
-0.201476
0.0692389
0.671123
0.238879
-0.971155
-0.780076
-1.21431
-0.00417626
0.0155537
-1.34132
0.867268
-2.56485
-2.07007
0.952223
-1.54257
-1.22658
0.970294
-1.12445
0.905187
0.00722088
-1.06428
-0.340033
0.759654
-0.777373
-2.37597
0.857335
-1.16368
1.03167
-0.606881
-1.3064
-1.10485
-1.00265
1.43656
-0.79948
1.08894
0.0183425
0.922372
1.13565
0.691336
0.986992
1.10152
-0.253452
-0.599031
0.936382
1.05892
1.31336
-1.13973
0.99706
0.595527
-1.16364
0.763395
1.17159
-0.740808
1.28843
0.0481796
-1.07067
0.811457
-1.17108
-1.07009
0.918272
-0.623918
1.0166
1.02772
0.905492
-1.13392
0.842252
1.20704
-1.52648
-0.440114
-0.648658
-1.42753
-1.27474
-1.01759
1.30663
0.730708
-1.20477
0.889396
-1.17049
-1.13345
1.22941
1.16963
-2.35637
-1.94519
-1.00169
-1.12928
0.940617
-1.21787
0.0596325
-1.01433
-0.559054
1.02269
-1.15163
1.33397
0.999278
0.849162
0.972699
1.24801
-1.42245
-1.16709
0.977627
1.10736
-0.926285
0.966821
-0.573939
-1.08902
-1.11986
1.02273
1.05374
-1.10368
-1.26407
0.522632
-0.0866349
-1.87095
0.936653
0.894094
-1.73876
0.936336
0.981207
-2.01857
-1.21859
-1.17598
-1.07525
-1.11658
1.26786
0.0576493
0.845202
-1.23052
1.26541
0.836746
0.793846
0.884028
-1.16393
-0.245365
-1.06152
0.441632
-1.18395
0.897885
0.275212
-0.741213
0.801761
0.978647
0.996457
0.960756
0.00372828
0.999226
0.00319418
0.392639
0.741561
-0.706616
-1.21051
-1.18072
-0.861702
0.968369
0.944066
0.968835
-2.57342
-0.837839
-1.04976
-0.996276
0.961771
1.23089
0.978275
-1.19802
-1.05374
-1.52615
-0.709469
-1.00709
-1.00223
-0.344653
0.948164
-0.990634
-1.13201
0.0109458
-0.116763
0.637757
0.0448541
-1.03904
-1.50014
0.877194
1.3775
0.0105037
1.06082
1.43069
0.573702
1.14995
-1.24288
0.0255937
1.34912
-1.02913
0.290199
-1.16952
-1.12634
-1.07327
-1.11461
0.942089
0.715074
1.13391
1.09452
0.00093904
0.761295
-0.070516
0.00766304
-1.02044
1.06662
0.639737
0.972396
0.986597
0.0067363
0.00727115
0.989318
-0.551316
-1.00592
-1.12321
-1.0787
0.562383
-1.10771
0.927265
0.652244
-1.02965
1.19151
-1.2026
-0.482464
0.944195
-1.00484
-1.1688
-2.37022
0.506276
-1.14436
-1.84654
0.840826
0.982379
0.0168308
0.021167
-2.27974
-1.01239
0.0876252
-2.36272
-0.207993
0.584855
-1.40747
-1.09982
1.2065
0.148136
0.255175
-1.09182
-1.13916
0.960278
1.01613
0.431938
0.519613
-1.08041
-1.12229
-0.760022
0.351121
0.427165
-1.06895
0.801106
0.0241104
-1.05823
1.38729
-1.06084
-2.11452
-1.11562
-1.02007
0.823142
-1.08553
-1.20445
-1.00018
-0.0166207
-1.13272
-0.129303
-1.09908
0.00786828
1.11779
-1.19507
-0.201986
-1.03097
-0.320219
1.28404
1.34662
1.17183
0.96368
1.1478
-0.911955
0.950214
-1.20292
1.0121
-0.99021
-0.928666
1.22074
-1.1022
0.459423
-2.474
1.34938
-0.176159
1.28888
0.504559
0.706693
-1.15613
-1.1728
-0.993384
-1.6567
1.26049
1.1355
0.948852
0.609122
0.95548
0.846984
0.730262
-1.07562
-1.1194
0.106863
0.0147358
0.703288
0.965391
-0.0546962
-1.16647
-1.06773
-2.29492
-0.989448
-0.512611
1.29712
0.986112
0.962277
0.00201799
0.00594322
0.985252
-0.133378
-1.01398
-1.49272
-1.16018
0.691297
-1.12309
-1.09171
-0.337918
0.953329
-2.80715
-1.11179
0.955335
0.592859
0.688465
0.950422
-1.00548
0.786237
1.1458
0.819153
-0.996935
0.946456
0.336899
0.350624
-1.25574
-1.11065
1.38863
0.227752
-1.45285
-0.00106993
0.826456
0.905979
-1.1091
-1.98848
0.00731059
-1.24005
-0.937073
-1.21539
0.0151537
0.947185
-1.5468
0.936856
1.23194
1.05847
0.930183
1.01754
1.08176
0.954277
-1.7595
-0.695699
-0.583599
-1.07542
-0.904796
-1.08394
1.08657
0.979946
-1.16604
0.927269
-1.00372
0.077832
-1.06867
-0.025383
0.512738
-1.79068
0.942525
0.822551
-2.10023
-0.432439
1.28334
-2.67147
0.100877
-1.36812
-1.22544
-1.05482
1.00065
0.682329
1.05698
-1.55386
-0.179577
-0.968621
-0.523175
-1.17012
-0.853136
-1.70528
-2.61734
0.828972
-0.746316
1.40202
-1.33451
-0.583728
-1.03267
-1.08281
0.896382
-1.05902
-1.44799
-0.94061
-0.346938
1.12962
1.17811
-1.64144
-0.210692
0.735009
-1.01567
-0.853866
1.06569
-1.70171
-0.92632
-1.64144
0.658287
-0.440759
-1.16995
0.945664
-0.123667
-1.30084
0.953882
-1.05121
-1.64914
-1.58711
-1.16629
-0.128634
-1.17352
1.2555
-1.03463
0.137103
-0.994424
0.70118
-0.921728
-1.16061
0.547394
0.73187
1.01008
0.927505
1.1163
-1.10076
0.816056
0.531203
-1.57979
0.867769
-0.543626
-1.07158
-2.78096
1.13856
1.12457
-1.08701
-1.1233
-1.48292
0.937149
-1.12008
-0.0274943
-1.77125
-1.10002
1.21971
0.938464
-1.16288
-1.14435
-1.18375
-1.1373
0.855331
-1.25705
0.901979
0.110963
0.609934
0.746919
-1.0458
-1.17958
0.860879
-1.08924
0.0108527
1.22828
-1.05485
-1.12932
0.728095
-1.60006
-1.18071
-0.212237
-1.14948
1.30279
-0.634998
0.125477
-1.17143
1.25904
-1.18614
-1.13297
0.542169
-1.54818
-0.993409
1.28735
0.573568
0.979219
-1.19807
1.16744
-0.0144429
-0.847001
-1.21342
-1.22821
-1.19622
1.20065
0.47094
-1.11032
-1.1841
-1.16446
1.06148
-1.0261
1.23636
-0.9969
0.640674
-1.11951
0.256678
0.432148
0.39621
0.311253
0.159656
-1.07655
0.934903
-1.21632
-0.885535
-1.39198
0.253014
1.27492
-0.320815
-1.19197
-1.24414
-1.12584
0.145002
-1.3217
-1.11529
0.823705
0.164784
-1.14459
1.33765
-1.16797
-1.65737
1.30857
-1.13083
0.0249568
-1.03786
-1.07411
-1.10886
1.31311
-1.07728
1.23085
-1.10566
-1.17137
1.10981
-0.283991
-1.11832
0.460636
-1.14237
-0.116461
-0.422929
-1.11565
0.772908
-1.28914
-1.11399
-1.08045
-1.07329
-1.00086
0.812817
-0.299341
-0.476435
-1.15323
1.25665
-0.912851
-1.16678
-1.03989
-0.196226
-1.21733
-1.04677
-1.14548
-0.166306
1.18275
-1.21617
-0.991298
-1.75271
-0.752794
-0.384317
-1.00928
1.33995
1.27326
0.302404
-1.24971
-0.998835
0.212985
-1.00274
1.34992
0.086316
1.04069
0.601293
1.24059
-0.0377742
-1.22187
-1.28915
-0.199608
-1.22304
-0.19922
-0.137259
-1.10335
1.25069
-0.337688
0.0986969
-0.440219
-1.00636
-1.31024
)
;

boundaryField
{
    frontback
    {
        type            empty;
    }
    Top
    {
        type            zeroGradient;
    }
    outlet
    {
        type            fixedValue;
        value           uniform 0;
    }
    bottom
    {
        type            zeroGradient;
    }
    Inlet
    {
        type            zeroGradient;
    }
    rectangle
    {
        type            zeroGradient;
    }
}


// ************************************************************************* //
