/*--------------------------------*- C++ -*----------------------------------*\
| =========                 |                                                 |
| \\      /  F ield         | OpenFOAM: The Open Source CFD Toolbox           |
|  \\    /   O peration     | Version:  2306                                  |
|   \\  /    A nd           | Website:  www.openfoam.com                      |
|    \\/     M anipulation  |                                                 |
\*---------------------------------------------------------------------------*/
FoamFile
{
    version     2.0;
    format      ascii;
    arch        "LSB;label=32;scalar=64";
    class       surfaceScalarField;
    location    "7";
    object      phi;
}
// * * * * * * * * * * * * * * * * * * * * * * * * * * * * * * * * * * * * * //

dimensions      [0 3 -1 0 0 0 0];

oriented        oriented;

internalField   nonuniform List<scalar> 
3181
(
-1.01354
0.389258
0.624279
-0.387837
0.364803
0.0230334
0.520824
-0.357184
-0.16364
0.115406
-0.193375
0.0779688
-0.10415
0.124987
-0.0208373
0.707792
0.476899
-1.18469
0.147692
-0.141477
-0.00621458
0.0918933
0.000481503
-0.0923748
0.616802
-0.806507
0.189705
-0.072085
0.131528
-0.0594431
-0.0106014
-0.0524539
0.0630554
0.139554
0.0370144
-0.176568
-0.00867666
-0.0726056
0.0812823
-1.04836
0.15157
0.896792
-0.323689
0.692253
-0.368564
-1.11358
0.625908
0.487667
0.0872622
-0.939321
0.852059
-0.423468
0.306557
0.116911
-0.629408
-0.408287
-0.00422634
0.0826844
-0.078458
0.0401213
-0.0874821
0.0473608
-0.0727173
0.0502766
0.0224407
1.02158
-1.01654
-0.0050405
0.0204784
0.0442651
-0.0647435
-0.970388
0.339959
0.630429
-0.107591
0.222997
0.30074
-0.246718
-0.0540219
0.0285248
0.0614871
-0.0900119
-0.412143
0.339667
0.0724759
-0.0267788
-0.00360497
0.000528113
0.00307686
-0.0443331
-0.926055
0.156453
-0.0985835
-0.0578691
-0.130067
1.13582
-1.00575
-0.0543696
0.055459
-0.00108942
0.184063
0.275224
-0.459287
0.942821
-1.07289
0.0725524
-0.032431
1.61591
-0.879015
-0.736898
-0.315638
1.02343
-0.151377
0.1427
-0.0861367
0.0134194
-0.408096
0.0844073
-0.16604
0.0799036
-0.628817
0.127143
0.501674
-0.143402
0.0713169
-0.168537
0.172788
-0.00425112
-0.267187
-0.0785016
0.345689
-0.315411
1.19001
-0.874601
0.103569
0.217937
-0.321506
-0.00783131
-0.1024
0.108715
-0.00631453
0.50451
0.187743
-0.0961823
0.143933
-0.047751
0.0833559
0.0730967
-0.167186
0.192043
-0.0248572
0.162663
0.0569694
-0.219632
0.105912
-0.111853
0.00594106
1.21655
0.399358
-0.84068
-0.172856
0.13904
-0.885261
0.746221
0.553661
0.226629
-0.78029
-0.449167
-0.206229
0.655396
-1.00566
0.690022
-0.269961
0.823622
-0.317066
-0.105282
0.422348
-0.206803
-0.20534
-0.186205
0.167477
0.0187278
0.141483
0.276998
-0.418481
-0.258575
0.875378
-0.0189227
0.110816
-1.11559
1.25463
0.178041
0.122699
-0.171037
-0.111999
0.283036
-0.269701
0.361062
-0.0913602
-0.0772892
0.0857124
-0.00842317
-1.431
-0.917119
0.00515756
0.911961
-0.0687273
0.0143577
-1.11514
0.810661
0.304478
0.644268
-0.548334
-0.0959349
-0.996923
-0.00873625
1.13406
-0.98249
-0.719128
1.09284
-0.196049
1.08973
0.171176
-0.173203
0.00202688
1.14193
-0.665027
0.945861
-0.945861
-0.00477419
0.0021762
0.002598
-0.203611
-0.055702
0.259313
0.175525
-0.116479
-0.0590462
-0.430074
0.808234
-0.37816
-0.0261261
-0.222307
0.248433
-1.06239
0.0458432
0.347089
0.0593864
-0.406475
0.132987
-0.840185
1.06681
0.116347
0.0950022
-0.21135
-0.0193862
-0.1478
-0.525798
0.627787
-0.101989
-0.625875
0.100077
0.100452
-0.940637
0.317051
-0.747126
0.916502
-0.82924
-0.0274469
0.262137
-0.23469
0.0843894
0.0534152
-0.137805
-1.33099
-0.16484
1.49583
-0.236495
0.404065
-0.16757
0.295793
-0.0202954
-0.275498
-0.485551
-0.629588
0.216759
-0.113189
-0.152615
0.146973
0.00564221
-0.0788303
-0.0142306
0.0930609
-0.569676
-0.236832
-0.120977
0.0540136
0.0669637
-0.997632
0.0177652
0.979867
1.18183
0.00817763
-0.00181876
-0.00295543
0.0305084
0.147532
-0.201431
0.385494
0.0361461
0.255986
-0.292132
0.141641
0.0694236
-0.211065
0.45273
-0.176103
-0.276627
-0.588503
-0.525073
-0.806944
-0.190689
-0.0741717
0.190519
-0.101205
0.177772
-0.0765671
0.0292615
0.0241963
0.123495
-0.0547797
0.0670334
-0.0122538
-0.091313
-0.0205073
0.11182
0.0745713
-0.0745713
-0.184
0.208196
0.0183935
0.254083
0.100575
0.0914684
-1.26895
1.01038
-1.44987
0.0263244
1.42355
0.0270598
-0.0202203
-0.00683953
-0.0270207
-0.0526465
0.0796672
0.526641
-0.0206772
-0.505963
-0.0452699
0.0476449
-0.00237499
-0.196893
0.0128928
0.149114
0.65912
-0.359844
0.508958
-0.105763
-1.22522
-0.141812
0.0376621
0.478384
-0.292685
-0.185699
0.18731
-0.159063
-0.0282464
0.0490091
-0.316197
0.0221763
-0.939295
0.0477294
-0.148934
-0.278629
-0.395568
0.0749938
1.41946
-0.994985
-0.424472
1.09069
0.328766
0.0668943
0.278795
0.0322678
-0.00520802
-0.147103
0.2479
-0.100797
-0.237751
-0.593486
0.831237
-0.348493
0.512518
0.681895
-1.09018
0.160032
0.0024764
-0.0422273
0.0397509
-0.898925
-0.07614
0.975065
0.0622603
-0.961185
-0.311269
0.658358
-0.917145
-0.0156031
0.00434821
-0.269572
0.265223
1.43665
-1.58118
0.144535
-0.1507
0.00888831
0.568405
-0.806156
0.287555
-0.536539
0.248984
-0.294393
-0.120545
0.414938
0.162509
-0.990373
-0.0720122
-0.0312768
-0.0471812
-0.562318
0.356088
-0.250033
0.0186895
0.231343
-0.0523941
-0.0983061
0.0313359
-0.0313359
-0.122408
0.134131
-0.0117223
-0.194041
-1.25583
0.103093
0.035706
-0.138798
-0.207475
0.0513623
0.156113
-0.222976
0.0367715
1.49283
-0.0629601
-1.42987
-0.1869
0.442126
-0.255227
-0.00232995
0.00324262
-0.000912676
0.351529
-0.0557356
-0.189396
-0.00444418
0.19384
-0.168786
0.310268
-0.104473
0.102735
0.00173848
0.076036
0.0203269
-0.0963629
-0.230646
0.283053
-0.0524072
0.237772
-0.552413
0.314641
-0.21875
-0.0509762
0.269726
-0.684782
0.655801
0.0289811
0.00388061
0.0403844
0.0553774
-0.0558325
0.000455179
0.00484662
-0.0695901
0.499876
0.681958
0.156372
-0.865616
0.709244
-0.223641
1.7208
-1.49716
0.373102
0.19031
0.755551
0.0651031
0.20783
-0.0661884
-0.0732731
-0.0291272
0.227334
0.160558
-0.0761685
0.73741
-0.397451
0.0618193
0.197494
0.0500044
-0.167649
0.117645
-0.79834
-0.138739
0.937079
-0.0441843
0.0441843
-0.12603
-0.274754
0.549978
0.012557
-0.231307
0.0949654
0.211592
0.0577513
-0.131923
0.138963
-0.149565
-0.343641
0.317515
0.0303376
0.0807662
-0.111104
0.374244
-0.337229
-0.140875
0.320286
-0.17941
-0.20555
0.272444
0.188647
-0.481331
-0.202428
0.591686
0.162394
-0.0320823
0.0320823
-0.407948
0.507689
-0.0997411
0.372499
0.031566
-0.0297866
0.0384963
-0.00870972
-0.226504
-0.0610522
-0.0599251
-0.0502332
0.189197
-0.18409
0.245298
-0.0612082
0.13158
0.0289778
-0.379288
0.13257
0.194789
-0.063209
-0.0471334
-0.0573399
-0.0970461
0.0849041
0.0121421
0.145652
-0.103684
-0.0419681
-0.0227778
0.401806
-0.379028
-0.160146
0.141223
0.107286
-0.111712
0.00442562
0.0237402
0.321602
-0.462477
-0.118586
-0.0308
0.149386
-0.126741
-0.0526402
0.179381
-0.0934305
0.106053
-0.726757
0.620705
-0.0482841
-1.4683
-0.219189
1.68749
0.104967
0.899918
-1.00489
0.0810553
-0.364364
0.188261
0.280977
0.253728
-0.534705
-0.20864
0.258645
0.163977
-0.882888
0.71891
0.0490679
-0.175809
-0.0296468
-0.00162998
-1.00387
0.45518
0.548694
0.994985
-0.894533
-1.60849
1.44365
-1.43665
1.46297
0.0394605
-0.0872116
0.0166169
0.0387605
0.0137699
0.863622
-0.699645
0.117066
-0.0693363
0.402758
0.690082
-0.173687
-1.40176
1.17812
-0.68773
-0.581222
-0.238562
-0.390255
-0.0174461
-0.163969
0.212978
-0.601116
-0.366163
0.179263
0.758232
-0.231591
-0.871171
-0.737321
0.724777
0.287982
-0.238914
0.274556
0.0360546
-0.0360546
0.670848
0.151303
-0.822151
-0.230529
0.901377
0.623643
-1.02506
0.401421
0.299905
-0.0458222
0.00639178
0.00713163
-0.0135234
-0.885261
-1.04292
1.0511
0.551505
0.941329
-0.0346186
-0.133918
-0.246816
0.751326
-0.2011
-0.0489329
-0.00277965
-0.0745096
-0.0543499
0.107765
0.376836
-0.249692
-0.793493
-0.292479
-0.209621
-0.083276
0.292897
-0.756924
0.947234
-0.286202
0.259581
0.0266209
0.024021
0.00824684
-0.14789
0.0752934
0.0725965
0.00996856
0.412379
0.130738
0.0565722
0.0336927
0.0121422
-0.0458348
-0.0173753
-0.172021
-0.720154
0.369111
0.351043
0.600265
-1.01143
0.411161
0.140394
-0.162079
0.0216842
-0.00410571
0.220864
-0.195506
-0.750354
-0.150592
0.00270229
-0.172772
0.0595828
0.147874
-0.349304
-1.13389
0.70839
0.425498
0.0494947
0.0912528
0.0543994
-0.79834
-0.491385
0.729157
0.179571
-0.104277
0.044198
-0.63283
-0.0519518
0.0625678
0.132221
-0.200884
0.0319581
-0.450439
0.119993
0.353015
-0.293629
-0.111794
0.0204807
0.212993
0.83668
-1.04967
0.100954
-0.731494
0.63054
-0.945592
0.806853
-0.651744
-0.0363496
0.688094
-0.00605798
0.00760053
-0.00154255
0.174522
-0.468916
0.220172
-0.129701
-0.0904706
0.0385781
-0.0912183
-0.014791
-0.19483
-0.0128484
0.0278868
-0.0230402
0.0208266
0.0799243
-0.100751
0.72861
-0.0108625
0.0119617
-0.00109911
0.138566
0.00265757
0.838902
0.0809114
-0.0720231
0.0913996
-1.13432
0.271209
0.0286962
0.00655234
0.0847004
-0.688094
0.750354
0.221279
-0.312176
0.0908968
-0.25568
0.0824767
0.119643
-0.117616
-0.00119264
0.086905
-0.0447884
-0.735153
-0.398735
-0.0443705
0.0651971
0.745955
-0.258288
-0.29267
0.0851948
0.344127
0.0191043
-0.0488909
-0.0076753
0.0822466
0.145892
0.21517
0.155974
-0.334817
0.178843
0.12177
0.53735
-0.0376636
-0.105738
0.892062
-0.238686
-0.653376
-0.651744
-0.0906866
0.690952
0.942821
-0.354613
0.656505
-0.301891
0.38176
-0.0631627
-0.318598
-0.252694
-0.74423
-0.0744544
0.0752614
-0.000807045
0.0553162
-0.203379
0.148063
0.380234
-1.07059
0.690357
0.0250113
0.690024
-0.715036
-0.0442271
-0.108388
-0.00183609
-0.11675
0.116243
-0.524192
-0.0106003
0.00454235
0.14185
0.0610146
-0.202865
0.0971805
-0.244283
-0.00406542
0.0280864
0.130999
0.131138
-0.0484144
-0.00741815
0.195974
-0.418281
0.0453681
0.85455
0.0334554
0.0107289
-0.979182
-0.0111912
0.233109
-0.0692561
-0.0425376
-0.0865469
0.374102
0.177414
-0.00955757
-0.167857
0.171665
0.0995438
-0.961045
-0.0214452
-0.0118897
-0.642487
0.74854
-0.0163091
0.178703
-0.2716
-0.753464
0.182239
-0.436252
0.254012
0.0526887
0.203297
-0.00728774
0.00776473
-0.000476984
-0.064751
-0.165895
-0.0194099
-0.12839
0.76593
-0.664976
-0.177645
0.104008
-0.189021
0.312823
-0.156849
0.120482
1.15584
0.203773
-1.35961
-0.122842
0.141531
-0.498593
-0.221561
-0.565836
0.654221
-0.661193
0.00697252
-0.12107
-0.0565746
-1.40176
0.620495
-0.620495
-1.51549
1.51549
0.863622
0.543603
-0.853392
0.309789
-0.889578
-0.0896038
0.636159
-0.366682
-0.269476
0.156587
-0.233154
-0.00601406
0.0041953
-0.865632
-0.075005
-0.93973
0.212973
0.0603941
-0.14367
0.691385
-0.0975728
-0.593812
0.594979
0.347841
-0.000317673
-0.00697007
-0.966086
0.029853
0.290433
-0.100777
-0.591637
0.692414
-0.0739006
-0.885511
-0.69567
0.21865
-0.807153
-0.937079
1.36143
-0.42435
-0.135401
0.273783
-0.138382
-0.0276534
0.719038
-0.106272
-0.990353
0.990353
-1.08201
0.477872
0.60414
-0.000558204
-0.0103043
0.131286
-0.438151
0.883175
-0.0725142
-0.0869971
-0.0332749
0.150708
0.00242957
-0.00475952
0.915817
-0.952167
-0.349974
0.42601
-0.642342
1.01948
-0.377137
-0.0803123
-0.0702798
0.126785
-0.0573611
0.371076
0.00710114
-0.0797067
0.355769
0.0460369
0.0436768
-0.251405
0.207728
0.138833
0.0339551
0.099764
0.184071
0.89536
0.359268
0.112887
0.839928
-0.952815
-0.940745
0.864605
0.249207
-0.169304
0.0776934
-0.766119
0.688426
0.656491
0.119698
-0.463339
-0.0714611
0.128453
-0.0569922
0.127237
-0.198698
-0.453981
-0.108337
-0.0738779
0.0770407
-0.00316277
-0.00345092
-0.0449635
0.0938009
-0.0207042
0.699645
-0.63054
-0.0691046
-0.288763
0.30132
0.861691
0.654855
-0.273094
-0.0379293
0.0736353
-0.217082
-0.319457
0.150806
-0.543638
0.392833
0.0071216
0.000643126
-0.211326
0.57743
-0.366104
0.00357671
-0.0109553
0.00737856
-0.0272284
0.0190458
0.00818261
-1.01912
0.354091
-0.213729
-1.25457
-0.200253
-0.894533
1.46297
1.44365
-0.19034
-0.172295
0.121319
-0.0653184
0.0712032
-0.00588477
0.179503
0.927279
-1.10678
0.547579
0.0885798
0.00208821
0.00503339
0.123504
-0.0985534
0.0332749
-0.0489829
0.00461238
-0.567751
0.350669
-0.0818576
0.139609
-0.242499
0.616743
1.09069
-0.24812
-0.0588196
0.000763267
0.0580563
1.72922
-0.285567
-0.0594254
-0.052428
-1.05605
0.161514
0.385876
-0.223367
-0.469933
-0.13055
0.600482
0.791339
-0.356779
-0.43456
-0.14198
0.319395
-1.17812
0.292859
-0.0228336
-0.0499452
0.0727787
0.582659
1.13814
-0.170119
0.176511
0.231062
1.94252
-0.47955
-0.671459
0.0573459
0.614113
0.383603
0.0177467
-0.347329
0.511416
0.775085
-0.0861951
0.075372
-0.0209726
-0.601789
-0.0449002
0.64669
1.13416
0.108991
-0.0752987
-0.0503866
-0.360183
0.106958
-0.315599
1.24136
-0.0855255
-0.160208
0.0391376
0.288597
-0.64321
-0.0161186
0.0199992
0.110376
-0.146959
0.0365834
-0.295664
0.305804
-0.0101403
1.01934
-0.815565
-0.969025
0.0460157
0.923009
0.175283
-0.34332
0.168037
0.273232
0.0395904
0.10937
-0.600755
-0.717081
0.717081
0.746221
0.594979
-0.731494
0.310693
0.464392
-0.465356
0.365614
0.924159
-0.37658
0.0211604
-0.864394
0.843233
0.126248
0.00527973
0.0269238
-0.717156
0.826526
0.150282
-0.1743
-0.112019
0.286319
0.094477
-0.505953
0.331653
-1.07306
-0.28928
-0.69592
-0.066202
0.0111896
0.000772059
-0.227859
0.173626
0.119271
0.0348169
-0.149237
0.11442
-0.630136
-0.451876
-0.00547113
0.0669583
-1.0131
0.456959
0.55614
-0.557327
0.371628
-0.108407
0.189173
0.226483
-0.0124237
-0.0172231
-1.17739
1.11443
0.0354192
0.0718672
-0.279074
0.090053
0.211078
0.00909363
-0.435552
0.779558
0.54076
0.122772
0.862389
-0.784696
0.790613
-0.446485
-0.612362
0.174211
0.152687
-0.770644
0.756665
0.0139787
1.04697
0.194396
-0.214142
-0.135831
-0.147431
0.0309516
0.962692
-0.852952
-0.10974
-0.186973
0.110805
0.0271905
0.119782
0.89068
0.863777
-0.707914
-0.155862
-0.317737
-0.0484265
-0.566785
-0.446314
0.215442
1.28038
0.692476
-0.0974966
0.1828
0.550448
-0.733248
-0.0631923
0.0513539
-0.00781185
-0.00461187
-0.508293
-0.104069
0.157323
-0.209717
-0.190884
0.140651
-0.524341
0.269115
-0.996648
-0.673889
-0.290072
-1.159
1.40663
0.016914
-0.285711
-0.186574
-0.381177
-0.0255363
0.304018
0.051751
1.3463
-0.966065
-0.193886
0.130677
-0.345818
-0.363327
0.709145
-0.0229186
8.50663e-05
0.0502809
-0.0654673
-0.230197
-0.114223
0.690988
-0.414175
-0.276812
-0.0151181
0.128493
-0.0930394
-0.035454
0.243207
0.0608109
-0.0376704
-0.967215
-0.0980828
0.142281
0.837258
0.0265191
0.0045323
0.174849
-0.0223672
0.0174473
0.00491992
0.0228184
-0.0430387
-0.24654
0.0788907
-0.0994805
-0.542763
0.407362
0.0195285
0.188573
-0.0132898
-0.691059
1.19865
-1.28417
0.0155763
-0.196406
0.18083
-0.130989
-0.520159
0.651147
0.0608478
-0.693678
-0.862784
-0.10624
-0.0769031
-0.00103019
0.0779333
-0.245434
-0.654221
-0.144119
-0.135497
-0.60179
-0.234738
0.16855
-0.885215
-1.1113
-0.594458
0.47127
0.123188
0.26048
0.108643
0.529468
0.323575
-0.853043
0.198241
0.0897416
0.837786
-0.112125
-0.725661
-0.218908
-0.0597828
0.924388
-0.24473
0.183522
-0.812581
0.752798
0.348104
0.279683
-0.0346364
0.0484063
-0.012886
0.930327
-0.807555
0.704118
0.087221
-0.956326
0.221173
0.260394
0.663766
0.895293
-0.0032309
-0.0236517
-0.692476
-0.69592
-0.717885
0.723043
-0.0905015
-0.871171
0.690024
0.634941
-0.942556
1.01244
0.00836349
-0.779007
-0.316554
0.641669
-0.772166
0.130497
0.0780721
0.0504213
0.0895483
0.0300772
0.988925
-1.019
0.00575802
0.00543157
-0.26609
0.217157
0.702517
0.217313
-0.20442
-0.17997
0.891096
-0.87333
0.00489002
0.304899
0.588906
0.469229
-1.05814
-0.842729
0.797829
1.00425
-0.54729
0.101799
0.676767
-0.64669
-0.0110925
0.214685
-0.0725257
0.128909
0.1042
-0.00199096
-0.0202078
0.0221988
-1.02179
-0.0278875
0.323235
-0.803135
-0.453493
1.1593
-0.705804
0.370637
0.648842
-0.0468915
0.0501137
-0.00322215
-0.00681934
0.897915
-0.71482
0.890372
0.532619
-0.986111
0.31514
-0.100454
-0.586803
-0.409844
-0.404324
0.99323
-0.0494908
-0.85603
-1.67544
0.178283
0.676767
0.0496033
-0.852739
0.83018
-0.642681
-0.187498
-0.983843
0.397039
-0.00163585
0.11315
-9.69451e-05
-0.113053
-0.967036
0.557191
-0.206921
0.911434
-0.932879
0.193982
-0.211357
-0.0963351
0.244209
1.02537
-0.0598151
-0.205994
-1.51944
0.159828
0.873198
-0.959393
-0.550115
-0.517485
1.0676
0.449885
0.0180402
-0.0109086
-0.742923
0.715036
0.686989
-0.693808
-0.755551
0.70334
0.0522106
0.641187
0.51811
0.797165
-0.823944
-0.491248
-0.448047
-0.468363
-0.498672
0.80889
-0.80889
0.69332
-0.69332
-0.742923
-0.694604
0.694604
-0.70334
-0.537328
-0.362036
-0.402291
-0.779437
0.779437
0.686989
-0.693808
0.797165
0.7781
-0.7781
0.823944
0.762368
-0.762368
0.508752
0.531637
0.482515
-0.0924483
-0.501328
-0.551953
1.08359
-0.528526
-1.05915
0.654823
0.535766
0.468483
0.0170414
-0.0155259
0.0964373
-0.883364
0.0867474
0.796616
-0.183715
0.166269
-0.979651
0.5822
0.909352
-0.598659
-0.122042
0.000761004
-0.014621
-0.793742
-0.0718738
-0.548694
-0.00261699
0.000987003
0.0606169
-0.228807
0.12453
0.183296
0.0157602
-0.0222282
0.00646804
-0.812268
0.0719278
0.74034
0.472134
0.553235
-0.524563
0.414004
0.11056
0.924603
-0.732484
-0.192119
0.0846507
0.300843
-0.0143346
-0.0595433
-0.0598913
-0.0145631
0.221361
-0.978285
-0.826712
0.0988833
-0.738671
0.798574
-0.059903
0.11752
-0.892261
0.774741
-0.803654
0.904225
-0.100571
-0.0809031
0.103722
0.0200617
-0.289633
0.527347
0.465883
-0.0939358
-0.789428
0.913394
-0.0919301
-0.821464
0.103939
-0.184251
1.0079
0.830668
-0.657344
0.475655
-0.387075
0.099591
-0.889019
1.07289
0.442603
-0.771117
-0.00789022
1.01736
-0.899843
1.22582
0.970036
-0.520642
-0.449394
-0.858376
-0.121275
-0.418541
0.0395123
-0.39111
0.223254
-0.789292
0.789292
-0.606079
-0.0754055
-0.848513
0.116029
-0.977608
0.876831
0.0738331
-0.203534
-0.0567766
0.0562289
0.0108045
0.173273
0.844091
0.82882
0.77299
0.141572
-0.914562
-0.499798
0.968281
-0.776293
-0.0967032
0.872997
0.180774
-0.895594
-0.67524
0.89194
-0.792349
-0.104059
0.461265
-0.0178491
-0.443416
-0.267275
0.947748
-0.680473
-0.328519
-0.338118
0.666637
-0.880353
-0.825737
0.0870662
0.522646
0.267967
-0.989837
0.663052
-0.649573
0.649573
-1.12711
-0.392328
0.266809
0.559717
-0.837447
0.883462
0.795237
-0.195013
0.925386
-0.571295
0.531771
-0.950529
0.418757
-0.244532
-0.766894
0.302664
0.470238
0.29331
0.435848
0.200752
0.309653
-0.225002
0.777405
-0.877976
0.565638
0.402643
-0.149866
0.732066
0.645207
-0.645207
-0.0834019
0.0916487
0.113016
-0.0781994
0.566922
0.380826
0.302841
-0.00392889
-0.00330953
0.00723842
-0.672461
0.687667
-0.0152055
0.43117
-0.951811
0.102948
-0.895297
-1.01378
1.13468
-0.120902
0.302535
0.881984
-0.653567
1.08474
-0.753725
0.607183
-0.659135
-0.65313
0.154537
-0.42004
0.0249313
0.146278
-0.946893
0.526853
-0.00436581
-0.996684
0.0689769
0.729597
0.694246
-0.0870627
0.0675496
0.771352
-0.457248
1.03662
-0.579369
-0.532391
0.508827
0.179621
-0.9128
0.700573
0.212227
-0.680254
-0.1269
1.01049
-0.08369
-0.440502
-0.0291212
0.489845
0.510155
-0.769312
-0.108664
-0.486102
-0.556688
-0.481964
-0.545602
0.408392
0.591608
-0.189149
0.191807
-0.861243
-0.0677286
-0.591406
-0.150931
-0.242858
0.39379
-0.0394859
-0.00530255
0.115354
0.0738424
-0.129997
-0.116543
0.760709
-0.651087
0.718636
-0.407962
-0.538931
0.865209
-0.35559
-0.509619
-0.708666
-0.202205
0.910871
-0.240168
0.226198
-0.0287036
-0.111174
0.0128677
0.0130085
0.793547
-0.143974
0.117188
0.109294
-0.732469
0.060008
0.929861
-0.469831
0.578761
-0.758172
0.853026
-0.296651
0.986733
0.000234663
0.415589
-0.184527
-0.00196539
-0.0853086
-0.17852
0.367364
0.562497
-0.435191
0.827911
-0.39272
0.847776
-0.0211093
0.00425549
0.0168538
0.130931
-0.00900801
-0.00159232
0.216462
-0.106086
0.164797
-1.00224
-0.799313
0.364122
-0.00589595
0.277468
0.472321
-1.14677
1.33015
-0.183376
-0.793076
0.851146
-0.0580698
-0.363465
-0.206258
0.554362
-0.0723913
0.934285
-0.460737
-0.0638256
0.278068
0.438723
0.18036
-0.619083
0.393376
0.0381347
0.649532
-0.566483
0.565068
0.00141546
0.961756
-0.987292
-0.0538852
0.0687386
-0.0148533
0.69791
-0.0116368
-0.0841337
0.0179116
0.859145
-0.718149
0.354684
0.126632
-0.145261
-0.198058
0.135954
0.0819724
-0.217927
-0.0015386
-0.000452359
0.667192
-0.779317
0.317512
0.214561
-0.0256404
-0.0795648
0.228368
0.0948683
0.00881279
0.139383
0.766886
-0.210538
0.777606
-0.567067
0.910208
-0.392446
-0.517762
0.648941
0.119182
-0.0946513
0.0052193
0.089432
-0.447017
-0.366056
-0.584473
-0.00942713
0.734204
0.704879
0.154201
-0.524498
0.614046
0.829715
0.123374
-0.00289144
-0.870112
0.224939
-0.270329
0.0542632
-0.169661
0.694391
0.0724958
0.0138633
0.872753
-1.07901
-0.243789
0.173051
0.0228298
-0.110312
0.425112
-0.0586628
-0.403508
-0.0673988
0.193706
0.647297
0.26291
-0.149486
0.964153
-0.0364351
-0.105917
0.0177177
-0.00148411
-0.0162336
-1.05878
0.0714832
-0.00287208
0.927082
-0.231397
-0.607817
0.627701
-0.0198847
-0.0665706
0.754399
-0.876305
0.366685
0.0808736
-0.177209
0.630705
0.123694
0.692019
0.255215
-0.266408
0.742062
-0.340844
0.903341
-0.590617
0.349274
0.241343
-0.512182
-0.0725532
0.0411372
0.0656936
-0.0486566
1.23347
0.733626
0.0960884
0.617244
0.213994
-0.861926
-0.083081
-0.676464
0.668574
-0.0247883
-0.566733
0.415802
0.864123
0.66884
0.26459
-0.0163648
-0.144844
-0.318495
1.11859
0.0800551
-0.785166
0.0555556
0.538302
0.365039
0.653722
0.326145
-0.0801343
0.904988
-0.719294
0.892431
-0.173138
-0.40158
-0.189037
-0.0821316
-0.195214
-0.0866989
0.928826
0.0194992
-0.00735702
0.621879
-0.0871189
-0.671053
0.601111
-0.127382
0.233508
0.744555
0.255017
-0.999573
0.271557
-0.914238
-0.156018
-1.12815
-0.173546
0.756575
-0.583029
-0.67708
-0.153207
0.0420329
-0.0557549
-0.910038
0.0179702
-0.0403374
0.96398
0.11053
-0.389043
0.278513
-0.0524287
-0.601116
0.18214
0.233449
-0.925006
0.00932951
0.00643066
-0.430482
-0.0539085
-0.585085
0.0186022
0.557389
0.306735
0.719164
0.968325
-0.238027
-0.378415
0.616443
0.2931
-0.621392
0.621392
-0.207186
-0.918783
1.12597
0.0307502
-0.153592
0.666099
-0.10871
-0.225673
-0.243155
-0.197347
0.521427
0.520718
-0.390943
0.180157
-0.105163
-0.722584
0.482941
0.0821263
0.0612903
0.011262
-0.864391
-0.575715
-0.252223
0.696365
0.303635
-0.575715
0.696365
-0.579966
-0.258009
-0.579966
-0.700693
0.700693
0.299307
-0.0141363
0.227573
-0.0761804
0.228503
0.175042
-0.48055
0.637905
-0.0367934
0.639607
-0.492552
-0.147055
-0.0536184
0.0522251
0.0013933
-0.00239922
-0.00152967
0.347123
0.0185954
-0.124868
-0.43639
-0.358964
0.131105
0.0421724
0.838113
-0.287665
-0.37996
-0.00121765
0.00787862
-0.257573
-0.0066195
0.66557
0.0686344
-0.169377
-0.0419973
-0.00383755
0.0231053
0.0904974
0.558181
-0.475733
-0.0824479
1.21587
0.550842
-0.838667
0.893282
0.0115667
-0.0642132
0.109262
-0.151778
0.214583
1.1309
-0.386341
0.0172731
-0.0834751
0.690819
-0.784404
0.0206285
-0.0206285
0.0208368
-0.0208368
-0.0309282
0.0309282
0.0334554
0.365704
0.455253
-0.0737626
-0.695086
0.463495
0.187548
0.0289137
-0.0825683
-0.479851
0.978954
0.112399
-0.792652
-0.861534
0.10807
0.162154
0.0205833
-0.00153742
-0.0247588
0.0247588
0.586627
-0.0237286
0.0237286
0.717192
0.0960229
-0.0292133
-0.0127839
0.00644154
-0.0652611
-0.0211886
0.0211886
-0.0202606
0.0202606
-0.0227961
0.0227961
-0.017951
0.017951
0.188775
-0.298153
-0.0788354
0.226136
-0.0163186
0.0163186
-0.369144
0.508681
-0.139537
0.491917
-0.218134
0.115308
-0.495268
0.552257
-0.166676
0.074127
0.553574
0.57238
-0.00650634
0.00650634
0.384985
0.0253355
-0.0253355
-0.0141839
0.0141839
0.739697
-0.844256
0.0435692
0.356819
0.220611
0.0013125
-0.0013125
0.0249187
-0.0249187
0.01886
-0.01886
0.0218925
-0.0218925
-0.0240568
0.0240568
0.036086
-0.036086
0.488432
-0.0327233
0.0327233
0.000279827
-0.000279827
0.0247448
-0.0247448
-0.010571
0.010571
0.00888133
-0.00888133
-0.0712343
-0.0261426
0.0261426
0.179576
0.0228801
-0.0405116
0.0405116
0.0101158
-0.0101158
0.0316489
-0.0316489
0.0344618
-0.0344618
0.0247137
-0.0247137
0.00279661
-0.00279661
-0.00314188
0.00314188
-0.436605
0.141831
-0.017534
0.017534
0.00182238
-0.00182238
-0.0391057
0.0391057
-0.0273264
0.0273264
-0.00126117
0.00126117
-0.408297
0.66869
0.260918
-0.0327911
0.0327911
-0.0505784
-0.0271049
0.0271049
0.00302676
-0.00302676
0.0362831
-0.0362831
-0.0865483
0.0836569
0.00554621
-0.00554621
-0.0216381
0.0216381
-0.474077
0.042484
-0.735231
-0.030342
0.030342
-0.430555
0.0320256
0.0180881
-0.316116
-0.64021
-0.0374474
0.0374474
-0.203375
0.144712
-0.0406162
0.00393944
-0.00393944
-0.00166456
0.0490253
0.256599
-0.316788
-0.271855
0.588643
0.190185
-0.00804963
0.00804963
-0.440064
0.418215
0.0218491
0.735327
-0.370834
-0.364493
-0.464251
-0.623205
-0.317776
0.316558
-0.338562
-0.19383
-0.572359
0.0203196
0.191689
-0.983208
0.0162244
-0.0162244
0.00366556
-0.00366556
0.0314985
-0.0314985
0.0258729
-0.0258729
0.00348269
-0.00348269
0.00302244
-0.00302244
-0.226164
-0.322169
0.16923
-0.291272
-0.00299565
0.00299565
-0.0444683
0.0444683
-0.0410593
0.0410593
0.299415
0.00990846
-0.309323
0.00858059
0.303533
-0.534931
0.00207565
-0.00207565
-0.0272327
0.0272327
-0.0995554
-0.2919
-0.0258765
0.00349942
-0.00349942
0.1394
0.0139475
0.994817
-0.477628
-0.0873397
0.564968
-0.622788
-0.361709
-0.0294014
-0.0382537
0.0382537
-0.670971
0.273997
0.0504583
-0.0504583
-0.65157
0.382094
0.2589
0.119369
0.0043254
-0.0043254
-0.836774
0.00355334
-0.00355334
0.313357
0.405681
0.10505
-0.0545862
0.0545862
0.00323108
-0.00323108
-0.0431039
0.0431039
-0.0533614
0.0533614
0.00465245
-0.00465245
-0.0590036
0.0590036
0.00455029
-0.00455029
-0.0464596
0.0464596
0.00314103
-0.0448673
0.0448673
-0.0023453
0.0023453
0.0490341
-0.0490341
0.00271845
-0.00271845
0.0468455
-0.0468455
-0.149741
-0.00120183
0.00120183
-0.004781
0.004781
-0.0608487
0.0822466
-0.0121596
0.0121596
0.00436485
-0.00436485
-0.0606147
0.0606147
0.301645
-0.0203422
0.0203422
-0.0566062
0.0566062
-0.00771208
0.00771208
-0.0687752
0.0687752
-0.0136204
0.0136204
-0.0824697
0.0824697
-0.0228161
0.0228161
-0.0931895
0.0931895
-0.672175
-0.00289813
-0.520083
0.500198
-0.885511
-0.198727
-0.549775
0.380114
0.0657078
-0.0808259
0.00146337
-0.00146337
0.384723
-0.687622
0.0442493
-0.0329873
-0.521763
0.869604
0.618169
0.249058
-0.05963
0.0196013
-0.389241
-0.577184
-0.0817835
0.372273
-1.25159
-0.020958
0.020958
-0.765232
0.0188406
-0.0188406
-0.00126511
0.00126511
0.333766
-0.259755
0.000169107
-0.000169107
0.0182722
0.0138101
0.593807
0.0823356
0.00185628
-0.0114162
-0.0122355
-0.0986477
0.496075
-0.397427
0.353818
-0.0511541
-0.0085067
1.20924
-0.020808
0.0498611
-0.404484
0.443997
-0.491824
-0.968669
-0.256554
-0.0728722
0.0185223
-0.602762
0.264644
0.0647425
-0.00473356
-0.0207987
0.773513
-0.542184
-0.0388988
0.0617285
-0.0356482
-0.0438605
0.271434
0.418951
0.23685
-0.159371
0.210581
0.0229328
-0.00260587
-0.770805
0.0395252
-0.0847676
-0.304275
-0.0179665
-1.16177
-0.0726982
0.266921
-0.350764
0.396801
0.0423452
-1.20134
0.058168
-0.0365477
-0.147704
-0.345146
0.455706
-0.107533
-0.0226718
0.130205
-0.0279076
0.0279076
0.168083
-0.441178
-0.0991624
0.150525
-0.0809418
0.0561536
-0.0615087
-0.00592407
0.0674327
-0.0298392
-0.155322
0.154153
-0.132732
-0.280512
-0.343389
0.623901
0.0149498
0.0603116
0.14733
-0.0301414
-0.165489
0.0675213
-0.157956
0.310643
-0.01373
0.0305839
-0.0253579
0.172688
0.00362947
0.261594
-3.00619e-05
3.00619e-05
-0.175331
0.829053
0.090475
-0.173556
-0.0678238
-0.00607681
0.459587
0.625149
0.011177
-0.0425129
-0.527351
0.00726799
-0.165785
0.0932325
-0.683739
0.307159
-0.0558633
0.361308
-0.64182
0.204188
0.496385
-0.0925066
0.0925066
-9.69443e-05
-0.929826
0.469685
0.460141
-0.214591
0.158837
-0.152639
0.184547
-1.00011
-0.215369
-0.0588113
0.0754282
0.922895
0.374424
-0.109834
-0.0698796
-0.377177
-0.608934
-0.0964305
-0.264672
0.776087
0.569062
-0.265529
-0.27395
0.551419
0.243019
0.413486
-0.265816
0.1299
-0.461715
0.322178
0.122103
-0.122103
0.144081
-0.148376
0.00429516
0.00869654
-0.00754374
0.0174473
-0.321452
-0.125565
0.222232
-0.182018
-0.0402146
0.539459
-1.08201
-0.259563
-0.874758
0.679007
-0.117466
-0.173806
-0.0372324
-0.0769903
-0.491522
0.0551322
-0.287909
0.00577764
-0.0179665
0.383486
-0.00530577
0.000720712
0.00163243
0.0145344
-0.0192585
0.00472411
-0.0959785
-0.0192065
-0.169768
0.188974
-0.125212
-0.336504
0.0182722
0.343407
0.00382327
-0.377487
0.0874154
0.00253943
0.173127
-0.24689
-0.012524
0.012524
-0.00100966
0.00465815
-0.00895662
0.00213469
-0.0904956
0.000703879
-0.00126075
0.364735
0.00936755
0.00239386
-0.00239386
0.153005
0.497942
0.00272661
-0.279284
0.532981
1.14557
-0.470358
0.322827
-0.436692
-0.288422
0.189259
0.222905
-0.223383
-0.0160557
0.017002
-0.00399349
-0.00693579
-0.178147
-0.3707
0.834195
0.455891
-0.682056
0.299956
-0.00162427
0.345752
-0.0432168
0.00218618
0.000283752
0.0167183
-0.230783
0.00140599
-0.000254373
0.69706
-0.629539
-0.246382
-0.274657
0.694108
0.00120439
0.00240433
-0.0406162
-0.0056283
0.809462
-0.431551
0.513678
-0.808911
0.895242
-0.803611
0.558407
-0.178293
0.687704
0.00252136
0.00247396
0.0181093
-0.107412
0.1382
-0.197046
0.00905061
0.0100468
0.0659921
-0.0511306
-0.0148615
0.00250343
0.0485897
0.0358621
-0.0844518
-0.0970638
-0.00414674
0.000837214
4.85606e-05
0.484139
-0.424283
-0.00441618
0.00081448
0.812045
-0.34236
0.382045
-0.00594892
-0.000273877
0.380461
-0.0629492
-0.0420019
-0.108376
-0.016038
-0.00361189
0.123206
0.0807976
-0.00178788
0.399036
0.00187677
-0.00251285
0.00251285
0.0127905
-0.0242067
0.000487031
-0.319279
-0.00385073
0.0737183
-0.108197
0.199471
0.118889
-0.0660024
0.000920002
0.00357917
0.445754
0.000842712
-0.00763955
-0.074492
-0.0020446
0.00123111
0.00466272
0.298178
-0.701265
0.457664
-0.828364
-0.0272553
-0.000268348
-0.748545
0.176761
0.0239909
0.569524
-0.0151077
0.0408832
-0.00412791
-0.00142424
-0.547277
-0.00335575
-0.000102165
-0.0509334
0.92459
-0.531214
-0.00257443
-0.00183184
-0.00602847
-0.00392028
0.0752466
-0.0218553
0.0218553
-0.0567678
0.061426
-0.00334723
-0.00816047
0.0637395
-0.0630188
-0.167218
0.0946653
-0.00590828
-0.0136946
0.0399714
-0.0167186
0.063394
-0.0448717
-0.638127
0.578224
0.0412818
-0.00290148
0.346666
-0.15296
-0.066695
-0.65237
-0.0728807
-0.114654
-0.0955277
0.0934831
0.681084
0.00129518
0.0236967
-0.0212924
0.358481
0.0604507
-0.141427
0.080976
-0.0711956
-0.609018
0.825699