/*--------------------------------*- C++ -*----------------------------------*\
| =========                 |                                                 |
| \\      /  F ield         | OpenFOAM: The Open Source CFD Toolbox           |
|  \\    /   O peration     | Version:  2306                                  |
|   \\  /    A nd           | Website:  www.openfoam.com                      |
|    \\/     M anipulation  |                                                 |
\*---------------------------------------------------------------------------*/
FoamFile
{
    version     2.0;
    format      ascii;
    arch        "LSB;label=32;scalar=64";
    class       volVectorField;
    location    "7";
    object      U;
}
// * * * * * * * * * * * * * * * * * * * * * * * * * * * * * * * * * * * * * //

dimensions      [0 1 -1 0 0 0 0];

internalField   nonuniform List<vector> 
2186
(
(1.24905 -0.075076 1.79428e-19)
(1.61861 -0.948834 -1.02692e-19)
(1.46235 -0.924634 1.12378e-22)
(0.730699 -0.566849 -1.21899e-19)
(-0.57423 0.639536 -2.6106e-19)
(1.03922 0.00637847 0)
(0.729789 -0.671521 0)
(-0.350578 -0.557191 1.39793e-19)
(1.60072 -0.232465 2.03373e-19)
(0.540124 -0.314888 -2.21633e-21)
(0.687085 0.619462 0)
(0.897321 -0.253779 -1.4682e-19)
(-0.421161 -0.644467 -5.72749e-20)
(1.09343 0.0183693 -3.03586e-19)
(1.80598 -0.681905 -1.07035e-19)
(1.00836 -0.0107057 1.42354e-19)
(0.997077 0.0100518 0)
(-1.03285 0.231603 0)
(1.03778 -0.00110663 0)
(-0.0600387 0.282166 -8.90634e-20)
(0.481352 0.0887148 -9.70924e-20)
(-0.241872 0.112075 1.18339e-19)
(1.10386 0.0468274 2.50484e-19)
(-0.269128 -0.00758314 4.51137e-21)
(1.02882 0.0193305 -1.96295e-19)
(0.783455 -0.541077 0)
(0.751181 -0.0217431 1.20999e-19)
(0.612245 -0.58745 -1.39139e-19)
(1.20667 0.712236 0)
(0.977882 0.0204323 -2.6899e-19)
(-0.0112023 -0.00249531 0)
(1.04596 -0.00143364 9.29013e-21)
(0.0513993 0.464381 0)
(1.66307 0.424062 7.63043e-20)
(-0.121382 -0.228513 8.31986e-21)
(1.55166 0.767505 7.40389e-21)
(1.3201 0.135996 4.60986e-20)
(0.509179 0.136633 -2.88411e-19)
(2.04802 0.142974 -4.31536e-19)
(1.03726 0.00351305 -9.52167e-22)
(-0.50059 -0.69634 0)
(-0.228359 0.098437 0)
(1.88287 -0.882527 9.60363e-20)
(-0.409544 0.205626 0)
(1.09271 0.275206 1.19749e-19)
(0.583451 -0.297908 2.38472e-19)
(0.931085 -0.794004 0)
(1.19169 -0.785609 8.2247e-20)
(1.51449 -0.640552 0)
(-0.516432 0.802771 2.97067e-19)
(0.0177766 0.0857058 1.31764e-19)
(0.638352 0.590015 6.02363e-20)
(2.05726 -0.754663 1.16739e-19)
(0.598207 0.269626 -2.30264e-19)
(-0.235367 0.383292 4.35794e-20)
(0.75986 -0.637152 0)
(1.67138 -0.972799 1.84821e-20)
(0.577367 -0.533909 0)
(2.32112 0.139015 1.40197e-19)
(1.12412 -0.183929 -2.90419e-19)
(1.03429 -0.0555643 4.01329e-20)
(1.3391 0.298634 -1.25834e-19)
(1.33843 0.537738 0)
(1.07626 0.00623908 1.04321e-21)
(1.36072 0.374237 -6.91595e-20)
(1.25356 -0.726317 -1.09164e-19)
(1.16543 0.661338 3.72557e-20)
(0.675005 0.0750881 -4.66398e-19)
(0.809624 0.0633199 0)
(2.35059 -0.133795 -7.01921e-20)
(-0.345201 -0.636902 -1.6171e-19)
(1.34815 -0.341991 -2.90852e-20)
(0.71562 -0.0301119 -2.05723e-19)
(0.870401 -0.502681 0)
(0.829924 0.181974 -7.49068e-20)
(0.537645 -0.495817 -2.48552e-19)
(1.53342 -0.365158 0)
(1.0136 0.00472265 2.94825e-19)
(-0.0965195 -0.339324 0)
(2.04946 0.378777 0)
(1.2365 0.0126819 1.93879e-19)
(1.00423 0.00430666 1.2907e-21)
(1.07014 0.0161576 3.25703e-20)
(1.32732 0.411147 1.8411e-20)
(0.955216 0.0257767 3.43667e-19)
(1.04826 0.0303175 -8.11612e-21)
(0.669509 0.175128 -2.77499e-19)
(1.0393 0.00155791 2.40631e-22)
(0.725347 -0.0087339 0)
(-0.0270039 0.0128041 1.05111e-19)
(0.858549 -0.603619 -1.33983e-19)
(-0.115234 0.639897 -3.64171e-21)
(1.09922 -0.0823372 2.01285e-19)
(0.803358 -0.173122 0)
(0.998397 0.0213599 3.29008e-20)
(1.37757 0.639333 0)
(1.62837 -0.96088 0)
(1.29928 0.211887 0)
(-0.573211 0.734115 0)
(0.786483 -0.649397 2.39776e-19)
(0.829866 -0.668301 -3.72586e-19)
(1.09385 -0.462374 3.15555e-19)
(1.46856 0.165067 0)
(1.09158 -0.114003 -1.84024e-19)
(1.08487 0.0200354 1.45909e-19)
(-0.00633749 0.695143 1.74819e-19)
(0.642285 0.501686 0)
(2.15555 -0.147636 -1.33782e-19)
(0.967239 -0.462499 6.6577e-20)
(0.256563 0.245247 -1.19618e-20)
(1.81534 0.257203 1.45806e-19)
(-0.328658 0.800366 -4.06198e-19)
(0.825491 -0.749149 0)
(0.568327 0.342239 1.39323e-19)
(1.75458 -0.281874 -5.75418e-19)
(-0.549442 -0.391666 -5.54757e-19)
(1.03387 -0.0114888 -5.34077e-21)
(1.3646 -0.534651 0)
(-0.0561302 0.0186514 -3.15846e-19)
(0.699356 -0.0658523 6.52998e-20)
(1.57626 0.880012 0)
(-0.365247 0.738733 -4.84364e-19)
(0.894504 0.771334 -2.06181e-19)
(-1.10712 0.118182 5.67621e-19)
(1.02655 -0.0142728 0)
(1.05367 -0.0146395 6.72886e-21)
(-0.476337 0.76913 0)
(0.687619 -0.486895 -8.88626e-20)
(-1.11511 0.184158 -3.2308e-19)
(0.7976 -0.725077 0)
(0.426467 -0.280368 3.48935e-19)
(0.529031 -0.448251 2.33522e-19)
(0.417269 -0.377996 0)
(0.991871 -0.782529 -9.68065e-20)
(1.10893 -0.27984 0)
(-0.196648 0.891556 -2.33117e-19)
(0.809534 -0.685525 1.13818e-19)
(2.29338 -0.198782 3.1645e-19)
(2.10063 0.0868364 0)
(-0.0526579 -0.190208 0)
(0.691943 0.644357 -2.48264e-19)
(1.77135 -0.625183 1.89053e-20)
(-0.206811 -0.297801 0)
(0.991445 -0.803859 -1.06982e-20)
(1.11531 -0.116984 0)
(1.06014 -0.132846 3.18304e-19)
(2.07743 -0.123968 -1.29121e-19)
(-0.607919 0.613876 0)
(1.22211 -0.538804 -4.14885e-20)
(-0.162999 0.489923 -5.44363e-20)
(-0.330822 0.696068 0)
(1.103 -0.810453 1.21957e-20)
(0.996412 0.0046577 -4.9262e-19)
(0.638926 -0.473667 -8.76052e-21)
(0.81039 -0.505313 0)
(1.205 -0.718706 -6.95788e-20)
(0.660915 0.235725 2.15725e-19)
(1.23237 0.0963502 0)
(1.54713 0.0635659 -9.66278e-20)
(1.20667 -0.857321 -1.34998e-19)
(-0.0345764 -0.156695 -1.21254e-19)
(-0.280742 -0.632534 -3.30022e-19)
(1.06494 0.0199094 1.82436e-19)
(0.913161 -0.455953 -8.37237e-20)
(1.02696 -0.00455317 -2.22775e-22)
(1.04555 -0.0043707 -1.68149e-21)
(0.750634 -0.113634 1.31806e-19)
(-0.139152 0.0235601 -2.7079e-19)
(1.06077 0.0339962 0)
(1.08951 0.0230243 4.87416e-21)
(1.44039 0.647615 7.07468e-20)
(0.804314 -0.598054 -1.74877e-19)
(0.998044 0.0117086 1.00969e-20)
(0.710819 -0.519489 2.44367e-19)
(1.30621 0.798478 7.06236e-20)
(1.82743 -0.0691026 2.44028e-20)
(-0.65964 0.46243 0)
(1.05606 0.060068 -1.88923e-19)
(-1.12081 0.0522979 -3.9268e-19)
(1.06656 0.491758 6.0292e-20)
(0.144892 -0.0234781 1.63537e-19)
(1.09908 0.0193725 -3.51109e-20)
(-0.11009 0.351988 -2.1644e-19)
(1.30903 0.578786 -4.6516e-20)
(1.14211 0.891904 0)
(-0.693302 0.432094 -1.33023e-19)
(-0.231588 -0.114376 0)
(0.660374 0.563491 -2.22149e-19)
(2.00713 0.0913543 -2.7597e-20)
(-0.531641 -0.627632 1.95418e-19)
(-0.971651 -0.0116019 -8.57719e-19)
(0.719853 0.0781075 2.04684e-19)
(2.04786 -0.640788 -3.7309e-20)
(0.978653 -0.34546 -2.46073e-20)
(0.0338321 0.00433229 0)
(0.448468 0.273877 -5.48695e-20)
(1.33969 0.97477 2.56874e-20)
(0.837854 0.0784993 -1.11003e-19)
(0.563472 0.528023 1.5345e-19)
(0.511739 0.190322 0)
(-0.172321 -0.883122 -3.01025e-19)
(0.70209 0.0372851 -4.72186e-20)
(1.30664 -0.968025 1.54941e-22)
(0.976159 -0.0372492 -1.53489e-19)
(-0.213088 -0.119704 7.59724e-21)
(-0.270224 0.344738 2.11935e-19)
(-0.402736 -0.114973 -2.08024e-19)
(1.3118 -0.488021 0)
(1.0814 0.0519391 -2.52709e-19)
(1.85219 -0.428626 1.15979e-19)
(1.27384 -0.606039 7.09963e-20)
(0.957579 0.0266192 -4.26717e-22)
(0.596489 0.323887 0)
(0.94827 0.757746 -1.20024e-20)
(0.691664 0.637724 1.39699e-19)
(0.895834 -0.546109 1.20792e-19)
(0.690414 0.49635 0)
(1.03266 0.0155689 6.57876e-21)
(0.881757 -0.646824 1.72466e-19)
(0.842609 0.41768 -3.64985e-19)
(1.22655 -0.122452 0)
(-0.235461 -0.224933 -3.67072e-19)
(-0.00440587 0.666985 -1.35048e-19)
(1.59119 0.717548 0)
(1.36176 -0.948698 -1.32608e-22)
(-1.10523 0.401672 0)
(-0.545608 0.742524 1.65328e-19)
(0.743425 0.657737 -7.65478e-20)
(0.840452 -0.207399 0)
(-0.114712 -0.263183 0)
(1.63797 -0.435384 0)
(0.136882 -0.468212 -2.37508e-20)
(1.22397 -0.891712 8.882e-20)
(1.18315 -0.583739 4.60778e-20)
(1.01261 -0.170196 -1.29133e-19)
(0.879035 -0.679297 -1.35897e-19)
(0.181696 -0.184923 0)
(-1.02559 -0.0759058 0)
(1.00524 -0.494827 1.39131e-19)
(-0.133158 -0.302753 0)
(-0.475773 0.740487 0)
(-0.537044 -0.366998 4.73046e-19)
(0.79866 0.675496 6.64192e-20)
(1.01567 0.80059 0)
(0.702281 0.550664 -6.80257e-20)
(0.815765 -0.0357057 -1.84183e-19)
(0.751286 0.559699 -1.80902e-19)
(0.59885 0.555847 -1.32112e-19)
(-0.295471 -0.653962 4.75941e-21)
(0.722767 -0.643213 0)
(0.904609 0.18074 -2.59592e-19)
(-0.426098 -0.728146 7.54118e-20)
(0.611635 0.567252 2.91871e-19)
(0.962091 0.805259 0)
(0.0320623 -0.628344 7.56775e-20)
(-0.0655044 -0.587027 3.63264e-19)
(0.0952258 -0.522889 -1.86e-19)
(0.669804 0.56957 -1.18401e-20)
(0.997804 -0.0230601 4.73807e-20)
(-0.514644 -0.699773 0)
(2.10228 0.305656 -2.53709e-19)
(1.1303 -0.0916572 -1.33547e-21)
(0.649971 -0.595982 -6.14685e-20)
(-0.883869 -0.0309254 1.99291e-20)
(1.19599 0.462929 1.28792e-19)
(0.885757 0.406122 0)
(1.08898 -0.199618 1.55789e-19)
(0.176638 -0.675207 -1.63083e-20)
(-0.0206519 0.16043 5.02381e-19)
(0.960161 0.0141281 -4.22091e-20)
(1.13689 0.120215 0)
(1.80353 0.104154 -2.37691e-19)
(1.84692 -0.0419559 0)
(0.546424 0.250135 -3.80638e-19)
(-0.284031 0.407404 0)
(-0.31704 -0.576393 3.16358e-19)
(0.798891 0.102126 0)
(0.608439 -0.502923 -1.50655e-19)
(1.05194 -0.000601689 1.67783e-19)
(-0.643468 0.596371 6.20626e-20)
(1.60258 -0.0922511 -1.3803e-20)
(2.19054 -0.228055 -1.40103e-19)
(1.10065 0.222205 -1.69048e-19)
(-0.439057 -0.764751 -1.52464e-19)
(1.08519 -0.854609 0)
(0.804507 0.00524777 -1.22165e-19)
(0.919941 -0.379787 -2.36213e-19)
(1.69282 -0.563258 -8.64937e-21)
(1.6872 -0.0524502 2.26194e-19)
(1.06691 0.0084945 3.03688e-19)
(0.0988036 -0.727148 -2.07271e-19)
(1.00068 -0.432402 -1.00685e-19)
(0.19029 -0.182721 2.13039e-19)
(1.01428 0.0100888 0)
(1.01933 -0.00127261 0)
(1.10952 -0.185778 -1.0543e-20)
(-0.108904 0.819948 -1.54013e-19)
(0.188237 -0.118246 -1.5227e-19)
(0.942044 -0.144483 9.82387e-21)
(1.31234 -0.837195 0)
(1.93076 -0.604899 -6.2518e-20)
(0.953693 -0.830014 -5.42444e-20)
(1.81241 -0.531062 -8.81575e-20)
(1.10725 0.841234 0)
(0.460801 -0.441687 0)
(0.60939 0.515452 -1.4324e-19)
(1.09257 0.275725 -3.07967e-19)
(2.1486 -0.175582 4.42605e-22)
(0.869787 0.161156 1.11928e-19)
(-0.0115137 -0.807089 -7.14481e-19)
(1.03392 0.00343303 1.48464e-21)
(-0.444259 -0.747637 0)
(-0.0567474 -0.207963 0)
(-0.639479 -0.577065 0)
(1.33985 -0.72081 -5.06464e-20)
(-0.356815 0.709565 -3.15797e-19)
(-0.114541 0.312881 0)
(1.29765 0.976491 -6.78202e-21)
(1.10252 0.147277 -3.2385e-19)
(1.11132 0.0193025 -4.8335e-21)
(1.08516 0.925917 3.80751e-20)
(-0.323646 0.837884 2.09453e-19)
(0.970234 0.0264613 0)
(-0.648712 -0.487774 -4.12735e-19)
(-0.402479 0.81388 3.90492e-19)
(0.767737 0.0364976 1.5073e-19)
(1.54513 0.941267 5.82065e-20)
(1.06595 0.0109538 4.19201e-21)
(-0.191452 0.617556 -4.62683e-21)
(0.749278 -0.678889 -2.93185e-20)
(1.27447 -0.0286356 0)
(1.68158 0.103506 0)
(1.1261 0.0599872 0)
(0.807431 0.129841 4.12491e-20)
(-0.624687 -0.642607 1.5564e-19)
(1.05019 0.850231 0)
(0.990704 -0.00043837 4.12357e-19)
(0.773678 0.603909 -1.80305e-19)
(0.545921 0.0442087 2.70472e-20)
(0.851146 0.024916 -3.35796e-20)
(0.715025 -0.644528 -1.76231e-19)
(1.38935 0.69927 -1.23949e-20)
(0.55029 -0.444888 -2.43101e-19)
(1.07474 -0.000516437 -3.67032e-19)
(0.862321 0.0201996 3.60411e-20)
(1.52635 -0.173346 4.16183e-20)
(0.882943 0.0282796 -1.2545e-20)
(-0.0129101 -0.0504598 1.54466e-22)
(1.0736 0.474821 -2.02189e-19)
(1.37597 0.621705 1.09343e-19)
(0.0211472 -0.549854 0)
(0.0229227 -0.814878 2.67441e-19)
(-0.327786 -0.298681 1.54353e-19)
(-0.227622 -0.0723658 -1.45578e-19)
(0.475519 0.308695 0)
(1.10822 -0.106135 0)
(0.072041 -0.0671617 -1.82578e-19)
(-0.350077 -0.78974 -9.13719e-20)
(1.02355 -0.0263968 1.46092e-19)
(-0.589769 0.49889 -6.13669e-20)
(1.43765 -0.839163 -1.575e-19)
(-0.0775585 0.857315 0)
(0.839386 -0.738159 -2.36424e-19)
(0.911793 0.0179692 1.65074e-20)
(-0.702127 -0.257436 2.74925e-19)
(0.72084 0.16061 2.70076e-19)
(0.623327 0.138294 8.81322e-20)
(0.490822 -0.461956 1.67086e-19)
(-0.232371 -0.372868 -1.68971e-19)
(1.05289 -0.00432991 0)
(0.391564 0.338657 -1.61168e-19)
(1.03952 -0.0176347 -2.32284e-19)
(-1.05701 -0.0384492 3.35588e-19)
(1.4331 0.46956 -6.05291e-20)
(-0.167009 -0.389026 -6.20455e-20)
(0.693722 -0.633893 -1.95831e-20)
(0.822338 0.186516 -1.66647e-19)
(0.973731 0.422821 1.75986e-20)
(1.11258 -0.156861 2.7774e-20)
(0.593878 -0.235772 -2.50223e-19)
(2.00429 -0.328776 -1.74827e-19)
(0.605945 -0.0237627 0)
(1.05876 -0.018726 -5.04658e-21)
(0.965878 0.166876 -9.21216e-21)
(1.48728 -0.136086 2.2461e-19)
(1.07766 0.339441 -2.34946e-19)
(1.0637 -0.00627479 -2.604e-21)
(0.419325 0.38515 -2.07287e-19)
(-0.423728 0.0578523 4.41697e-19)
(2.32692 -0.000778162 0)
(0.961609 0.00798619 0)
(0.882153 -0.778636 4.3991e-20)
(-0.0778178 -0.665158 -3.9683e-19)
(-1.20691 -0.126118 -3.24558e-19)
(-0.0394782 -0.106971 -2.61714e-19)
(-0.766696 0.70723 -2.6603e-19)
(-0.580471 -0.723054 0)
(-0.0280779 -0.138112 4.52889e-20)
(0.331243 0.671938 -1.32556e-19)
(-0.30416 0.392962 -4.85034e-19)
(0.785895 -0.096826 0)
(1.11732 -0.0293202 -1.39269e-21)
(-0.307739 -0.340959 0)
(1.01534 0.0208361 2.96688e-19)
(-0.185162 -0.681837 3.28364e-20)
(0.526638 -0.419188 3.25826e-19)
(-1.15492 -0.167387 6.51509e-19)
(-0.192603 0.126815 0)
(0.346058 0.768998 1.79617e-19)
(1.0302 0.0316402 -8.90014e-21)
(-0.158325 -0.124193 0)
(0.997302 -0.00939612 -4.6105e-20)
(0.862141 -0.716134 -2.28925e-19)
(1.11511 -0.208786 0)
(0.932581 -0.271256 1.67899e-19)
(0.205703 0.665748 4.04663e-19)
(0.0497408 0.0554539 0)
(-0.295755 -0.814952 -9.23919e-21)
(0.719158 -0.618109 -3.46631e-19)
(1.03665 -0.0282402 -2.14395e-19)
(-0.110831 -0.743575 5.13318e-19)
(-0.240663 -0.547653 1.91489e-19)
(-0.563727 -0.815729 0)
(0.951898 0.468873 0)
(-0.432243 -0.574036 3.77926e-19)
(2.17441 0.775916 -1.67139e-19)
(1.07917 0.900783 1.11481e-20)
(1.05693 0.21457 -9.73755e-20)
(1.11704 0.0212781 -1.78837e-19)
(1.14884 -0.0341013 -6.19137e-20)
(-0.0704332 -0.766403 -4.81463e-19)
(1.56327 -0.102846 2.86227e-19)
(0.797211 0.0419923 1.59782e-19)
(1.67297 0.16903 8.49199e-20)
(1.07255 -0.228509 0)
(0.687652 0.967707 3.99541e-20)
(1.09475 0.0172572 -4.01468e-19)
(1.73411 0.609417 -3.40515e-20)
(0.729233 -0.450915 -1.3262e-19)
(-0.032323 0.0286511 2.36361e-19)
(0.799243 -0.693258 3.02192e-19)
(1.22298 0.180717 5.40422e-20)
(0.993254 -0.00547336 2.04164e-19)
(0.140506 -0.879346 -2.3405e-19)
(1.03188 0.0235118 0)
(1.00413 0.10447 -6.59622e-20)
(0.0429492 0.0528766 0)
(1.02413 0.0304219 -1.20785e-19)
(0.228757 -0.268174 4.4218e-20)
(1.68948 0.284527 -1.04049e-21)
(-0.480909 -0.287834 2.02862e-19)
(1.60356 0.0925687 -3.36409e-20)
(1.01117 -0.00387022 4.18595e-20)
(1.30497 -0.09695 0)
(1.4273 -0.607124 -8.42341e-20)
(1.01144 0.0451838 -1.24262e-19)
(1.44659 0.784634 4.29985e-21)
(1.35546 0.0178339 0)
(1.07207 -0.016705 5.50314e-22)
(0.0725449 -0.0715476 0)
(1.46257 0.060284 0)
(-0.603464 -0.694247 0)
(1.22955 0.446787 0)
(1.96858 0.226362 7.06754e-20)
(0.747793 0.618241 3.15597e-19)
(0.28445 -0.284839 -1.97817e-19)
(-0.316114 -0.737866 -4.69933e-19)
(0.0380202 0.00659407 0)
(1.10758 -0.0338689 1.25316e-20)
(1.42212 0.508963 0)
(1.47141 0.277311 0)
(-0.693465 -0.462576 1.83395e-19)
(0.815151 0.72234 9.34378e-20)
(1.7296 0.00405817 0)
(-0.429957 -0.57183 1.0927e-19)
(0.907758 0.22559 1.52361e-19)
(1.07704 -0.00651296 -4.62092e-21)
(1.24693 0.929811 2.30539e-20)
(0.930669 -0.837798 -2.04634e-20)
(0.605407 0.00835686 -4.81215e-21)
(0.801398 0.725995 9.41918e-20)
(1.18517 0.928474 0)
(1.25739 -0.25886 3.2297e-20)
(1.11175 0.558678 0)
(1.08238 -0.0129007 -3.06188e-21)
(1.03614 0.0573891 2.29612e-19)
(1.00766 -0.0100381 0)
(0.699708 0.68209 -3.22382e-20)
(0.878571 -0.156903 3.90296e-20)
(0.616529 -0.406965 0)
(0.655133 -0.382859 1.75684e-19)
(1.23585 0.556666 -2.30513e-20)
(0.481179 0.452199 2.23342e-19)
(-0.352254 0.490771 5.75323e-20)
(0.22041 0.113624 1.18864e-19)
(0.838602 0.041333 0)
(1.32919 -0.906419 -3.18117e-20)
(1.04425 -0.0163124 3.22764e-19)
(1.56575 0.279646 1.86019e-19)
(-0.46222 -0.600298 9.50062e-20)
(-0.988091 0.156236 0)
(1.18164 -0.214423 -8.74885e-20)
(0.0536639 0.0504838 -2.0783e-19)
(0.661963 1.07976 -2.48937e-20)
(-0.14972 0.0383524 -6.2123e-22)
(-0.228418 0.107795 3.99044e-19)
(1.04023 -0.00227871 -5.86189e-22)
(2.20188 0.0630658 3.3982e-19)
(1.19826 0.458763 -2.07693e-19)
(1.06495 -0.0694956 0)
(1.71751 0.05736 2.23552e-19)
(1.72697 0.0904027 9.63413e-20)
(0.915702 -0.759375 1.10642e-19)
(1.16518 -0.983533 -1.28242e-20)
(0.486466 0.450696 1.48303e-19)
(1.35398 0.864456 0)
(1.78311 0.550414 6.65269e-20)
(0.0518001 0.0376706 -4.24573e-19)
(0.890781 0.779743 0)
(1.04772 -0.00146829 0)
(0.284156 -0.283111 -3.48373e-21)
(0.323104 0.299373 0)
(-1.26865 0.22691 -4.41992e-19)
(-0.444386 0.670062 -1.73168e-19)
(1.75879 -0.363872 0)
(1.28847 0.00979072 6.68315e-20)
(-0.603216 -0.259436 2.77994e-19)
(0.526698 -0.495783 -3.79358e-19)
(1.72793 0.0450326 -3.45886e-20)
(0.60576 -0.544641 0)
(1.06871 0.123203 0)
(1.36391 -0.196925 0)
(1.10554 0.227477 -1.78449e-19)
(1.26394 0.0985071 2.53072e-19)
(-0.285313 0.0461713 0)
(0.892592 -0.0505681 0)
(1.31236 -0.103462 1.22652e-20)
(-0.108522 0.344467 1.402e-19)
(1.86632 -0.363163 -1.50853e-19)
(1.0715 -0.513229 2.11625e-19)
(1.3078 -0.156822 -1.37984e-19)
(-1.33943 -0.0352285 -2.52372e-19)
(1.79495 -0.0539748 -1.90169e-19)
(1.00149 -0.0241232 3.33208e-19)
(1.538 0.58978 0)
(-0.458532 0.753784 4.60553e-20)
(1.01174 -0.830591 1.3077e-19)
(0.843705 -0.00731482 3.92501e-20)
(0.620425 -0.427307 0)
(1.89235 -0.529475 9.23772e-21)
(1.18403 -0.169688 1.11163e-19)
(1.09104 -0.0159739 0)
(0.611126 -0.564755 3.49638e-19)
(0.875556 -0.0307972 -4.99601e-21)
(1.81344 -0.62103 2.82188e-19)
(-0.179981 0.489199 -2.96491e-19)
(1.33465 0.616847 8.92489e-20)
(1.14581 0.413111 2.72885e-21)
(0.902615 0.368075 1.78615e-19)
(1.89364 0.831132 -1.26509e-19)
(-0.102145 -0.791642 -1.37981e-20)
(1.61278 -0.0714966 0)
(-0.170774 -0.067888 3.88288e-19)
(1.09852 -0.956793 0)
(1.06627 -0.633508 1.68577e-20)
(1.5607 0.767365 -6.19546e-19)
(1.03905 0.00714158 -1.25786e-21)
(-1.02471 -0.46384 -5.96048e-19)
(0.984604 0.481958 1.34381e-19)
(0.818528 0.308282 -4.55349e-20)
(0.766522 -0.0306647 0)
(0.730086 -0.0760753 0)
(0.604719 0.0586928 4.30685e-21)
(0.770987 0.00197785 0)
(1.31676 -0.197921 -1.14382e-19)
(-1.43146 0.0726544 5.95582e-19)
(1.88338 0.464086 6.99702e-20)
(1.04866 -0.0150008 0)
(0.538538 -0.349601 8.64414e-20)
(1.02815 0.0383495 1.5851e-19)
(0.97658 0.283574 2.30879e-20)
(-0.485009 0.447074 0)
(1.11268 -0.455083 3.79428e-19)
(0.906399 -0.00426888 -9.43006e-23)
(1.10782 -0.476876 -1.65329e-19)
(2.23254 0.106601 2.35679e-19)
(1.28707 0.789642 0)
(0.920254 0.0261579 0)
(-0.547574 -0.597299 -2.41097e-19)
(0.0749012 -0.0623312 2.05296e-19)
(0.955123 0.364896 -1.62923e-19)
(0.400441 -0.767949 -2.25179e-19)
(0.653979 0.405568 1.98298e-19)
(1.00968 -0.000882769 0)
(0.537924 -0.497415 0)
(1.05222 -0.00363675 7.00786e-22)
(1.23198 -0.488393 -7.40976e-20)
(0.561224 -0.045009 1.33888e-20)
(0.719036 -0.144468 9.80712e-20)
(-0.0382958 0.183802 -3.69254e-19)
(1.71103 -0.502418 2.87968e-19)
(0.670778 0.626073 0)
(1.27052 0.691866 0)
(1.55329 0.231497 0)
(-0.793718 -0.67708 -2.50973e-19)
(1.30743 0.57328 2.79377e-19)
(1.78593 0.182033 3.37601e-20)
(1.03427 -0.0194377 0)
(1.07996 0.0172357 0)
(1.8194 -0.047386 -2.30957e-19)
(1.02616 0.427572 -2.79043e-20)
(0.994315 0.00701138 -1.58822e-19)
(1.47859 0.474763 0)
(-0.518655 0.651623 0)
(1.23901 0.318811 2.1159e-19)
(1.01366 0.525454 -9.77288e-20)
(1.04137 0.0326378 0)
(1.78381 0.979657 0)
(2.0412 0.656869 -4.15865e-19)
(-0.167134 0.724142 -8.88593e-21)
(1.01155 -0.00168218 0)
(0.716213 0.470579 -2.68403e-20)
(0.944181 -0.831584 0)
(1.00305 0.0257897 3.71249e-20)
(1.0542 -0.0162187 1.82607e-20)
(0.892486 -0.324425 2.48091e-19)
(1.04526 0.000625426 -1.2971e-20)
(2.12711 -0.0102973 3.77361e-19)
(0.896087 -0.00170241 3.00555e-20)
(0.789873 -0.0266091 0)
(1.03102 0.0116587 0)
(-0.745222 -0.334588 0)
(0.67402 0.646704 -1.40455e-19)
(0.018309 0.0625548 2.49213e-19)
(1.1528 0.347349 -3.41185e-19)
(-0.785655 0.350521 0)
(0.835842 0.645924 1.31055e-19)
(1.00686 -0.334728 0)
(1.00513 0.00224568 9.2733e-20)
(0.817278 0.9536 2.26781e-20)
(1.03558 0.408188 1.94319e-19)
(2.06156 -0.391479 0)
(2.0722 0.0380029 -8.4021e-20)
(0.809783 -0.0951764 -2.97616e-19)
(-0.888304 0.289569 -4.5776e-19)
(1.18708 0.733703 0)
(0.883822 0.245878 1.40923e-19)
(2.34837 0.143902 0)
(0.78356 0.51982 2.88477e-19)
(-1.15884 0.021294 1.71587e-19)
(-0.0277075 0.173823 0)
(0.600324 0.57048 -5.54046e-20)
(1.02946 -0.619291 -1.17924e-19)
(0.467585 -0.249361 -1.02541e-19)
(1.01735 -0.0243489 0)
(-0.386528 0.0708373 -3.74187e-19)
(0.626935 -0.552519 6.67819e-20)
(0.90452 0.288544 0)
(1.16889 -0.148879 2.29267e-21)
(0.98921 0.844735 1.682e-20)
(1.04577 -0.000446674 -1.58262e-20)
(0.313722 -0.448427 -2.67854e-19)
(0.227213 -0.0394467 -4.65664e-19)
(-0.0955401 -0.288515 1.13215e-20)
(0.823594 0.353689 1.97212e-19)
(-0.368858 0.735163 -7.86207e-21)
(1.39827 -0.64138 3.18898e-21)
(1.01337 0.00459687 -2.74971e-19)
(-0.865751 -0.64322 0)
(1.03402 0.0451923 -3.22155e-19)
(1.79439 0.623556 1.05189e-19)
(0.892633 0.694952 2.14084e-19)
(1.07783 -0.0676493 1.28725e-19)
(0.987409 -0.0162231 1.28246e-19)
(1.03882 -0.000927691 1.15494e-21)
(-0.40846 -0.471673 6.35659e-23)
(1.73724 -0.875738 1.54007e-20)
(1.1463 -0.125952 -5.90601e-20)
(0.954085 0.0895664 6.7344e-20)
(0.89956 -0.293232 7.32733e-20)
(0.57834 -0.00100118 0)
(0.965535 0.740581 0)
(1.13371 1.17878 -2.70398e-20)
(1.98663 0.205901 -3.70918e-20)
(-1.35689 0.0973103 2.36847e-19)
(1.03301 -0.516219 -4.06981e-19)
(0.603484 -0.519124 3.21728e-19)
(1.68177 0.129428 -2.12196e-19)
(0.436403 -0.762819 2.45958e-20)
(1.04133 -0.00564888 0)
(0.752307 0.116861 -5.54617e-21)
(1.03869 -0.00400972 6.92134e-21)
(1.04073 0.76674 0)
(1.05239 -0.0232667 0)
(0.684576 -0.767198 0)
(-0.223021 -0.42187 -7.63546e-20)
(-0.0836815 0.106028 0)
(1.15356 0.265806 -1.35996e-21)
(1.19773 0.170343 4.81814e-21)
(0.179566 -0.0392205 -2.21119e-20)
(1.08014 0.00345946 -2.77074e-22)
(1.85163 0.429272 -1.18502e-19)
(2.03276 -0.259124 -3.96943e-20)
(-0.198981 -0.00241991 -2.83357e-19)
(-0.380429 -0.907221 6.88753e-21)
(0.863556 -0.0345406 0)
(0.737759 -0.0256697 0)
(1.015 -0.00479593 -6.55567e-23)
(-0.784477 -0.656924 0)
(1.46097 0.131389 -1.04486e-19)
(0.724288 -0.0245068 0)
(1.08048 -0.0155428 1.02757e-19)
(1.01448 0.0301262 -3.61352e-20)
(1.83937 -0.748992 1.64467e-19)
(1.04676 0.00422763 -7.37984e-22)
(0.943612 -0.184776 -4.40947e-20)
(1.03209 -0.00989402 2.95524e-19)
(0.661125 -0.592439 1.50319e-19)
(0.486709 -0.194001 4.24464e-20)
(1.03498 -0.0135642 -2.01273e-22)
(0.0779037 -0.0471933 0)
(1.12512 0.798285 0)
(1.01464 0.010911 0)
(1.00776 -0.764347 -8.06137e-20)
(1.04706 -0.898388 1.38102e-20)
(1.00948 -0.0203675 1.76796e-21)
(0.469716 0.733987 -7.47444e-20)
(1.05059 -0.00575968 2.66915e-21)
(0.569941 -0.380882 -5.25211e-19)
(1.0366 -0.0187017 -5.05235e-21)
(1.0348 -0.00305661 -1.01404e-20)
(2.09237 -0.288961 1.22443e-19)
(0.911698 -0.0201442 -2.41172e-21)
(-0.388664 -0.58652 -1.62892e-19)
(1.10301 0.555601 1.42663e-19)
(0.0229518 -0.422968 0)
(0.318111 -0.699953 6.77001e-19)
(-0.0458195 -0.114312 1.35197e-22)
(1.07471 -0.0235657 2.64558e-19)
(1.01653 -0.00273414 -6.86341e-21)
(1.05906 -0.0241817 -7.34763e-20)
(1.04739 0.00170856 2.33353e-21)
(1.61224 0.299311 2.2533e-20)
(0.385997 -0.361623 -2.6019e-19)
(1.0344 -0.0129866 -3.12458e-21)
(1.03835 -0.0093748 -1.94724e-19)
(1.01923 -0.00364086 2.07146e-22)
(1.04478 -0.0119983 0)
(1.10135 0.592472 -2.65618e-19)
(1.00843 -0.0026848 7.59352e-20)
(0.683725 0.608728 2.06354e-19)
(1.03866 -0.0131749 -3.50136e-22)
(1.05241 -0.00304372 -2.39883e-20)
(1.08576 0.0196001 6.81696e-22)
(2.0271 -0.343831 1.53231e-20)
(0.65261 0.00250987 0)
(1.07275 -0.0324192 0)
(1.0655 -0.0372178 4.65558e-19)
(1.00638 0.000162202 0)
(0.0124437 -0.0400575 0)
(0.959812 -0.581425 0)
(1.00171 0.000325798 -4.41079e-19)
(1.15962 -0.667514 6.14752e-20)
(1.03445 -0.0261427 9.24904e-21)
(1.35292 0.956149 -2.81252e-21)
(1.5394 1.00336 -1.51636e-19)
(1.03828 0.000430898 -4.69151e-21)
(1.46019 0.945436 5.90805e-20)
(0.597769 0.0300564 0)
(0.0519199 0.734009 0)
(2.13521 0.493529 4.09682e-19)
(1.0652 -0.0385402 0)
(1.00592 -0.00718382 -1.36493e-19)
(1.00069 0.000531259 2.65258e-19)
(1.36051 0.121676 -5.06776e-20)
(0.00866151 -0.118967 2.99848e-19)
(0.986193 -0.00317159 1.43777e-19)
(0.909396 -0.00126909 -1.842e-21)
(0.921956 -0.0128977 2.20212e-21)
(1.03738 0.00547797 2.68667e-23)
(0.911518 0.00934702 -1.45041e-19)
(1.00565 0.0049162 1.71918e-19)
(0.992111 -0.00687444 1.01359e-20)
(0.805278 0.00221985 0)
(0.731026 -0.0142342 0)
(0.723069 -0.0288617 9.08547e-22)
(0.715758 -0.00594375 0)
(0.645879 0.0241478 0)
(0.714288 -0.00392599 0)
(0.734033 -0.0226455 -2.33687e-21)
(0.902522 -0.00447801 1.21512e-21)
(1.04922 -0.00441185 0)
(1.04204 0.000948171 1.07635e-21)
(1.04303 0.00319923 0)
(0.741373 0.0135991 0)
(0.698726 0.00982181 0)
(0.682855 -0.000451687 9.98136e-22)
(0.616954 -0.00528891 7.14277e-21)
(0.837783 0.00897771 0)
(0.830564 0.0235396 0)
(0.9469 0.0177316 -1.79555e-19)
(0.822591 0.0167369 3.35472e-19)
(0.999522 -0.00172391 0)
(1.00254 0.00181541 3.16881e-19)
(0.993706 0.00336386 -1.54407e-22)
(0.83581 0.0128463 2.84359e-19)
(1.01362 -0.0182573 -1.65403e-19)
(0.898803 0.0096099 0)
(0.714358 0.000133579 -2.20397e-21)
(1.00611 -0.00729865 -1.60155e-19)
(1.00202 -0.00502789 -2.74857e-19)
(1.0469 0.00373215 0)
(0.99965 0.00704628 0)
(0.998731 0.00495651 0)
(1.0343 0.0045407 -2.90808e-21)
(1.04857 0.00189833 3.57002e-21)
(1.02793 -0.0106177 0)
(-0.558219 0.527759 2.88772e-19)
(0.651913 0.456655 3.42567e-20)
(1.02232 -0.00595664 -2.13542e-19)
(-0.510668 -0.792216 -1.62531e-19)
(1.00236 0.00758475 -1.71552e-19)
(1.16649 -0.204571 -7.33318e-20)
(0.787082 -0.462413 2.47404e-19)
(-0.00997552 -0.0601824 -1.04924e-19)
(1.03275 0.00430135 0)
(1.05864 -0.00212916 -4.59366e-20)
(0.89523 -0.00250913 0)
(0.0264311 0.0344025 3.62603e-19)
(1.0465 -0.0473177 0)
(-0.755611 -0.609781 -4.1262e-19)
(0.913282 -0.0151835 6.69176e-22)
(1.67878 0.667301 1.01897e-19)
(-0.072664 -0.115593 0)
(1.07603 -0.0250816 1.43975e-19)
(1.05844 0.0014085 4.48597e-22)
(0.916758 -0.00489322 2.28391e-19)
(1.02028 -0.00965898 -1.45083e-19)
(1.69179 0.85297 9.18764e-20)
(0.529154 0.494313 0)
(0.447435 0.397936 1.68068e-19)
(1.06447 0.0126038 1.8382e-22)
(1.12448 0.135983 1.48246e-19)
(1.09041 -0.694277 0)
(1.02255 -0.00416475 0)
(0.997998 -0.00744952 -3.33807e-19)
(1.01353 0.0192497 -3.26695e-19)
(-0.164057 -0.475996 0)
(1.22269 0.822998 -7.2093e-20)
(1.03183 0.00482058 3.72772e-22)
(1.00848 0.00874431 1.25767e-19)
(1.01806 0.00105797 -1.57487e-19)
(-0.807402 -0.479364 -4.04887e-20)
(1.03735 -0.00313245 -7.37724e-21)
(1.01435 -0.022666 5.36266e-19)
(1.04176 0.00572703 0)
(1.89567 0.641028 -1.0551e-19)
(1.01914 -0.0134332 -1.66992e-19)
(1.60801 0.126954 -8.12686e-20)
(1.02438 0.0111299 -3.83487e-22)
(1.0182 -0.0101322 3.32426e-20)
(2.21734 -0.085866 -3.18173e-19)
(1.00822 0.0287634 1.62365e-19)
(1.04359 -0.000730451 2.81569e-22)
(0.998911 -0.00358123 0)
(0.935668 0.15658 3.96425e-20)
(-0.0705793 0.533505 1.58285e-21)
(0.979786 0.0111431 1.61481e-19)
(1.03835 0.00727083 -5.46054e-22)
(1.04299 0.00116266 -1.27304e-21)
(1.25522 0.301941 2.89757e-19)
(1.01204 0.0363875 1.10928e-19)
(0.987087 -0.00655962 2.99335e-22)
(1.75211 0.204667 6.88251e-22)
(1.82284 0.949724 -1.36753e-19)
(0.779576 -0.695583 4.55797e-20)
(0.437369 -0.321091 -2.55383e-19)
(1.01685 0.0122055 0)
(1.02661 0.00306135 4.05721e-20)
(1.01056 -0.00451512 8.47539e-20)
(1.0492 0.0107619 3.90053e-22)
(1.00185 0.013554 -1.68622e-19)
(1.03866 -0.0363498 1.92113e-19)
(1.00937 -0.00040504 -1.59506e-19)
(1.01415 0.0141338 -9.87193e-22)
(1.00526 0.00524896 -2.83492e-22)
(1.03312 0.0162834 1.6098e-19)
(0.904353 0.090351 4.12435e-19)
(1.15616 0.0787966 0)
(0.958836 0.990401 1.99603e-19)
(0.996243 0.00195416 0)
(1.01991 -0.0175865 -4.66581e-20)
(1.53987 0.435908 -3.11796e-20)
(1.27084 0.118713 0)
(1.12281 -0.0747627 -1.309e-20)
(1.12644 0.200618 1.85027e-21)
(0.891653 -0.017654 0)
(2.32724 0.428759 0)
(0.996109 0.197111 2.52734e-20)
(1.04684 -0.0059897 -1.46931e-21)
(1.03615 0.00676224 -1.69382e-19)
(1.12059 -0.542208 -4.66166e-20)
(1.04399 0.00391345 -1.91353e-21)
(1.05221 -0.00890987 0)
(1.05551 0.0171021 0)
(1.10379 0.0403311 0)
(0.418744 0.558313 1.5418e-19)
(1.0379 0.000891854 6.73391e-21)
(0.912541 0.0905215 0)
(0.0577315 0.483659 -5.17196e-19)
(1.71653 0.963994 -1.34982e-19)
(1.00811 -0.00811059 -3.32948e-19)
(1.04439 -0.000737102 1.89714e-21)
(1.01547 0.0124418 2.19515e-19)
(0.793658 -0.0452359 0)
(-0.133087 -0.431945 -3.16507e-20)
(0.619666 0.430171 -2.78815e-19)
(1.14299 0.0541263 -3.13445e-21)
(0.28727 0.552567 0)
(0.922743 0.026585 6.07288e-20)
(0.527803 0.503192 4.14933e-20)
(1.19135 0.888908 -1.79628e-20)
(0.0279467 0.0489871 1.51601e-19)
(1.01227 0.0254487 0)
(1.04143 0.00789554 5.16406e-21)
(1.01416 0.00942498 1.24614e-19)
(2.18121 -0.275991 0)
(1.0118 0.00789747 2.09678e-19)
(0.426082 -0.655319 -3.18841e-19)
(1.02419 0.0167779 -1.2881e-19)
(1.05242 -0.00865264 0)
(1.17359 -0.175306 1.02007e-22)
(1.00968 -0.00699343 -8.71861e-20)
(0.995868 -0.0313853 2.29301e-19)
(1.07769 0.10022 -3.20986e-21)
(1.04964 0.00165904 -6.8859e-21)
(-0.160365 -0.0275319 3.91213e-19)
(2.09452 0.262338 2.5922e-19)
(1.03509 -0.00110002 7.86263e-21)
(0.822362 0.0366993 -3.14488e-19)
(0.867363 0.0301954 0)
(1.0395 -0.00152366 5.23148e-21)
(1.02352 -0.0164027 -2.50762e-20)
(0.981496 0.0272134 0)
(1.01907 0.0126328 -1.5926e-19)
(1.04055 -0.00380591 -1.07309e-20)
(-1.17875 0.0992209 2.09411e-19)
(2.12685 -0.564681 0)
(-0.217713 -0.513017 -1.12309e-19)
(1.47749 -0.334772 0)
(1.02703 -0.0163588 4.70485e-20)
(1.04705 -0.01794 -6.91224e-23)
(0.988037 -0.00522484 1.34852e-19)
(-0.748667 -0.484243 3.78701e-19)
(1.0134 0.0185125 0)
(0.991217 0.00169249 -3.25625e-19)
(0.992796 0.0127288 1.71857e-19)
(1.04346 -0.0117894 0)
(1.03024 0.00315146 3.29459e-22)