/*--------------------------------*- C++ -*----------------------------------*\
| =========                 |                                                 |
| \\      /  F ield         | OpenFOAM: The Open Source CFD Toolbox           |
|  \\    /   O peration     | Version:  2306                                  |
|   \\  /    A nd           | Website:  www.openfoam.com                      |
|    \\/     M anipulation  |                                                 |
\*---------------------------------------------------------------------------*/
FoamFile
{
    version     2.0;
    format      ascii;
    arch        "LSB;label=32;scalar=64";
    class       volVectorField;
    location    "4.6";
    object      U;
}
// * * * * * * * * * * * * * * * * * * * * * * * * * * * * * * * * * * * * * //

dimensions      [0 1 -1 0 0 0 0];

internalField   nonuniform List<vector> 
2186
(
(1.27644 -0.0683277 1.79659e-19)
(1.63255 -0.929544 -9.8897e-20)
(1.46848 -0.905254 6.59348e-22)
(0.732722 -0.585623 -1.24985e-19)
(-0.710435 0.488933 -2.84198e-19)
(1.02697 -0.00660643 0)
(0.715184 -0.658452 0)
(-0.749319 -0.741292 1.74454e-19)
(2.30391 0.130886 3.01005e-19)
(0.554724 -0.325704 -2.35194e-21)
(0.677369 0.606777 0)
(0.962144 -0.261871 -1.39028e-19)
(-0.725989 -0.645442 -6.70764e-20)
(1.07514 -0.00484376 -3.22315e-19)
(1.82729 -0.646664 -9.9811e-20)
(1.01175 -0.0103064 1.50485e-19)
(1.00757 0.0260411 0)
(-0.746227 -0.261745 0)
(1.02802 0.00468405 0)
(-0.184167 0.737386 -8.79562e-20)
(0.48762 0.0901264 -1.00589e-19)
(-0.00704753 0.235619 1.09043e-19)
(1.05758 -0.0216264 2.67055e-19)
(-0.260492 -0.139219 1.48198e-20)
(1.0401 0.0102062 -2.07617e-19)
(0.780663 -0.561662 0)
(0.759464 -0.028073 1.25344e-19)
(0.603241 -0.583531 -1.42138e-19)
(1.19889 0.706804 0)
(0.941712 0.0318339 -2.86562e-19)
(-0.0405143 0.350278 0)
(1.01942 -0.0407598 9.80011e-21)
(0.123437 0.818793 0)
(1.30872 0.174313 1.71866e-20)
(-0.0111345 -0.782002 1.22862e-20)
(1.53745 0.750737 2.47916e-20)
(1.11186 0.0497235 1.54364e-20)
(0.511654 0.139298 -2.98915e-19)
(2.10532 -0.156042 -4.11311e-19)
(1.05851 -0.00772747 -1.51031e-21)
(-0.792744 -0.602993 0)
(0.0118507 0.307558 0)
(1.94096 -0.839276 9.90835e-20)
(-0.0859527 0.431839 0)
(1.08605 0.271268 1.27732e-19)
(0.597708 -0.30677 2.463e-19)
(0.923223 -0.779842 0)
(1.18897 -0.773292 8.61153e-20)
(1.20496 -0.224894 0)
(-0.744174 0.662874 3.81879e-19)
(-0.0606536 0.490741 1.30256e-19)
(0.633706 0.583233 6.52334e-20)
(2.10523 -0.680558 1.10646e-19)
(0.590636 0.273349 -2.38935e-19)
(0.0560788 0.743951 4.81224e-20)
(0.755185 -0.648092 0)
(1.72429 -0.963008 2.00037e-20)
(0.574852 -0.537493 0)
(2.24147 -0.0706322 1.23827e-19)
(1.18876 -0.145877 -2.91682e-19)
(1.02295 -0.0372689 1.00876e-20)
(1.30432 0.275061 -1.40125e-19)
(1.31126 0.528676 0)
(1.04137 -0.00674879 1.65468e-21)
(1.3291 0.374789 -8.18054e-20)
(1.26631 -0.728027 -1.16258e-19)
(1.16389 0.65142 4.10895e-20)
(0.67991 0.0703863 -4.83607e-19)
(0.811403 0.0366994 0)
(2.34398 0.243637 -5.81112e-20)
(-0.758651 -0.751118 -2.15396e-19)
(1.16282 -0.0970589 -2.15485e-21)
(0.731751 -0.0349194 -2.13044e-19)
(0.864123 -0.526081 0)
(0.81136 0.173811 -7.80024e-20)
(0.547015 -0.512873 -2.55133e-19)
(1.21354 -0.143871 0)
(1.00426 0.0208827 3.10373e-19)
(-0.0604374 -0.916133 0)
(2.25799 0.246719 0)
(1.43683 -1.11036 1.17191e-19)
(1.00169 -0.0191679 3.25493e-21)
(1.02631 0.00463987 3.47257e-20)
(1.294 0.386628 2.10402e-20)
(0.947309 0.00115232 3.64679e-19)
(1.05295 0.0212159 -8.56173e-21)
(0.659881 0.176467 -2.88226e-19)
(1.01961 0.00167648 2.49028e-22)
(0.787101 0.0276708 0)
(0.0585643 0.0663939 1.13223e-19)
(0.850328 -0.621733 -1.37651e-19)
(-0.314328 0.928801 -1.4209e-20)
(1.07268 -0.0827111 2.11784e-19)
(0.822932 -0.18081 0)
(0.955057 0.016321 3.43999e-20)
(1.3477 0.636953 0)
(1.63845 -0.926376 0)
(1.3057 0.21783 0)
(-0.777995 0.602083 0)
(0.783802 -0.665578 2.45674e-19)
(0.875866 -1.01147 -7.25737e-20)
(1.07922 -1.19593 9.57394e-20)
(1.41584 0.149266 0)
(1.05952 -0.065837 -1.93629e-19)
(1.04599 0.0135786 1.54491e-19)
(0.00428612 0.685295 2.79491e-19)
(0.631024 0.494409 0)
(2.01114 0.0545018 -9.3438e-20)
(0.954206 -0.48218 6.89853e-20)
(0.808831 0.0788087 -2.08282e-20)
(1.88237 0.412904 1.34812e-19)
(-0.708613 0.563085 -5.3166e-19)
(0.812241 -0.733859 0)
(0.560133 0.342723 1.44684e-19)
(2.18111 0.0113128 -8.74314e-19)
(-0.514426 -0.266428 -5.24411e-19)
(1.03049 -0.0349516 -8.7405e-21)
(1.13257 -0.158291 0)
(0.0283906 0.0287661 -3.41277e-19)
(0.718646 -0.0649132 6.75861e-20)
(1.56822 0.875183 0)
(-0.449211 0.0757161 -5.66934e-19)
(0.885872 0.756667 -2.22035e-19)
(-0.444599 -0.504804 2.46419e-19)
(1.01817 -0.000163727 0)
(1.05022 0.00336154 1.10123e-20)
(-0.756185 0.589685 0)
(0.691694 -0.503175 -9.12923e-20)
(-0.679046 -0.505222 -1.68904e-19)
(0.782255 -0.70974 0)
(0.443234 -0.29494 3.60329e-19)
(0.544324 -0.467968 2.40111e-19)
(0.416904 -0.376146 0)
(0.976817 -0.770392 -1.00159e-19)
(1.02794 -1.09698 0)
(-0.567939 0.199856 -2.99361e-19)
(0.802038 -0.693874 1.1646e-19)
(2.21445 0.23886 2.48038e-19)
(1.95979 -0.0811684 0)
(-0.478883 -0.83153 0)
(0.690074 0.64059 -2.70455e-19)
(1.79629 -0.565282 1.61339e-20)
(-0.597722 -0.625582 0)
(0.975999 -0.795005 -1.10293e-20)
(1.05259 -0.119078 0)
(1.05498 -0.137365 3.32332e-19)
(2.00943 -0.0178269 -1.02112e-19)
(-0.70858 0.495027 0)
(1.23338 -0.551165 -4.36538e-20)
(0.249271 0.701884 -6.01699e-20)
(-0.743131 0.794218 0)
(1.09297 -0.803895 1.20631e-20)
(1.00418 0.0123257 -5.1844e-19)
(0.648229 -0.490507 -9.00782e-21)
(0.80425 -0.522682 0)
(1.21555 -0.723996 -7.3065e-20)
(0.651372 0.239079 2.23884e-19)
(1.23994 0.112836 0)
(1.55689 0.0191592 -1.4041e-19)
(1.20405 -0.846 -1.44126e-19)
(-0.45972 -0.77099 -1.49912e-19)
(-0.647359 0.254286 -3.30402e-19)
(1.06006 0.0189029 1.93528e-19)
(0.905846 -0.478391 -8.67511e-20)
(1.04323 0.00666229 -2.30549e-22)
(1.00466 0.00588925 -1.73965e-21)
(0.76991 -0.0470165 1.19849e-19)
(0.183421 -0.208658 -2.4575e-19)
(1.04568 -0.00343037 0)
(1.05234 -0.0306678 -4.68653e-21)
(1.41736 0.621475 8.9015e-20)
(0.798384 -0.616296 -1.792e-19)
(0.999165 0.00688504 1.0645e-20)
(0.715065 -0.538346 2.50933e-19)
(1.29728 0.789814 8.36302e-20)
(1.72038 -0.0721952 1.62389e-20)
(-0.688955 0.358093 0)
(1.01252 0.0351049 -2.00441e-19)
(-0.493695 0.356451 -1.20927e-19)
(1.07181 0.476408 6.47862e-20)
(0.299612 -0.156574 1.48581e-19)
(1.05887 0.0149971 -3.65388e-20)
(-0.0791233 0.80727 -2.34771e-19)
(1.27912 0.578393 -5.43526e-20)
(1.13788 0.88602 0)
(-0.689337 0.307499 -1.21641e-19)
(-0.182221 -0.0660387 0)
(0.647524 0.550881 -2.33386e-19)
(1.897 -0.077062 -2.26454e-20)
(-0.684433 -0.497326 2.05947e-19)
(-0.6772 0.0111638 -5.85528e-19)
(0.722696 0.0658051 2.12282e-19)
(1.53565 -0.507245 -8.41669e-21)
(0.953603 -0.350168 -2.5594e-20)
(-0.230498 -0.371035 0)
(0.842226 0.062087 -3.08888e-20)
(1.33633 0.970659 1.67797e-20)
(0.837557 0.0611039 -1.15394e-19)
(0.554249 0.517503 1.61679e-19)
(0.565517 0.176447 0)
(-0.750322 -0.430363 -4.67947e-19)
(0.90821 0.0101491 -2.18414e-20)
(1.30636 -0.949615 1.91585e-22)
(0.966354 -0.0234047 -1.59404e-19)
(-0.334391 -0.113453 -1.13866e-21)
(-0.550268 0.571078 2.49045e-19)
(-0.229462 -0.351924 -2.00901e-19)
(1.11287 -0.144261 0)
(1.07884 0.0440081 -2.69427e-19)
(1.44815 -0.313419 3.47752e-20)
(1.29186 -0.613306 7.55341e-20)
(1.04312 -0.0374661 -1.32951e-21)
(0.589412 0.325573 0)
(0.940116 0.740879 -1.30004e-20)
(0.686516 0.629196 1.49734e-19)
(0.882862 -0.566249 1.24924e-19)
(0.677852 0.489636 0)
(0.975974 -0.000647647 6.91832e-21)
(0.870749 -0.661701 1.77183e-19)
(0.826644 0.413556 -3.83115e-19)
(1.27769 -0.112354 0)
(-0.21907 -0.179982 -3.53777e-19)
(0.090382 0.900764 -1.89202e-19)
(1.56903 0.700235 0)
(1.35751 -0.921767 -1.63966e-22)
(-0.525501 -0.190168 0)
(-0.742691 0.640739 1.86938e-19)
(0.731413 0.64284 -8.11049e-20)
(0.846694 -0.218659 0)
(0.404203 -0.683672 0)
(1.73794 -0.406552 0)
(0.783069 -0.158529 -4.72709e-20)
(1.21495 -0.868381 9.46585e-20)
(1.20214 -0.600429 4.84784e-20)
(1.07248 -0.210067 -1.3875e-19)
(0.868663 -0.689108 -1.3913e-19)
(0.184845 -0.189268 0)
(-0.228666 -0.340581 0)
(1.00316 -0.514933 1.45952e-19)
(-0.620325 -0.830437 0)
(-0.883813 0.369919 0)
(-0.493574 -0.22284 4.47832e-19)
(0.786588 0.658885 7.0365e-20)
(1.01028 0.787195 0)
(0.689521 0.540887 -7.13317e-20)
(0.821681 -0.0465959 -1.90943e-19)
(0.737725 0.549118 -1.90092e-19)
(0.588704 0.544034 -1.39226e-19)
(-0.743761 -0.856069 1.07359e-20)
(0.710961 -0.637308 0)
(0.874669 0.167164 -2.71772e-19)
(-0.87009 -0.7207 1.02851e-19)
(0.6039 0.55763 3.09916e-19)
(0.955327 0.792007 0)
(0.739332 -0.204458 -3.27023e-20)
(-0.0635231 -1.03756 5.93253e-19)
(0.420176 -0.750124 -3.64916e-19)
(0.657182 0.557419 -1.24123e-20)
(0.975275 0.00673501 4.97901e-20)
(-0.756811 -0.483481 0)
(1.63745 0.340159 -1.04564e-19)
(1.01577 -0.0333562 1.46495e-20)
(0.644254 -0.598156 -6.28034e-20)
(-0.45416 -0.458159 6.36071e-21)
(1.17135 0.440515 1.40693e-19)
(0.87414 0.407618 0)
(1.04861 -0.131047 1.68788e-19)
(0.321561 -0.710694 -1.70457e-20)
(-0.261893 0.709724 5.477e-19)
(0.98294 0.00610413 -4.44168e-20)
(1.16972 0.146582 0)
(1.65022 0.163848 -1.47093e-19)
(1.67154 -0.0781555 0)
(0.543305 0.253907 -3.94585e-19)
(-0.614809 0.67065 0)
(-0.788137 -0.80692 4.22481e-19)
(0.85863 0.136263 0)
(0.620049 -0.523331 -1.54716e-19)
(1.04116 0.00520986 1.775e-19)
(-0.779182 0.418407 6.20575e-20)
(1.28915 -0.0806445 -5.64226e-21)
(2.16522 0.020334 -1.49274e-19)
(1.089 0.211683 -1.79649e-19)
(-0.818656 -0.610798 -1.89052e-19)
(1.07171 -0.837752 0)
(0.823935 0.0243934 -1.29466e-19)
(0.910701 -0.396702 -2.44834e-19)
(1.69103 -0.560686 -7.66233e-21)
(1.63099 -0.0221311 1.49626e-19)
(1.04599 0.0138623 3.22263e-19)
(0.148432 -0.472479 -3.94748e-19)
(0.985717 -0.439311 -1.05237e-19)
(0.19624 -0.189704 2.18757e-19)
(0.971009 -0.020151 0)
(0.995589 -0.00636602 0)
(1.02769 -0.0626783 -7.19039e-21)
(-0.689984 0.489249 -2.26447e-19)
(0.216008 -0.11576 -1.58341e-19)
(0.862896 -0.0664473 5.52171e-21)
(1.08007 -0.285051 0)
(1.44441 -0.516852 -1.44986e-20)
(0.944836 -0.814118 -5.75497e-20)
(1.81981 -0.546707 -8.35346e-20)
(1.10336 0.832506 0)
(0.47219 -0.457513 0)
(0.597377 0.505435 -1.49622e-19)
(1.06913 0.244532 -3.28344e-19)
(2.09477 0.0199301 3.69244e-22)
(0.845518 0.154505 1.16918e-19)
(-0.185435 -0.00608268 -1.09116e-18)
(1.01154 0.0149102 2.43978e-21)
(-0.925778 -0.165546 0)
(-0.386924 -0.885913 0)
(-0.701919 -0.360645 0)
(1.35507 -0.717005 -5.57839e-20)
(-0.747373 0.851096 -4.2619e-19)
(-0.523525 0.829968 0)
(1.29346 0.973489 -1.24467e-20)
(1.09134 0.150561 -3.44635e-19)
(1.07511 0.0341725 3.37041e-21)
(1.08229 0.924881 4.78283e-20)
(-0.706173 0.780705 2.78983e-19)
(1.023 -0.010835 0)
(-0.673168 -0.258555 -3.93981e-19)
(-0.751742 0.720608 5.00095e-19)
(0.770845 0.0147232 1.56388e-19)
(1.53959 0.929057 4.59103e-20)
(1.03903 -0.00857623 4.79492e-21)
(-0.39179 0.938308 -4.31824e-23)
(0.735875 -0.671015 -3.00162e-20)
(1.30491 -0.0837624 0)
(1.62151 0.0889636 0)
(1.17787 0.0688796 0)
(0.941886 0.0279662 2.12038e-20)
(-0.793912 -0.306836 1.5591e-19)
(1.04494 0.840104 0)
(0.976139 -0.00160976 4.29938e-19)
(0.760047 0.590743 -1.8991e-19)
(0.888762 0.0139659 1.63493e-20)
(0.850938 0.00266233 -3.4902e-20)
(0.706212 -0.646087 -1.80144e-19)
(1.37294 0.690419 -1.70798e-20)
(0.565507 -0.46426 -2.50268e-19)
(1.02622 -0.0087359 -3.8906e-19)
(0.977131 0.0372295 3.8078e-20)
(1.58801 -0.113963 4.82417e-20)
(0.984612 0.00193012 9.2007e-22)
(-0.366924 -0.489276 2.30731e-21)
(1.07746 0.456112 -2.16184e-19)
(1.41216 0.61358 1.04224e-19)
(0.485501 -0.961779 0)
(-0.509487 0.0579174 3.91999e-19)
(-0.291943 -0.209304 1.48381e-19)
(-0.137715 -0.192337 -1.54716e-19)
(0.469191 0.304988 0)
(1.01185 -0.0657102 0)
(0.025855 0.00384975 -1.89092e-19)
(-0.795509 -0.735472 -1.18483e-19)
(1.02503 0.00934365 1.54033e-19)
(-0.601626 0.414898 -6.13146e-20)
(1.09364 -0.330781 6.88251e-21)
(-0.000100198 0.571684 0)
(0.823996 -0.728232 -2.42335e-19)
(0.998668 0.016001 -3.84907e-21)
(-0.599135 0.414936 1.37384e-19)
(0.709556 0.157155 2.80613e-19)
(0.623592 0.140842 9.13563e-20)
(0.499357 -0.475815 1.71307e-19)
(-0.643509 -0.67348 -2.09417e-19)
(1.04149 0.00362237 0)
(0.38365 0.331322 -1.67286e-19)
(1.00567 0.00555957 -2.45567e-19)
(-0.712756 0.0354924 2.37428e-19)
(1.41388 0.462011 -7.61544e-20)
(-0.663082 -0.856241 -8.32741e-20)
(0.697598 -0.632871 -2.3749e-20)
(0.795463 0.181078 -1.74476e-19)
(0.975369 0.418402 1.87008e-20)
(1.12263 -0.136963 2.88852e-20)
(0.60998 -0.242456 -2.58418e-19)
(2.0567 -0.191666 -1.75502e-19)
(0.776079 -0.0152221 0)
(1.00096 0.0130096 2.15718e-21)
(0.840795 0.0235801 -5.76149e-21)
(1.70881 0.966021 1.743e-19)
(1.23134 0.248684 -1.99124e-19)
(1.04241 0.00937272 -5.22813e-21)
(0.410104 0.37688 -2.15478e-19)
(-0.546747 -0.326034 3.66058e-19)
(2.20196 0.585153 0)
(1.00308 0.00429524 0)
(0.86767 -0.761657 4.54808e-20)
(-0.263841 -0.950775 -6.47146e-19)
(-0.101913 -0.502726 -5.96649e-20)
(-0.454835 -0.617383 -3.38969e-19)
(-0.7326 0.148332 -2.51594e-19)
(-0.650915 0.0789549 0)
(-0.346948 -0.769648 5.45754e-20)
(0.571847 0.690403 -2.09994e-19)
(-0.57836 0.577506 -5.64544e-19)
(0.816503 -0.0958732 0)
(1.02881 -0.0476746 -6.3984e-21)
(-0.315953 -0.291316 0)
(0.981231 0.0242724 3.11186e-19)
(-0.146433 0.360316 1.01367e-20)
(0.542336 -0.43715 3.35404e-19)
(-0.436556 0.417034 2.00737e-19)
(0.646918 -0.00189666 0)
(0.18969 0.281381 2.99846e-19)
(1.04349 -0.00582114 -9.36836e-21)
(0.305987 -0.549052 0)
(1.01652 -0.00823883 -4.84836e-20)
(0.85005 -0.719644 -2.34399e-19)
(0.995475 -0.0873741 0)
(0.894926 -0.277327 1.74771e-19)
(-0.28407 -0.0429586 4.72587e-19)
(-0.0230186 -0.0712763 0)
(-0.759064 -0.369845 -1.28679e-20)
(0.719138 -0.633731 -3.54912e-19)
(0.996292 -0.0764992 -2.24261e-19)
(-0.254857 -0.935139 9.57616e-19)
(-0.74142 -0.890563 2.69534e-19)
(-0.832765 0.000489186 0)
(0.950363 0.464267 0)
(-0.123007 0.757338 2.31006e-19)
(1.42577 0.535035 -4.82254e-20)
(1.07613 0.89853 1.28285e-20)
(1.04652 0.196646 -1.03067e-19)
(1.07761 -0.0388041 -1.9374e-19)
(1.14889 -0.128846 -6.77542e-20)
(-0.422762 -0.786841 -8.64026e-19)
(1.20261 -0.130087 1.17952e-19)
(0.854788 0.026173 1.71724e-19)
(1.26042 0.159699 3.44537e-20)
(1.08753 -0.103728 0)
(0.889384 0.232093 -2.86008e-20)
(1.0604 0.0426119 -4.22257e-19)
(1.72221 0.554248 -2.10972e-20)
(0.731702 -0.465336 -1.3661e-19)
(0.0353906 0.0136985 2.55071e-19)
(0.787621 -0.69123 3.09088e-19)
(1.22648 0.213927 5.88448e-20)
(1.00111 0.00971279 2.15792e-19)
(-0.0200001 -0.0853909 -4.19238e-19)
(1.01987 0.0149512 0)
(1.02581 0.0192475 -1.60433e-20)
(-0.00999909 -0.100456 0)
(1.0582 0.0277855 -1.26335e-19)
(0.803757 -0.070067 5.52391e-20)
(1.6696 0.190204 1.14874e-20)
(-0.415661 -0.181065 1.87298e-19)
(1.59442 0.0536788 -1.97908e-20)
(1.01397 -0.0273045 4.4283e-20)
(1.34707 -0.10656 0)
(1.4376 -0.602862 -9.27842e-20)
(1.00174 0.0470928 -1.30667e-19)
(1.42814 0.78155 -1.06888e-20)
(1.31285 -0.0571462 0)
(1.02646 0.00559587 1.53642e-21)
(0.0222353 0.0138841 0)
(1.43457 0.0652423 0)
(-0.829007 -0.459941 0)
(1.19585 0.44843 0)
(2.10341 0.251901 7.236e-20)
(0.734411 0.602992 3.32585e-19)
(0.289411 -0.291795 -2.02794e-19)
(-0.830907 -0.819045 -6.72799e-19)
(-0.216278 -0.373325 0)
(1.10062 0.000224055 -2.59858e-21)
(1.51293 0.464844 0)
(1.45582 0.235627 0)
(-0.668549 -0.207765 1.72939e-19)
(0.810027 0.712457 1.01493e-19)
(1.70085 0.0293551 0)
(-0.680849 -0.608784 1.27417e-19)
(0.886846 0.212178 1.59494e-19)
(1.05788 -0.00597934 4.14538e-21)
(1.24184 0.925982 2.78946e-20)
(0.923721 -0.825751 -2.22905e-20)
(0.790106 -0.00173825 3.0592e-21)
(0.797766 0.719043 1.02929e-19)
(1.18096 0.926563 0)
(1.15128 -0.0685413 2.39225e-21)
(0.986842 0.131736 0)
(1.02613 -0.00365292 -5.86155e-21)
(0.926645 0.27162 1.97257e-19)
(1.0055 0.00023588 0)
(0.909522 0.175918 -3.10382e-20)
(0.885314 -0.157515 4.05073e-20)
(0.626224 -0.420457 0)
(0.664128 -0.395037 1.81146e-19)
(1.21593 0.547537 -2.55247e-20)
(0.470905 0.441953 2.33675e-19)
(-0.61086 0.619699 6.52624e-20)
(0.668183 0.693647 1.60864e-19)
(0.907961 -0.00512433 0)
(1.33026 -0.888773 -3.80457e-20)
(1.06047 -0.0042952 3.42247e-19)
(1.53591 0.278859 1.57615e-19)
(-0.649745 -0.520338 1.08813e-19)
(-0.186531 0.542914 0)
(1.18731 -0.181645 -9.26379e-20)
(-0.0530985 -0.108213 -2.42639e-19)
(0.869065 0.516356 2.89876e-21)
(-0.135463 -0.0160705 4.79296e-22)
(-0.240901 0.0750257 3.87856e-19)
(1.04095 0.00675464 -8.01239e-22)
(1.77934 0.277399 1.40143e-19)
(1.17892 0.451695 -2.26875e-19)
(1.0954 -0.063218 0)
(1.54095 0.0694495 1.2011e-19)
(1.50831 0.0375495 5.62993e-20)
(0.901288 -0.755701 1.13395e-19)
(1.16751 -0.972106 -1.60805e-20)
(0.476683 0.44056 1.55752e-19)
(1.03986 0.252576 0)
(1.77851 0.542066 5.45936e-20)
(-0.0902447 -0.226409 -4.96995e-19)
(0.887152 0.771777 0)
(1.04043 0.00936234 0)
(0.291503 -0.29226 -3.73539e-21)
(0.316476 0.291682 0)
(-0.121917 0.238413 -5.79361e-20)
(-0.696292 0.661275 -2.05563e-19)
(1.78199 -0.400406 0)
(1.24524 0.063482 1.03147e-19)
(-0.00414028 -0.781976 5.42792e-20)
(0.527903 -0.503345 -3.8818e-19)
(1.47638 0.121055 -1.62986e-20)
(0.603884 -0.550365 0)
(1.09014 0.123668 0)
(1.29911 -0.374741 0)
(1.08124 0.225928 -1.92311e-19)
(1.24223 0.0776763 2.71377e-19)
(0.569286 -0.0704313 0)
(1.0081 -0.036508 0)
(1.13919 -0.0202047 6.69385e-21)
(-0.396074 0.817239 1.67329e-19)
(1.41161 -0.248092 -4.27674e-20)
(1.1377 -0.528347 2.18639e-19)
(1.00718 -0.0874476 -5.05914e-20)
(-0.517391 -0.253795 -1.02163e-19)
(1.52285 -0.15447 -9.79217e-20)
(1.02041 -0.0374738 3.5081e-19)
(1.51784 0.587369 0)
(-0.833952 0.639212 5.50253e-20)
(0.995589 -0.815606 1.35265e-19)
(0.836389 -0.0298795 4.07959e-20)
(0.630865 -0.442763 0)
(1.92872 -0.419815 8.18249e-21)
(1.15896 -0.192228 1.23279e-19)
(1.02783 -0.0151463 0)
(0.598919 -0.554895 3.57758e-19)
(0.981513 -0.010841 3.61697e-21)
(1.3666 -0.357297 5.32788e-20)
(-0.552212 0.862438 -3.80693e-19)
(1.30905 0.611548 1.04272e-19)
(1.12888 0.390318 2.93831e-21)
(0.893411 0.369586 1.87879e-19)
(1.27517 0.47501 -1.60373e-20)
(-0.529394 -0.805754 -2.64838e-20)
(1.79937 0.871017 0)
(-0.193064 0.00957554 3.99738e-19)
(1.10879 -0.955835 0)
(1.06313 -0.64659 1.74774e-20)
(1.25924 0.828646 -8.61652e-20)
(1.029 0.0129216 -2.72948e-21)
(-0.885168 0.0331656 -3.97321e-19)
(0.983196 0.472895 1.43292e-19)
(0.937197 0.0808442 -2.34166e-20)
(0.834533 -0.0156284 0)
(0.805421 -0.0244262 0)
(0.755212 0.0239096 2.86594e-21)
(0.768806 -0.0464489 0)
(1.28716 -0.175155 -1.26847e-19)
(-0.169252 -0.167865 8.67396e-20)
(1.8845 0.393315 6.04517e-20)
(1.03299 0.00103832 0)
(0.55365 -0.362899 8.89175e-20)
(1.01932 0.0136279 1.67741e-19)
(0.979648 0.0689352 1.5885e-20)
(-0.361066 -0.56896 0)
(1.12268 -0.468429 3.99185e-19)
(0.993695 0.00909522 -5.58213e-24)
(1.11272 -0.487124 -1.73949e-19)
(2.13286 0.0500048 2.09501e-19)
(1.27054 0.787899 0)
(0.952991 0.00873874 0)
(-0.660999 -0.408492 -2.54041e-19)
(0.0224217 0.0221107 2.12779e-19)
(0.938711 0.359057 -1.72049e-19)
(0.501413 -0.0482986 -3.98476e-19)
(0.642967 0.404135 2.06315e-19)
(1.01047 0.0123287 0)
(0.52898 -0.491983 0)
(1.02056 -0.00511559 6.65472e-22)
(1.24759 -0.499872 -7.83902e-20)
(0.866839 -0.564074 2.26946e-20)
(0.740434 -0.146947 1.01483e-19)
(-0.261526 0.722021 -4.08713e-19)
(1.34119 -0.842498 6.34792e-20)
(0.663507 0.615769 0)
(1.25908 0.685118 0)
(1.50202 0.217996 0)
(-0.94098 -0.23135 -2.48916e-19)
(1.33543 0.565023 2.72922e-19)
(1.48059 0.142208 1.59182e-20)
(1.06114 -0.022318 0)
(1.03427 0.0193637 0)
(1.51915 -0.0778447 -9.88459e-20)
(0.973398 0.115144 -1.87687e-20)
(0.994368 0.0181007 -1.67082e-19)
(1.45819 0.472215 0)
(-0.851952 -0.0113875 0)
(1.20622 0.285696 2.29624e-19)
(1.0237 0.513828 -1.0502e-19)
(1.02656 0.0484946 0)
(1.19261 0.387396 0)
(2.04346 0.603956 -3.88085e-19)
(-0.43971 0.948166 -3.24603e-20)
(1.01864 0.0379779 0)
(0.703204 0.465753 -2.80803e-20)
(0.93116 -0.813143 0)
(1.05654 0.0300659 3.86342e-20)
(1.03697 -0.0210189 1.47781e-20)
(0.878232 -0.335753 2.57451e-19)
(1.0143 0.000899669 -1.08366e-20)
(1.94694 0.150453 2.78737e-19)
(1.01383 -0.00904359 4.21059e-21)
(0.849628 0.00830646 0)
(0.978704 -0.013766 0)
(-0.367576 0.666302 0)
(0.670675 0.640756 -1.51423e-19)
(-0.225892 0.530639 2.76923e-19)
(1.13347 0.348124 -3.69589e-19)
(-0.813633 0.236685 0)
(0.821949 0.62942 1.38779e-19)
(0.970396 -0.332823 0)
(1.0037 0.0250275 9.86451e-20)
(0.939258 0.335245 -2.43274e-21)
(1.03114 0.388125 2.07837e-19)
(1.60181 -0.819213 0)
(1.87257 -0.157353 -5.29448e-20)
(0.830181 -0.0941489 -3.08572e-19)
(0.113949 0.281213 6.93731e-21)
(1.01134 0.194908 0)
(0.865373 0.22918 1.47794e-19)
(2.01964 0.53409 0)
(0.768899 0.511566 3.03054e-19)
(0.112265 -0.100515 -5.09006e-21)
(-0.378831 0.722402 0)
(0.591069 0.559173 -5.85928e-20)
(1.02557 -0.637283 -1.23015e-19)
(0.484232 -0.260175 -1.05883e-19)
(1.00015 -0.0106744 0)
(-0.065819 -0.868459 -1.96297e-19)
(0.632804 -0.569579 6.84771e-20)
(0.894454 0.280172 0)
(1.0856 -0.0541802 -7.50926e-21)
(0.986314 0.839438 1.85686e-20)
(1.0299 -0.00711256 -1.36063e-20)
(0.855734 -0.650961 -5.14619e-19)
(0.23733 -0.0593627 -4.81416e-19)
(-0.572917 -0.916549 1.51979e-20)
(0.807707 0.352171 2.0682e-19)
(-0.76593 0.75473 -1.01078e-20)
(1.40698 -0.639464 2.97858e-21)
(1.01437 -0.00715781 -2.89536e-19)
(-0.823689 0.0620223 0)
(0.973049 0.0306162 -3.41613e-19)
(1.32398 0.294227 1.3336e-20)
(0.880236 0.675522 2.29055e-19)
(1.06034 -0.108558 1.34667e-19)
(0.994411 -0.0457982 1.34832e-19)
(1.0382 -0.0264724 2.54355e-21)
(-0.525461 -0.447744 2.96545e-22)
(1.76575 -0.854495 1.63388e-20)
(1.24765 -0.0643679 -6.76817e-20)
(1.03643 0.0674709 7.68658e-20)
(0.892833 -0.306821 7.57639e-20)
(0.745456 -0.00812644 0)
(0.955823 0.720301 0)
(0.96221 0.398095 2.89937e-21)
(1.91294 0.120479 -2.46837e-20)
(-0.329268 0.122441 5.59249e-20)
(1.02452 -0.536999 -4.24362e-19)
(0.613496 -0.538285 3.30454e-19)
(2.11122 -0.222757 -1.73899e-19)
(0.80654 -0.392824 4.53236e-20)
(1.01509 -0.0166788 0)
(0.744139 0.10728 -5.75781e-21)
(1.03103 -0.0147575 1.23477e-20)
(1.03487 0.749323 0)
(1.02247 -0.0280763 0)
(0.823615 -0.858999 0)
(-0.680812 -0.789303 -1.04192e-19)
(0.134109 0.0993543 0)
(1.03872 0.0891131 -1.44771e-20)
(1.17964 0.170944 5.20119e-21)
(0.735903 -0.0193103 -2.21796e-20)
(1.03343 0.00626046 -2.52823e-21)
(1.86044 0.441786 -9.82179e-20)
(2.03457 -0.221443 -3.13263e-20)
(-0.217835 -0.0604783 -2.72787e-19)
(-0.478948 -0.118892 9.6279e-21)
(1.01639 0.0206305 0)
(0.792666 -0.0129253 0)
(0.990517 0.00575706 1.0647e-21)
(-0.915123 -0.024015 0)
(1.38482 0.0940402 -6.93882e-20)
(0.751944 -0.00876325 0)
(1.05062 -0.00931941 1.06925e-19)
(1.00827 0.034214 -3.80952e-20)
(1.23174 -0.731953 1.82858e-20)
(1.04373 -0.00447735 -7.84145e-22)
(0.925517 -0.191531 -4.57626e-20)
(1.01812 -0.0563489 3.11902e-19)
(0.665206 -0.609627 1.54025e-19)
(0.855492 -0.0607505 2.35171e-20)
(1.02219 0.00847284 -3.84168e-21)
(0.00760448 0.110668 0)
(1.12213 0.786172 0)
(1.02942 -0.00742352 0)
(0.99344 -0.761967 -8.33941e-20)
(1.04522 -0.886988 1.73133e-20)
(1.02892 0.00674823 2.40081e-21)
(0.818456 0.219234 5.62094e-20)
(1.04241 -0.00383419 2.86751e-21)
(0.58485 -0.39543 -5.41282e-19)
(1.00465 0.00857289 4.19211e-21)
(1.03237 -0.0059363 -9.31307e-21)
(2.12475 -0.0865041 1.15801e-19)
(0.995175 -0.0089575 3.54631e-21)
(-0.743674 -0.646892 -2.04009e-19)
(1.10875 0.541446 1.55211e-19)
(0.431573 -0.793927 0)
(0.178424 0.510161 7.5768e-19)
(-0.238045 -0.706766 3.32531e-21)
(1.03171 -0.0166405 2.80567e-19)
(1.0005 0.0253836 -7.21776e-21)
(1.04338 -0.0142367 -7.71134e-20)
(1.0361 -0.0177536 4.00382e-21)
(1.55471 0.289959 3.60493e-20)
(0.400686 -0.37802 -2.67558e-19)
(1.04679 -0.0369955 -4.26067e-21)
(1.01799 -0.00894226 -2.05681e-19)
(1.01804 0.00125221 3.95376e-21)
(1.03273 0.0108035 0)
(1.10643 0.580194 -2.8967e-19)
(1.01337 -0.0219939 8.02487e-20)
(0.671401 0.595038 2.16782e-19)
(1.00477 0.00918392 -3.8757e-22)
(1.05136 -0.00330908 -2.54598e-20)
(1.03746 0.0188398 7.24335e-22)
(1.57304 -0.353893 4.56923e-21)
(0.74848 0.00811377 0)
(1.05971 -0.00664076 0)
(1.04712 -0.0245029 4.96056e-19)
(0.987483 -0.00930812 0)
(-0.249649 -0.548825 0)
(1.00538 -0.60338 0)
(0.998305 -0.00615692 -4.6688e-19)
(1.16581 -0.674875 6.45541e-20)
(1.0231 0.0323641 9.73557e-21)
(1.34722 0.950575 -7.96328e-21)
(1.5322 0.997251 -1.21591e-19)
(1.02305 -0.0181145 -4.77425e-21)
(1.11118 0.335332 -8.91382e-22)
(0.774272 -0.017593 0)
(-0.0771859 0.753065 0)
(1.50257 0.643419 8.77023e-20)
(1.03388 -0.00962647 0)
(1.00338 -0.00276205 -1.44765e-19)
(1.01229 -0.00897612 2.80757e-19)
(1.31408 0.0956185 -5.51837e-20)
(0.0152154 -0.0869437 3.08828e-19)
(1.02393 -0.00441851 1.52034e-19)
(0.959902 -0.00494167 -3.34927e-21)
(0.991485 0.0303987 2.4855e-21)
(1.03366 -0.00144408 1.29815e-23)
(0.92933 0.00295715 -1.53613e-19)
(1.00115 -0.00486757 1.80802e-19)
(1.00359 0.0143787 1.07232e-20)
(0.837375 -0.0211432 0)
(0.750772 0.000856979 0)
(0.765275 0.0121859 4.71983e-22)
(0.750222 -0.0195323 0)
(0.774815 -0.0014918 0)
(0.754631 0.00380917 0)
(0.784001 0.0123672 -4.94529e-21)
(0.950485 0.0107463 3.1181e-21)
(1.04258 -0.00452207 0)
(1.0131 -0.0112415 5.35964e-22)
(1.0274 0.0040304 0)
(0.815561 -0.000872523 0)
(0.770555 0.00796404 0)
(0.731854 0.0206285 -4.05206e-22)
(0.745944 0.00752059 -6.96844e-21)
(0.884018 0.00826117 0)
(0.817464 0.0316323 0)
(0.980645 -0.021437 -1.88057e-19)
(0.835746 -0.00539811 3.53939e-19)
(1.00297 0.00198615 0)
(0.999757 -0.00519498 3.34167e-19)
(1.00471 -0.00312186 -4.61148e-22)
(0.872942 0.0434937 2.99552e-19)
(1.00287 0.0144121 -1.7439e-19)
(0.965218 -0.00976257 0)
(0.76888 -0.0296372 -2.4876e-21)
(1.00606 0.00383492 -1.6886e-19)
(1.00156 0.00876266 -2.89849e-19)
(1.0276 -0.00207921 0)
(0.994767 -0.00348055 0)
(1.00763 -0.00487262 0)
(1.01215 -0.006953 -1.93581e-21)
(1.02322 -0.00771306 3.21569e-21)
(1.02159 0.0320412 0)
(-0.604877 0.437828 2.93188e-19)
(0.904576 0.102024 3.05571e-20)
(1.02801 -0.0187 -2.23856e-19)
(-0.941496 -0.564319 -1.87015e-19)
(0.995871 -0.00452758 -1.80673e-19)
(1.15518 -0.205216 -8.73919e-20)
(0.787267 -0.481987 2.55255e-19)
(-0.379813 -0.549231 -1.33112e-19)
(1.0358 0.00378973 0)
(1.01801 0.00916876 -4.94211e-20)
(0.952266 0.0124785 0)
(-0.101224 0.43309 3.71876e-19)
(1.00828 -0.0114022 0)
(-0.862626 -0.305424 -3.95225e-19)
(0.982175 0.0102411 3.52824e-21)
(1.66633 0.645686 7.18273e-20)
(-0.0869506 0.00763713 0)
(1.07152 -0.0330081 1.51818e-19)
(1.02388 -0.00473851 5.53885e-22)
(0.916818 -0.0256034 2.38505e-19)
(1.03767 0.00205859 -1.52185e-19)
(1.68754 0.828991 8.06373e-20)
(0.518045 0.483078 0)
(0.437742 0.389662 1.7452e-19)
(1.02324 -0.00543786 5.53783e-22)
(1.10188 0.128954 1.59759e-19)
(1.08856 -0.704965 0)
(0.998258 0.0117081 0)
(1.01527 -0.0300149 -3.55293e-19)
(1.0541 0.00807202 -3.41779e-19)
(-0.647316 -0.957745 0)
(1.2161 0.816958 -8.53732e-20)
(1.04143 -0.00856753 4.1263e-22)
(1.01085 -0.00858295 1.31712e-19)
(1.0309 0.00878619 -1.65986e-19)
(-0.72651 -0.202552 -3.58589e-20)
(1.03058 0.0143078 -7.68235e-21)
(1.03729 -0.0262207 5.61126e-19)
(1.02562 -0.0205293 0)
(1.88458 0.640906 -8.6586e-20)
(0.999484 -0.00102356 -1.75776e-19)
(1.28591 0.0795367 -3.27796e-20)
(1.04064 0.00705262 -4.04188e-22)
(1.01326 -0.0231397 3.54593e-20)
(2.06745 0.299432 -2.31823e-19)
(1.03083 -0.0251411 1.69413e-19)
(1.0139 -0.00795872 1.68421e-22)
(1.00696 -0.0184871 0)
(0.901934 0.145179 4.16183e-20)
(0.597608 0.159373 -5.21509e-22)
(1.02662 0.008825 1.69536e-19)
(1.05443 0.0344208 -5.10214e-22)
(1.00742 0.00160775 -9.38209e-22)
(1.22921 0.320298 3.19559e-19)
(1.03669 -0.0100675 1.15869e-19)
(1.05536 -0.00380236 1.17104e-21)
(1.71907 0.196003 -7.59739e-21)
(1.84027 0.932065 -1.34004e-19)
(0.764075 -0.683127 4.67422e-20)
(0.455635 -0.337725 -2.63406e-19)
(1.00924 -0.0490387 0)
(1.0187 0.00569116 4.14851e-20)
(1.0088 -0.00670533 8.98015e-20)
(1.0227 -0.00643848 5.90715e-22)
(0.982705 0.00443647 -1.78339e-19)
(1.01446 -0.0182154 2.03212e-19)
(1.02933 -0.0155129 -1.66219e-19)
(1.01234 -0.010712 2.07547e-22)
(1.00768 0.000496143 -8.84555e-22)
(1.04201 0.0106155 1.70131e-19)
(0.896478 0.0772571 4.30472e-19)
(1.03648 0.0501058 0)
(0.978119 0.826084 -4.59004e-22)
(1.02574 -0.012438 0)
(1.01672 -0.0108042 -4.9293e-20)
(1.53095 0.411043 -4.87616e-20)
(0.934074 0.0981234 0)
(1.08605 -0.0438575 2.71439e-21)
(1.04876 0.0876509 2.89573e-21)
(0.931632 -0.0200807 0)
(1.66343 0.652699 0)
(0.976626 0.0712709 1.64301e-20)
(1.00816 -0.0147594 -1.83595e-21)
(1.00729 -0.000941236 -1.79761e-19)
(1.12685 -0.557623 -4.89374e-20)
(1.01317 0.0003187 -2.65683e-21)
(1.01628 0.0170237 0)
(1.03069 -0.00215909 0)
(1.06101 0.0236874 0)
(0.585829 0.348499 2.70431e-19)
(1.02838 -0.00450603 7.43919e-21)
(0.973926 0.0328381 0)
(0.240561 -0.737811 -4.27573e-19)
(1.70668 0.95546 -1.18473e-19)
(0.998089 0.00829051 -3.49065e-19)
(1.02014 -0.00362264 2.58231e-21)
(1.01152 0.0185513 2.31187e-19)
(0.851708 -0.019577 0)
(-0.49813 -0.979042 -4.46141e-20)
(0.609718 0.427424 -2.90289e-19)
(1.05714 0.040924 -8.6036e-21)
(0.333901 -0.263966 0)
(0.999122 -0.0979759 6.64762e-20)
(0.517494 0.491963 4.35078e-20)
(1.18685 0.885157 -2.1735e-20)
(0.0340316 -0.0250179 1.68377e-19)
(1.00939 0.0300931 0)
(1.02334 0.00732033 4.92643e-21)
(1.02952 -0.0321556 1.31513e-19)
(1.84662 -0.400112 0)
(0.957427 -0.00137242 2.19761e-19)
(0.555106 0.51537 -3.73565e-19)
(1.01441 0.00488746 -1.36855e-19)
(1.03602 0.00962398 0)
(1.12755 -0.0459176 6.03831e-24)
(1.01613 0.0161504 -9.03585e-20)
(0.965541 -0.02009 2.40654e-19)
(1.07259 0.0937207 -3.38685e-21)
(1.0143 -0.0107039 -6.31796e-21)
(-0.0674252 -0.0403518 4.1642e-19)
(2.27614 0.0349855 2.40319e-19)
(1.02911 0.013279 7.00754e-21)
(0.809441 -0.00504009 -3.31488e-19)
(0.938405 0.0189177 0)
(1.02026 0.0109376 4.72095e-21)
(1.02029 -0.0222403 -2.63643e-20)
(0.952232 0.0195507 0)
(1.03669 -0.00873389 -1.67918e-19)
(1.01287 -0.0196446 -7.47427e-21)
(0.195561 0.103069 -4.64549e-21)
(2.18033 -0.467329 0)
(0.624255 -0.198344 5.87088e-20)
(1.47082 -0.343874 0)
(0.987898 -0.0210938 4.89868e-20)
(1.03544 0.00297871 -1.15114e-22)
(1.01677 0.00126302 1.42623e-19)
(0.16047 -0.422024 9.09512e-21)
(1.01203 0.0128797 0)
(1.00033 -0.00527612 -3.41944e-19)
(0.975973 0.0196608 1.80279e-19)
(1.03276 0.00239729 0)
(1.03388 -0.00498143 6.79307e-23)