/*--------------------------------*- C++ -*----------------------------------*\
| =========                 |                                                 |
| \\      /  F ield         | OpenFOAM: The Open Source CFD Toolbox           |
|  \\    /   O peration     | Version:  2306                                  |
|   \\  /    A nd           | Website:  www.openfoam.com                      |
|    \\/     M anipulation  |                                                 |
\*---------------------------------------------------------------------------*/
FoamFile
{
    version     2.0;
    format      ascii;
    arch        "LSB;label=32;scalar=64";
    class       volScalarField;
    location    "39";
    object      p;
}
// * * * * * * * * * * * * * * * * * * * * * * * * * * * * * * * * * * * * * //

dimensions      [0 2 -2 0 0 0 0];

internalField   nonuniform List<scalar> 
2186
(
1.28588
0.356233
0.622343
1.59293
-1.02348
-0.347144
1.25135
-0.241872
-0.0153734
1.79355
1.28988
-0.158966
-0.26272
1.42682
0.159782
1.40636
1.44628
-1.19381
-0.215593
-1.03048
1.7825
-0.98736
1.43222
-0.225719
1.42365
1.57028
1.64264
1.44862
0.753401
1.42591
-0.998104
1.4239
-0.973821
-0.209555
-0.170574
0.177023
-0.294627
1.75594
-0.817108
-0.281415
-0.264739
-0.953108
0.0602969
-1.13548
1.16876
1.77314
0.967023
1.11047
-0.268826
-1.08325
-1.01053
1.10685
0.0678823
1.65933
-1.01526
1.49051
0.0138586
1.51528
-0.906048
1.31079
0.0436451
0.835275
0.716819
-0.200827
0.755703
1.05821
0.845856
1.68466
1.57916
0.0174721
-0.232039
0.0491201
1.68282
1.52516
1.53209
1.671
-0.285485
1.43911
-0.17313
-0.875089
-1.50571
-0.215415
1.42032
0.809325
1.41908
1.42235
1.65691
-0.37873
0.335641
-0.178855
1.48811
-1.00379
1.39378
1.62658
1.43201
0.550839
0.514114
0.78277
-1.05247
1.5258
-1.67686
-1.63798
0.856534
1.40678
1.4487
-1.00563
1.49919
0.166969
1.46187
-0.846402
-0.841916
-1.05002
1.13509
1.6338
-0.0418649
-0.442109
0.320786
-0.136155
-0.179345
1.69605
0.013714
-1.17438
1.06109
-1.33469
1.41297
0.213795
-1.03948
1.65714
-1.19936
1.23551
1.86161
1.74428
0.868302
1.22817
-1.53828
-1.10688
1.46529
0.0247272
-0.46525
-0.184597
0.99332
0.478066
-0.233757
1.27274
1.39359
1.4252
0.185602
-1.01834
1.18635
-1.09817
-1.0182
1.16545
1.44248
1.69205
1.56691
1.11906
1.63515
0.611425
0.490775
1.02829
-0.18207
-0.200355
1.35591
1.51127
-0.306835
-0.101593
-0.102161
-0.180642
0.650861
0.732662
0.482426
1.52821
1.44646
1.62973
0.553862
-0.234526
-1.00461
1.35586
-0.464082
1.09025
-0.177098
1.43575
-1.01777
0.704902
0.672658
-0.990196
-0.633803
1.40184
-0.464165
-0.30795
-0.820228
1.64817
-1.13829
1.49056
-0.178418
-1.05324
0.134999
1.5602
1.32465
-1.00298
-0.185593
-1.14174
0.729041
1.46214
-0.169794
-1.02348
-0.1825
0.157584
1.30746
-0.515095
1.10978
0.149578
1.62744
1.02879
1.14199
1.4858
1.46849
1.42445
1.4445
1.3908
0.988539
-0.484804
-1.00207
0.164342
0.824091
-1.21339
-1.03124
1.28848
1.60366
-0.229624
-0.116771
-1.20156
0.984344
1.2257
1.29518
1.44736
1.64411
-1.30981
1.42504
-0.199255
-1.08049
-0.475505
1.24217
0.912381
1.42901
1.60627
1.38263
1.35054
-0.211223
1.38468
1.46316
-0.233814
1.22424
0.96826
-1.36758
-0.165503
-0.147482
1.42788
1.43498
-0.283655
0.0252412
0.863854
1.49919
-1.42328
0.964091
1.35542
1.35156
-0.13857
-1.00586
1.41814
0.84912
0.202635
-0.426939
1.69255
-1.02454
-0.220802
1.33261
1.69823
1.42269
-1.03638
-0.411871
0.0562437
1.20299
-0.249064
1.13904
1.41081
1.53092
0.488903
0.299022
1.33099
-0.139959
1.45442
1.70953
1.43236
1.43006
0.762584
-1.08092
-0.237487
-0.112003
-0.360559
-0.908896
0.993633
0.172567
0.767853
1.68804
1.49239
1.19504
0.137445
1.50726
-0.140101
-0.0433698
-0.21777
-0.177871
-0.339478
0.966357
-1.01856
-1.01253
0.236415
1.23211
-0.428851
0.497544
-1.04197
0.362158
-0.366174
-1.03942
1.62313
0.0209215
0.0581094
-0.999859
1.35443
0.760003
-0.347852
1.10811
-1.26813
-0.30888
0.830458
1.45313
1.33671
-0.921401
1.5577
1.44168
0.498398
1.75133
1.39808
1.39571
0.977717
0.465562
-0.188316
1.11162
-1.11499
-0.176425
-0.167336
-0.554041
-0.185083
1.68828
0.686188
-1.00922
-0.221189
1.39873
-1.00464
-0.696798
-1.08295
1.32925
0.562091
-0.296079
1.62207
1.68891
1.65109
-0.236886
-0.173606
1.69848
1.40732
-0.872676
0.596016
-0.202937
0.811366
1.52793
1.2586
1.36884
1.77319
0.24108
0.41796
-0.17712
-0.224378
-0.00260786
-0.965984
-0.309793
1.61309
-1.32196
-0.00289422
1.38469
1.17376
-0.169081
-1.49642
-0.191483
-1.14879
-0.23754
-0.175936
-1.00045
-1.01668
1.64364
0.807196
-0.443799
1.43698
-0.163291
1.76621
-0.547567
-1.05817
-1.0982
1.42175
-0.172323
1.43393
1.405
0.401536
1.53256
-1.21152
-0.17417
-0.196655
1.54958
1.39847
-0.16276
-0.202973
-0.23437
1.2511
-0.220681
-0.112025
0.651144
1.26668
1.36287
1.24015
-0.172906
-0.450316
1.12593
-0.0654374
1.31498
-0.860021
1.44173
-0.00157138
1.64533
-0.17797
1.41017
0.941491
1.44037
-0.154153
1.38637
-0.31391
-0.171751
1.42459
-0.896304
0.238537
-0.540993
-0.0705701
1.41017
0.768747
0.915017
1.39387
0.334381
0.58513
0.263076
-1.00935
0.882431
-0.282613
0.919935
-0.790299
1.3326
1.65946
-0.209416
-0.176821
0.585284
-0.990098
0.575163
-0.392305
1.04318
0.654795
-0.279711
1.43605
0.680357
0.48802
0.922972
0.590199
0.998493
0.454905
0.303011
-1.08629
0.52645
-0.984086
1.42955
-1.14097
1.57679
1.73229
1.71552
0.840164
1.44546
-1.02094
-0.924267
1.36887
0.851795
1.3866
-0.960995
-0.29975
-0.518743
1.31931
-0.171896
-0.467318
-1.02984
-1.07862
-0.315816
0.076029
0.948646
0.960178
-0.470943
0.0936231
1.32075
0.726075
1.4087
-0.726241
-0.170311
-0.171957
0.954857
0.101597
1.69292
1.715
-0.699076
-1.02838
-0.0934699
0.414203
-1.57848
1.57484
0.0612615
1.53609
1.02735
-0.22989
1.16107
1.12369
-1.16406
1.35855
-0.229026
-1.00765
-0.492403
-0.148702
-0.294404
-1.27567
-0.514223
1.42726
0.307866
-1.03458
1.18083
1.56976
1.7228
0.359006
1.28542
0.843161
1.3456
0.124545
-0.597875
-1.00862
0.647808
1.05248
1.35798
-0.203435
-0.178146
0.00867448
-0.183352
0.558263
1.30115
-0.0905799
0.0315135
-0.374003
1.19815
-1.27409
1.32496
0.155297
-0.265524
1.40139
1.2126
-1.16789
-0.157781
1.34322
1.78832
1.44344
-1.36687
-1.26033
1.35234
0.263372
1.33773
-0.605359
0.582523
1.339
-0.327639
-1.0068
1.31121
-0.104307
1.55299
0.251007
1.43442
-0.0130587
1.19911
-0.111605
1.68559
-1.00763
-1.38662
1.20044
0.676096
0.67274
-0.271124
-1.01804
-0.000775371
1.06276
0.507463
-0.496558
-1.22474
1.43137
0.535755
-1.18311
0.983249
1.13934
1.36903
-0.338157
-0.885012
-1.00649
1.43477
1.4696
1.09453
1.43207
-0.0234718
1.55797
-0.245451
0.12205
-0.239892
1.3887
1.41467
-0.333408
1.06657
-1.01009
1.06233
-1.00351
1.25319
1.46586
1.43027
-0.589673
1.18947
-1.45584
-0.607651
1.61071
-0.759766
-0.916253
1.44868
0.0215269
1.38634
-1.19019
-1.01078
1.30185
1.34396
1.84027
1.42133
-1.42902
1.61487
1.40461
0.73285
0.808957
0.0292686
-0.107626
1.90649
-0.187883
1.44105
-1.02089
0.926496
1.4225
-0.31861
1.37659
-0.311188
1.1617
1.40973
1.44309
0.10184
-0.340185
0.122143
1.14997
1.20853
1.55974
0.0798782
1.04543
-0.508032
-0.311807
-0.831282
1.38348
1.66935
-1.12077
-0.106856
0.0250279
1.61884
0.503748
0.933147
0.250129
-1.74776
-0.216625
-1.00076
-1.27789
1.08417
-1.08467
-0.272982
-0.319417
0.234106
-1.05144
-0.196989
-0.000923198
1.3528
1.43658
-0.297173
0.373056
1.37505
1.39797
1.43988
-1.55983
1.36929
1.53552
1.43177
1.59447
-0.885015
-0.174018
-1.00806
0.793743
1.43635
1.2834
0.797796
0.219948
-0.899125
-0.288325
1.76292
-0.0924443
0.0542762
0.144521
0.0729577
-0.25287
1.01298
-0.186649
-0.12716
-0.173624
1.40194
1.42557
1.41456
0.228931
0.470105
1.75163
0.180518
1.42837
-0.100223
0.440514
0.977868
1.4325
1.3613
-0.421067
1.35704
1.36091
-0.58579
-0.0716197
1.41595
1.43181
1.43336
-0.17287
-0.228843
1.43522
1.19635
1.42436
0.300572
-0.106031
-0.108692
-0.517047
-0.226355
-1.01189
-0.0965856
0.521528
1.43749
1.44135
1.02174
-0.193352
1.40107
0.0567484
-0.065865
0.0272831
1.42785
1.44297
1.43595
1.44241
1.41629
1.40674
1.393
0.528237
0.073353
-0.0778882
-0.117968
-0.111603
-0.129972
0.00331718
0.333301
0.271028
0.00927763
0.159004
1.42461
1.43829
1.43413
1.45253
1.44793
1.43688
1.4367
1.43059
1.41279
0.251325
-0.100518
1.43484
1.43725
-0.00140091
1.44032
1.43543
-0.357961
-0.0140261
-0.132571
-1.01988
-1.04042
1.4156
-0.245074
1.42033
1.18698
1.59963
-0.185064
1.42317
1.31108
1.39645
-1.00791
0.252738
-0.307897
-0.146066
0.00109347
-1.00268
1.42389
-0.181876
1.50566
1.41677
-0.158653
1.46531
1.64023
0.0135205
1.18562
1.24639
1.40772
1.42695
1.43017
-0.188126
0.635161
-0.461891
1.41768
1.43487
-0.383736
-0.160237
1.41733
-0.45807
-0.357401
1.42019
-0.119593
1.38043
1.42967
0.0758592
1.43285
0.208495
1.42135
1.44045
-0.812881
1.4419
1.44796
-0.371904
0.924107
1.42737
1.42064
0.234297
-0.873769
1.29544
1.84277
1.42589
1.42781
1.42494
0.161306
1.42472
1.42529
1.42348
1.42167
1.42167
1.42655
1.49282
-1.00895
-0.219851
1.42713
1.41273
0.424466
-0.160897
0.59564
-1.21224
1.21253
-0.0395832
-1.52196
-0.12602
1.4193
1.29572
-0.31279
-0.0346494
-0.252565
-0.603077
-1.05329
0.312776
-1.44578
-1.33445
-0.354604
1.42989
0.0331725
1.41626
1.28163
-0.178111
1.56184
-0.864019
-1.16506
1.27831
1.41819
0.602405
-0.174428
1.40417
0.190298
1.42565
-0.758477
1.42766
-0.0966982
1.41533
0.459966
0.379612
1.42741
1.44536
1.28646
0.0200132
-0.179697
-0.872848
-0.141382
1.4466
1.25798
0.118689
1.41014
1.458
1.39492
-0.386948
-1.03049
0.0845546
-1.55664
0.952151
1.41569
0.206001
1.42498
-1.59476
1.41318
1.45206
1.43092
-0.0133652
0.0524881
1.45972
-0.216144
1.43348
1.43468
0.67824
-0.247896
1.19609
1.46499
1.41397
1.39749
-0.463799
-0.806375
1.41383
1.02902
1.43021
1.40564
-0.941242
-0.225505
1.18081
1.70931
1.40931
0.967493
-1.39863
-0.00014157
-0.661108
-1.52563
1.4244
-0.392296
1.38452
-1.09994
-0.178261
-1.02505
0.641161
-0.146845
-1.23362
-0.752039
1.41337
-0.175608
1.16315
-0.195085
0.50997
-0.701705
-0.247509
-1.23097
1.36432
-0.235736
-0.111201
-0.646207
-1.02696
1.42415
-1.21083
-0.296179
-1.84609
1.40745
-1.02241
-0.194901
1.48215
1.42223
1.42037
1.07906
-0.154403
1.41066
1.42602
-0.911762
-1.01397
1.41413
1.36501
1.5847
1.42879
0.355382
-0.945244
-1.02443
-0.422472
-0.949074
-0.172246
-0.145409
-0.10043
1.36783
0.645822
1.4358
1.5733
1.40317
-0.180849
-0.174723
1.41375
-0.0433971
-0.158633
1.41784
0.478071
-0.944353
-1.4158
-0.322965
1.31596
1.28125
-1.0593
1.34061
0.898625
-0.683242
1.42377
-0.18736
1.12526
-0.990796
1.48934
-0.530244
1.03448
1.41622
1.37867
-1.50828
-0.869691
1.15492
1.77935
1.4349
1.29666
-0.885609
1.76049
-0.110368
-0.207037
-0.0586387
1.0812
-1.1459
1.51888
1.6697
-0.204366
-0.704239
1.40432
-0.625122
1.39418
1.44322
1.33257
-1.35133
1.41373
-0.153384
1.45037
0.0647745
-1.05914
-0.102597
1.41838
-0.22291
-0.518062
-1.32979
1.47393
-1.30189
1.50853
0.89721
1.65439
1.2558
-0.865235
1.42506
-1.00682
1.35299
1.36765
-0.0141187
-1.44994
1.43055
1.38852
1.53675
1.33719
0.742911
1.32921
1.43253
1.17895
1.4181
-0.138391
-1.04119
-0.536827
1.56145
-0.466027
-0.602009
-1.00826
-0.567014
-1.10411
0.404472
1.11857
-1.0217
1.40978
1.47344
-1.01567
-0.00572643
-0.764149
0.0118584
-1.08479
-1.00901
1.40504
-0.714499
1.42949
1.73045
1.47646
-0.14128
1.43602
1.30685
-0.206211
1.42455
1.37785
-0.893916
1.38068
1.21081
-0.43857
-0.613365
1.89358
-0.362885
-0.816256
-0.262954
0.875328
1.41707
-1.03858
-0.863084
-1.00029
1.52333
-0.438172
1.10821
1.40947
1.43455
-0.0395584
1.43996
-1.10304
1.42329
1.4396
-0.398722
1.43231
0.687601
1.4391
1.27591
-1.77792
0.0159806
0.0814313
-0.124507
1.58956
0.306346
1.41845
1.75756
-0.493158
0.0174364
1.48978
0.0512456
1.48712
0.0974305
0.210879
1.47564
1.48058
1.04196
-0.126913
1.00264
-0.952438
-1.04806
-0.767995
1.43107
1.45314
1.90113
-0.175302
-0.0528353
1.32048
-0.340372
1.45506
1.30548
1.45389
1.39539
1.40757
-0.516814
-0.17409
-0.287604
1.10505
1.28219
-1.56694
-1.01023
-0.195234
1.43825
1.48147
-0.458994
-1.09324
1.44707
0.180414
0.387369
1.01228
1.18706
-0.177477
-0.27999
-0.155725
-0.353759
-0.949167
-0.176226
-0.112136
1.87295
1.68718
-1.04666
-0.407896
1.43597
1.41433
-1.01225
0.620633
0.346599
0.876341
1.495
-0.0101194
1.41874
0.643663
-0.259137
-0.928087
-0.920744
-1.12274
1.43947
-0.36065
0.0118495
1.71387
-0.324074
1.42126
1.56839
-1.01016
1.58773
1.77008
-1.02664
1.55437
-0.297412
-0.237247
1.3493
-0.610435
1.56087
1.42648
-0.275492
1.51419
0.79743
-0.664327
1.44747
1.57713
-0.132281
-0.335259
1.30696
1.41281
-0.227938
-1.75257
1.59851
-0.257469
1.26517
0.324318
1.41599
-0.176265
-0.582413
-0.196637
-1.02857
1.38518
1.48956
1.80286
1.51457
1.2543
1.4676
1.35426
-0.189371
1.43222
1.67496
-1.02317
-0.242037
-0.894626
1.64399
0.0767893
-0.220717
-0.265047
1.20778
-1.02715
-1.05917
1.30417
1.56792
-0.205424
-1.01645
-0.228267
-0.178919
-1.8229
-1.02522
-0.183069
1.15347
1.4579
-1.01282
-0.465991
-0.0991098
1.09602
-0.255415
-1.03599
-0.178252
1.50279
-0.199702
-1.01842
1.83737
1.37487
1.01326
1.71926
-0.471163
1.53372
1.41565
1.57386
1.73232
-0.473132
0.912171
1.29894
0.90584
-0.174396
1.82312
1.44197
1.42369
1.52708
-1.0213
-0.117157
1.3717
1.08892
1.41526
-0.395179
-1.10718
1.4209
-0.183029
1.35249
-0.380183
1.745
-0.172369
0.975907
1.32289
-1.0108
-0.17098
-1.3703
1.58445
-1.01146
-0.173844
1.28864
0.838378
-0.597882
1.46708
1.38011
-1.01167
-1.1572
1.31339
-0.285853
-0.172207
-0.203106
-1.00085
0.0941505
1.3393
1.4612
-0.779617
1.21823
1.43112
1.72102
0.914119
0.453845
0.144437
1.44071
0.270648
-1.01019
0.189415
-0.614732
-1.00979
1.38592
-1.00922
0.323781
-0.172888
0.758598
1.17541
-1.0078
1.23081
-0.270153
1.11167
-1.00648
0.67077
-1.01071
1.01841
-0.177455
0.57197
-1.00599
1.3927
-0.278674
-1.00995
-1.02203
-0.175282
1.43366
0.751191
-1.05697
-0.186744
0.165532
0.28792
-1.01128
-0.175546
-1.10499
0.566329
-0.200583
-0.0293051
-0.231082
-0.277026
-1.19125
0.413352
1.22997
-0.208983
-0.414894
1.35774
0.059884
0.251782
1.06168
1.41913
-1.53154
-0.908777
-0.182189
-0.70115
1.40222
1.77757
-0.467195
-0.741244
0.692675
-0.350526
-0.289231
0.350261
1.33589
-0.919141
1.41417
-1.0414
1.82067
1.05867
1.90958
-1.01509
1.7161
-0.575416
1.54119
0.0881429
-0.17942
1.61708
1.44012
-1.79474
-0.173738
-1.01553
1.3023
-1.02996
1.3875
-0.990238
-0.193474
-0.200376
1.70403
1.40055
1.64613
1.38147
1.44169
-0.739541
0.262161
1.51636
-0.1816
-0.422381
1.75475
-1.01098
1.27204
1.45991
1.79582
1.88737
-1.01705
-0.0854223
1.47355
0.870969
0.263133
-0.966716
-0.922288
-0.559826
-1.012
1.133
-0.840655
1.72662
-0.155804
1.34346
1.48527
1.38533
-1.32341
-0.162993
-0.434334
1.51815
-0.497376
1.47877
-0.789837
-0.735171
1.55519
1.81258
-0.188249
0.219298
1.40319
-0.500302
-0.959022
1.23352
1.59195
1.6981
-1.10213
1.22464
1.11425
-0.179232
1.71659
0.45163
-1.01332
0.591724
0.277889
-0.367124
1.43155
-0.599747
0.42234
0.611211
-0.023741
-0.820249
-0.173171
1.37522
-1.68436
1.37461
-0.00181622
0.74606
1.25317
0.901285
-0.180771
-0.65682
-0.383594
-0.119635
0.405853
-1.12563
1.2116
-0.290532
-0.032694
1.34698
-0.335554
-1.02155
1.43525
-0.047029
1.25548
0.539374
-0.178315
0.388475
1.33768
-0.0513093
-0.0427677
1.41712
-0.199435
1.52132
0.153186
-0.56514
-0.381494
-0.177553
1.9534
-1.50407
1.62123
0.512282
1.41328
1.57531
1.28397
1.5
1.46378
-0.0442566
-0.765439
1.428
1.6085
1.83428
-0.339427
1.43148
0.905927
-0.308863
1.35456
1.73388
-0.614636
1.6654
0.285647
-1.05568
1.39839
-0.285393
-1.01321
1.41133
-0.477603
1.49911
1.59947
1.30932
-1.04199
1.2076
1.57574
-1.06687
-0.276903
-1.70368
-1.3872
-0.49642
-0.173232
1.85686
1.32691
-1.02874
1.4711
-0.265313
-0.567677
1.78787
1.53534
-1.65487
-0.496106
-0.175202
-0.191457
1.4568
-1.02619
0.7403
-0.950908
-0.392176
1.49882
-0.233532
1.71674
1.43922
1.402
1.39871
1.62052
-0.67042
-0.249051
1.50057
1.65241
-0.978604
1.45174
-1.31171
-0.19297
-0.219574
1.37518
1.40851
-0.201106
-1.02628
1.14225
0.615265
-1.29446
1.36919
1.23343
-0.724683
1.28013
1.32987
-0.0555609
-1.02446
-1.03195
-0.1858
-0.213647
1.81332
0.56931
1.17955
-1.02953
1.82027
1.22467
1.12249
1.25762
-0.663144
-0.570924
-0.179702
0.729613
-1.01838
1.47847
0.930199
-0.584449
1.16381
1.55317
1.45488
1.39376
-0.0231703
1.4659
0.146388
1.02822
1.10298
-0.616092
-1.02301
-1.12442
-0.783062
1.43372
1.52116
1.43437
-0.0630547
-0.0535881
-0.1752
-0.934243
1.42116
1.61293
1.43589
-1.0205
-0.749278
-0.699782
-0.581697
-0.174165
-0.17739
-0.161759
1.3836
-1.06978
-1.01245
0.620794
0.584252
0.949098
-0.960357
-0.172516
-0.0340449
1.25553
1.85009
0.160902
1.54601
1.86171
0.877025
1.56044
-1.02241
0.0189662
1.89238
-0.171072
0.939482
-1.01648
-0.215885
-1.0086
-1.01153
1.47176
1.31435
1.49685
1.45362
-0.0110778
1.35385
0.1514
0.302322
-0.170876
1.54508
0.951493
1.43279
1.449
0.28668
-0.0300442
1.45771
-0.0745074
-0.181097
-1.01195
-1.02243
1.17234
-1.0109
1.40977
1.25738
-0.173387
1.75247
-1.01427
-0.319368
1.42108
-0.690766
-0.451558
-0.0934946
0.801034
-1.01368
-1.19533
1.17495
1.44096
0.174185
0.717583
-0.237729
-0.171789
0.132295
-1.38776
0.509809
1.19972
-0.584469
-1.01076
1.58184
0.395035
0.516599
-1.00907
-0.220709
1.42425
1.5882
0.716912
1.1422
-1.00698
-0.374326
-0.00112753
0.625419
1.06116
-1.00609
1.17335
0.254087
-1.00565
1.78031
-1.01239
-0.029841
-0.211092
-0.939232
1.41127
-1.03416
-1.02277
-0.190786
0.672426
-1.07789
0.0797946
-1.03133
0.24608
1.50294
-1.14021
0.510316
-0.216146
-0.13716
1.66539
1.8787
1.54095
1.42666
1.51334
-0.84868
1.40505
-1.01913
1.58327
-0.183646
-0.144902
1.77739
0.0655735
1.08
-1.49562
1.85776
0.0387706
1.80381
0.79925
1.05696
-1.0145
-1.01371
-0.179259
-1.16743
1.73478
1.52888
1.39516
1.19841
1.42107
1.4325
1.05162
-0.998439
-0.184281
0.380554
-0.148878
1.02074
1.42388
0.637575
-1.00938
-1.00095
-0.0517631
-0.180466
-0.517007
1.84544
1.44386
1.41952
0.278696
-0.0600276
1.4537
-0.771283
-0.173764
-0.296096
-0.323048
1.00803
-1.00978
-1.0061
0.388599
1.38027
-0.163223
-0.209504
1.41787
1.20612
1.25369
1.40617
-0.174041
1.12049
1.6648
1.40701
-0.175589
1.42447
0.98348
0.625359
-0.631447
-1.00965
1.81932
0.88747
-1.10711
0.709333
1.16965
1.29855
-0.392847
-0.408688
0.45843
-1.03254
-0.119772
-1.0231
0.488138
1.39789
-1.07906
1.35855
1.74958
1.62728
1.33158
1.39028
1.46388
1.41258
-0.607148
0.075806
-0.435234
-0.257016
-0.0299614
-1.00562
1.48968
1.34466
-0.266349
1.45126
-0.914278
-0.428604
-1.00913
-0.603083
1.12594
-0.0623263
1.39041
1.15532
-1.29992
0.307019
1.74433
-0.0973076
0.19622
-0.0436889
-1.02017
-0.982546
1.48424
1.00739
1.59879
-0.386467
-0.582144
-0.15452
-0.365377
-0.274598
-0.128067
-1.09207
-0.232539
1.16981
0.0202891
1.92837
-1.29283
0.16809
-0.211334
-1.00427
1.42433
-0.220352
-0.442286
-0.066174
0.407203
1.49327
1.71056
-0.349755
-0.680468
1.06603
-0.198998
-0.0833468
1.59392
-1.25959
-1.05853
-1.2129
0.977928
0.295388
-0.285885
1.39793
0.113116
-1.07373
1.39503
-0.837191
-0.991206
-1.09511
-1.11224
0.620836
-0.291465
1.6385
-0.174159
0.812269
-0.18373
1.02499
-0.9405
-0.634233
0.847588
1.30332
1.48399
1.42296
1.52001
-1.0328
1.35585
1.13528
-1.03101
1.25699
-0.386908
-1.01256
-0.163896
1.67378
1.65448
-0.952501
-0.711773
-0.522269
1.2815
-0.85775
0.210745
0.00880242
-1.0088
1.60408
1.29928
-1.01412
-1.03278
-1.01296
-1.01193
1.2507
-1.02621
1.25556
0.354687
0.918112
1.07736
-0.984067
-0.76686
1.21047
-1.00752
0.624997
1.6981
-0.181735
-1.00912
1.04872
-1.09349
-1.02341
0.514404
-0.394086
1.78732
0.123464
0.797897
-1.01463
1.81272
-1.0153
-1.02733
0.841785
-0.00545785
-0.183015
1.79168
0.877233
1.55344
-1.02422
1.53428
-0.424294
0.0239499
-1.02373
-1.02233
-1.01724
1.57117
0.761279
-0.212331
-1.01613
-0.308237
1.45716
-1.04205
1.79133
-0.181968
0.97983
-1.01051
0.519036
0.717595
0.677099
0.580905
0.826024
-1.02057
1.30009
-1.02329
-0.77651
-0.0477256
0.906406
1.82532
0.417522
-1.01924
-1.02254
-1.01098
0.392227
-1.27089
-1.00961
1.41094
0.831407
-1.01111
1.87879
-0.295786
-1.00091
1.804
-1.01012
0.255155
-0.961283
-1.00701
-1.01016
1.85713
-1.00768
1.73927
-1.00963
-0.839727
1.5062
0.503634
-0.99158
0.749467
-0.373046
0.0951819
0.315312
-1.00932
1.34179
-0.168994
-1.00854
-1.00686
-1.00877
-0.188718
1.36855
-0.112157
0.305675
-1.01214
1.75791
-0.0961456
-1.02502
-0.946834
0.51348
-1.16363
-0.990327
-1.01241
0.610149
1.55174
-1.01678
-0.17813
-1.14366
0.0701364
-0.206707
-0.19364
1.8367
1.75649
0.570967
-0.76032
-0.185561
0.469791
-0.184255
1.83157
0.325416
1.61107
0.908002
1.79335
0.18357
-1.16586
-0.695073
0.00156986
-1.02103
0.000688521
0.562734
-1.00912
1.74199
0.454501
0.340236
0.353197
-0.16722
-0.822365
)
;

boundaryField
{
    frontback
    {
        type            empty;
    }
    Top
    {
        type            zeroGradient;
    }
    outlet
    {
        type            fixedValue;
        value           uniform 0;
    }
    bottom
    {
        type            zeroGradient;
    }
    Inlet
    {
        type            zeroGradient;
    }
    rectangle
    {
        type            zeroGradient;
    }
}


// ************************************************************************* //
