/*--------------------------------*- C++ -*----------------------------------*\
| =========                 |                                                 |
| \\      /  F ield         | OpenFOAM: The Open Source CFD Toolbox           |
|  \\    /   O peration     | Version:  2306                                  |
|   \\  /    A nd           | Website:  www.openfoam.com                      |
|    \\/     M anipulation  |                                                 |
\*---------------------------------------------------------------------------*/
FoamFile
{
    version     2.0;
    format      ascii;
    arch        "LSB;label=32;scalar=64";
    class       surfaceScalarField;
    location    "39";
    object      phi;
}
// * * * * * * * * * * * * * * * * * * * * * * * * * * * * * * * * * * * * * //

dimensions      [0 3 -1 0 0 0 0];

oriented        oriented;

internalField   nonuniform List<scalar> 
3181
(
-0.99141
0.379991
0.61142
-0.365846
0.34339
0.0224558
0.489784
-0.337318
-0.152466
0.106492
-0.179729
0.0732371
-0.0653567
0.0897755
-0.0244188
0.787912
0.950215
-1.73813
0.136271
-0.130526
-0.00574565
-0.0130198
-0.00061437
0.0136342
0.498853
-0.696209
0.197356
-0.0771238
0.121414
-0.0442903
-0.0109508
-0.05682
0.0677709
0.116025
0.0444638
-0.160489
-0.00347518
0.0146895
-0.0112143
-1.09595
0.156206
0.939745
-0.304958
0.655189
-0.350231
-1.126
0.645659
0.480338
0.0830776
-0.929019
0.845942
-0.137399
0.173472
-0.0360723
-1.42636
0.0975834
-0.00119886
0.0716015
-0.0704026
0.0640031
-0.102529
0.0385255
-0.0539423
0.0530378
0.000904503
1.06016
-1.03971
-0.0204513
0.0285857
0.0273016
-0.0558873
-0.956532
0.333976
0.622556
-0.103117
0.209608
0.297479
-0.264957
-0.0325219
0.0267637
0.0564565
-0.0832202
-0.441093
0.364011
0.0770826
-0.0357929
-0.0226751
0.0260136
-0.00333851
-0.0452124
-0.911319
0.0715895
-0.0581826
-0.0134069
0.329821
1.31749
-1.64731
-0.0576749
0.0401289
0.017546
0.194501
0.293678
-0.488179
1.82822
-1.4984
0.0812668
-0.0172637
1.66822
-0.928851
-0.739368
-1.00805
1.79596
0.00584038
-0.00931556
-0.0417191
-0.0122232
-0.382813
0.0778548
-0.153173
0.111454
-0.662992
0.125013
0.537979
-0.130885
0.053761
-0.155656
0.159339
-0.00368306
-0.251428
-0.0733921
0.32482
-0.203712
1.21162
-1.00791
0.0514786
0.13729
-0.188768
-0.023874
-0.110153
0.116962
-0.00680892
0.48055
0.174639
-0.0931473
0.162228
-0.0690812
0.0815712
-0.00998174
-0.156454
0.179917
-0.0234629
0.151318
0.0535625
-0.20488
0.0983671
-0.103807
0.00543997
1.25261
0.41561
-0.82166
-0.16975
0.0754584
-0.961696
0.886238
0.582638
0.247639
-0.830277
-0.472441
-0.222368
0.694808
-2.12463
1.11658
-0.290574
0.873213
-0.300048
-0.0999242
0.399972
-0.220433
-0.22066
-0.176227
0.1756
0.000626793
0.168772
0.270138
-0.43891
-0.185405
0.684258
-0.00501013
-0.00800971
-1.52422
1.59967
0.159356
0.138123
-0.158117
-0.109159
0.267277
-0.265318
0.376207
-0.110889
-0.0709105
0.0794029
-0.00849239
-1.72793
-0.920727
0.0123163
0.90841
-0.0152138
-0.0424611
-1.18854
0.84279
0.34575
0.475059
-0.37147
-0.103589
-1.97131
-0.153318
1.09909
-0.942888
-0.763015
1.14134
-0.201592
1.05388
0.188891
-0.167594
-0.0212971
1.58725
-0.637033
2.16072
-2.16072
-0.00728149
-0.00159419
0.00887568
-0.191557
-0.0524748
0.244032
0.0930807
-0.0700497
-0.0230309
-0.455855
0.808122
-0.352267
-0.0443526
-0.203345
0.247698
-1.08089
0.0411874
0.370312
0.0604712
-0.430783
0.123939
-0.901377
1.14902
0.0709123
0.0814955
-0.152408
-0.018051
-0.138403
-0.425051
0.357781
0.0672699
-0.372929
-0.0521212
0.124543
-1.02592
0.307635
-0.76349
0.924408
-0.84133
0.00434851
0.103971
-0.10832
0.09759
0.0566757
-0.154266
-1.28286
-0.0909718
1.37384
-0.220126
0.382337
-0.162211
-0.45336
-0.393919
0.847279
-0.50813
-0.68041
0.123253
-0.0717744
-0.140839
0.13565
0.00518969
-0.0809371
-0.0233933
0.10433
-0.517286
-0.178924
0.0471805
-0.0121858
-0.0349948
-0.986862
-0.134323
1.12119
1.23089
-0.0192724
-0.0167936
0.00951207
0.00901766
0.150338
-0.214556
0.409057
-0.0174426
0.17251
-0.155068
0.151317
0.0744398
-0.225757
0.0538262
0.101105
-0.154931
-0.593049
-0.532948
-1.17479
0.187925
-0.0545792
0.125492
-0.0894365
0.166614
-0.0771771
-0.0835731
0.0225827
0.113689
-0.0549125
0.0575316
-0.00261913
-0.0842934
-0.0170815
0.101375
0.0682159
-0.0682159
-0.171373
0.193956
0.10213
0.119847
0.0948435
0.0850733
-1.15641
0.971004
-1.50733
0.0274016
1.47993
-0.000277197
-0.00258407
0.00286127
-0.0291865
-0.0567814
0.085968
0.501594
-0.0181497
-0.483445
0.0128617
-0.0132417
0.000379982
-0.184206
0.012833
0.170027
0.638095
-0.344536
0.514564
-0.140403
-1.14246
-0.126297
0.0609407
0.455094
-0.279967
-0.175127
0.115436
-0.102509
-0.0129269
0.0455731
-0.297001
0.0220749
-0.942801
0.0466387
-0.136075
-0.261234
-0.37344
0.0957435
1.45078
-0.984594
-0.466186
1.1163
0.33448
0.0629137
0.261907
-0.00340938
0.00313219
-0.030412
0.106352
-0.0759397
-0.244546
-0.606733
0.851279
-0.329285
0.160888
0.745578
-0.647995
0.144611
0.0312065
-0.036125
0.00491848
-0.979667
-0.535858
1.51553
0.373413
-1.35308
-0.327321
0.697633
-0.906944
-0.0131151
0.0053636
-0.287773
0.28241
1.48062
-1.62722
0.146595
-0.0903469
-0.0359506
0.589229
-0.833775
0.121765
-0.350552
0.228787
-0.310491
-0.133386
0.443877
0.175818
-1.00924
-0.0716584
-0.0181032
-0.0522994
-0.597687
0.375319
-0.266691
0.0201231
0.246568
0.0440899
-0.134437
-0.0535808
0.0535808
-0.132606
0.146088
-0.0134819
-0.200211
-1.30712
-0.0178034
-0.00133912
0.0191425
0.00678712
-0.0790452
0.0722581
-0.237616
0.0613898
1.60844
-0.203978
-1.40446
-0.165667
0.418313
-0.252646
-0.000126134
-0.000677606
0.00080374
-0.869933
0.416573
-0.202082
-0.00488166
0.206964
-0.153574
0.322346
-0.112949
0.111117
0.00183138
0.0825575
0.0214565
-0.104014
-0.0529755
0.0352792
0.0176963
0.506447
0.22909
-0.735537
-0.204686
-0.04709
0.251776
-0.673802
0.662268
0.0115333
-0.00617048
0.0334721
0.0363513
-0.0375793
0.001228
-0.0151312
-0.0407561
0.500514
0.73038
0.167738
-0.902442
0.734704
-0.190643
1.88396
-1.69332
0.35517
0.197332
1.96338
0.0812913
0.221843
-0.0705262
-0.078888
-0.0312654
0.214802
0.175117
-0.0775268
0.732371
-0.398395
0.0571248
0.186908
0.0640827
-0.184373
0.12029
-0.723158
-0.128088
0.851245
0.0334774
-0.0334774
-0.0538341
-0.289247
0.582926
0.0111042
-0.21579
0.136268
0.0372032
0.0413648
-0.095944
0.150256
-0.161207
-0.347181
0.302828
0.034057
0.0199513
-0.0540083
0.359342
-0.314878
0.157512
0.723146
-0.880658
-0.191499
0.254413
0.176657
-0.456624
-0.197638
0.577628
0.151968
-0.0296514
0.0296514
-0.168059
0.184737
-0.0166778
0.353072
0.0292657
0.00318786
-0.00557032
0.00238246
-0.107273
0.0669408
-0.0197602
-0.0526436
0.202899
-0.196294
0.261721
-0.0654273
0.146301
0.0288158
-0.374662
0.109706
0.210713
-0.0644122
-0.0505142
-0.0624345
0.00745258
0.00199957
-0.00945216
0.134901
-0.0960912
-0.0388103
-0.0431129
0.424951
-0.381838
-0.00271717
-0.00229295
0.115571
-0.120346
0.00477536
0.0255492
0.777207
-0.619695
-0.0461335
0.0291677
0.0169658
-0.0383149
0.0795036
-0.0411887
-0.10379
0.0955179
-0.719893
0.624375
-0.011963
-1.32174
-0.438901
1.76064
0.0168755
0.713737
-0.730612
0.0749042
-0.0244733
0.125578
0.301843
0.264737
-0.56658
-0.214937
0.279019
0.125994
-0.849379
0.723385
-0.0535197
0.0152048
-0.0364651
0.0183618
-0.974918
0.439746
0.535172
0.984594
-0.860051
-1.5545
1.46352
-1.48062
1.50802
0.0345332
-0.103614
0.00731733
0.029034
-0.00055713
0.752732
-0.626738
0.108378
-0.0617391
0.408243
0.733094
-0.091467
-1.43633
1.24568
-0.626923
-0.529486
-0.245068
-0.417924
-0.0120327
-0.152998
0.198571
-0.566675
-0.343005
0.177338
0.725033
-0.223439
-0.819671
-0.734825
0.756966
-0.0058648
-0.0476549
0.256101
0.0330964
-0.0330964
0.667978
0.151943
-0.819921
-0.228168
0.896146
-0.0502845
-0.189447
0.239732
0.15237
-0.0325228
0.00531253
0.0075026
-0.0128151
-0.961696
-1.10039
1.08112
0.719099
0.889343
-0.0322155
-0.123441
-0.227098
0.707648
-0.214238
-0.0524532
-0.00240548
-0.068505
-0.0619074
0.118583
0.39504
-0.270027
-0.767326
-0.30843
-0.0658636
0.042956
0.0229076
-1.60962
1.80695
-0.080184
0.0542718
0.0259122
0.0126486
-0.016058
0.0193967
-0.0238727
0.00447598
0.0100927
0.389879
0.0745203
0.0409159
0.0143425
0.0215578
-0.0359003
-0.0183204
-0.183762
-0.75678
0.394936
0.361844
0.936727
-2.13107
1.19434
0.150092
-0.173407
0.0233155
0.0006539
0.122599
-0.631963
-1.52875
-0.00454424
0.0239409
-0.111771
0.0399966
0.157107
-0.371663
-1.83257
0.451453
1.38112
0.0392466
0.0848674
0.0500341
-0.723158
0.342915
0.163532
0.00857297
-0.0324457
0.047483
-0.642317
-0.0314847
0.0656334
0.14508
-0.640843
0.00969538
-0.448606
0.111837
0.374382
-0.31391
-0.0995233
0.0152298
0.218159
0.846551
-1.06471
0.107531
-0.695014
0.587483
-0.888465
0.760378
-0.898824
-0.256515
1.15534
0.00381178
-0.00450299
0.000691208
0.188573
-0.499064
0.236379
-0.138434
-0.0979451
0.054831
0.0246727
-0.045914
-0.0199495
-0.0201034
0.0162241
-0.0313554
0.0191586
0.0985775
-0.117736
-0.033409
0.00904946
-0.00908746
3.79993e-05
0.0125066
-0.0147995
0.863818
0.0576269
-0.0935775
0.0418285
-1.14222
0.146163
0.00620688
0.00662278
0.0782446
-1.15534
1.52875
0.139874
-0.211199
0.0713259
-0.272846
0.105253
0.120878
-0.142175
-0.00103955
0.0804424
0.0122473
-1.99523
0.16266
-0.0585152
0.0776737
0.743205
-0.262867
-0.118042
0.124829
0.367487
-0.00501234
0.0082002
-0.00716574
0.0753816
0.138305
0.237902
0.159142
-0.356468
0.197326
0.0982759
0.539819
-0.0205036
-0.110381
0.866271
-0.232181
-0.63409
-0.898824
-0.587833
1.52456
1.82822
-0.0467696
0.124508
-0.0777383
0.417992
-0.0773196
-0.340673
-0.397943
-1.57337
-0.0854419
0.0871017
-0.00165982
-0.107047
-0.00517441
0.112221
0.41226
-0.825295
0.413035
0.0379076
0.669763
-0.707671
-0.0409578
-0.0998815
-0.0422579
-0.0038756
0.0753765
-0.243436
0.00520976
-0.00139798
0.125846
-0.0192772
-0.106569
0.0537804
-0.0841924
0.00778189
0.00486675
0.0220479
0.0819235
-0.033603
-0.00397638
0.209663
-0.413008
0.278779
0.434958
-0.0169989
-0.0164784
-0.989547
-0.0196881
0.0604377
-0.0643468
-0.0351765
-0.0924417
0.214206
0.0541005
-0.753654
0.699553
0.0923975
0.0537655
-0.935818
-0.0070698
-0.00206808
-0.650239
0.745757
-0.0157458
0.167714
0.48751
-0.676957
0.190498
-0.417816
0.227318
0.0569243
0.115586
0.00297711
-0.00368516
0.000708056
-0.0343222
-0.0186532
-0.0182685
-0.120134
0.729884
-0.622353
-0.0270531
-0.00301276
-0.0264035
0.3341
-0.174958
0.0639338
0.946672
-0.335548
-0.611124
-0.131273
0.151396
-0.515929
-0.240851
-0.541744
0.567836
-0.555094
-0.0127412
-0.0443109
0.0172577
-1.43633
0.57553
-0.57553
-1.74925
1.74925
0.752732
0.263799
0.264856
-0.528655
-0.89969
-0.0898578
0.676769
-0.390422
-0.286347
0.14023
-0.217407
-0.0122876
-0.004506
-0.933828
-0.0920916
-0.933451
0.213558
0.0422927
0.000663284
0.696619
-0.0931649
-0.603455
1.54407
0.284149
-0.00423899
0.0072161
-0.956269
1.14757
-0.424427
-0.104427
-0.636295
0.740722
0.0468374
-0.901289
-0.725929
0.223819
-0.816868
-0.851245
1.26684
-0.41559
-0.132024
0.262404
-0.13038
-0.0420936
0.738713
-0.113798
-0.934627
0.934627
-1.10577
0.0927886
1.01298
0.00268212
0.00636734
-0.00339006
-0.461172
0.935972
-0.0931818
-0.0955733
-0.0306909
0.0030544
-0.00187615
0.00175002
1.0743
-1.33082
-0.375725
0.458283
-0.682829
1.08265
-0.399816
-0.0436057
0.0390614
0.135913
-0.0614731
0.332208
-0.00122242
0.0159119
0.362848
0.0621034
0.0466189
-0.267991
0.221372
0.128172
0.0311674
0.106726
0.196711
1.26592
0.333756
-0.56884
0.827266
-0.258426
-0.857474
0.321615
0.314182
-0.202728
0.0718173
-0.764676
0.692859
-0.305041
0.101808
-0.448989
-0.0743666
0.120845
-0.0464789
0.109534
-0.183901
-0.479868
-0.117819
-0.0808655
0.0844862
-0.00362076
-0.00511354
-0.0284894
0.0474484
-0.0574302
0.626738
-0.587483
-0.0392547
-0.271999
0.283104
0.884459
0.710858
-0.292866
0.0122006
-0.0135397
-0.348116
-0.0024359
0.152815
-0.544737
0.391922
-0.00415656
0.000471397
0.509856
-0.368505
-0.141351
0.0100315
-0.0168734
0.00684189
-0.0303093
0.0220825
0.0082268
-0.690164
0.0531309
-0.0761786
-1.24556
-0.215131
-0.860051
1.50802
1.46352
-0.177584
-0.159629
0.112539
-0.0710043
0.0775303
-0.00652593
-0.679324
0.91978
-0.240457
0.582919
0.0938493
-0.00314885
-0.0010077
0.132276
-0.723335
0.0306909
-0.0628374
0.00432228
-0.450463
0.102348
-0.0527619
0.0941267
-0.219426
0.578767
1.1163
0.0509032
-0.0545004
0.000734926
0.0537655
1.82543
-0.361904
-0.0551884
-0.0486187
-1.02624
0.166193
0.377805
-0.201988
-0.493721
-0.149868
0.643589
0.854185
-0.386684
-0.467501
-0.564983
0.619083
-1.24568
0.283986
-0.00965538
-0.0461641
0.0558195
0.440019
1.44394
-0.157979
0.163291
0.0298058
2.00202
-0.494001
-0.66627
0.0373586
0.628911
0.408385
0.0137205
-0.364967
0.497936
0.764235
-0.422516
0.0691964
-0.0191623
-1.12278
0.36576
0.757018
1.15912
0.0691951
-0.0548525
-0.0554637
-0.378007
0.124383
-0.33932
0.370915
0.575757
-0.0137307
-0.0305802
0.172816
-0.219586
-0.0220649
0.0158944
0.102295
-0.136046
0.033751
-0.278148
0.289054
-0.0109059
0.114542
-0.45009
0.408011
-0.297571
-0.11044
0.0282532
-0.120389
0.0921363
0.29527
0.0388294
0.454447
-0.111532
-0.678151
0.678151
0.886238
1.54407
-0.695014
0.303861
0.460374
-0.223067
0.206389
0.985152
-0.402232
0.0123511
-0.889946
0.877595
0.110826
0.0105885
0.0247182
-0.30653
0.760977
0.0292218
-0.163399
-0.107522
0.270921
-0.0125865
-0.478765
0.315366
-1.12906
-0.308547
-0.6658
0.0236185
-0.00819588
-0.000891579
-0.232084
-0.0179297
0.0408373
0.0306993
-0.163572
0.132873
-0.349464
-0.756309
-0.00504731
0.0615039
0.0971401
-0.681484
0.584344
-0.529893
0.354766
-0.115497
0.135449
0.218681
-0.00710524
-0.0293598
-1.11223
0.908252
0.0381949
0.0773759
-0.064756
0.0383525
0.226925
0.00945342
-0.450714
0.883563
0.565699
0.520736
0.864373
-0.792556
0.840884
-0.473396
-0.652777
0.191604
0.161884
-0.800157
0.783209
0.0169486
0.941514
-0.570599
-0.228777
-0.146948
-0.0820864
0.0120367
0.947651
-0.83832
-0.109331
-0.203878
0.126351
0.0251432
0.110506
0.875993
0.348842
0.415164
-0.764006
-0.308647
-0.0343583
-1.12643
1.22357
0.119676
1.25416
1.71061
-0.166537
0.159842
0.547497
-0.707339
0.0175877
0.0554892
-0.0196945
0.0125893
-0.537353
-0.115423
0.142602
-0.0985123
-0.205314
0.15267
-0.499074
0.246429
-0.992844
-0.414468
-0.301738
-1.0101
1.47326
0.00666656
-0.303303
-0.477829
0.0273657
0.661355
0.325173
0.0376749
1.14964
-0.737375
-0.209918
0.145505
-0.088833
-0.368925
0.457758
-0.0251449
0.0154895
0.0542973
-0.0598463
-0.218302
-0.0992028
0.697777
-0.43076
-0.267018
0.120404
0.119619
-0.0867704
-0.0328488
0.249273
0.0758995
0.0774851
-0.808097
-0.10478
0.152263
-0.482546
0.831388
-0.0148999
-0.0262888
-0.0302964
0.00742983
0.0228665
-0.00955237
0.0069683
-0.261585
0.0772119
-0.0625128
-0.519926
0.387902
0.0315077
0.0714294
-0.0431763
-0.699898
1.51687
-0.941113
0.0159276
-0.210463
0.194536
-0.148885
-0.520806
0.669691
0.0573715
-0.699689
-0.0701232
0.478134
0.0220667
0.00128832
-0.0233551
-0.231495
-0.567836
-0.155322
-0.118149
-1.12278
-0.251143
0.180617
0.0953883
-1.16052
-0.337038
0.29675
0.0402883
0.245549
0.0998855
0.492243
0.365264
-0.857507
-0.049493
0.0436282
1.13621
-0.82084
-0.315373
-0.211457
-0.67201
0.993625
-0.261697
0.19627
-0.32176
-0.350249
0.381151
-0.0233705
0.00792938
-0.00848651
-0.0242818
1.3736
-0.852868
0.767635
0.0865497
-1.67004
-0.325189
0.279145
0.706007
0.856754
0.00951764
-0.0202778
-1.71061
-0.6658
-0.711398
0.723714
0.00667338
-0.819671
0.669763
0.580999
-0.928178
0.975522
0.0018894
-0.802047
-0.316008
0.639363
-0.757284
0.117921
0.0727219
0.0468972
-1.06527
-0.433476
1.74011
-1.30663
-0.00122044
-0.00697544
-0.284566
0.232113
0.696735
0.20473
-0.191897
-0.166795
0.937749
-1.07207
0.029484
-0.558139
0.82903
-0.427708
-0.401322
-1.26606
1.63182
0.255607
-0.937091
0.0894277
0.323542
-0.757018
0.00241989
0.228746
0.000822652
0.0673872
-0.00694958
0.0115984
-0.0253096
0.0137113
-1.03132
-0.0333856
0.301611
-0.807506
0.206033
0.309403
-0.515436
0.397177
0.685468
-0.0427316
0.0454883
-0.00275671
0.204858
0.732892
-0.719925
1.01677
0.868398
-0.662365
0.338252
-0.109506
-0.582844
-0.41
0.0583468
0.770683
-0.050566
-0.888056
-1.79834
0.105022
0.323542
0.0519869
-0.859493
0.831405
-0.647237
-0.184168
-0.981965
0.399121
0.00590574
0.104416
0.000389348
-0.104805
-0.971428
0.561428
-0.196783
0.913119
-0.920188
0.206664
-0.224984
-0.102944
0.260051
0.156636
0.701058
-0.102113
-1.18805
0.576931
-0.371492
-0.0510241
-0.552259
-0.518779
1.07104
0.447741
0.0180999
-0.0105973
-0.741057
0.707671
0.473101
-0.268244
-1.96338
1.87027
0.0931124
-0.204158
0.513561
0.768267
-0.80406
-0.493883
-0.448918
-0.472172
-0.499256
0.804521
-0.804521
0.68907
-0.68907
-0.741057
-1.71695
1.71695
-1.87027
-1.38741
0.142008
0.0237273
-0.843074
0.843074
0.473101
-0.268244
0.768267
0.762872
-0.762872
0.80406
0.757842
-0.757842
0.506117
0.527828
0.481221
-0.369973
-0.500744
-0.551082
1.07891
-0.000322506
-1.08841
1.14676
0.75288
-0.497273
-0.0552985
-0.0204615
0.0780884
-0.883853
0.0856309
0.798222
-0.0191876
0.00715488
-0.992038
0.593643
0.868747
-0.564887
-0.121004
-0.00164172
0.00179955
-0.827029
-0.0754134
-0.535172
-0.0148298
0.0331916
-0.693252
-0.0317665
-0.000679213
0.192504
-0.00509164
-0.00826426
0.0133559
-0.813917
0.068717
0.7452
-0.425462
0.582098
-0.522548
0.432758
0.0897895
0.915449
-0.747678
-0.167771
0.0893733
0.319684
-0.0147933
-0.0660722
-0.0724409
-0.013001
-0.047802
-1.56181
-0.880405
0.0922712
-0.749827
0.794445
-0.0446172
0.118802
-0.900465
0.781663
-0.804654
0.900641
-0.0959871
-0.010324
0.00077167
0.0214225
-0.309196
0.662618
0.108066
-0.087897
-0.795956
0.913985
-0.0878116
-0.826174
-0.0253362
-0.0182695
0.327418
0.827552
-1.07551
0.503215
-0.409365
0.095405
-0.891361
1.4984
0.250847
-0.796676
-0.00537068
1.0165
-0.897699
1.09068
0.570054
-1.15686
0.586809
-0.885435
-0.106603
-0.437532
0.0556942
0.120233
0.57932
-0.782561
0.782561
-0.638673
-0.0802762
-0.863326
0.115649
-1.01995
0.915521
0.0799606
-0.218394
-0.052281
0.0452023
0.0123294
0.183772
0.832729
0.820365
0.775712
0.133739
-0.909451
-0.734816
0.237543
-0.785273
-0.0983624
0.883636
0.158099
-0.878024
-0.679554
0.88472
-0.789315
-0.0998233
0.462005
0.00261312
-0.464618
-0.377314
1.70775
-1.33044
0.360669
-0.256703
-0.103966
-0.885097
-0.828264
0.0784365
0.557341
0.283542
-1.25333
0.99629
-0.604485
0.604485
-0.710734
-0.47732
0.311605
0.449372
-0.416627
0.119056
0.786357
-0.185703
0.623991
-0.57086
1.34739
-1.09334
-0.254049
-0.393553
-1.73752
0.114445
-0.164762
0.199532
-0.0359994
0.169145
0.329161
-0.239787
0.783093
-0.87908
0.684073
-0.44653
-0.13953
0.733174
0.602737
-0.602737
-0.022547
0.00648896
0.123161
-0.0924621
1.43988
0.267873
0.169351
4.61662e-05
0.00652571
-0.00657188
-0.680379
0.691438
-0.011059
-0.312246
-0.844617
0.102003
-0.891318
-1.07509
1.23264
-0.157554
0.0494575
0.871988
-1.315
1.00275
-0.757579
0.616375
-0.64786
-0.687321
0.171392
0.502776
0.0257362
0.196604
-0.636306
1.13908
-0.00174744
-0.350283
0.058035
0.73641
0.684766
-0.0683908
0.0675086
0.796309
-1.09753
0.33763
0.759902
-0.566662
0.488222
0.212224
-0.895917
0.685227
0.21069
-0.684858
-0.13201
0.961187
-0.0546903
-0.188745
-0.0300423
0.48571
0.51429
-0.772286
-0.106795
-0.408552
-1.31786
-0.960864
-0.388027
0.400827
0.599173
-0.0295094
0.0147099
-0.860097
-0.0488635
-0.598997
-0.148303
-0.229585
0.377888
0.0107149
0.00153241
0.123947
0.0789527
-0.12845
-0.133135
0.765385
-0.653016
0.720525
0.76663
-1.40294
0.330903
0.504236
-0.835138
-0.743077
-0.180635
0.923712
-0.223715
0.212673
-0.0257652
-0.0842445
-0.0501923
-0.00531228
0.745383
-0.140898
0.101995
0.116686
-0.734315
0.0539363
1.3079
0.788799
-0.0977551
-0.782903
0.648903
-0.277576
1.01067
-0.000366571
0.146231
-0.116425
0.00245458
-0.0578754
-0.00536225
0.169954
1.13794
-0.3359
-0.0793897
0.41529
0.843821
-0.0312573
0.00539017
0.0258671
0.139874
0.00481737
0.000392389
0.201604
-0.0993093
0.024004
-0.440631
-0.0573077
-0.278592
0.00396374
0.262308
0.424846
-1.16345
1.35394
-0.190492
-0.776305
0.822447
-0.0461426
-0.0933071
-0.0818128
0.462964
-0.0900467
1.60983
-0.472843
-0.0497052
0.267593
0.430458
0.17504
-0.605498
0.37678
0.0235629
0.667875
-0.571496
0.582377
-0.0108808
1.40311
-0.741758
-0.0414474
0.0493336
-0.00788614
0.704291
-0.00986954
-0.0822807
0.0174881
0.83427
0.336325
-0.429633
0.0751742
0.00931361
-0.129703
0.148368
-0.0652948
-0.0830736
0.0143553
-0.00275688
-0.339701
-0.481139
-0.00865571
0.202803
-0.023507
-0.0707776
0.243558
0.0901887
0.00367133
0.0359424
0.762326
0.805299
-0.283609
-0.52169
-0.142653
-0.20957
0.352223
0.641812
0.114957
-0.0468552
-0.0447878
0.091643
-0.423615
0.502077
-1.59542
-0.0168269
0.773793
0.732957
0.550244
-0.659182
-0.406088
0.799911
0.105967
-0.0420333
-0.918216
0.129372
-0.271757
-0.756937
-0.164756
0.701766
0.0605596
0.0150958
0.792039
-0.873852
-0.234691
0.169853
0.00478241
-0.107311
0.4208
-0.0602342
-0.399212
-0.0598131
0.120549
0.278088
-0.420742
-0.140239
0.833868
-0.0158473
-0.107872
-0.00719983
0.000252538
0.00694729
-1.41438
0.672623
0.00209486
0.979259
-0.222663
-0.627324
0.666318
-0.0389935
0.10167
0.755703
-0.40677
-0.428368
0.0862738
-0.189217
0.644152
0.111551
1.48025
0.326695
-0.283166
0.786381
0.0364586
1.10148
-0.577269
0.352694
0.224575
-0.685362
-0.0710052
0.0386228
0.0751842
-0.0525753
1.25928
0.73393
0.0659815
0.644151
0.207128
-0.884093
-0.0835665
-0.686155
0.680784
-0.0311043
-0.546325
0.398022
0.851851
0.667715
0.0173394
0.0511352
-0.124432
-0.324557
0.713324
0.803546
0.20572
0.0264597
1.32923
-0.227744
0.751205
0.36998
-0.0858822
0.900858
-0.721238
0.914838
-0.1936
-0.414632
-0.162637
-0.0543743
-0.141037
-0.0958271
0.907853
0.0267001
-0.0051423
0.625781
-0.369598
-0.413305
0.618851
-0.13014
0.211924
0.782685
0.27961
-1.06229
0.27609
-0.923327
0.324607
-1.26572
-0.158511
0.743169
-0.584658
-0.68295
-0.0390357
-0.0452088
-0.057793
-1.47345
-0.000735976
-0.0295604
0.711523
0.144625
-0.187538
0.0429132
-0.0225777
-0.566675
-0.0265825
0.172814
-1.72399
-0.00955284
0.0044612
-0.223912
-0.0566075
-0.609893
0.0383969
0.567426
0.284425
1.07185
0.688789
-0.221096
-0.390902
0.611998
0.420563
-0.620353
0.620353
-0.20986
-0.985617
1.19548
0.0330735
-0.164347
0.663989
-0.0965632
-0.214528
-0.0746075
-0.114138
0.261064
-0.0867128
-0.741023
0.196206
-0.100462
-0.719437
0.482021
0.100355
0.0832029
-0.00193611
-1.90406
-1.27931
-0.236371
0.692855
0.307145
-1.27931
0.692855
-0.838106
-0.629925
-0.838106
-0.696516
0.696516
0.303484
-0.0129343
0.0990175
-0.0810801
0.256751
0.0900763
-0.511943
0.63474
-0.0158884
0.635728
-0.505478
-0.13025
-0.0412928
0.0353836
0.00590924
-0.0155064
0.0155526
-0.507522
0.0169154
-0.0571026
-0.434919
-0.380149
0.148065
0.0343698
0.815953
-0.268456
-0.358714
0.386079
-0.0204429
-0.127369
0.000625263
0.697199
0.0765945
-0.199132
-0.0362692
0.000368888
-0.0133368
0.0822364
0.543442
-0.481454
-0.061988
2.12103
0.566349
-0.0341801
0.954519
0.012647
-0.0694285
0.117148
0.258498
0.0376733
1.18729
-0.404604
0.000179547
0.023439
0.475211
-0.791117
0.0167096
-0.0167096
0.0249837
-0.0249837
-0.0154719
0.0154719
-0.0169989
0.367511
0.466156
0.0498561
-0.672755
0.449316
0.17455
0.0270544
-0.0882964
-0.480465
0.585851
0.114293
-0.799151
-0.650785
-0.0261721
0.0150956
0.0233249
-0.00124236
0.0110317
-0.0110317
0.108531
0.0097434
-0.0097434
0.700719
0.113925
-0.0284848
-0.0077844
0.00586327
-0.0603637
-0.019234
0.019234
-0.0120663
0.0120663
-0.0253374
0.0253374
0.0074636
-0.0074636
0.0410078
-0.304249
-0.0734569
0.216592
0.0069721
-0.0069721
-0.380806
0.490097
-0.109292
0.467689
-0.205285
-0.609575
0.250861
0.555468
-0.0560428
0.0915232
0.574795
0.564685
0.00470092
-0.00470092
0.263832
0.0285567
-0.0285567
0.00661331
-0.00661331
0.788722
-1.12707
0.0380608
-0.438857
0.0703517
-0.00309968
0.00309968
0.0136419
-0.0136419
0.0204794
-0.0204794
0.019462
-0.019462
-0.0265366
0.0265366
0.0391285
-0.0391285
0.505763
-0.0355752
0.0355752
0.00270729
-0.00270729
0.0270053
-0.0270053
-0.00869699
0.00869699
-0.0050809
0.0050809
-0.104331
-0.0302165
0.0302165
-0.0795944
0.0223546
-0.0439039
0.0439039
0.00746899
-0.00746899
0.0184244
-0.0184244
0.0374066
-0.0374066
0.0227446
-0.0227446
-0.00335222
0.00335222
-0.00602845
0.00602845
0.243442
0.189225
-0.0114454
0.0114454
0.00201608
-0.00201608
-0.0423918
0.0423918
-0.0250154
0.0250154
0.00408757
-0.00408757
-0.434253
0.713398
0.241146
-0.0355829
0.0355829
0.0131348
-0.0137773
0.0137773
0.00120322
-0.00120322
0.0333314
-0.0333314
-0.160938
0.118905
0.00709017
-0.00709017
-0.0186605
0.0186605
-0.465459
0.0396358
-0.00410406
-0.0278914
0.0278914
-0.427735
0.0288692
0.0166191
0.0506719
-1.72072
-0.0408251
0.0408251
-0.218979
0.158744
-0.0370485
0.000399487
-0.000399487
-0.024043
0.0625684
0.267462
-0.32023
-0.251949
0.572179
0.165541
-0.00796421
0.00796421
-0.0623532
0.214681
-0.152328
0.734961
-0.364892
-0.370069
-0.49343
-0.655257
0.136519
0.24956
0.0302546
-0.596917
-0.576413
-0.0217753
0.190224
-1.43276
0.0206614
-0.0206614
-0.000342825
0.000342825
0.0342906
-0.0342906
0.0234994
-0.0234994
-0.00281249
0.00281249
-0.000814225
0.000814225
-0.182008
-0.189462
0.151947
-0.272952
0.00334195
-0.00334195
-0.0404148
0.0404148
-0.0447718
0.0447718
0.0967846
0.0786986
-0.175483
0.0252978
0.287297
-0.50996
-0.00375929
0.00375929
-0.0270824
0.0270824
-0.112526
0.212415
-0.0758957
-0.00152228
0.00152228
0.0324062
0.0137905
0.892256
-0.491582
-0.100956
0.592538
-0.611705
0.409373
-0.28914
-0.0346691
0.0346691
-0.669774
0.259499
0.0550393
-0.0550393
-0.691928
0.405581
0.244067
0.111895
-0.00247825
0.00247825
-0.890269
-0.00158667
0.00158667
0.331075
0.407638
0.0657063
-0.0595292
0.0595292
-0.00216651
0.00216651
-0.0470242
0.0470242
-0.0484762
0.0484762
-0.00162467
0.00162467
-0.0536659
0.0536659
-0.00182209
0.00182209
-0.0506785
0.0506785
-0.0160502
-0.0407315
0.0407315
0.00418623
-0.00418623
0.0534929
-0.0534929
-0.00244599
0.00244599
0.0426617
-0.0426617
-0.143351
-0.00423365
0.00423365
-0.00592866
0.00592866
-0.0356567
0.0753816
-0.0127706
0.0127706
0.00479497
-0.00479497
-0.0660696
0.0660696
0.318223
-0.0209974
0.0209974
-0.0518746
0.0518746
-0.007111
0.007111
-0.0748206
0.0748206
-0.0124258
0.0124258
-0.0895389
0.0895389
-0.0243726
0.0243726
-0.0856256
0.0856256
-0.709013
0.247125
-0.551482
0.512489
-0.901289
-0.678252
-0.528537
0.363781
0.138726
-0.0183225
0.00361254
-0.00361254
0.204308
-0.685121
0.0532135
-0.0551496
-1.35589
1.64004
1.66051
0.238105
0.0222463
0.0267678
-0.368381
-0.604109
-0.0970475
0.394031
-1.29944
-0.0302853
0.0302853
-0.713425
0.0133391
-0.0133391
-0.00519376
0.00519376
0.352127
-0.353305
-0.00259204
0.00259204
0.0168813
0.0127701
0.600171
-0.137508
-0.0101163
-0.0133643
-0.00691348
-0.115217
0.52209
-0.406873
0.185416
-0.0709702
-0.00216524
1.19639
0.0186756
0.0334245
-0.412935
0.468629
-0.513891
-0.933126
-0.209335
-0.0817807
0.0198733
-0.0572113
-0.199492
-0.0286642
-0.0096239
-0.00691216
0.809552
-0.523706
-0.0516589
0.0564413
-0.0420288
0.0603572
0.0386603
0.409279
0.252989
-0.158423
0.197006
0.0291
-0.00764353
-1.17375
0.0208488
-0.0572855
-0.130252
-0.0164773
-1.3227
-0.0734732
0.275577
-0.357363
0.419467
0.103055
-1.11316
0.0416384
0.0554571
-0.0737266
-0.361538
0.451327
-0.0455236
0.0648248
-0.0193012
-0.0306261
0.0306261
0.176871
-0.469737
-0.123315
0.0442693
-0.0930691
0.0619648
-0.0557907
-0.00290143
0.0586921
-0.0358376
-0.164999
0.106098
0.0417557
-0.279202
-0.330015
0.609217
0.0190175
0.0680842
0.147277
-0.0452826
-0.12655
0.0797091
-0.171432
0.333316
-0.00222322
0.0280903
-0.0109497
0.158227
0.00361261
0.278797
0.00470432
-0.00470432
-0.0134547
0.76466
0.103606
-0.187173
-0.0254186
0.072256
0.632571
0.370179
0.073484
-0.0199032
-0.538203
-0.0132796
-0.0866051
0.111266
-0.723804
0.321572
-0.0542142
0.354345
-0.633547
0.202117
0.483111
-0.100248
0.100248
0.000389348
-0.467809
-0.0488432
0.516653
-0.230335
0.172542
0.103774
-0.15747
-0.29262
-0.0504293
-0.0425618
0.0498792
0.928939
0.139846
-0.122507
-0.0715906
-0.00835106
-0.654014
-0.0256509
-0.252967
0.750903
0.544543
-0.257246
-0.266576
0.528884
-0.0595811
0.184089
-0.263531
0.02173
-0.450666
0.341375
0.11268
-0.11268
-0.00993351
-0.0723759
0.0823094
-0.00596719
0.00326504
0.00742983
-0.401449
-0.0221667
0.206917
-0.18468
-0.0222371
0.518235
-1.13053
-0.151209
-0.991013
0.678456
-0.100393
-0.172558
-0.0188515
-0.0803513
-0.507319
0.0723999
-0.308956
-0.0022798
-0.0164773
0.409121
-0.00523285
0.00295248
-0.000491504
0.0185684
-0.0112404
-0.007328
-0.0937982
-0.0202636
-0.181889
0.202152
-0.103375
-0.347291
0.0168813
0.351687
0.00169454
-0.400128
0.0983901
0.00321936
0.14478
-0.094924
-0.0139395
0.0139395
-0.0019509
0.00157562
-0.008316
-0.000358791
0.0394061
0.000227907
-0.00119928
0.185746
0.0284604
-0.00214247
0.00214247
0.00839317
0.492036
0.000620911
-0.274733
0.602502
1.22224
-0.464913
0.308648
-0.441491
-0.121612
-0.00170273
0.202227
-0.208266
0.0464016
-0.00734607
0.00203379
-0.00616845
-0.173771
-0.358195
0.807512
0.395795
-0.577803
0.147023
-0.00172194
0.017381
0.0320765
0.00013545
-0.000685089
-0.00666098
-0.0844331
0.0015121
-0.00080147
0.748362
-0.668653
-0.252063
0.321213
0.765136
-0.000812861
0.00106172
-0.0370485
-0.00514681
0.817774
-0.432755
0.533111
-1.55423
0.906317
-1.01795
0.54299
-0.179209
0.730139
0.000732782
0.00337526
0.0199496
-0.11761
0.136383
-0.121934
0.00787458
0.00481817
0.0740516
-0.0621833
-0.0118683
0.000874034
-0.0523528
0.0954859
-0.0431331
-0.102822
0.00654975
-2.40385e-05
0.00204375
0.512187
-0.446035
0.00865803
0.000328274
0.0373025
-0.0861458
0.362043
-0.0065344
-0.000742314
0.0229292
-0.0315849
-0.0536033
-0.0863601
-0.00741877
-0.00394678
0.143096
0.0515648
-0.00337051
0.384567
0.000834692
0.00266713
-0.00266713
-0.00211545
-0.0112489
0.000529461
-0.321479
-0.00408944
0.0794336
-0.108004
0.00496784
0.437648
-0.0649871
0.000417341
0.00169501
0.435447
0.000334235
-0.00172256
-0.0526517
-0.00225236
0.000616763
0.027123
0.142228
-0.709769
0.445439
-0.803634
0.012923
-0.000644228
0.26779
0.121912
0.0472333
0.554545
-0.0138071
-0.0740786
-0.00448998
-0.00154632
-0.558223
-0.00365428
-0.000197422
0.0162791
0.875917
-0.499137
-0.00281447
-0.000623893
-0.00654038
-0.00178766
0.0799771
-0.0199681
0.0199681
-0.0375218
0.0390975
-0.00231603
-0.00875097
0.0552987
-0.0523462
-0.180966
0.109961
-0.00531478
-0.0147183
0.0327645
-0.0198158
0.0701617
-0.0502884
-0.624831
0.580214