/*--------------------------------*- C++ -*----------------------------------*\
| =========                 |                                                 |
| \\      /  F ield         | OpenFOAM: The Open Source CFD Toolbox           |
|  \\    /   O peration     | Version:  2306                                  |
|   \\  /    A nd           | Website:  www.openfoam.com                      |
|    \\/     M anipulation  |                                                 |
\*---------------------------------------------------------------------------*/
FoamFile
{
    version     2.0;
    format      ascii;
    arch        "LSB;label=32;scalar=64";
    class       volVectorField;
    location    "39";
    object      U;
}
// * * * * * * * * * * * * * * * * * * * * * * * * * * * * * * * * * * * * * //

dimensions      [0 1 -1 0 0 0 0];

internalField   nonuniform List<vector> 
2186
(
(1.2684 -0.0638673 3.0504e-19)
(1.52418 -0.885208 7.48751e-20)
(1.37875 -0.863303 1.49782e-20)
(0.687099 -0.523869 -1.90298e-19)
(-0.389516 0.538577 -2.12161e-19)
(1.548 -0.271742 0)
(0.671461 -0.619153 0)
(0.0388503 0.0835998 2.9987e-20)
(1.33039 -0.171649 5.80965e-21)
(0.507931 -0.233634 -1.78569e-21)
(0.739242 0.669443 0)
(0.763398 -0.257647 -2.41237e-20)
(0.0420336 0.0941489 -1.32418e-20)
(1.2023 0.0282823 -4.54721e-19)
(1.70104 -0.650678 6.13674e-20)
(1.02005 0.00185713 2.10206e-19)
(0.977316 0.0138489 0)
(-0.159551 0.452906 0)
(1.36012 -0.53995 0)
(-0.0739086 0.319273 -8.23722e-20)
(0.499872 0.200746 -1.29291e-19)
(-0.130689 0.220299 1.11908e-19)
(1.19227 0.0314334 3.73825e-19)
(-0.16635 -0.0539422 5.20813e-21)
(1.02603 0.0155905 -2.94482e-19)
(0.737931 -0.502561 0)
(0.757542 0.0312492 1.73142e-19)
(0.564389 -0.54373 -2.31473e-19)
(1.29154 0.767154 0)
(0.95708 0.0261866 -4.01395e-19)
(-0.0353901 0.120163 0)
(1.02197 -0.00293074 1.39185e-20)
(-0.103886 0.240234 0)
(2.59025 -0.0706037 6.87324e-20)
(-0.204675 -0.0838329 -2.03118e-22)
(1.64341 0.821867 7.13752e-20)
(2.06991 0.0858676 3.91155e-20)
(0.532775 0.24767 -3.83756e-19)
(2.10298 0.13254 -3.56704e-19)
(1.74618 -0.445548 3.19271e-20)
(0.00572004 0.0624772 0)
(-0.061441 0.208416 0)
(1.76856 -0.825821 1.58974e-20)
(-0.440557 0.27147 0)
(1.16368 0.315236 1.7372e-19)
(0.55874 -0.216738 3.3943e-19)
(0.858872 -0.731482 0)
(1.12013 -0.740462 1.81015e-19)
(1.50727 -0.546104 0)
(-0.21654 0.48739 2.09325e-19)
(-0.0213835 0.186731 1.21763e-19)
(0.687712 0.634523 8.68134e-20)
(1.95625 -0.716494 -2.03976e-20)
(0.631306 0.360236 -3.06934e-19)
(-0.301783 0.00613538 4.40351e-20)
(0.709636 -0.598869 0)
(1.56127 -0.902294 1.61517e-20)
(0.534816 -0.496021 0)
(2.40988 0.0750446 1.10193e-19)
(1.09737 -0.149286 -4.9268e-19)
(1.27916 0.0543467 5.65203e-21)
(1.41923 0.325335 -2.00015e-19)
(1.4266 0.581445 0)
(2.17486 -0.287027 -3.49853e-20)
(1.4454 0.416438 -1.20111e-19)
(1.18527 -0.683955 -2.68321e-19)
(1.24662 0.711169 5.72031e-20)
(0.685156 0.140443 -6.40849e-19)
(0.826704 0.111399 0)
(1.90765 -0.167511 2.75036e-21)
(0.00727367 0.0621513 -3.16482e-20)
(2.04936 -0.360078 2.99157e-20)
(0.719624 0.0309084 -2.85721e-19)
(0.825223 -0.466621 0)
(0.849928 0.237153 -1.03895e-19)
(0.498636 -0.455856 -3.75503e-19)
(1.7277 -0.262301 0)
(1.00668 0.0115457 4.35771e-19)
(-0.206866 -0.0715683 0)
(2.18987 0.34251 0)
(0.867345 0.111338 1.20699e-19)
(1.97808 -0.186377 -3.95738e-20)
(1.01849 0.0108477 4.89438e-20)
(1.39296 0.440556 3.03669e-20)
(0.961982 0.0271979 5.14545e-19)
(1.03313 0.0342542 -1.21596e-20)
(0.690175 0.254008 -3.76234e-19)
(1.40022 -0.218089 -1.09839e-20)
(1.81535 0.31351 0)
(-0.0676412 -0.0583835 1.89071e-20)
(0.80785 -0.570604 -2.22041e-19)
(-0.125457 0.323114 -6.07315e-22)
(1.08345 -0.0559972 3.1564e-19)
(0.791169 -0.12807 0)
(0.967646 0.0245313 4.88276e-20)
(1.45295 0.684373 0)
(1.53377 -0.897746 0)
(1.37006 0.241385 0)
(-0.319295 0.538382 0)
(0.735735 -0.609592 3.84769e-19)
(0.733306 -0.374623 -3.44412e-19)
(0.728917 -0.0913378 2.2609e-19)
(1.62614 0.192191 0)
(1.12523 -0.0862453 -2.88556e-19)
(1.12536 0.0248654 2.15689e-19)
(-0.0453307 0.301489 1.50345e-19)
(0.699841 0.577095 0)
(2.05238 -0.178895 1.60285e-20)
(0.916911 -0.429305 1.07783e-19)
(-0.737827 -1.00808 1.26308e-19)
(1.93826 0.242277 1.46192e-19)
(-0.18336 0.490316 -3.14467e-19)
(0.761411 -0.690804 0)
(0.620852 0.432895 1.83096e-19)
(1.54199 -0.169891 -2.15728e-20)
(0.10919 0.304173 -2.27095e-19)
(1.07555 0.310508 -8.51977e-20)
(1.62695 -0.43505 0)
(-0.0894979 -0.0770459 -5.64341e-20)
(0.696255 -0.00267479 9.12691e-20)
(1.67208 0.937038 0)
(-0.0640969 0.443177 -2.99629e-19)
(0.956495 0.824666 -2.93734e-19)
(-0.293072 0.294637 3.79465e-19)
(1.03212 -0.0197831 0)
(1.4163 0.314584 1.07369e-19)
(-0.311674 0.518827 0)
(0.648274 -0.435741 -1.35424e-19)
(-0.188213 0.416184 -2.07848e-19)
(0.73553 -0.669161 0)
(0.385107 -0.1798 4.89955e-19)
(0.487013 -0.391779 3.45185e-19)
(0.381879 -0.345051 0)
(0.922601 -0.731007 -1.98868e-19)
(0.806554 -0.137846 0)
(-0.0395525 0.469891 -1.64075e-19)
(0.755128 -0.643443 1.89772e-19)
(2.19938 -0.2211 -1.2266e-20)
(2.10048 0.061505 0)
(-0.0223311 0.0267393 0)
(0.745619 0.693009 -3.63782e-19)
(1.68729 -0.588541 -5.75527e-20)
(0.0663475 0.0790279 0)
(0.924497 -0.753542 -2.08568e-20)
(1.11512 -0.086334 0)
(1.05915 -0.102728 4.99843e-19)
(1.97539 -0.159624 3.18837e-20)
(-0.382981 0.572403 0)
(1.16096 -0.516183 -8.4177e-20)
(-0.17595 0.325028 -5.49455e-20)
(-0.238467 0.429479 0)
(1.03377 -0.762096 1.06624e-20)
(1.00687 0.00612658 -7.27847e-19)
(0.599314 -0.417148 -1.31512e-20)
(0.766937 -0.460218 0)
(1.13648 -0.683209 -1.50129e-19)
(0.693383 0.313089 2.87915e-19)
(1.25353 0.132858 0)
(1.58867 0.0582064 -2.60482e-19)
(1.13337 -0.803431 -3.77117e-19)
(-0.0394645 0.0167898 -2.08174e-20)
(-0.188977 -0.247762 -2.89127e-20)
(1.08744 0.0189711 2.68769e-19)
(0.870196 -0.414931 -1.35558e-19)
(1.3979 -0.481821 1.01682e-20)
(0.636061 -0.355588 5.97744e-20)
(0.677433 -0.112945 2.25231e-20)
(-0.122868 -0.0725731 -5.36415e-20)
(1.13521 0.448857 0)
(1.73606 0.399215 -1.12672e-19)
(1.53192 0.6922 1.43226e-19)
(0.75637 -0.56078 -2.80583e-19)
(0.995278 0.0100211 1.4914e-20)
(0.66746 -0.474721 3.7242e-19)
(1.3926 0.852332 1.30271e-19)
(1.86498 -0.0273096 1.47237e-20)
(-0.394908 0.588095 0)
(1.09911 0.0665054 -2.77439e-19)
(-0.673734 -0.306551 -9.87223e-20)
(1.13434 0.531722 8.68457e-20)
(0.103245 -0.125822 3.24246e-20)
(1.16226 0.0310282 -5.19226e-20)
(-0.190261 0.222405 -1.98975e-19)
(1.37673 0.62146 -8.1227e-20)
(1.21938 0.949368 0)
(-0.350549 0.620174 -1.02502e-19)
(0.213691 0.363023 0)
(0.715592 0.621959 -2.98838e-19)
(2.16331 0.0972646 -2.09878e-20)
(0.0435942 0.121478 5.21267e-20)
(-0.335669 0.469778 -5.00097e-19)
(0.733332 0.14684 2.81579e-19)
(2.11944 -0.438835 -3.82766e-20)
(0.937625 -0.305418 -3.88884e-20)
(-0.010134 0.0109033 0)
(-0.645582 -0.881579 2.41076e-19)
(1.4311 1.04087 -9.72012e-21)
(0.853086 0.132508 -1.54539e-19)
(0.608807 0.572405 2.08019e-19)
(0.540818 0.205716 0)
(-0.143877 -0.0994584 -4.11669e-20)
(-0.511477 -0.947125 2.14065e-19)
(1.22215 -0.901593 1.21486e-21)
(0.980411 -0.00432713 -2.28463e-19)
(-0.142777 -0.143645 5.07548e-21)
(-0.196293 0.228326 1.7868e-19)
(-0.213816 -0.181091 -4.04358e-20)
(1.12518 -0.481021 0)
(1.15181 0.0524747 -3.71361e-19)
(2.25291 -0.347021 9.92639e-20)
(1.21041 -0.578166 1.70252e-19)
(2.19234 0.0295489 -2.86517e-21)
(0.640518 0.414284 0)
(1.0131 0.808778 -1.73464e-20)
(0.743261 0.685357 1.96544e-19)
(0.84609 -0.512844 1.99636e-19)
(0.745668 0.567789 0)
(1.01835 0.0103149 9.7824e-21)
(0.827846 -0.611964 2.85738e-19)
(0.889545 0.48037 -4.99008e-19)
(1.15186 -0.101529 0)
(0.135538 0.213428 -1.81511e-19)
(-0.0412548 0.249371 -1.22738e-19)
(1.69251 0.763596 0)
(1.27316 -0.88427 -1.03941e-21)
(-0.200361 0.44244 0)
(-0.366974 0.520665 1.33319e-19)
(0.798751 0.712777 -1.05109e-19)
(0.827173 -0.16766 0)
(-0.181516 0.0158932 0)
(1.50227 -0.435402 0)
(-0.536417 -1.59167 3.6917e-19)
(1.14218 -0.831391 2.46207e-19)
(1.11701 -0.560271 9.35134e-20)
(1.01465 -0.154686 -2.29594e-19)
(0.821221 -0.641605 -2.28434e-19)
(0.167663 -0.1704 0)
(-0.407784 0.0303686 0)
(0.950285 -0.468081 2.43131e-19)
(0.0174067 0.0513394 0)
(-0.228593 0.487479 0)
(0.0499738 0.353655 1.99006e-19)
(0.855701 0.729667 9.12356e-20)
(1.08424 0.852762 0)
(0.757708 0.618228 -9.15005e-20)
(0.824774 0.0122976 -2.60976e-19)
(0.8062 0.623988 -2.45289e-19)
(0.64675 0.604382 -1.78932e-19)
(-0.0329401 0.0287546 5.6415e-22)
(0.669183 -0.598729 0)
(0.925251 0.222538 -3.63729e-19)
(-0.0294487 0.0249809 1.41283e-20)
(0.658663 0.611695 4.01994e-19)
(1.02786 0.85825 0)
(-0.33339 -1.06567 3.67969e-19)
(-0.189814 -0.0313087 5.94387e-20)
(-0.196278 0.0667947 -2.63752e-20)
(0.726034 0.634028 -1.58521e-20)
(0.969956 -0.00583172 7.01304e-20)
(-0.0197574 0.0728764 0)
(2.16268 -0.177949 1.54004e-20)
(0.459399 -0.150025 2.83235e-19)
(0.601406 -0.554023 -1.00993e-19)
(0.0122817 0.295677 1.40136e-20)
(1.26018 0.495887 1.95386e-19)
(0.936921 0.467483 0)
(1.01611 -0.148245 2.49958e-19)
(-0.175732 -0.0711835 -2.11341e-21)
(-0.124629 0.19516 4.60942e-19)
(0.907055 0.0216141 -6.42338e-20)
(1.15838 0.163235 0)
(1.78037 -0.0556583 9.14005e-20)
(1.87889 -0.00941359 0)
(0.580432 0.344545 -5.03707e-19)
(-0.219027 0.268138 0)
(0.013454 0.0594186 6.1308e-20)
(0.670642 0.0957033 0)
(0.566663 -0.45192 -2.27002e-19)
(1.13217 0.0222406 2.53884e-19)
(-0.343907 0.52584 4.60377e-20)
(1.70771 -0.0901454 -1.38736e-20)
(1.9437 -0.222238 6.08943e-21)
(1.15986 0.257902 -2.45478e-19)
(-0.0428151 0.0227561 -2.93424e-20)
(1.0123 -0.798003 0)
(0.802441 0.0168276 -1.84513e-19)
(0.886273 -0.329039 -3.65089e-19)
(1.63572 -0.547636 1.20695e-20)
(1.63758 0.0142521 -1.48633e-19)
(1.09932 0.00225108 4.46014e-19)
(-0.151165 -0.0650783 -2.34283e-20)
(0.950507 -0.393627 -1.68205e-19)
(0.175253 -0.167855 3.18444e-19)
(1.00844 -0.00452959 0)
(1.00486 -0.00275556 0)
(-0.259303 -0.374001 -5.41941e-20)
(-0.00834599 0.436902 -1.14534e-19)
(0.182233 -0.110978 -3.53615e-20)
(0.933202 -0.198974 2.2697e-20)
(1.31699 -0.969793 0)
(2.12002 -0.39094 -4.69949e-20)
(0.881705 -0.765231 -1.49268e-19)
(1.69078 -0.53633 1.54018e-20)
(1.18138 0.895613 0)
(0.425953 -0.404249 0)
(0.666797 0.584686 -1.89959e-19)
(1.14728 0.309257 -4.4666e-19)
(2.13078 -0.247689 -9.57218e-23)
(0.884009 0.2055 1.56859e-19)
(-0.142069 -0.116305 -6.07331e-20)
(1.79921 0.344179 -7.70524e-21)
(-0.176202 -0.158434 0)
(-0.0797342 0.00263259 0)
(-0.0513196 0.127778 0)
(1.26965 -0.680346 -1.81216e-19)
(-0.231292 0.433799 -2.59837e-19)
(-0.160267 0.235032 0)
(1.38451 1.04262 -3.10576e-20)
(1.15724 0.17313 -4.7366e-19)
(2.36561 0.375942 -5.99396e-20)
(1.16203 0.991102 8.21533e-20)
(-0.161327 0.469223 1.61365e-19)
(1.93909 0.124418 0)
(-0.057717 0.177414 -1.31981e-19)
(-0.259636 0.509462 3.04973e-19)
(0.782728 0.0895899 2.11519e-19)
(1.64399 1.00277 1.34587e-20)
(1.76517 0.869856 6.30909e-21)
(-0.137947 0.311116 -1.96389e-22)
(0.691795 -0.630187 -5.26435e-20)
(1.20785 -0.0440565 0)
(1.75464 0.0476935 0)
(0.970359 0.0491299 0)
(-0.0208506 -0.599323 -2.66501e-19)
(-0.117961 0.0530248 3.56583e-20)
(1.12148 0.904994 0)
(0.991612 0.0198717 6.12661e-19)
(0.83001 0.666846 -2.44456e-19)
(-0.466752 -1.18377 -1.38018e-19)
(0.867821 0.0646325 -4.79449e-20)
(0.664463 -0.602403 -2.97304e-19)
(1.47341 0.751672 -3.14746e-20)
(0.508086 -0.379619 -3.54998e-19)
(1.13633 0.00443424 -5.42691e-19)
(0.793109 0.0493024 5.59037e-20)
(1.46028 -0.17039 1.39131e-19)
(1.35239 0.178635 8.26741e-20)
(0.019048 0.0352988 5.45519e-22)
(1.13901 0.516861 -2.91416e-19)
(1.47439 0.674476 9.7408e-20)
(-0.25132 0.0483932 0)
(-0.136986 -0.186155 2.41862e-20)
(0.169387 0.425044 7.965e-20)
(-0.15938 -0.126584 -2.66163e-20)
(0.537887 0.415314 0)
(0.381352 0.0956907 0)
(-0.0437788 0.0525281 -1.67752e-19)
(-0.0779877 -0.0127621 -1.51004e-20)
(1.05175 -0.0255827 2.15181e-19)
(-0.426033 0.631951 -5.29591e-20)
(1.56047 -0.761851 -2.52878e-19)
(0.0257078 0.420178 0)
(0.777407 -0.687038 -4.31542e-19)
(1.57572 0.174249 -1.7037e-19)
(-0.44665 -0.261065 5.11968e-20)
(0.745306 0.229261 3.66676e-19)
(0.643505 0.228237 1.17968e-19)
(0.454747 -0.426444 2.53972e-19)
(0.0702635 0.0841 -3.58339e-20)
(1.85806 0.992807 0)
(0.454021 0.43789 -2.08852e-19)
(1.03138 -0.00939976 -3.43072e-19)
(-0.356754 0.420582 1.98388e-19)
(1.50484 0.501701 -1.22569e-19)
(0.0100664 0.052063 -1.1742e-20)
(0.636699 -0.580599 -1.4483e-19)
(0.850127 0.240268 -2.29752e-19)
(1.02942 0.473324 2.49667e-20)
(1.11448 -0.113455 4.53226e-20)
(0.575197 -0.153498 -3.56429e-19)
(1.9007 -0.32081 7.38715e-20)
(0.769382 -0.0160519 0)
(2.15659 0.482654 -1.86512e-20)
(2.04233 -0.145349 1.72364e-21)
(0.299324 -0.0461885 2.96038e-21)
(1.14984 0.382493 -2.26796e-19)
(2.24633 -0.121356 7.81937e-20)
(0.475382 0.456039 -2.70697e-19)
(0.0320237 0.264665 2.57316e-19)
(1.66292 -0.158865 0)
(0.947041 0.00796455 0)
(0.814516 -0.718778 9.09101e-20)
(-0.178091 -0.03346 -6.51495e-20)
(-0.478273 -0.139567 -2.67603e-19)
(0.0229245 0.0432932 -4.65221e-20)
(-0.182809 0.481443 -1.71675e-19)
(-0.285866 -0.172955 0)
(-0.0786511 -0.01093 7.70301e-21)
(0.138987 0.249439 -1.14716e-19)
(-0.216137 0.247636 -4.07768e-19)
(0.780628 -0.0544932 0)
(1.22686 0.139374 -1.30547e-19)
(0.137428 0.252352 0)
(0.990682 0.0251035 4.39892e-19)
(-0.138308 -0.238198 8.95842e-21)
(0.484941 -0.350538 4.76066e-19)
(-0.728303 -0.180698 1.63547e-19)
(-1.03597 -0.968242 0)
(0.205716 0.373704 1.3242e-19)
(0.99826 0.0290756 -1.32828e-20)
(-0.0914557 -0.0570256 0)
(1.00476 -0.00722766 -6.78455e-20)
(0.804181 -0.673663 -3.97442e-19)
(0.739133 -0.599367 0)
(0.90169 -0.224815 2.60619e-19)
(0.174848 0.378124 2.50072e-19)
(-0.0340396 -0.0207609 0)
(-0.14075 -0.112288 -1.16398e-21)
(0.672318 -0.579125 -5.47564e-19)
(0.938093 -0.0236651 -3.31768e-19)
(-0.190919 -0.0371106 7.404e-20)
(-0.0248763 0.033137 3.52993e-20)
(-0.200018 -0.145226 0)
(1.0124 0.524234 0)
(-0.307489 -0.288287 4.10612e-20)
(1.42316 -0.260683 -1.77908e-20)
(1.15285 0.962318 1.90974e-20)
(1.10486 0.240666 -1.40992e-19)
(1.11087 0.0122366 -2.86934e-19)
(0.992252 -0.0598339 -1.1002e-19)
(-0.161869 -0.058806 -7.24826e-20)
(1.55475 -0.0823987 2.24305e-19)
(0.70554 0.0413029 2.36541e-19)
(1.88103 -0.145701 1.45866e-20)
(0.998717 -0.129419 0)
(0.170464 -0.819219 2.21126e-19)
(1.14441 0.0280901 -5.95888e-19)
(1.85409 0.648855 -1.62232e-23)
(0.690684 -0.394964 -1.99061e-19)
(-0.0868879 -0.0721017 4.22291e-20)
(0.7423 -0.647706 5.16345e-19)
(1.29439 0.217594 8.29857e-20)
(1.00716 -0.00729456 3.00287e-19)
(-0.165599 -0.1152 -2.89809e-20)
(1.03546 0.0316859 0)
(2.02797 0.142723 -7.45043e-20)
(-0.0564992 -0.0302535 0)
(1.01072 0.0171728 -1.79435e-19)
(-0.629763 -1.13527 -3.9575e-19)
(1.85372 0.312648 3.23144e-20)
(0.101949 0.443437 1.15606e-19)
(1.67473 0.0638452 -7.09449e-21)
(1.01746 -0.0148276 6.20876e-20)
(1.23612 -0.0884096 0)
(1.37081 -0.575621 -2.75575e-19)
(1.0319 0.0532838 -1.81871e-19)
(1.5375 0.839477 -4.89561e-20)
(1.26036 -0.0614045 0)
(1.21928 -0.521389 4.5983e-20)
(-0.050446 0.0601144 0)
(1.26552 0.0470451 0)
(-0.074104 0.0326999 0)
(1.30873 0.487783 0)
(2.06883 0.19969 5.88789e-20)
(0.804334 0.676065 4.28502e-19)
(0.262932 -0.26315 -3.00786e-19)
(-0.0705724 -0.00314357 -8.50718e-20)
(-0.0244092 0.00845881 0)
(1.81933 0.194707 -9.76085e-20)
(1.51747 0.553129 0)
(1.55587 0.302089 0)
(-0.119271 0.187108 5.69591e-20)
(0.87362 0.772123 1.35904e-19)
(1.58199 -0.0222667 0)
(0.0695046 0.120236 2.56255e-20)
(0.943733 0.270648 2.13233e-19)
(1.0568 0.280846 9.95047e-20)
(1.32937 0.989966 4.54135e-20)
(0.85785 -0.771012 -7.30879e-20)
(1.09039 0.1105 9.48901e-20)
(0.860471 0.777296 1.39157e-19)
(1.26523 0.990728 0)
(1.37476 -0.192862 -3.32171e-20)
(0.982045 -0.422277 0)
(1.14699 0.558302 -8.75228e-20)
(1.24444 0.105813 2.50867e-19)
(1.00574 -0.00116751 0)
(0.395435 -0.523551 2.86931e-19)
(0.862925 -0.121134 5.85529e-20)
(0.580146 -0.340645 0)
(0.622634 -0.312669 2.56476e-19)
(1.31407 0.599519 -3.57061e-20)
(0.526396 0.499295 2.96826e-19)
(-0.249901 0.308982 4.83794e-20)
(0.400992 -0.0877809 1.25793e-19)
(0.734915 0.0646367 0)
(1.252 -0.847099 -1.97533e-19)
(1.04042 -0.0413857 4.76905e-19)
(1.68083 0.341855 1.79422e-19)
(0.0719546 0.136888 2.20374e-20)
(-0.758164 -0.32334 0)
(1.17749 -0.216758 -1.55622e-19)
(-0.0282617 -0.0136178 -3.46664e-20)
(0.0916566 -0.670321 -1.52739e-20)
(-0.164111 0.0802523 -1.14877e-21)
(-0.240101 0.131633 3.78843e-19)
(0.741978 0.0953118 1.96338e-20)
(2.16595 -0.151729 -2.06267e-20)
(1.26171 0.491409 -3.15112e-19)
(0.936115 -0.0705715 0)
(1.80009 0.0107313 1.66776e-19)
(1.74758 0.0650686 -2.60337e-20)
(0.85261 -0.712358 2.01172e-19)
(1.08315 -0.910364 -1.12793e-19)
(0.529763 0.493768 1.99199e-19)
(1.14249 -0.483619 0)
(1.88079 0.586811 4.21909e-20)
(-0.0341889 -0.0103622 -7.11884e-20)
(0.95265 0.83217 0)
(1.32022 0.626685 0)
(0.261914 -0.260517 -3.18209e-21)
(0.38525 0.394805 0)
(-0.876382 -0.345862 -2.19266e-19)
(-0.321383 0.442661 -1.40854e-19)
(1.64174 -0.409817 0)
(1.27761 0.0643869 1.9246e-19)
(-0.109884 0.157528 2.24905e-19)
(0.487602 -0.460038 -5.95858e-19)
(1.8239 -0.0664387 1.80786e-21)
(0.561867 -0.506457 0)
(1.07449 0.144155 0)
(1.2944 -0.226106 0)
(1.16686 0.26005 -2.63771e-19)
(1.3948 0.110885 3.75639e-19)
(-0.914991 -0.888755 0)
(0.844703 -0.0524716 0)
(1.50578 -0.0974444 1.50662e-20)
(-0.153114 0.23867 1.26823e-19)
(1.93279 -0.281728 -1.30865e-19)
(0.998653 -0.46733 2.95459e-20)
(1.31556 -0.128391 -1.01193e-19)
(-0.436236 0.128852 -1.74696e-19)
(1.83578 -0.039222 -1.37984e-19)
(1.01275 -0.00762427 4.98194e-19)
(1.61824 0.630101 0)
(-0.299538 0.502119 3.80666e-20)
(0.940228 -0.774663 2.6702e-19)
(0.852581 0.0346248 5.60393e-20)
(0.58168 -0.36506 0)
(1.79841 -0.497871 -1.28868e-20)
(1.16081 -0.173367 2.1082e-19)
(0.314318 0.375277 0)
(0.561158 -0.519168 6.28112e-19)
(1.14095 0.19447 2.56965e-20)
(1.88114 -0.394249 2.79481e-19)
(-0.175368 0.297662 -2.59366e-19)
(1.41674 0.662057 1.55908e-19)
(1.21289 0.445428 3.99921e-21)
(0.954593 0.427877 2.47386e-19)
(1.45459 -0.225967 -4.0999e-20)
(-0.161794 -0.0655718 3.89393e-22)
(0.263962 -0.0763103 0)
(-0.131614 -0.0993271 6.9178e-20)
(1.01842 -0.884095 0)
(1.00181 -0.604887 3.07883e-20)
(0.576746 -0.205377 -4.63119e-20)
(-0.213657 -0.503614 -1.19553e-20)
(-0.434462 0.0133706 -1.3521e-19)
(1.04989 0.534029 1.89452e-19)
(0.114295 -0.354659 2.94194e-19)
(0.710255 -0.0409996 0)
(0.764214 -0.116828 0)
(1.98488 0.0419594 6.1713e-21)
(0.756461 -0.0151421 0)
(1.30635 -0.190934 -2.16931e-19)
(-0.73685 -0.130107 3.98669e-19)
(2.03171 0.506172 2.61693e-20)
(1.05989 -0.0311219 0)
(0.500841 -0.271433 1.28879e-19)
(1.00694 0.0271029 2.35746e-19)
(0.800107 -0.405343 -2.49809e-19)
(-0.0619808 0.457754 0)
(1.05559 -0.440728 6.76137e-19)
(1.25141 0.164671 2.0396e-22)
(1.04539 -0.451716 -2.93682e-19)
(2.39062 0.0996859 1.87102e-19)
(1.37264 0.848151 0)
(0.889749 0.0252084 0)
(0.0284505 0.150576 -6.46507e-20)
(-0.0475777 0.0565118 1.88818e-19)
(1.00073 0.413963 -2.28806e-19)
(-0.093877 -0.119893 -1.20532e-20)
(0.700939 0.483398 2.62197e-19)
(0.984735 -0.460729 0)
(0.49313 -0.45774 0)
(-0.0793111 0.776168 -2.67113e-21)
(1.16804 -0.466744 -1.45157e-19)
(0.66592 0.0273145 1.85214e-21)
(0.718608 -0.0826792 1.39507e-19)
(-0.123362 0.186047 -3.3664e-19)
(1.73991 -0.306519 2.68681e-19)
(0.721949 0.67419 0)
(1.35432 0.743748 0)
(1.68966 0.263987 0)
(-0.225982 -0.0766907 -4.43152e-20)
(1.40924 0.626584 2.60234e-19)
(1.93465 -0.00408947 -1.76363e-21)
(0.982796 -0.0182111 0)
(1.85151 0.405971 0)
(1.88352 -0.0769978 -1.80471e-19)
(1.05181 0.0275367 3.01479e-19)
(1.00499 0.00838247 -2.35004e-19)
(1.58744 0.517418 0)
(-0.107052 0.428319 0)
(1.30719 0.344476 3.18062e-19)
(1.08679 0.57764 -1.4071e-19)
(1.08383 0.0345411 0)
(1.26994 -0.402375 0)
(2.1895 0.69647 -3.73618e-19)
(-0.125978 0.375838 -1.16411e-21)
(0.993364 0.0170407 0)
(0.766423 0.543444 -3.60797e-20)
(0.871744 -0.766911 0)
(0.998569 0.0193943 5.49013e-20)
(-0.0278299 0.955214 -2.89417e-20)
(0.863564 -0.274574 3.86929e-19)
(0.0132936 1.2376 7.83095e-20)
(2.01741 -0.131016 -6.06231e-20)
(1.83654 0.18716 3.862e-20)
(0.758561 -0.0267117 0)
(0.997158 0.0149923 0)
(-0.560642 -0.270638 0)
(0.725772 0.69548 -2.00427e-19)
(-0.105372 0.147471 2.26684e-19)
(1.22725 0.385434 -5.10716e-19)
(-0.338488 0.540507 0)
(0.893739 0.704489 1.80241e-19)
(0.963818 -0.288083 0)
(1.0057 0.00182849 1.37327e-19)
(0.57206 -0.496689 1.97574e-20)
(1.09201 0.447489 2.80271e-19)
(1.73662 -0.101368 0)
(2.21231 0.0462277 -6.69387e-20)
(0.81458 -0.0543664 -4.31345e-19)
(-0.951189 -0.461811 -2.96242e-19)
(1.22538 -0.274256 0)
(0.915551 0.29309 1.95042e-19)
(1.79134 -0.204328 0)
(0.83562 0.585766 3.90835e-19)
(-0.862007 -0.22999 1.51874e-19)
(-0.129447 0.187203 0)
(0.647811 0.617676 -7.57318e-20)
(0.968548 -0.591221 -2.14126e-19)
(0.427172 -0.149997 -1.42977e-19)
(1.01864 -0.0022006 0)
(0.00842012 0.223361 -2.31178e-19)
(0.584601 -0.512995 1.02475e-19)
(0.948936 0.340011 0)
(1.24155 -0.038164 -1.35386e-19)
(1.05762 0.901355 2.55656e-20)
(-0.404373 1.01032 1.2275e-20)
(-0.0254049 0.0855833 -3.345e-20)
(0.181453 0.134861 -6.24023e-19)
(-0.0303043 0.0322948 2.02831e-21)
(0.870161 0.417682 2.69577e-19)
(-0.251086 0.459612 -6.34975e-21)
(1.33779 -0.605705 2.99015e-21)
(1.01913 0.0245801 -4.11576e-19)
(-0.364793 -0.0703315 0)
(1.0444 0.0509974 -4.74923e-19)
(1.921 -0.205752 3.40899e-20)
(0.9536 0.749837 3.01306e-19)
(1.11411 -0.0557302 1.98461e-19)
(0.997959 -0.00856308 1.9046e-19)
(-0.0581573 -0.577129 1.33435e-20)
(0.116895 0.161742 1.04427e-21)
(1.63286 -0.818478 1.34498e-20)
(1.07018 -0.119036 -1.12281e-19)
(0.75019 0.0488029 1.30403e-19)
(0.875464 -0.247011 1.10439e-19)
(1.43633 0.218615 0)
(1.03113 0.794374 0)
(0.528297 -0.651073 -2.35425e-20)
(1.99823 0.184028 -2.23794e-20)
(-0.824216 -0.200468 1.27754e-19)
(0.975556 -0.490337 -6.953e-19)
(0.562543 -0.474084 4.8342e-19)
(1.7145 0.0254733 -1.62068e-19)
(-0.172849 -0.106326 1.84345e-21)
(0.659512 0.670779 0)
(0.76711 0.184919 -7.64247e-21)
(0.531958 0.637216 1.52527e-19)
(1.11193 0.81981 0)
(0.0811792 0.866091 0)
(0.487167 -0.210473 0)
(0.0359135 0.0719389 -1.43787e-20)
(-0.0567581 0.158055 0)
(1.79237 -0.0479207 3.41391e-19)
(1.27007 0.201292 7.2237e-21)
(-0.930517 -1.37607 1.46969e-19)
(1.99853 0.803683 1.73929e-20)
(1.95274 0.44597 -8.82502e-20)
(2.01433 -0.304622 2.91354e-21)
(-0.207433 0.040694 -2.67369e-19)
(-0.17452 -0.14944 8.67321e-22)
(1.54223 0.185575 0)
(0.689502 -0.0348841 0)
(1.00061 0.00239639 1.67354e-22)
(-0.268776 -0.0647022 0)
(1.39122 -0.00531162 8.57491e-20)
(0.688172 -0.0310523 0)
(1.03579 0.0185627 1.59415e-19)
(0.986629 0.0179038 -5.36046e-20)
(1.58844 -0.309774 1.65597e-19)
(1.07575 -0.0105278 -1.08752e-21)
(0.919108 -0.151233 -6.61519e-20)
(1.01628 -0.0134314 4.45473e-19)
(0.616903 -0.551586 2.34608e-19)
(-0.776185 -1.33671 -1.64965e-19)
(1.75605 0.762873 1.96338e-20)
(-0.0565499 0.0775586 0)
(1.20294 0.8529 0)
(1.01764 0.0133273 0)
(0.943472 -0.72091 -1.55139e-19)
(0.96976 -0.831671 1.21404e-19)
(0.882217 0.00188913 3.5844e-20)
(-0.371952 -1.0376 -4.37585e-19)
(0.091442 0.605217 -2.23342e-20)
(0.530352 -0.304769 -7.59437e-19)
(1.92964 0.651445 -2.70022e-20)
(0.408869 0.992991 -2.96977e-20)
(1.94047 -0.275582 -3.71459e-20)
(0.661587 0.139571 1.89121e-20)
(0.0589304 0.0953589 -3.45123e-20)
(1.17964 0.602284 2.12232e-19)
(-0.281218 -0.0815512 0)
(-0.0475634 -0.235268 4.13009e-20)
(-0.121401 -0.0433761 1.62845e-22)
(1.0318 -0.0416802 3.91381e-19)
(1.01814 0.0155033 -1.02058e-20)
(1.11398 -0.00714267 -1.0834e-19)
(0.324226 -0.61195 8.6301e-20)
(1.71786 0.32909 6.07957e-20)
(0.351195 -0.324101 -3.83526e-19)
(1.13542 -0.187436 -7.08071e-20)
(1.02465 0.0170863 -2.93546e-19)
(1.30272 0.569982 -2.02202e-20)
(0.702656 -0.541544 0)
(1.18011 0.640299 -3.9709e-19)
(1.00271 -0.00116832 1.1211e-19)
(0.738411 0.666425 2.77412e-19)
(0.842287 0.603932 8.40291e-21)
(1.0834 -0.000448178 -3.52745e-20)
(1.14054 0.0207074 1.00458e-21)
(2.05389 -0.273335 1.35124e-20)
(0.189983 0.0816948 0)
(1.04636 -0.0382837 0)
(1.04925 -0.0333854 6.86352e-19)
(1.00265 -0.000849667 0)
(-0.0557519 -0.00434439 0)
(0.893756 -0.530595 0)
(1.00096 0.00160027 -6.52159e-19)
(1.09225 -0.633553 1.32627e-19)
(1.02124 0.00252111 1.38034e-20)
(1.44039 1.01814 -2.4096e-20)
(1.63863 1.06867 -4.20729e-20)
(0.246178 0.552898 3.62626e-20)
(1.28868 -0.283844 7.89527e-20)
(1.97342 0.246852 0)
(0.0306956 0.346728 0)
(1.78789 -0.170251 3.3818e-20)
(0.0351482 0.549251 0)
(0.999652 -0.00380219 -2.00968e-19)
(1.01049 -0.000708161 3.90889e-19)
(1.49991 0.142312 -7.78218e-20)
(0.0142631 -0.111608 5.91712e-20)
(0.982409 0.00159292 2.12115e-19)
(0.703355 -0.258405 -6.4972e-21)
(2.27524 -0.0545501 -1.33319e-20)
(0.231925 -0.487233 5.9787e-22)
(0.921858 0.0193995 -2.17209e-19)
(1.00351 0.00515907 2.53823e-19)
(0.999971 0.00067574 1.49644e-20)
(0.790586 -0.012787 0)
(0.73205 -0.0262017 0)
(0.729241 -0.0266015 9.53414e-22)
(0.707291 -0.0288541 0)
(1.49146 0.269617 0)
(2.06 0.104111 0)
(1.93353 -0.166752 2.40271e-20)
(2.18681 -0.0923787 -1.64326e-20)
(1.55556 -0.622726 0)
(0.630405 -0.39943 -4.10894e-20)
(-0.219931 0.015811 0)
(0.710784 -0.113636 0)
(0.288099 -0.0239515 0)
(-0.0362246 0.0870521 1.65313e-20)
(0.892728 0.288944 -4.18891e-20)
(0.77114 0.0238575 0)
(0.782889 0.0197305 0)
(0.962346 0.0223668 -2.67216e-19)
(0.813172 0.00794907 4.95281e-19)
(1.00867 -0.00126895 0)
(1.00033 -0.000321052 4.68509e-19)
(1.00024 -0.000393232 -2.09643e-22)
(0.78062 0.0221257 4.24659e-19)
(0.999719 -0.00510131 -2.43632e-19)
(0.943491 -0.199916 0)
(2.08479 -0.0673643 1.33421e-20)
(1.00079 -0.000109848 -2.36228e-19)
(0.999775 0.00267029 -4.06376e-19)
(0.525559 -0.276918 0)
(0.998899 0.00209294 0)
(0.999729 0.000666962 0)
(1.25586 0.354219 5.50603e-20)
(0.186051 0.721141 -4.5419e-20)
(1.56027 0.32121 0)
(-0.415189 0.544883 2.4928e-19)
(0.140439 -0.673042 -2.83565e-19)
(1.02221 -0.00748022 -3.15488e-19)
(-0.0885727 -0.0222685 -3.05113e-20)
(1.01631 0.0133916 -2.55084e-19)
(1.11206 -0.197933 -1.63349e-19)
(0.748822 -0.413801 3.813e-19)
(0.00563017 0.033223 -1.81545e-20)
(1.02561 0.0197898 0)
(1.0783 -0.00740565 -6.76405e-20)
(0.840115 0.0300988 0)
(-0.105567 0.144181 3.33267e-19)
(-0.229036 0.703782 0)
(-0.165004 0.0172567 -9.48982e-20)
(0.605429 -0.2039 -1.13839e-20)
(1.77129 0.71428 1.94802e-20)
(-0.0816726 0.0203197 0)
(1.05401 -0.0365378 2.12283e-19)
(0.130097 0.506716 -3.19202e-21)
(0.930375 0.0288854 3.30815e-19)
(1.01477 -0.00203561 -2.14436e-19)
(1.79557 0.909027 5.70362e-20)
(0.579075 0.548437 0)
(0.508415 0.483651 2.1828e-19)
(1.86961 0.356451 3.26527e-21)
(1.19422 0.143327 2.19153e-19)
(1.02484 -0.661084 0)
(1.02459 0.0121245 0)
(1.00111 -0.0154624 -4.92987e-19)
(1.01677 0.0210034 -4.8445e-19)
(-0.0647738 0.0116286 0)
(1.30493 0.879668 -1.32957e-19)
(0.825998 0.20225 -8.94539e-21)
(1.01652 0.011849 1.85746e-19)
(1.01091 0.0176533 -2.33494e-19)
(-0.204514 0.152158 -1.07964e-20)
(0.405236 0.832755 3.796e-20)
(1.02097 -0.00858641 7.90669e-19)
(1.52799 -0.0195501 0)
(2.00553 0.669442 -6.69222e-20)
(1.01718 -0.00490461 -2.46763e-19)
(1.99601 0.00700972 -1.38306e-20)
(1.07311 0.0162989 -5.64574e-22)
(1.01008 -0.00651713 4.91845e-20)
(1.89427 -0.209896 2.15303e-20)
(1.01549 0.0104021 2.40316e-19)
(0.835936 0.935129 -6.3114e-21)
(1.01774 0.0123494 0)
(0.962352 0.191758 5.62766e-20)
(-0.948579 -0.944544 2.88889e-21)
(0.996824 0.023587 2.38875e-19)
(1.03948 0.0220469 -4.97051e-22)
(0.761392 0.351804 2.86765e-20)
(1.32722 0.343603 4.53973e-19)
(0.992395 0.0209198 1.64773e-19)
(1.01878 -0.0081729 5.72892e-22)
(1.8458 0.229165 -2.1375e-20)
(1.95433 1.02468 -1.31572e-19)
(0.719096 -0.643664 8.3953e-20)
(0.392707 -0.230096 -3.63075e-19)
(1.00982 -0.00624205 0)
(1.01915 0.00762817 5.96577e-20)
(1.01171 -0.00354563 1.25298e-19)
(0.285865 0.739828 -2.83148e-20)
(1.01309 0.0134108 -2.50157e-19)
(1.02166 -0.00965207 2.89074e-19)
(1.0098 -0.00263178 -2.34076e-19)
(1.01405 0.012339 -5.54811e-22)
(1.01337 0.00910992 -4.23981e-22)
(1.02195 0.0208514 2.39887e-19)
(0.918345 0.135921 5.85581e-19)
(2.28115 0.453534 0)
(0.358753 -0.453855 4.18425e-20)
(1.00932 0.00351052 0)
(1.02503 -0.00795177 -6.91997e-20)
(1.62413 0.457618 -8.52906e-20)
(1.85708 -0.16442 0)
(1.13598 0.0425946 1.01962e-19)
(1.57935 0.21309 -6.71342e-20)
(0.798101 -0.0210324 0)
(1.60679 -0.211812 0)
(0.963224 0.217717 -3.58659e-19)
(0.237 -0.280198 3.78759e-20)
(1.01773 0.00397238 -2.51559e-19)
(1.05875 -0.519858 -8.46179e-20)
(0.695398 0.25474 3.72738e-20)
(1.05482 0.988742 0)
(1.14725 0.641413 0)
(2.37718 0.440597 0)
(-0.00282626 0.224688 1.19701e-19)
(0.53381 0.708919 1.22004e-19)
(0.334149 0.0435766 0)
(0.110331 0.367758 -3.01919e-19)
(1.82344 1.02592 -8.37628e-20)
(1.00667 0.00230134 -4.92139e-19)
(0.28842 0.59718 -1.53828e-20)
(1.02025 0.0203721 3.26398e-19)
(0.713498 -0.0461567 0)
(-0.116743 -0.0124259 -5.42603e-21)
(0.67219 0.510578 -3.69977e-19)
(1.97785 0.442901 2.00252e-19)
(0.127265 0.32863 0)
(0.743314 0.0692996 1.07835e-19)
(0.573774 0.551781 5.54433e-20)
(1.26983 0.946662 -3.53737e-20)
(-0.0655586 -0.049312 2.60827e-20)
(1.02587 0.0267461 0)
(0.793966 1.03898 3.7591e-20)
(1.01133 0.00467646 1.84493e-19)
(2.24386 -0.194975 0)
(1.01036 0.0139085 3.09865e-19)
(-0.0327282 -0.160819 -1.7116e-20)
(1.01945 0.0195171 -1.91732e-19)
(1.18377 0.623017 0)
(1.91312 -0.123784 -2.20615e-22)
(1.00876 0.00942748 -1.28547e-19)
(0.995445 -0.000906974 3.38614e-19)
(1.13171 0.116419 -4.45279e-21)
(1.2163 1.04071 1.14394e-20)
(-0.120889 -0.105831 7.12679e-20)
(2.20202 0.194962 2.1794e-19)
(0.596822 1.04592 -1.83993e-20)
(0.797244 0.0145484 -4.65405e-19)
(0.83259 0.0315398 0)
(0.121436 0.966842 1.43302e-21)
(1.02676 -0.00248383 -3.71436e-20)
(0.9727 0.0557413 0)
(1.05895 0.00772543 -2.34579e-19)
(0.385769 1.14227 7.95807e-20)
(-1.01441 -0.551228 1.01662e-19)
(2.03534 -0.540434 0)
(-0.514514 -1.11035 -6.39129e-19)
(1.43523 -0.32142 0)
(1.04279 -0.0141116 6.8966e-20)
(1.04887 -0.57405 -3.24914e-21)
(1.01131 0.00760045 2.00059e-19)
(-0.427858 -0.147826 4.23848e-19)
(1.02018 0.0107555 0)
(0.993839 0.00384678 -4.76674e-19)
(1.00742 0.0128398 2.54065e-19)
(1.70998 -0.491851 0)
(1.35199 -0.41966 1.80201e-20)
(0.956486 -0.000915374 -2.16942e-19)
(-0.114094 -0.0540885 9.13328e-20)
(1.00338 0.00218945 -2.4764e-19)
(0.998529 0.0463282 -5.82175e-19)