/*--------------------------------*- C++ -*----------------------------------*\
| =========                 |                                                 |
| \\      /  F ield         | OpenFOAM: The Open Source CFD Toolbox           |
|  \\    /   O peration     | Version:  2306                                  |
|   \\  /    A nd           | Website:  www.openfoam.com                      |
|    \\/     M anipulation  |                                                 |
\*---------------------------------------------------------------------------*/
FoamFile
{
    version     2.0;
    format      ascii;
    arch        "LSB;label=32;scalar=64";
    class       surfaceScalarField;
    location    "23.8";
    object      phi;
}
// * * * * * * * * * * * * * * * * * * * * * * * * * * * * * * * * * * * * * //

dimensions      [0 3 -1 0 0 0 0];

oriented        oriented;

internalField   nonuniform List<scalar> 
3181
(
-1.0135
0.393377
0.620119
-0.374735
0.352476
0.022259
0.503121
-0.345897
-0.157225
0.112773
-0.188575
0.0758014
-0.0691846
0.0747029
-0.0055183
0.542405
1.26265
-1.80505
0.141437
-0.135434
-0.00600346
0.0127332
0.000604053
-0.0133373
0.528144
-0.70397
0.175826
-0.0762667
0.1278
-0.0515336
-0.0106825
-0.0544862
0.0651687
0.11795
0.0464629
-0.164413
-0.00236054
-0.0102949
0.0126555
-1.0969
0.1547
0.9422
-0.314357
0.671545
-0.357187
-1.12415
0.642964
0.481191
0.0834896
-0.930543
0.847054
-0.1496
0.0450002
0.1046
-1.49314
-0.150184
0.00235389
0.0655716
-0.0679255
0.0529062
-0.09582
0.0429139
-0.0610514
0.0594417
0.00160969
1.06214
-1.03943
-0.0227115
0.0233619
0.0312277
-0.0545896
-0.956679
0.331346
0.625333
-0.105149
0.217922
0.301444
-0.256849
-0.044595
0.0280148
0.0589199
-0.0869347
-0.428559
0.35376
0.0747992
-0.0347591
-0.0232164
0.0260558
-0.00283945
-0.0425361
-0.914143
0.0677477
-0.0529919
-0.0147559
0.329167
1.43246
-1.76163
-0.0495388
0.0407
0.0088388
0.187515
0.286774
-0.474289
1.93286
-1.6037
0.0773934
-0.0244872
1.61733
-0.873741
-0.743589
-0.803823
1.34623
-0.0357128
0.0333522
-0.0498758
-0.0111755
-0.392789
0.0784313
-0.150409
0.100533
-0.650517
0.125911
0.524606
-0.138138
0.0618711
-0.160865
0.164794
-0.00392902
-0.259604
-0.0745407
0.334145
0.273487
1.14988
-1.42337
0.0619064
0.0541356
-0.116042
-0.0208625
-0.105907
0.112419
-0.00651162
0.49505
0.176494
-0.0943368
0.153594
-0.0592575
0.0848373
-0.0170896
-0.162549
0.187229
-0.0246793
0.156297
0.0542795
-0.210577
0.102863
-0.108503
0.00563904
1.24666
0.370669
-0.835711
-0.177786
-0.0505446
-1.60224
1.65278
0.567634
0.242836
-0.81047
-0.46023
-0.216224
0.676454
-1.19996
0.396136
-0.283554
0.851188
-0.309679
-0.10068
0.41036
-0.214579
-0.21398
-0.182259
0.172183
0.0100769
0.155043
0.276021
-0.431064
-0.148194
0.676338
-0.0107075
0.0234408
-2.02281
1.97227
0.170689
0.130755
-0.166515
-0.109816
0.27633
-0.267315
0.368521
-0.101207
-0.0752094
0.0835488
-0.00833941
-1.74932
-0.919874
0.0110488
0.908825
-0.0307762
-0.0187626
-1.13624
0.828678
0.307558
0.150747
-0.199709
0.0489623
-0.969577
-0.230381
1.10182
-0.94712
-0.743784
1.14355
-0.201354
1.05928
0.180401
-0.17041
-0.00999141
1.79148
-0.528835
1.32394
-1.32394
-0.0078351
-0.00057274
0.00840784
-0.20015
-0.0525879
0.252738
0.106003
-0.075034
-0.030969
-0.45552
0.81913
-0.36361
-0.0338937
-0.216475
0.250369
-1.08146
0.0420298
0.361447
0.0578447
-0.419291
0.128386
-0.88602
1.12886
0.0793891
0.0146018
-0.0939909
-0.0177717
-0.144778
0.0512983
-0.170051
0.118753
-0.0362303
0.0875286
0.125577
-1.0116
0.315366
-0.770886
0.923546
-0.840056
-0.0143666
0.1364
-0.122033
0.0917952
0.0547709
-0.146566
-1.3333
-0.0777743
1.41107
-0.2302
0.393121
-0.162921
-1.01733
0.313664
0.703665
-0.494541
-0.641695
0.11194
-0.0500333
-0.14578
0.140441
0.00533899
-0.0796267
-0.0193848
0.0990115
-0.511322
-0.192648
-0.0303616
0.00950971
0.0208519
-1.02516
-0.396457
1.42162
1.64508
-0.495197
-0.01308
0.00524489
0.020683
0.150006
-0.209002
0.396517
0.0457298
0.0228093
-0.0685391
0.146146
0.0718555
-0.218002
0.239556
-0.208065
-0.0314911
-0.593763
-0.530391
-1.283
0.257836
-0.030585
0.109974
-0.0961071
0.173625
-0.0775177
0.0899561
0.0235589
0.117878
-0.0558752
0.0627931
-0.00691789
-0.088893
-0.0190166
0.10791
0.0707424
-0.0707424
-0.176848
0.200407
0.114517
0.0998654
0.0990004
0.0882283
-1.18693
1.03873
-1.55532
0.0772662
1.47806
0.0102952
-0.00992086
-0.000374362
-0.0280836
-0.0544967
0.0825802
0.516826
-0.0211909
-0.495635
-0.00383027
0.00392583
-9.55628e-05
-0.190712
0.0138638
0.167497
0.651633
-0.353314
0.520811
-0.164385
-1.16891
-0.0693807
0.000196111
0.467271
-0.289839
-0.177432
0.120176
-0.104608
-0.0155687
0.0464221
-0.306027
0.0226845
-0.942558
0.0476682
-0.143775
-0.271664
-0.38422
0.0860642
1.43191
-0.965161
-0.466747
1.11085
0.321061
0.064192
0.269953
0.00954046
0.000754761
-0.123871
0.150146
-0.0262744
-0.248294
-0.598314
0.846607
-0.340016
0.298338
1.08672
-1.2369
0.141312
0.0295837
-0.0484412
0.0188575
-1.92251
0.199829
1.72268
-0.146987
-1.77553
-0.318202
0.679649
-0.907859
-0.0149499
0.00554461
-0.27945
0.273906
1.47485
-1.60905
0.134195
-0.0824405
0.0130598
0.583014
-0.831308
-0.0429076
-0.192186
0.235094
-0.304125
-0.127754
0.431879
0.170896
-1.00861
-0.0728517
-0.015343
-0.0525825
-0.581353
0.365129
-0.25831
0.0193303
0.23898
-0.0492112
-0.0332294
0.00218415
-0.00218415
-0.127295
0.140012
-0.0127173
-0.248308
-1.30701
0.0268772
0.00365215
-0.0305293
-0.123265
0.0612822
0.0619828
-0.231426
0.0491666
1.4361
-0.313247
-1.12285
-0.176186
0.430335
-0.254149
0.00199627
-0.00208761
9.13384e-05
-0.857025
-0.160304
-0.194876
-0.00494017
0.199816
-0.161876
0.316919
-0.108319
0.106554
0.00176532
0.0803259
0.0153166
-0.0956426
-0.0891518
0.0859679
0.0031839
-0.307839
1.11064
-0.802797
-0.210329
-0.0487296
0.259058
-0.681708
0.661805
0.019903
-0.00391525
0.035143
0.040441
-0.0417302
0.00128912
-0.00477403
-0.0498156
1.08324
0.561837
0.170638
-0.896375
0.725738
-0.0222026
1.9234
-1.9012
0.366591
0.546753
0.777189
0.0739676
0.214621
-0.0684745
-0.0757617
-0.0301452
0.223743
0.167991
-0.0761957
0.734071
-0.402725
0.0584637
0.194275
0.0583052
-0.176777
0.118472
-0.746593
-0.133104
0.879696
-0.00496325
0.00496325
-0.0673585
-0.279202
0.565976
0.0119553
-0.222284
-0.0424571
0.0874573
0.0424912
-0.0730762
0.144472
-0.155155
-0.346216
0.312322
0.045305
0.0273721
-0.0726771
0.367842
-0.321379
0.46884
-0.27432
-0.19452
-0.197639
0.261832
0.180129
-0.469968
-0.197818
0.591195
0.157464
-0.0313138
0.0313138
-0.29553
0.225085
0.0704442
0.365166
0.0279542
-0.00877654
0.00895979
-0.000183252
-0.10144
-0.0185386
-0.011823
-0.0512547
0.195727
-0.189899
0.253398
-0.063499
0.139534
0.0284572
-0.381053
0.124203
0.202809
-0.063275
-0.0486131
-0.0597059
-0.0176689
0.0249537
-0.00728482
0.140114
-0.0996097
-0.0405047
-0.032622
0.41298
-0.380358
-0.0426475
0.0319399
0.110993
-0.115576
0.00458222
0.0247217
0.36602
0.10282
-0.0618222
0.00845278
0.0533694
-0.0520941
0.0380703
0.0140238
-0.098838
0.0966965
-0.720134
0.623438
-0.00883561
-1.39088
-0.495423
1.8863
0.315689
1.25455
-1.57024
0.0781842
-0.228209
0.0201437
0.292423
0.258668
-0.551091
-0.21173
0.270035
0.128207
-0.861201
0.732994
-0.0213698
-0.0307242
-0.0325826
0.0172396
-0.981299
0.440574
0.540725
0.965161
-0.839585
-1.62762
1.54984
-1.47485
1.55212
0.036744
-0.0960016
0.00840472
0.0320363
0.00577185
0.768152
-0.639946
0.114014
-0.0663461
0.410494
0.73306
-0.0937948
-1.67123
1.64903
-0.629629
-0.557298
-0.243149
-0.407368
-0.00929523
-0.158193
0.204615
-0.570805
-0.355162
0.178976
0.743251
-0.226425
-0.860871
-0.766745
0.753652
0.0572913
-0.0786611
0.267415
0.0352138
-0.0352138
0.669536
0.15036
-0.819896
-0.226491
0.896027
0.356808
-0.619043
0.262235
0.115797
-0.0159317
0.00622845
0.00660335
-0.0128318
-1.60224
-0.84954
0.354343
1.00181
0.434291
-0.0331079
-0.127757
-0.230072
0.725122
-0.207538
-0.0507724
-0.00267885
-0.0725305
-0.0584464
0.113217
0.387508
-0.261597
-0.794014
-0.299937
-0.0990817
0.00798954
0.0910922
-0.955766
1.50252
-0.1139
0.109149
0.00475087
0.0171199
-0.0075794
-0.0512448
0.0383449
0.0128999
0.00942945
0.40093
0.078876
0.0413003
0.0187617
0.0186752
-0.0374369
-0.0171725
-0.177704
-0.743912
0.386053
0.357859
0.898746
-2.09918
1.20044
0.145212
-0.16756
0.0223476
0.00302908
0.108911
0.0148431
-1.33879
-0.0436187
-0.00762612
-0.092042
0.0420087
0.151102
-0.360104
-1.86445
0.544261
1.32019
0.0386445
0.0881418
0.0519727
-0.746593
0.382086
-0.689924
0.0568026
-0.0184577
0.0458599
-0.641113
-0.0405946
0.0637552
0.139053
0.253611
0.0226432
-0.453707
0.116243
0.362988
-0.305143
-0.106692
0.0177994
0.220166
0.843293
-1.06346
0.105978
-0.703414
0.597436
-0.91041
0.777306
-1.55621
0.0704406
1.48577
-0.00173916
0.0017415
-2.34423e-06
0.180969
-0.485094
0.223057
-0.1304
-0.0926573
0.0500157
-0.0119454
-0.0211519
-0.0779298
-0.0027791
0.0217394
-0.0265134
0.0197696
0.0901393
-0.109909
0.672497
0.00733244
-0.00735375
2.13177e-05
0.0437091
-0.0117692
0.863129
0.0503737
-0.0373138
-0.311731
-0.537809
0.104532
0.011265
0.00711284
0.0810289
-1.48577
1.33879
0.177545
-0.0994581
-0.0780872
-0.264879
0.0944695
0.120489
-0.13048
-0.00122118
0.08477
-0.00322622
-1.92831
0.0638611
-0.0522418
0.0720114
0.741165
-0.259974
-0.117184
-0.00608055
0.358251
-0.000838146
-0.00793839
-0.0073454
0.0780878
0.141711
0.226811
0.157751
-0.346372
0.188621
0.102717
0.548916
-0.0283104
-0.109827
0.892865
-0.245433
-0.647432
-1.55621
-0.550034
1.44878
1.93286
-0.0315474
0.217801
-0.186253
0.394021
-0.0786628
-0.315358
0.095581
-1.06516
-0.0803201
0.0816633
-0.00134317
0.123978
-0.158761
0.0347832
0.468382
-0.846225
0.377843
0.0388334
0.665249
-0.704082
-0.0422139
-0.103566
-0.0287529
-0.0330693
0.0155664
-0.311096
-0.00143206
-0.000307099
-0.0129817
0.0585945
-0.0456127
0.0146453
-0.138517
0.0036542
0.0134657
0.03104
0.10536
-0.0368893
-0.00484089
0.204017
-0.420493
-0.134881
1.38944
0.00282455
0.0021387
-0.98976
-0.0188477
0.128994
-0.0676316
-0.0390609
-0.145935
0.103027
0.497284
-0.788708
0.291424
0.0645244
0.0400077
-0.937221
-0.00989923
-0.00313618
-0.64959
0.746287
-0.0166333
0.174097
0.0879955
-0.707039
0.187413
-0.428109
0.240696
-0.0249032
0.0477125
0.0012299
-0.00156255
0.000332646
-0.0312196
-0.0579322
-0.0194025
-0.125375
0.733202
-0.627223
-0.0594771
0.0241156
-0.0992549
0.325099
-0.167348
0.151271
1.09694
-0.460072
-0.63687
-0.126918
0.146249
-0.511516
-0.232396
-0.545835
0.585699
-0.570335
-0.0153639
-0.0600641
0.000587048
-1.67123
0.563148
-0.563148
-1.86945
1.86945
0.768152
-0.0356047
0.00693412
0.0286706
-0.898469
-0.0912912
0.658203
-0.38243
-0.275773
0.149388
-0.226905
-0.0109118
-0.00216817
-0.921858
-0.089738
-0.933363
0.213229
0.0404034
-0.0324138
0.696527
-0.099022
-0.597505
1.55486
0.378006
-0.00248559
0.00371549
-0.959932
0.475044
-0.749365
-0.0928974
-0.619752
0.712649
-0.0213177
-0.894248
-0.714801
0.221904
-0.815667
-0.879696
1.31062
-0.430922
-0.134042
0.268762
-0.13472
-0.0360758
0.732603
-0.111302
-0.976062
0.976062
-0.783085
0.54424
0.238846
0.00214636
0.00518608
0.047967
-0.45136
0.893264
-0.0645868
-0.0913994
-0.032535
0.0364243
0.000890858
0.00110542
1.91041
-1.83997
-0.355572
0.435898
-0.662108
1.05339
-0.391284
-0.00615271
-0.037466
0.131039
-0.059183
0.334556
0.000302334
-0.0105973
0.359332
0.0536483
0.0448222
-0.259495
0.214673
0.132523
0.032271
0.102955
0.190035
1.80468
0.167582
-0.227729
0.634802
-0.407073
-1.24362
1.44345
0.273368
-0.172835
0.0740224
-0.765988
0.691966
-0.263334
0.113032
-0.459248
-0.074318
0.125976
-0.0516579
0.118422
-0.19274
-0.467368
-0.113985
-0.077207
0.0806249
-0.00341796
-0.00616932
-0.0307199
0.015835
-0.0329246
0.639946
-0.597436
-0.04251
-0.279383
0.291338
0.882126
0.667376
-0.273355
-0.00587938
0.00953154
-0.289337
0.097151
0.161574
-0.559441
0.397867
-0.00180127
0.000238716
0.427001
-0.241209
-0.185791
0.00843845
-0.0148376
0.00639916
-0.0275757
0.0195611
0.00801466
-1.34942
0.820585
-0.0750734
-1.31581
-0.2087
-0.839585
1.55212
1.54984
-0.183599
-0.164725
0.115996
-0.0679076
0.074099
-0.00619134
-0.481584
0.886614
-0.40503
0.573576
0.0846268
-0.000906254
-0.000895013
0.127677
-0.738738
0.032535
-0.05664
0.00439827
-0.287686
-0.00165179
-0.0490077
0.0914989
-0.221636
0.589478
1.11085
-0.212642
-0.0573316
0.00100697
0.0563246
1.94453
-0.394684
-0.0575313
-0.0509712
-1.0042
0.164617
0.374374
-0.203478
-0.48703
-0.142903
0.629933
0.844116
-0.380823
-0.463293
0.0277448
0.469539
-1.64903
0.0467866
-0.0116919
-0.0431939
0.0548859
0.220865
1.70254
-0.161876
0.168104
0.193594
2.15087
-0.598749
-0.670227
0.0430086
0.627218
0.400447
0.017932
-0.358409
0.513179
0.781694
0.145811
0.072035
-0.0200623
-1.10914
0.287276
0.821866
1.22267
0.0741629
-0.0554012
-0.054162
-0.370121
0.116894
-0.328624
0.480446
0.616497
-0.0447678
-0.0152963
0.248605
-0.280152
-0.0213013
0.0173861
0.105566
-0.140373
0.0348064
-0.286188
0.298407
-0.0122181
0.198258
-0.658331
-1.38266
0.130343
1.25231
0.103217
-0.131829
0.0286114
0.286006
0.0390928
-0.0415523
0.423638
-0.670543
0.670543
1.65278
1.55486
-0.703414
0.314914
0.46678
-0.150643
0.221087
0.959564
-0.385988
0.0108357
-0.884289
0.873453
0.11929
0.0085108
0.0250774
-0.405848
0.364295
0.0815208
-0.164585
-0.112752
0.277338
0.096571
-0.491884
0.327299
-1.12205
-0.299598
-0.659707
-0.0176294
-0.00669344
-0.000660315
-0.229478
0.0303867
0.0607055
0.0320561
-0.156622
0.124566
-0.525267
-0.257818
-0.00531722
0.0642371
-0.347129
0.154645
0.192484
-0.544058
0.366626
-0.106161
0.133533
0.2247
-0.00639054
-0.026192
-0.86633
0.553083
0.0366759
0.0743174
-0.111714
0.0124589
0.214379
0.0086785
-0.441053
1.73753
0.479641
0.228954
0.865268
-0.791246
0.818156
-0.459904
-0.636991
0.18563
0.158252
-0.797989
0.777857
0.0201323
1.08477
-0.604324
-0.21483
-0.140742
-0.0928232
0.0177892
0.9503
-0.83943
-0.11087
-0.195653
0.119458
0.0261325
0.114309
0.877448
0.0497868
-0.0301844
-0.0196024
-0.314596
-0.0405654
-0.143009
-0.20412
0.0968288
1.31424
1.65918
-0.10432
0.162689
0.548518
-0.711207
0.135636
0.0532356
-0.0166387
0.0102482
-0.526836
-0.110155
0.055271
-0.104482
-0.198124
0.146869
-0.51268
0.258531
-0.992479
-0.47465
-0.296473
-0.751814
1.50953
-0.0314725
-0.296289
-0.308828
0.021142
0.479541
0.315016
0.0443158
1.2077
-0.739314
-0.202123
0.138848
-0.10155
-0.24503
0.34658
-0.0239444
0.0122525
0.0520675
-0.0597833
-0.226405
-0.107409
0.697059
-0.426387
-0.270672
-0.138617
0.125501
-0.090725
-0.0347755
0.246309
0.0687073
-0.061289
-1.50895
-0.101219
0.147079
0.310251
-0.260464
-0.00501711
0.0190409
-0.0268432
0.0122827
0.0145605
-0.00126817
-0.00865269
-0.254167
0.0773892
-0.0625989
-0.533653
0.399611
0.0268325
0.0443385
0.0588786
-0.697336
1.63251
-1.01601
0.015744
-0.203497
0.187753
-0.144857
-0.527625
0.672482
0.0636512
-0.704765
-1.05762
-0.325032
-0.00863932
-0.000538357
0.00917767
-0.236491
-0.585699
-0.160894
-0.127184
-1.10914
-0.2431
0.174625
-0.0476497
-1.17282
-0.194286
0.2404
-0.0461146
0.252414
0.105675
0.463007
0.303776
-0.766783
0.0162571
0.0410342
0.931823
0.283527
-1.21535
-0.215713
0.231042
1.21241
-0.253602
0.190103
-0.511285
0.742327
-0.26336
0.0933091
-0.00311018
0.00888203
-0.0192211
1.26952
-1.04057
0.757242
0.0868741
-1.62637
-0.301942
0.260278
0.699286
0.873973
0.0188926
-0.0191373
-1.65918
-0.659707
-0.712245
0.723294
-0.0673753
-0.860871
0.665249
0.588345
-0.930721
0.671836
-0.000682693
-0.797306
-0.315077
0.638404
-0.762216
0.123812
0.0759268
0.0495737
-0.495754
-0.329571
1.48471
-1.15514
-0.00125996
-0.00543349
-0.275938
0.225166
0.702055
0.211711
-0.197847
-0.172071
0.601203
-0.99766
0.150204
-0.121534
0.30553
0.565991
-0.871521
-1.1698
1.45708
0.235452
-0.0808065
0.0799583
0.492295
-0.821866
-0.00068179
0.223178
-0.0226615
0.0984182
0.0305755
0.00585091
-0.0217486
0.0158977
-1.02892
-0.0345401
0.307684
-0.807014
-0.799703
1.67852
-0.878821
0.384388
0.669004
-0.0455441
0.0486115
-0.00306743
-0.16635
0.767553
-0.719207
0.745971
0.468298
-1.268
0.328564
-0.105386
-0.583469
-0.409011
-1.07066
1.37619
-0.0534516
-0.884971
-1.8028
-0.0984018
0.492295
0.0511826
-0.858197
0.83098
-0.646453
-0.184527
-0.982001
0.398533
0.00454506
0.107596
3.30957e-06
-0.107599
-0.971425
0.562414
-0.204091
0.912011
-0.92191
0.200697
-0.217869
-0.100091
0.251193
0.758475
0.67974
-0.110768
-1.26245
0.625577
0.803524
-0.657713
-0.552551
-0.518403
1.07095
0.447449
0.0182699
-0.0116665
-0.738622
0.704082
0.0742564
-0.240607
-0.777189
0.4686
0.308588
1.07286
0.605668
0.772158
-0.806918
-0.493427
-0.449131
-0.471829
-0.499596
0.804179
-0.804179
0.68744
-0.68744
-0.738622
-0.238219
0.238219
-0.4686
-1.10147
-0.305577
-0.486287
0.0903523
-0.0903523
0.0742564
-0.240607
0.772158
0.764888
-0.764888
0.806918
0.758658
-0.758658
0.506573
0.528171
0.481597
0.164609
-0.500404
-0.550869
1.07904
-0.672244
-1.71064
0.639983
0.194827
0.0406244
-0.251688
-0.00651498
0.0568886
-0.884981
0.0893458
0.795635
-0.0588749
0.0495797
-0.99423
0.591505
0.890745
-0.575831
-0.122276
0.00136714
-0.00213241
-0.820001
-0.0763738
-0.540725
-0.0117441
0.0289837
0.292239
-0.0852578
0.0668001
0.183547
-0.00433253
-0.00746159
0.0117941
-0.812599
0.0677871
0.744812
0.46171
0.296765
-0.526434
0.425611
0.100824
0.91592
-0.745641
-0.17028
0.0849032
0.311614
-0.0143793
-0.0628276
-0.066819
-0.0135011
0.778821
-1.73459
-0.867852
0.0943158
-0.746855
0.794375
-0.04752
0.120038
-0.90012
0.780082
-0.803596
0.901767
-0.0981707
-0.0302442
0.028976
0.0205148
-0.299965
0.323536
1.05265
-0.0907011
-0.79428
0.914466
-0.0893089
-0.825157
0.0670765
-0.0732292
0.656537
0.825219
-1.48151
0.483382
-0.398755
0.0977681
-0.892048
1.6037
0.265757
-0.795333
-0.00197351
1.01668
-0.896646
1.13556
0.852355
-0.882272
0.029917
-0.883417
-0.110813
-0.427227
0.0468683
-0.325843
0.617267
-0.783735
0.783735
-0.62484
-0.0824842
-0.863389
0.117749
-0.990065
0.897168
0.0787755
-0.209176
-0.0544049
0.0508774
0.0119157
0.185424
0.83126
0.819283
0.774299
0.135729
-0.910028
-0.646373
0.686998
-0.784383
-0.101167
0.88555
0.163177
-0.882385
-0.677965
0.885533
-0.787765
-0.102627
0.461813
-0.00750466
-0.454308
-0.151226
1.50941
-1.35818
0.453715
-0.431467
-0.0222482
-0.88701
-0.828761
0.0819056
0.543643
0.274513
-1.90125
1.11829
-0.592688
0.592688
-0.712273
-0.550174
-0.0208973
0.385193
-0.768827
0.89917
0.784366
-0.192631
1.17785
-0.357261
1.07015
-1.00723
-0.0629156
-0.264924
-1.83426
0.0955643
0.205982
-0.250206
-0.439718
0.00987994
0.317575
-0.232672
0.782523
-0.880693
0.528604
0.158393
-0.142799
0.734304
0.594169
-0.594169
-0.0381858
0.0306064
0.118117
-0.0860609
1.315
0.194412
0.0877202
-0.000921057
0.00416913
-0.00324808
-0.675504
0.692664
-0.0171604
0.0792945
-0.961566
0.104487
-0.892252
-1.05974
1.32316
-0.263418
0.128805
0.873712
-1.51511
1.59441
-0.756523
0.611895
-0.65249
-0.676487
0.164971
0.108579
0.0269843
0.149675
-0.163311
0.271891
0.00148138
-0.0508895
0.0617331
0.732642
0.688503
-0.0766076
0.0704927
0.792636
-0.456342
-0.0779917
0.534334
-0.410378
0.503486
0.393765
-0.919406
0.705172
0.214234
-0.685078
-0.130589
1.01254
-0.132678
-0.178419
-0.0331258
0.485914
0.514086
-0.771948
-0.108746
-0.244759
-0.595553
-0.340294
-0.282415
0.401286
0.598714
-0.0647494
0.0529802
-0.861257
-0.0561507
-0.596339
-0.149229
-0.236975
0.386204
-0.00303831
-0.000187906
0.11949
0.0762369
-0.12856
-0.125606
0.762899
-0.648897
0.71939
0.594186
-0.757497
-0.137843
0.56682
-0.428977
-0.743907
-0.185167
0.929075
-0.230747
0.219566
-0.0252916
-0.0465423
0.013313
0.000815653
0.729796
-0.137109
0.110342
0.114358
-0.735057
0.0595534
1.0974
0.221001
-0.580498
0.385978
0.134986
-0.28148
1.01454
-0.00269629
0.170635
0.0229598
-0.00133285
-0.0551771
-0.0382578
-0.000160632
1.09756
0.25182
-0.602254
0.350434
0.844804
-0.0247365
0.00412948
0.020607
0.135234
-0.00144221
1.01454e-05
0.2074
-0.101834
0.059053
-0.82788
0.716813
-0.464993
0.00554149
0.268213
-0.0354333
-1.06623
1.30889
-0.242663
-0.777804
0.828437
-0.0506327
0.277095
-0.0681235
-0.195237
-0.082315
1.31484
-0.466961
-0.0594738
0.270633
0.439629
0.180559
-0.620188
0.386
0.0305653
0.662099
-0.571759
0.574741
-0.00298195
1.42241
-0.942865
-0.0426531
0.0524246
-0.00977148
0.702006
-0.00950134
-0.0826545
0.0183805
1.25082
1.01363
-0.736534
0.0819051
-0.112756
-0.0190729
0.0295051
0.0672663
-0.0967714
0.00948972
-0.00363881
0.76539
-0.481863
0.0769626
0.210065
-0.024377
-0.0775467
0.23618
0.0922678
0.00568294
0.0535541
0.763739
0.634779
-0.632271
-0.00250786
-0.741353
0.451306
0.290047
0.643269
0.115191
-0.0485841
0.00122532
0.0473588
-0.377707
0.236359
-1.24359
-0.0114769
0.765129
0.727219
0.38184
0.349858
-0.845611
0.806446
0.141265
0.0100056
-0.904346
0.121195
-0.271984
-0.23064
-0.167062
0.698249
0.0654901
0.014393
0.299494
-0.367618
-0.195938
0.166648
0.0134365
-0.109256
0.421363
-0.0590705
0.210832
-0.0645607
0.128516
-0.262055
-0.479298
-0.144885
-0.012236
-0.0280966
-0.108483
0.00162546
7.63259e-05
-0.00170178
-1.5223
0.579434
-0.00241488
0.91078
-0.22447
-0.623396
0.656195
-0.0327992
0.304218
0.757802
0.0394565
-0.468433
0.0828115
-0.182902
0.639871
0.117932
0.75657
0.74595
-0.277926
0.761308
0.29055
0.807008
-0.586316
0.351885
0.234431
-0.425537
-0.0710872
0.0395474
0.0707545
-0.0504068
1.21519
0.736071
0.0703756
0.634873
0.211735
-0.87943
-0.0826656
-0.681658
0.679684
-0.0284491
-0.55982
0.410591
0.859883
0.670436
0.0600751
-0.0385238
-0.138059
-0.321189
0.84256
0.789948
0.80174
0.0286938
0.989571
-0.182564
0.544654
0.876966
-0.0827677
0.521138
-0.728809
0.920745
-0.191936
-0.414227
-0.172089
-0.0582218
-0.169887
-0.148959
0.833676
0.0244663
-0.00579113
0.626023
0.194142
0.191837
0.614285
-0.130869
0.221542
0.774483
0.259643
-1.03413
0.276682
-0.923136
0.348717
-1.36473
-0.166441
0.753641
-0.5872
-0.677203
-0.076983
0.0304407
-0.0566274
-1.38593
0.00802832
-0.0348715
0.548485
-0.030652
-0.138459
0.169111
-0.0109079
-0.570805
0.147836
0.0227982
-1.62311
-0.00816942
0.00383689
0.0652056
-0.0553473
-0.602826
0.0310669
0.567398
0.292484
1.14715
0.739151
-0.230061
-0.390031
0.620092
0.1796
-0.619652
0.619652
-0.227076
-0.958929
1.18601
0.0318371
-0.158756
0.671432
-0.104034
-0.216759
-0.287134
0.108716
0.593593
0.766026
-0.106131
0.188404
-0.10234
-0.360658
0.482382
0.0923593
0.0731648
0.00422853
-1.93858
-0.0127769
-0.0260244
0.693459
0.306541
-0.0127769
0.693459
0.194959
-0.0610375
0.194959
-0.696557
0.696557
0.303443
-0.0134489
0.171841
-0.0789763
0.240443
0.0929789
-0.492756
0.637482
-0.0231968
0.644288
-0.504991
-0.139297
-0.0475896
0.0436472
0.00394238
-0.0111336
0.0102125
-0.567066
0.0176301
-0.0181813
-0.434731
-0.369497
0.14002
0.0377319
0.819159
-0.270641
-0.412009
0.433151
-0.00828292
-0.0796379
-0.00222968
0.692075
0.0730542
0.28242
-0.0366809
-0.000756018
-0.0061286
0.0836676
0.550025
-0.478628
-0.071397
2.22241
0.560875
0.0854876
0.92803
0.0120623
-0.066559
0.112913
0.278977
0.079259
1.17345
-0.398967
0.000378206
-0.0180076
0.651974
-0.145153
0.0189649
-0.0189649
0.0231763
-0.0231763
-0.0174267
0.0174267
0.00282455
0.366795
0.463631
-0.0749771
-0.69017
0.463745
0.179788
0.0276123
-0.0858357
-0.482405
0.626448
0.113385
-0.798462
-0.965169
0.258131
0.0683511
0.0216764
-0.00211529
-0.00143006
0.00143006
0.0762744
-0.000891703
0.000891703
0.700671
0.105749
-0.0274056
-0.00927527
0.00617457
-0.0635062
-0.0206368
0.0206368
-0.0149616
0.0149616
-0.0240718
0.0240718
-0.000267612
0.000267612
0.073102
-0.30079
-0.0769338
0.218062
5.93474e-05
-5.93474e-05
-0.377936
0.497952
-0.120016
0.480413
-0.211651
-0.492536
0.0805266
0.557893
-0.157725
0.0853409
0.570854
0.565246
0.000576989
-0.000576989
0.0871836
0.0270255
-0.0270255
0.000293517
-0.000293517
0.777416
-1.25728
0.0375638
-0.406492
0.165283
-0.000443148
0.000443148
0.0167052
-0.0167052
0.0195604
-0.0195604
0.0211054
-0.0211054
-0.0252524
0.0252524
0.0373794
-0.0373794
0.498419
-0.0339534
0.0339534
0.000433001
-0.000433001
0.0257517
-0.0257517
-0.0105794
0.0105794
-0.000481425
0.000481425
-0.00971671
-0.0283687
0.0283687
0.403332
0.0151697
-0.0419616
0.0419616
0.00929029
-0.00929029
0.0171929
-0.0171929
0.0357187
-0.0357187
0.0239767
-0.0239767
-0.000519475
0.000519475
-0.00645916
0.00645916
-0.299276
-0.199951
-0.0141312
0.0141312
0.000435347
-0.000435347
-0.0405173
0.0405173
-0.0262186
0.0262186
0.00363842
-0.00363842
-0.428973
0.689251
0.246536
-0.0340056
0.0340056
-0.0037201
-0.0166019
0.0166019
0.000401053
-0.000401053
0.0349691
-0.0349691
-0.195504
0.20551
0.00801195
-0.00801195
-0.0205401
0.0205401
-0.479778
0.0415635
0.514732
-0.0293301
0.0293301
-0.434348
0.030967
0.0176445
0.0474548
-1.67383
-0.0389765
0.0389765
-0.211387
0.152316
-0.0384713
0.000309716
-0.000309716
-0.0137151
0.056629
0.266778
-0.32172
-0.263497
0.585217
0.176763
-0.00941417
0.00941417
-0.0995679
0.361041
-0.261473
0.74952
-0.37839
-0.37113
-0.480277
-0.658433
0.223696
0.209455
-0.124732
-0.285646
-0.574701
-0.00920976
0.190079
-1.17973
0.018778
-0.018778
9.93139e-05
-9.93139e-05
0.0327445
-0.0327445
0.0245715
-0.0245715
-0.00222118
0.00222118
-0.000139402
0.000139402
-0.127824
-0.0718852
0.16104
-0.283316
0.00268689
-0.00268689
-0.0422016
0.0422016
-0.0427517
0.0427517
0.140123
-0.0599549
-0.0801676
0.0160139
0.299054
-0.523524
-0.00316396
0.00316396
-0.0155375
0.0155375
-0.105633
0.261466
-0.0377701
-0.000472045
0.000472045
0.0561641
0.0148803
0.91956
-0.488968
-0.0930996
0.582067
-0.617924
0.256288
-0.582131
-0.0361981
0.0361981
-0.673886
0.26621
0.0524787
-0.0524787
-0.674959
0.399186
0.251697
0.115985
-0.00198308
0.00198308
-0.868771
-0.00132277
0.00132277
0.324501
0.408102
0.0673383
-0.0567072
0.0567072
-0.000939457
0.000939457
-0.044893
0.044893
-0.0505103
0.0505103
-0.00134408
0.00134408
-0.0558493
0.0558493
-0.00147214
0.00147214
-0.0483769
0.0483769
-0.0130041
-0.0424004
0.0424004
0.00294042
-0.00294042
0.051039
-0.051039
-0.0019712
0.0019712
0.0446338
-0.0446338
-0.0598684
-0.00359811
0.00359811
-0.00523375
0.00523375
-0.0390592
0.0780878
-0.0116329
0.0116329
0.00532691
-0.00532691
-0.0628665
0.0628665
0.308279
-0.0196476
0.0196476
-0.0537108
0.0537108
-0.00752356
0.00752356
-0.0711473
0.0711473
-0.0128285
0.0128285
-0.0850686
0.0850686
-0.0230355
0.0230355
-0.0885172
0.0885172
-0.702882
0.306606
-0.543229
0.51043
-0.894248
0.00293855
-0.542326
0.375264
-0.0769114
-0.061706
0.00381747
-0.00381747
0.0944656
-0.70011
0.0491772
-0.0449487
-1.39174
1.76975
1.36229
0.243438
-0.00826111
0.000631357
-0.378378
-0.5946
-0.0352712
0.39312
-1.22125
-0.0262409
0.0262409
-0.729851
0.0162251
-0.0162251
-0.00523598
0.00523598
0.332335
-0.396248
-0.00236768
0.00236768
0.0178021
0.0135117
0.598021
0.202025
-0.00700413
-0.0122124
-0.00692489
-0.107689
0.510819
-0.40313
0.147653
-0.0520884
0.00248095
1.04548
0.0113963
0.0417024
-0.410929
0.457797
-0.504029
-0.96628
-0.202632
-0.0775284
0.0190819
-0.0975286
-0.333939
0.0116484
-0.00746283
-0.0109181
0.800273
-0.535481
-0.0459036
0.05934
-0.0395613
0.0898315
0.0820092
0.414993
0.246812
-0.16021
0.202047
0.0210566
-0.00573999
-1.24127
0.025019
0.0594729
-0.197932
-0.0175693
-1.41291
-0.0725386
0.271127
-0.354831
0.408479
0.175774
-0.927588
0.041424
-0.0424834
-0.0307457
-0.355725
0.456549
-0.0274851
-0.0218039
0.049289
-0.0291697
0.0291697
0.17952
-0.452875
-0.00400116
0.0652833
-0.0875087
0.0590597
-0.0593882
-0.00429346
0.0636816
-0.0309581
-0.159408
0.027367
-0.102852
-0.283012
-0.341773
0.624786
0.0173046
0.0643586
0.149
-0.0386578
-0.0428457
0.0745337
-0.16546
0.323712
-0.0066057
0.0272127
-0.0173839
0.166384
0.00319646
0.270709
0.00447426
-0.00447426
-0.406895
0.951549
0.0978713
-0.180537
-0.0204434
-0.000874363
1.12256
0.471842
0.0139142
-0.0160983
-0.536235
-0.00699409
-0.0106173
0.102967
-0.707465
0.321477
-0.0545589
0.365679
-0.648692
0.210756
0.494416
-0.0950176
0.0950176
3.30988e-06
-1.32854
0.429314
0.899231
-0.222802
0.166174
0.246738
-0.263512
-0.394818
-0.0855566
-0.0437201
0.0521248
0.929209
0.164867
-0.104792
-0.0704853
-0.693731
-0.574269
-0.0422791
-0.255995
0.769174
0.558533
-0.259478
-0.260512
0.528725
-0.100743
0.318544
-0.264993
0.0478206
-0.456225
0.336209
0.11613
-0.11613
0.0699685
-0.0448312
-0.0251373
0.00139449
-0.000699279
0.0122827
-0.193814
-0.183893
0.215355
-0.185138
-0.0302169
0.528648
-1.11377
0.2007
-0.738509
0.685604
-0.108526
-0.17479
-0.0274906
-0.0799182
-0.498396
0.0636645
-0.299816
0.000624094
-0.0175693
0.39635
-0.00519234
-0.000233871
0.000326958
0.0164733
-0.0104456
-0.00602763
-0.0984044
-0.0185212
-0.175078
0.193599
-0.11263
-0.343596
0.0178021
0.349672
0.00082485
-0.389241
0.0927681
0.00295372
0.039525
-0.114502
-0.0132163
0.0132163
-0.00157513
0.00174368
-0.00875055
0.00023417
-0.0422473
0.000468602
-0.00118068
0.176798
-0.0737709
-0.00114699
0.00114699
0.041692
0.501209
0.00083038
-0.279579
0.548001
1.18664
-0.468355
0.320224
-0.440364
-0.109156
0.105155
0.213571
-0.217009
-0.00162334
0.000706472
0.000109181
0.0016267
-0.1757
-0.365131
0.828876
0.336575
-0.4644
0.153939
-0.00166066
0.0964218
0.0323831
-0.000103354
-5.16675e-05
0.000758139
0.0147842
0.00144436
-0.000565286
0.737698
-0.663165
-0.249221
0.24581
0.830665
-3.42937e-05
0.00155278
-0.0384713
-0.00535339
0.817529
-0.432175
0.524534
-0.621577
0.905256
-0.343452
0.556844
-0.181579
0.716807
0.00116524
0.00338796
0.0182884
-0.12054
0.137963
-0.200311
0.00853003
0.00183548
0.0702041
-0.0572534
-0.0129506
0.00140222
0.0169727
0.0155398
-0.0325125
-0.0964058
0.0039616
0.000207537
0.00179342
0.495161
-0.439169
-0.00165533
0.000474458
1.20385
-0.774539
0.371825
-0.00623201
-0.000210403
0.0981057
-0.0211431
-0.0485866
-0.0981393
-0.0116804
-0.00377516
0.13384
0.0477788
-0.0027399
0.396634
0.00122319
0.000467808
-0.000467808
-0.0013485
-0.0108639
0.000465712
-0.32191
-0.00391723
0.0763482
-0.107622
0.104607
0.225442
-0.0651991
0.000477068
0.00163565
0.449086
0.000238098
-0.00298497
-0.0552368
-0.00214126
0.000835838
0.0129713
0.074749
-0.709907
0.460575
-0.825706
-0.0724726
-0.000467413
0.304831
0.0127437
-0.00286376
0.572881
-0.0143122
0.060324
-0.00422846
-0.00143969
-0.555954
-0.00348397
-0.00012806
-0.00686662
0.889374
-0.503374
-0.00266213
-0.000499062
-0.00615935
-0.00162691
0.0736366
-0.0209014
0.0209014
-0.0378969
0.0396406
-0.00219664
-0.00828077
0.0361194
-0.0363533
-0.174235
0.103148
-0.00530494
-0.0139212
0.0367293
-0.0184687
0.0667449
-0.0476629
-0.624388
0.576868
0.0332016
-0.00150945