/*--------------------------------*- C++ -*----------------------------------*\
| =========                 |                                                 |
| \\      /  F ield         | OpenFOAM: The Open Source CFD Toolbox           |
|  \\    /   O peration     | Version:  2306                                  |
|   \\  /    A nd           | Website:  www.openfoam.com                      |
|    \\/     M anipulation  |                                                 |
\*---------------------------------------------------------------------------*/
FoamFile
{
    version     2.0;
    format      ascii;
    arch        "LSB;label=32;scalar=64";
    class       volVectorField;
    location    "37.2";
    object      U;
}
// * * * * * * * * * * * * * * * * * * * * * * * * * * * * * * * * * * * * * //

dimensions      [0 1 -1 0 0 0 0];

internalField   nonuniform List<vector> 
2186
(
(1.30647 -0.071655 2.71165e-19)
(1.57772 -0.926701 2.4697e-20)
(1.42965 -0.90279 1.08242e-20)
(0.726481 -0.566952 -1.71245e-19)
(-0.189617 0.168085 -1.71951e-19)
(1.76396 -0.664998 0)
(0.705046 -0.650903 0)
(-0.0386507 -0.0534177 5.64848e-20)
(1.36454 -0.222189 5.96146e-20)
(0.539973 -0.289729 -1.92252e-21)
(0.70202 0.633303 0)
(0.754445 -0.279093 -5.81093e-20)
(-0.0548594 -0.0929933 -2.34516e-20)
(1.20793 0.0243266 -4.13969e-19)
(1.75933 -0.688815 1.30721e-20)
(1.01707 -0.00299137 1.91801e-19)
(0.976997 0.0135074 0)
(-0.469992 -0.210421 0)
(1.67204 -0.771181 0)
(-0.113398 0.277212 -8.07705e-20)
(0.490012 0.125433 -1.21556e-19)
(-0.0880525 0.214249 1.10022e-19)
(1.19529 0.027894 3.40608e-19)
(-0.198006 -0.0502182 5.7826e-21)
(1.03015 0.00844413 -2.68308e-19)
(0.777791 -0.544773 0)
(0.761446 -0.0124567 1.59237e-19)
(0.595417 -0.574633 -2.05647e-19)
(1.24261 0.72997 0)
(0.959988 0.0240408 -3.65735e-19)
(-0.0645136 0.125542 0)
(1.02441 -0.00937348 1.26773e-20)
(-0.184447 0.175692 0)
(2.64938 0.0260802 1.70883e-19)
(-0.183211 -0.126645 9.12417e-22)
(1.5846 0.785027 5.9121e-20)
(2.05578 0.141171 9.4536e-20)
(0.519182 0.172851 -3.61109e-19)
(2.0177 0.086271 -3.46673e-19)
(1.52668 -0.496109 -4.74553e-21)
(-0.0991908 -0.166345 0)
(-0.0144646 0.19395 0)
(1.83084 -0.87399 3.87134e-20)
(-0.377094 0.218908 0)
(1.13172 0.290299 1.59308e-19)
(0.586639 -0.272189 3.11654e-19)
(0.898764 -0.766867 0)
(1.16885 -0.777985 1.53955e-19)
(1.65119 -0.197591 0)
(-0.181343 0.236651 1.83704e-19)
(-0.0554888 0.174 1.19365e-19)
(0.655724 0.604377 8.0837e-20)
(2.03239 -0.766077 2.01054e-20)
(0.607166 0.298156 -2.88863e-19)
(-0.282183 -0.0828553 4.40559e-20)
(0.748581 -0.63677 0)
(1.61353 -0.949079 1.67514e-20)
(0.565428 -0.526193 0)
(2.28695 0.080248 9.95974e-20)
(1.13052 -0.163063 -4.38166e-19)
(1.66713 0.0748258 1.7762e-20)
(1.37247 0.307629 -1.80069e-19)
(1.37488 0.551741 0)
(1.68362 -0.598091 5.19809e-21)
(1.39394 0.397593 -1.07176e-19)
(1.23233 -0.721456 -2.25137e-19)
(1.1989 0.67674 5.24898e-20)
(0.680056 0.0904051 -5.96132e-19)
(0.823692 0.0712314 0)
(2.03946 -0.229926 -2.02844e-20)
(-0.0746545 -0.087689 -6.34096e-20)
(2.19497 -0.0879445 1.87775e-20)
(0.724105 -0.0197746 -2.64837e-19)
(0.863469 -0.505737 0)
(0.834162 0.196333 -9.63975e-20)
(0.533091 -0.493452 -3.39913e-19)
(1.55041 -0.0365632 0)
(1.0071 0.0102856 3.9776e-19)
(-0.18895 -0.135244 0)
(2.11552 0.276616 0)
(0.473427 -0.227307 9.27338e-20)
(1.57498 -0.479241 -8.29383e-21)
(1.02102 0.00687082 4.45745e-20)
(1.34653 0.414048 2.7288e-20)
(0.966604 0.0242364 4.68409e-19)
(1.03727 0.0293315 -1.10753e-20)
(0.675968 0.197081 -3.51675e-19)
(1.74047 -0.734107 -1.57737e-21)
(2.03812 0.0492948 0)
(-0.0691525 -0.0584004 4.31848e-20)
(0.84841 -0.61041 -1.97729e-19)
(-0.135063 0.196739 7.56991e-22)
(1.10373 -0.0710829 2.8538e-19)
(0.811826 -0.16815 0)
(0.969499 0.0234546 4.4504e-20)
(1.39848 0.653743 0)
(1.59392 -0.941146 0)
(1.32589 0.229394 0)
(-0.190004 0.215598 0)
(0.777735 -0.651664 3.44399e-19)
(0.0740742 -0.263925 -2.41548e-19)
(0.267934 -0.0553645 1.55922e-19)
(1.57612 0.182866 0)
(1.14309 -0.0988577 -2.60888e-19)
(1.12475 0.0238646 1.96968e-19)
(-0.153335 0.246744 1.49621e-19)
(0.658485 0.527237 0)
(2.18282 -0.179786 -3.47493e-20)
(0.952777 -0.466086 9.6642e-20)
(-0.0785658 -0.508996 2.48841e-19)
(1.85862 0.236166 1.47377e-19)
(-0.149389 0.232026 -2.82107e-19)
(0.797575 -0.724635 0)
(0.583651 0.371674 1.73483e-19)
(1.61124 -0.223859 -1.75476e-19)
(-0.0957951 -0.167592 -2.72313e-19)
(1.0155 -0.302076 -1.14023e-19)
(1.48207 -0.138019 0)
(-0.0921515 -0.077727 -1.29171e-19)
(0.704897 -0.0529135 8.43728e-20)
(1.61169 0.898588 0)
(-0.179556 0.189332 -2.61088e-19)
(0.913026 0.784728 -2.73777e-19)
(-0.476415 -0.202734 2.67052e-19)
(1.03041 -0.0228234 0)
(1.0179 -0.152207 1.43655e-19)
(-0.178123 0.206389 0)
(0.686178 -0.481029 -1.22484e-19)
(-0.484567 -0.246681 -1.5206e-19)
(0.771783 -0.702989 0)
(0.421448 -0.250621 4.50651e-19)
(0.526075 -0.439404 3.13744e-19)
(0.399374 -0.361172 0)
(0.966127 -0.768973 -1.706e-19)
(0.288816 -0.200324 0)
(-0.116812 0.216973 -1.43945e-19)
(0.795936 -0.683089 1.68637e-19)
(2.35512 -0.261104 9.07087e-20)
(1.99805 0.051817 0)
(-0.0549532 -0.0315807 0)
(0.711454 0.661147 -3.37793e-19)
(1.75424 -0.625605 -3.59481e-20)
(0.00544214 0.000997416 0)
(0.968817 -0.793258 -1.80391e-20)
(1.1401 -0.0974371 0)
(1.0786 -0.119542 4.52699e-19)
(2.06118 -0.19425 -1.98834e-20)
(-0.200693 0.171106 0)
(1.20693 -0.546896 -7.27016e-20)
(-0.220571 0.243774 -5.49782e-20)
(-0.143772 0.212191 0)
(1.07742 -0.8012 1.10496e-20)
(1.00701 0.0058249 -6.64387e-19)
(0.637506 -0.463936 -1.19253e-20)
(0.804819 -0.502185 0)
(1.18374 -0.71998 -1.28082e-19)
(0.670315 0.258128 2.70794e-19)
(1.21038 0.134117 0)
(1.51914 0.0497809 -2.23616e-19)
(1.17909 -0.843041 -3.1055e-19)
(-0.0647247 -0.0366332 -4.80513e-20)
(-0.0320463 -0.453523 -6.94926e-20)
(1.0754 0.0108214 2.45091e-19)
(0.907291 -0.452833 -1.21535e-19)
(1.46982 -0.922598 1.46007e-21)
(0.445769 -0.508404 -2.66077e-20)
(0.677765 -0.121044 5.17668e-20)
(-0.159859 -0.0898886 -1.19689e-19)
(1.6999 0.212542 0)
(2.36537 0.245875 -1.60341e-20)
(1.47869 0.659004 1.26204e-19)
(0.796576 -0.601837 -2.51189e-19)
(0.99565 0.00914697 1.36152e-20)
(0.707374 -0.518264 3.36808e-19)
(1.33946 0.81507 1.17235e-19)
(1.76939 -0.00408929 1.54797e-20)
(-0.220733 0.10653 0)
(1.08925 0.0549071 -2.52687e-19)
(-0.15027 -0.762494 -1.33503e-19)
(1.09223 0.500211 8.02601e-20)
(0.0527882 -0.138831 7.23527e-20)
(1.1634 0.0284463 -4.73509e-20)
(-0.221834 0.140159 -1.9469e-19)
(1.32704 0.591391 -7.31037e-20)
(1.16981 0.908946 0)
(-0.234932 0.0630958 -7.92881e-20)
(-0.0193708 -0.0183298 0)
(0.676331 0.581689 -2.8154e-19)
(2.069 0.0712533 -2.07894e-20)
(-0.0862608 -0.160533 8.2615e-20)
(-0.35134 -0.308846 -4.08676e-19)
(0.7291 0.0957823 2.61831e-19)
(1.87297 -0.249449 -2.48482e-20)
(0.9713 -0.337727 -3.50644e-20)
(-0.0263045 -0.0147334 0)
(-0.420261 -0.193283 4.35719e-19)
(1.3765 0.998649 -4.36607e-21)
(0.84638 0.0902303 -1.43194e-19)
(0.578144 0.542312 1.9555e-19)
(0.54934 0.203175 0)
(-0.138276 -0.288547 -9.04553e-20)
(-0.375595 0.0738782 2.57539e-19)
(1.27161 -0.941285 9.19949e-22)
(0.985986 -0.0266795 -2.0821e-19)
(-0.171743 -0.154254 5.99722e-21)
(-0.12131 0.140259 1.54213e-19)
(-0.240367 -0.189357 -8.60871e-20)
(1.17698 -0.165025 0)
(1.136 0.044511 -3.37916e-19)
(2.25528 -0.100278 8.11545e-20)
(1.25834 -0.612228 1.43362e-19)
(2.05879 -0.187899 1.94762e-20)
(0.609651 0.353153 0)
(0.968528 0.769613 -1.61271e-20)
(0.708975 0.652137 1.8365e-19)
(0.885438 -0.552103 1.78112e-19)
(0.704888 0.520186 0)
(1.02058 0.00323666 8.91747e-21)
(0.869089 -0.651692 2.54507e-19)
(0.854306 0.439009 -4.66577e-19)
(1.20248 -0.107046 0)
(-0.00610534 -0.0179223 -2.02578e-19)
(-0.0834654 0.157411 -1.20381e-19)
(1.63183 0.727228 0)
(1.32618 -0.925335 -7.87239e-22)
(-0.346442 -0.0706062 0)
(-0.171033 0.212698 1.11741e-19)
(0.758124 0.672881 -9.85582e-20)
(0.84734 -0.206811 0)
(-0.213751 -0.0439814 0)
(1.54164 -0.468629 0)
(-1.07345 -0.677181 3.57463e-19)
(1.19223 -0.870786 2.02758e-19)
(1.1617 -0.595027 8.07451e-20)
(1.0515 -0.167388 -2.03376e-19)
(0.864947 -0.681921 -2.02735e-19)
(0.177853 -0.181643 0)
(-0.727239 -0.281708 0)
(0.990505 -0.503418 2.15468e-19)
(-0.0330967 -0.0233131 0)
(-0.203254 0.201512 0)
(-0.1099 -0.171976 2.35202e-19)
(0.813807 0.689649 8.55256e-20)
(1.03861 0.813688 0)
(0.716296 0.572266 -8.61404e-20)
(0.829998 -0.0286742 -2.40665e-19)
(0.76545 0.5805 -2.30313e-19)
(0.613661 0.57133 -1.68308e-19)
(-0.0995718 -0.105881 3.28236e-22)
(0.703569 -0.631126 0)
(0.908292 0.187215 -3.36644e-19)
(-0.11661 -0.165836 2.81019e-20)
(0.627408 0.581427 3.76935e-19)
(0.982617 0.818271 0)
(-0.830076 -0.691832 2.67059e-19)
(-0.178765 -0.121717 1.39572e-19)
(-0.162849 -0.00569822 -6.74236e-20)
(0.685025 0.58979 -1.49528e-20)
(0.96995 -0.00708946 6.40128e-20)
(-0.117227 -0.21253 0)
(2.2825 -0.164072 -1.15414e-19)
(0.783339 0.366999 1.54825e-19)
(0.635531 -0.587533 -8.99201e-20)
(-0.401481 -0.17619 9.84932e-21)
(1.21752 0.467168 1.7839e-19)
(0.902093 0.427502 0)
(1.0462 -0.16588 2.24489e-19)
(-0.109183 -0.183895 -2.83597e-21)
(-0.136474 0.136097 4.50547e-19)
(0.917679 0.0188781 -5.83646e-20)
(1.12023 0.1566 0)
(1.89601 -0.0966717 -5.24912e-20)
(1.77047 -0.00270242 0)
(0.55637 0.281396 -4.75246e-19)
(-0.127434 0.154042 0)
(-0.0617102 -0.0666418 1.23801e-19)
(0.700288 0.102579 0)
(0.606791 -0.498621 -2.05662e-19)
(1.14013 0.018335 2.30867e-19)
(-0.215914 0.16852 3.73714e-20)
(1.74758 -0.0518567 -9.54842e-21)
(2.03408 -0.256923 -3.90365e-20)
(1.12955 0.236114 -2.24813e-19)
(-0.126855 -0.200594 -5.54729e-20)
(1.05803 -0.837444 0)
(0.810229 0.0170725 -1.67829e-19)
(0.919178 -0.365352 -3.30512e-19)
(1.699 -0.579269 6.14139e-21)
(1.72964 0.0391858 -2.44201e-21)
(1.08565 -0.00358533 4.06159e-19)
(-0.0731541 -0.205191 -6.06956e-20)
(0.986327 -0.428315 -1.50313e-19)
(0.187239 -0.179911 2.88827e-19)
(1.00828 -0.00621922 0)
(1.00485 -0.0044008 0)
(-0.307414 0.652766 -3.09935e-20)
(-0.131128 0.250968 -1.05554e-19)
(0.163938 -0.118032 -6.76908e-20)
(1.2409 -0.0161281 1.9133e-20)
(0.574333 -0.22471 0)
(1.82334 -0.265151 -5.77244e-20)
(0.921698 -0.802224 -1.22789e-19)
(1.75267 -0.571704 -1.51847e-20)
(1.13365 0.85618 0)
(0.456868 -0.437913 0)
(0.626146 0.538776 -1.79715e-19)
(1.11275 0.284994 -4.09702e-19)
(2.24748 -0.271258 7.56192e-23)
(0.868119 0.171363 1.45133e-19)
(-0.0831065 -0.288227 -1.68504e-19)
(1.9286 -0.100942 -5.20084e-20)
(-0.119311 -0.374058 0)
(-0.101965 -0.0571236 0)
(-0.147235 -0.267885 0)
(1.32024 -0.716586 -1.45773e-19)
(-0.134668 0.214929 -2.4037e-19)
(-0.102172 0.142132 0)
(1.33181 1.00049 -2.65664e-20)
(1.13012 0.15343 -4.32905e-19)
(2.12749 0.516833 -6.37289e-20)
(1.1149 0.950073 7.33384e-20)
(-0.144295 0.246569 1.45927e-19)
(2.16418 -0.0465606 0)
(-0.150705 -0.269558 -1.82982e-19)
(-0.150146 0.236578 2.71226e-19)
(0.778134 0.0475899 1.95588e-19)
(1.585 0.961516 1.96274e-20)
(1.24436 0.429374 7.65283e-20)
(-0.147514 0.190523 9.44531e-22)
(0.727229 -0.663733 -4.61588e-20)
(1.14501 -0.0482301 0)
(1.68286 0.0106947 0)
(1.03415 0.0475531 0)
(-0.0568253 0.570431 -3.99701e-19)
(-0.165697 -0.313262 5.80031e-20)
(1.07428 0.8647 0)
(0.997189 0.00339248 5.58921e-19)
(0.788346 0.623016 -2.29796e-19)
(-0.646895 0.407469 -2.82049e-19)
(0.863452 0.0299887 -4.4151e-20)
(0.699674 -0.63678 -2.63542e-19)
(1.41997 0.716851 -2.74335e-20)
(0.54783 -0.431966 -3.23395e-19)
(1.13198 0.000151061 -4.95107e-19)
(0.809805 0.0476111 5.06338e-20)
(1.52413 -0.182078 1.12284e-19)
(1.88202 0.110552 1.82749e-20)
(-0.00860611 -0.000688466 3.96226e-22)
(1.10002 0.482584 -2.68723e-19)
(1.42626 0.64101 9.52518e-20)
(-0.22545 -0.0417844 0)
(-0.0714498 -0.336786 6.35562e-20)
(-0.0281485 -0.0478051 8.63818e-20)
(-0.170316 -0.131058 -6.01295e-20)
(0.497291 0.344595 0)
(0.356635 0.600486 0)
(-0.0566483 0.0595595 -1.63683e-19)
(-0.143403 -0.196963 -2.87087e-20)
(1.04814 -0.0284831 1.96269e-19)
(-0.186238 0.118951 -3.97018e-20)
(1.38246 -0.318906 -1.44246e-19)
(-0.136734 0.227103 0)
(0.816399 -0.723183 -3.77237e-19)
(2.07 0.064626 -6.66579e-21)
(-0.0124552 -0.649063 7.69205e-20)
(0.72924 0.180411 3.42578e-19)
(0.630979 0.164301 1.10751e-19)
(0.485708 -0.458937 2.2964e-19)
(0.00335907 -0.0110313 -6.85057e-20)
(1.35404 0.521929 0)
(0.413894 0.374961 -1.99254e-19)
(1.02887 -0.0135948 -3.13027e-19)
(-0.383588 -0.312324 1.61684e-19)
(1.45262 0.473812 -1.07985e-19)
(-0.0450952 -0.038256 -2.47196e-20)
(0.666122 -0.608208 -1.10148e-19)
(0.828135 0.199925 -2.13831e-19)
(0.993603 0.438476 2.30945e-20)
(1.13963 -0.130578 4.06337e-20)
(0.598563 -0.209115 -3.27205e-19)
(1.98234 -0.357958 -3.95471e-21)
(1.39781 0.0809202 0)
(1.73704 0.644298 -2.335e-20)
(2.0303 -0.0320627 -6.17903e-21)
(0.493867 -0.174195 3.88499e-20)
(1.1244 0.367176 -2.26982e-19)
(1.97413 -0.583872 3.4861e-20)
(0.440176 0.411984 -2.57432e-19)
(-0.298144 -0.101787 2.10791e-19)
(1.8125 -0.221586 0)
(0.938488 0.00505246 0)
(0.853697 -0.754578 7.78816e-20)
(-0.16816 -0.144665 -1.52968e-19)
(-0.696266 -0.322399 -1.85465e-19)
(-0.011836 -0.00426405 -1.03774e-19)
(-0.215481 0.131272 -1.39488e-19)
(-0.115181 -0.477132 0)
(-0.0959087 -0.0582218 1.79701e-20)
(-0.0262791 0.176395 -1.14004e-19)
(-0.132262 0.141461 -3.49356e-19)
(0.796116 -0.0967807 0)
(1.56657 0.460262 -5.36623e-20)
(-0.0163216 -0.0242045 0)
(0.991828 0.0246264 4.01306e-19)
(-0.0470152 -0.391383 1.20351e-20)
(0.523668 -0.40319 4.33594e-19)
(-0.41616 -0.761779 2.20623e-19)
(-0.659009 -0.631503 0)
(-0.0399255 0.245753 1.27248e-19)
(1.00138 0.0244796 -1.21044e-20)
(-0.120511 -0.095951 0)
(1.00503 -0.00797694 -6.1966e-20)
(0.845812 -0.712136 -3.50529e-19)
(0.209581 -0.36947 0)
(0.927264 -0.258876 2.36034e-19)
(-0.126286 0.177767 2.17685e-19)
(-0.0386432 -0.0294186 0)
(-0.133639 -0.313721 -2.52441e-21)
(0.711431 -0.618412 -4.91173e-19)
(0.956636 -0.0292749 -3.0054e-19)
(-0.168656 -0.169059 1.79398e-19)
(-0.0835546 -0.0789746 7.45974e-20)
(-0.125917 -0.404371 0)
(0.975228 0.488004 0)
(0.00344487 -0.586224 8.20902e-20)
(1.60021 -0.267174 -1.13285e-19)
(1.10589 0.921025 1.74012e-20)
(1.08099 0.219668 -1.28833e-19)
(1.13618 0.00864583 -2.57689e-19)
(1.03084 -0.0676152 -9.72759e-20)
(-0.154969 -0.205446 -1.67377e-19)
(1.46642 -0.0500964 2.317e-19)
(0.676973 0.0360045 2.14215e-19)
(1.98057 -0.171302 7.83732e-20)
(1.03198 -0.143787 0)
(0.677048 -0.420821 4.7135e-19)
(1.14436 0.0262537 -5.43668e-19)
(1.78975 0.615169 -5.98993e-21)
(0.727745 -0.439501 -1.80753e-19)
(-0.0882868 -0.0734894 9.65941e-20)
(0.780889 -0.684309 4.56642e-19)
(1.25755 0.205145 7.46218e-20)
(1.00698 -0.00745487 2.74336e-19)
(-0.0839702 -0.280441 -6.82929e-20)
(1.02717 0.0209396 0)
(1.89781 0.214243 -1.57448e-19)
(-0.0603965 -0.0408928 0)
(1.01177 0.0141611 -1.63552e-19)
(-1.01343 -0.559857 -4.65437e-19)
(1.7737 0.283437 2.56063e-20)
(-0.0953422 -0.133031 1.12466e-19)
(1.60506 0.0379978 -1.10443e-20)
(1.01563 -0.0176544 5.66714e-20)
(1.29591 -0.0881542 0)
(1.42486 -0.606548 -2.23963e-19)
(1.02464 0.0390285 -1.66082e-19)
(1.48119 0.802549 -3.91519e-20)
(1.33006 -0.0636713 0)
(1.65427 -0.375317 1.89501e-20)
(-0.0673875 0.0685282 0)
(1.34183 0.0429735 0)
(-0.154865 -0.288662 0)
(1.26439 0.46078 0)
(1.99027 0.178616 5.84102e-20)
(0.762677 0.63477 4.02672e-19)
(0.27953 -0.280558 -2.71885e-19)
(-0.13501 -0.164241 -1.75878e-19)
(-0.039097 -0.0186825 0)
(2.25423 0.296693 -4.77941e-20)
(1.47333 0.529859 0)
(1.49776 0.287969 0)
(-0.177989 -0.291715 7.95254e-20)
(0.83426 0.73607 1.26318e-19)
(1.66865 -0.032718 0)
(-0.0323893 -0.0592887 4.52302e-20)
(0.921038 0.234704 1.97438e-19)
(1.50364 0.273424 1.3671e-20)
(1.27759 0.949175 4.07393e-20)
(0.897613 -0.807741 -5.84609e-20)
(1.70995 0.135809 -1.08188e-20)
(0.821629 0.741667 1.29053e-19)
(1.21559 0.950356 0)
(1.4385 0.0810732 -2.08438e-20)
(1.2687 0.0828713 0)
(1.66926 0.471312 8.62179e-20)
(1.24418 0.097734 2.58014e-19)
(1.00531 -0.00346348 0)
(0.860457 -0.00583214 5.54761e-19)
(0.881944 -0.157992 5.3383e-20)
(0.616882 -0.390721 0)
(0.656364 -0.362507 2.34165e-19)
(1.26747 0.56863 -3.26131e-20)
(0.496892 0.469195 2.80698e-19)
(-0.143031 0.162123 4.04848e-20)
(0.388261 -0.11397 1.25228e-19)
(0.757181 0.0675436 0)
(1.3008 -0.886814 -1.51526e-19)
(1.03425 -0.0426344 4.34931e-19)
(1.63716 0.337054 1.79617e-19)
(-0.0498446 -0.0966021 3.86334e-20)
(-0.344946 -0.698059 0)
(1.2126 -0.235139 -1.38072e-19)
(-0.0348207 -0.0249633 -8.22251e-20)
(0.762332 -0.479701 -4.28441e-20)
(-0.157675 0.0858454 -1.14847e-21)
(-0.225186 0.128728 3.68844e-19)
(1.26488 -0.459523 2.9003e-20)
(2.35111 -0.126881 1.54553e-19)
(1.21647 0.463166 -2.87686e-19)
(0.882937 -0.0665806 0)
(1.73833 -0.00720181 1.64117e-19)
(1.85914 0.10539 3.11127e-20)
(0.894812 -0.75041 1.7597e-19)
(1.12862 -0.951995 -8.49785e-20)
(0.501192 0.465533 1.87721e-19)
(1.48874 -0.20466 0)
(1.81365 0.561009 4.48841e-20)
(-0.0429554 -0.0285098 -1.68002e-19)
(0.911423 0.794667 0)
(1.31887 0.140893 0)
(0.279817 -0.279463 -3.3059e-21)
(0.347398 0.335413 0)
(-0.480135 -0.747728 -2.2944e-19)
(-0.159315 0.199068 -1.21812e-19)
(1.69321 -0.441308 0)
(1.22129 0.0826748 1.63826e-19)
(-0.441294 -0.180482 1.56549e-19)
(0.517738 -0.490282 -5.35151e-19)
(1.95233 -0.108754 -2.12419e-20)
(0.594288 -0.538601 0)
(1.03782 0.133657 0)
(1.32373 -0.254746 0)
(1.13793 0.238053 -2.40307e-19)
(1.35519 0.101765 3.4062e-19)
(-0.979162 -0.956073 0)
(0.870247 -0.0626283 0)
(1.69626 0.0145135 1.7464e-20)
(-0.111372 0.147716 1.22853e-19)
(1.78135 -0.175001 -1.07149e-19)
(1.02094 -0.496552 8.08985e-20)
(1.38125 -0.0403302 -1.18676e-19)
(-0.638395 -0.242553 -1.17482e-19)
(1.72963 -0.0238111 -1.38055e-19)
(1.01589 -0.0192764 4.54102e-19)
(1.56042 0.60114 0)
(-0.176951 0.22631 3.30806e-20)
(0.984548 -0.813125 2.29169e-19)
(0.857339 -0.00211417 5.16062e-20)
(0.619508 -0.414211 0)
(1.87261 -0.53532 -6.55886e-21)
(1.19797 -0.187513 1.85504e-19)
(1.1575 0.493061 0)
(0.591003 -0.547824 5.50673e-19)
(0.845561 0.109541 -3.06879e-20)
(1.93037 -0.163835 2.09185e-19)
(-0.115143 0.165621 -2.47055e-19)
(1.36508 0.629149 1.4028e-19)
(1.1725 0.417387 3.67384e-21)
(0.922946 0.389504 2.30114e-19)
(1.71329 -0.160665 -1.51239e-19)
(-0.155336 -0.226074 1.54877e-22)
(0.408645 -0.193128 0)
(-0.14248 -0.10867 1.58368e-19)
(1.06115 -0.923918 0)
(1.0463 -0.641585 2.69762e-20)
(0.863552 -0.222513 -3.14391e-19)
(-0.298392 -1.15991 6.21818e-20)
(-0.228011 -0.526343 -1.87397e-19)
(1.01056 0.49786 1.76037e-19)
(0.447948 0.187135 4.41493e-19)
(0.696636 -0.0396308 0)
(1.25849 0.0129958 0)
(1.80907 0.149425 2.07004e-20)
(0.772148 -0.0172648 0)
(1.34918 -0.205283 -1.90882e-19)
(-0.756897 -0.426842 3.17215e-19)
(1.96085 0.483742 3.55014e-20)
(1.04693 -0.0330806 0)
(0.536467 -0.327679 1.1703e-19)
(1.00748 0.027092 2.15133e-19)
(0.880595 0.304969 -3.53933e-19)
(-0.214424 -0.0428372 0)
(1.09825 -0.472154 5.97198e-19)
(1.72372 0.111475 1.22425e-22)
(1.08544 -0.485329 -2.59541e-19)
(2.28022 0.114829 1.83418e-19)
(1.32163 0.809964 0)
(0.874608 0.0208026 0)
(-0.101443 -0.189594 -1.02207e-19)
(-0.058976 0.0586828 1.84248e-19)
(0.967143 0.380524 -2.1195e-19)
(0.0263308 -0.260002 -4.96943e-20)
(0.665893 0.431417 2.47892e-19)
(1.20806 -0.39207 0)
(0.521002 -0.484067 0)
(0.108934 -0.0958557 -1.05171e-20)
(1.21309 -0.498505 -1.26269e-19)
(0.665051 -0.00277122 5.5101e-21)
(0.730471 -0.133076 1.28398e-19)
(-0.103747 0.120442 -3.27562e-19)
(1.35109 -0.174887 1.86699e-19)
(0.687389 0.641018 0)
(1.30353 0.709256 0)
(1.63411 0.252963 0)
(-0.173061 -0.401389 -7.75916e-20)
(1.36097 0.590776 2.54053e-19)
(2.049 0.0243151 2.07183e-20)
(0.945848 -0.0147543 0)
(2.52601 0.0277211 0)
(1.82983 -0.0669304 -1.85273e-19)
(1.2248 0.504646 4.20539e-19)
(1.0051 0.00635984 -2.14457e-19)
(1.52833 0.493118 0)
(-0.248172 0.0858443 0)
(1.26594 0.321496 2.89548e-19)
(1.04575 0.54246 -1.30077e-19)
(1.0761 0.0256994 0)
(1.53607 -0.307173 0)
(2.11116 0.658197 -3.69348e-19)
(-0.13239 0.216942 -1.438e-23)
(0.995234 0.0146252 0)
(0.72858 0.494785 -3.39383e-20)
(0.912976 -0.80445 0)
(0.998917 0.017393 5.00673e-20)
(-0.0461497 0.928113 -2.44586e-19)
(0.892958 -0.309632 3.49741e-19)
(0.282329 0.289132 1.33149e-19)
(2.11599 -0.167091 8.51083e-20)
(1.57199 0.179898 6.71559e-20)
(0.777348 -0.0322848 0)
(1.00969 0.0106654 0)
(-0.0712408 -0.729251 0)
(0.692693 0.663312 -1.86851e-19)
(-0.0888152 0.105087 2.2032e-19)
(1.18973 0.360072 -4.65253e-19)
(-0.283841 0.0531083 0)
(0.85134 0.662232 1.68834e-19)
(0.995964 -0.32147 0)
(1.00575 0.000347547 1.25341e-19)
(1.04467 -0.203707 5.25485e-20)
(1.05455 0.416693 2.5843e-19)
(1.59002 -0.143222 0)
(2.11578 0.0293228 -6.26263e-20)
(0.824535 -0.0943501 -3.95989e-19)
(-0.662871 -0.683819 -3.35241e-19)
(1.44977 0.0900995 0)
(0.891394 0.255687 1.81346e-19)
(1.87992 -0.226311 0)
(0.79647 0.541155 3.67056e-19)
(-1.00966 -0.735848 1.41318e-19)
(-0.0916788 0.124475 0)
(0.615523 0.585951 -7.1063e-20)
(1.01122 -0.628686 -1.88162e-19)
(0.46248 -0.217547 -1.316e-19)
(1.02023 -0.0121529 0)
(-0.32909 -0.237695 -1.67412e-19)
(0.621586 -0.551738 9.25042e-20)
(0.921827 0.303408 0)
(1.3628 0.179867 -9.69616e-20)
(1.01307 0.861923 2.36064e-20)
(0.289688 0.503724 2.46266e-19)
(0.0168081 0.0128235 -1.0174e-19)
(0.21645 0.0213422 -5.83673e-19)
(-0.068868 -0.0415644 4.49755e-21)
(0.836321 0.374697 2.51967e-19)
(-0.150661 0.219323 -5.7107e-21)
(1.39021 -0.639554 3.21581e-21)
(1.02163 0.0129887 -3.75127e-19)
(-0.202722 -0.499252 0)
(1.03789 0.0379762 -4.33062e-19)
(2.14704 -0.0621828 1.25745e-19)
(0.910136 0.708994 2.81e-19)
(1.12973 -0.0678252 1.79942e-19)
(1.00248 -0.0241709 1.7362e-19)
(-0.319869 -0.867291 -5.80008e-20)
(-0.0232834 -0.0432316 -2.0878e-22)
(1.68782 -0.860942 1.401e-20)
(1.11416 -0.123696 -9.80167e-20)
(0.798104 0.0490281 1.13466e-19)
(0.902697 -0.281701 1.00511e-19)
(0.89773 0.144162 0)
(0.98647 0.753841 0)
(0.996824 -0.453495 -6.25901e-20)
(1.92005 0.165426 -2.35278e-20)
(-0.642378 -0.606654 1.08323e-19)
(1.01403 -0.525683 -6.17893e-19)
(0.600505 -0.516377 4.38171e-19)
(1.60397 -0.0102925 -1.41526e-19)
(-0.0362011 -0.232556 6.15078e-21)
(1.52136 -0.0575876 0)
(0.759394 0.135242 -7.10422e-21)
(1.48653 0.218996 -2.09021e-19)
(1.06595 0.780109 0)
(0.701586 0.621162 0)
(-0.115186 -0.307162 0)
(-0.0316206 -0.0230372 -2.96072e-20)
(0.000656315 0.165051 0)
(1.95901 0.349633 4.49259e-19)
(1.23671 0.18935 6.54602e-21)
(-0.988832 -0.617212 2.16036e-19)
(1.67267 0.396191 1.33115e-21)
(1.88698 0.422975 -9.38177e-20)
(2.11534 -0.329971 -1.08522e-20)
(-0.19711 0.0515308 -2.60959e-19)
(-0.125196 -0.347184 1.88075e-21)
(1.20122 0.140892 0)
(0.68011 -0.034065 0)
(1.00049 0.00153694 1.70333e-22)
(-0.173885 -0.431875 0)
(1.47285 -0.020492 1.49418e-20)
(0.681772 -0.0306354 0)
(1.05275 0.0130311 1.44294e-19)
(0.986583 0.0166923 -4.89143e-20)
(1.311 -0.327695 1.10047e-19)
(1.06731 -0.015809 -9.91426e-22)
(0.941931 -0.179927 -6.03098e-20)
(1.02274 -0.0260036 4.05747e-19)
(0.654847 -0.591829 2.11087e-19)
(-0.824211 -0.253453 -2.48346e-19)
(1.74453 0.133099 7.27402e-21)
(-0.066717 0.0706325 0)
(1.1552 0.813723 0)
(1.02451 -0.000231318 0)
(0.986452 -0.759948 -1.34632e-19)
(1.01251 -0.868913 9.14937e-20)
(0.75998 -0.202326 5.44578e-20)
(0.33431 -0.586833 -9.27827e-19)
(0.426551 -0.163223 -6.18834e-20)
(0.567785 -0.359621 -6.93978e-19)
(1.71057 0.649326 -5.77233e-20)
(0.323399 0.0342469 3.86443e-20)
(2.02665 -0.315397 1.3187e-20)
(0.697176 -0.0597068 -2.69789e-20)
(-0.03315 -0.0548223 -6.51805e-20)
(1.13703 0.568126 1.95047e-19)
(-0.248343 -0.161575 0)
(0.0434451 -0.348501 1.29621e-19)
(-0.127845 -0.0829896 5.15138e-23)
(1.0286 -0.0430026 3.57103e-19)
(1.02145 0.00535849 -9.30335e-21)
(1.11124 -0.0102357 -9.88825e-20)
(0.607994 -0.397282 -1.11694e-20)
(1.65524 0.313832 5.23077e-20)
(0.381729 -0.356546 -3.4891e-19)
(1.43973 -0.313139 -9.87842e-20)
(1.03068 0.00621304 -2.67377e-19)
(0.937928 0.0403796 -7.48832e-21)
(0.930792 -0.510592 0)
(1.13569 0.606032 -3.64795e-19)
(1.00253 -0.00259615 1.02346e-19)
(0.699048 0.626313 2.61441e-19)
(1.51998 -0.132473 1.1465e-20)
(1.07297 -0.00702785 -3.21355e-20)
(1.13223 0.0144984 9.1581e-22)
(1.92417 -0.185019 9.86037e-21)
(0.258774 -0.00942873 0)
(1.04493 -0.0392695 0)
(1.04936 -0.0339813 6.27044e-19)
(1.0027 -0.00156712 0)
(-0.0715581 -0.0396104 0)
(0.914429 -0.557191 0)
(1.00105 0.000790153 -5.95278e-19)
(1.13814 -0.670124 1.13155e-19)
(1.02252 -0.00219267 1.25789e-20)
(1.38587 0.976711 -2.01221e-20)
(1.57946 1.0256 -5.66976e-20)
(0.644992 -0.179289 1.10678e-19)
(1.50495 -0.0844553 1.83556e-19)
(1.63427 0.347111 0)
(-0.125663 0.208618 0)
(2.01066 -0.187599 2.3588e-19)
(0.528259 0.880496 0)
(0.99979 -0.0041819 -1.83672e-19)
(1.0105 -0.00063433 3.57134e-19)
(1.45614 0.133839 -6.99774e-20)
(-0.0040968 -0.115747 1.25587e-19)
(0.9766 -0.000472855 1.93581e-19)
(1.08837 -0.215678 -3.59681e-20)
(1.79851 -0.211498 -5.42725e-21)
(0.324302 -0.323129 -7.88619e-22)
(0.9273 0.0182361 -1.97852e-19)
(1.00382 0.0046761 2.3171e-19)
(0.999972 0.000399257 1.36608e-20)
(0.790346 -0.0127167 0)
(0.730129 -0.0262787 0)
(0.726338 -0.0266399 9.08615e-22)
(0.702846 -0.0285419 0)
(1.94622 0.139675 0)
(1.9694 -0.0793251 0)
(1.31599 -0.172178 -3.81141e-20)
(1.44617 -0.169899 1.79152e-20)
(1.5439 -0.677151 0)
(0.81913 -0.670921 4.0929e-20)
(0.123988 0.124527 0)
(1.22484 -0.150863 0)
(0.859293 -0.109598 0)
(0.485432 -0.0357892 1.31399e-20)
(0.332806 0.124249 5.69292e-20)
(0.775857 0.0226876 0)
(0.784346 0.0196758 0)
(0.966189 0.0210464 -2.4351e-19)
(0.813356 0.00829886 4.52249e-19)
(1.00874 -0.00127368 0)
(1.00033 -0.000351351 4.27655e-19)
(1.0002 -0.000489127 -2.40581e-22)
(0.783274 0.0215908 3.86893e-19)
(0.996149 -0.00659117 -2.22384e-19)
(1.35373 -0.143607 0)
(1.69309 -0.195856 5.43036e-21)
(1.00075 -0.000482109 -2.1571e-19)
(0.999667 0.00210611 -3.7094e-19)
(0.939657 0.027849 0)
(0.998819 0.00209874 0)
(0.999771 0.000583258 0)
(1.84231 -0.330596 8.50334e-20)
(0.234931 0.173037 -1.08408e-19)
(1.51232 -0.136282 0)
(-0.187118 0.13277 1.87438e-19)
(0.589985 -0.0398062 -5.47528e-19)
(1.02093 -0.0139133 -2.87747e-19)
(-0.157156 -0.279854 -5.55705e-20)
(1.0173 0.00548276 -2.32577e-19)
(1.15284 -0.210001 -1.39094e-19)
(0.785095 -0.456048 3.44662e-19)
(-0.0223154 -0.00695109 -4.14887e-20)
(1.02834 0.0145762 0)
(1.06142 -0.0115188 -6.1573e-20)
(0.852261 0.0269139 0)
(-0.126215 0.114631 3.26229e-19)
(0.55481 0.734876 0)
(-0.186517 -0.353936 -1.50766e-19)
(0.869238 -0.278168 1.95378e-20)
(1.70731 0.682357 3.28638e-20)
(-0.0926125 0.0466479 0)
(1.05348 -0.0371847 1.93865e-19)
(0.307559 -0.132808 -9.17895e-21)
(0.92861 0.0010361 3.0342e-19)
(1.01347 -0.00557512 -1.9563e-19)
(1.73328 0.868737 6.08221e-20)
(0.545586 0.513422 0)
(0.468913 0.429446 2.08049e-19)
(2.43482 -0.156958 -1.25501e-20)
(1.16681 0.131216 1.99645e-19)
(1.06931 -0.698716 0)
(1.02273 0.00656029 0)
(1.00056 -0.0169737 -4.50205e-19)
(1.01791 0.0178611 -4.41831e-19)
(-0.105392 -0.0821834 0)
(1.25501 0.840371 -1.19665e-19)
(1.27432 -0.578513 -1.22083e-20)
(1.0164 0.00766499 1.69405e-19)
(1.01158 0.0153194 -2.13063e-19)
(-0.210527 -0.332996 -1.55244e-20)
(0.561244 0.309018 1.81043e-19)
(1.01958 -0.0136047 7.21364e-19)
(1.84979 -0.645282 0)
(1.93288 0.631526 -7.11919e-20)
(1.01641 -0.00942978 -2.25113e-19)
(2.08076 0.0584834 -7.05944e-20)
(1.067 0.00900811 -5.1484e-22)
(1.00997 -0.00826318 4.49138e-20)
(1.98693 -0.252774 -9.17397e-20)
(1.01583 0.00841856 2.19199e-19)
(0.13391 0.139392 -4.55005e-20)
(1.01851 0.00564759 0)
(0.944311 0.161317 5.18713e-20)
(-0.612727 -0.843305 4.58073e-21)
(0.99919 0.0222701 2.17939e-19)
(1.04081 0.0209549 -5.19154e-22)
(1.46565 -0.28125 5.24369e-20)
(1.28491 0.325083 4.09252e-19)
(0.994945 0.0174737 1.50174e-19)
(1.01791 -0.012069 5.56021e-22)
(1.77173 0.219046 -1.69375e-20)
(1.88489 0.977488 -1.2755e-19)
(0.755031 -0.677178 7.32438e-20)
(0.430986 -0.295281 -3.32779e-19)
(1.00897 -0.00905768 0)
(1.0199 0.00442994 5.44277e-20)
(1.01123 -0.00688968 1.14312e-19)
(-0.33574 0.0641487 -4.73457e-20)
(1.0136 0.00826493 -2.28161e-19)
(1.02675 -0.0196541 2.63278e-19)
(1.00918 -0.00519952 -2.1361e-19)
(1.01394 0.00806744 -5.24564e-22)
(1.01336 0.00564366 -4.13045e-22)
(1.02381 0.0163582 2.18721e-19)
(0.908593 0.101844 5.39701e-19)
(2.24866 0.896358 0)
(0.756369 -0.492877 1.53417e-19)
(1.01027 -0.00131544 0)
(1.02317 -0.0160899 -6.31041e-20)
(1.56689 0.432957 -7.29112e-20)
(1.94577 -0.110713 0)
(1.39092 0.231923 4.99273e-20)
(1.59216 0.704599 -8.30887e-20)
(0.767147 -0.0197132 0)
(1.72839 -0.230987 0)
(1.06256 0.972054 -4.22737e-19)
(-0.123969 -0.791523 4.45242e-20)
(1.01732 -0.00155823 -2.29479e-19)
(1.10098 -0.553138 -7.4435e-20)
(1.03348 -0.670271 5.93147e-20)
(0.631802 0.649104 0)
(1.70815 -0.0930212 0)
(2.19757 0.636697 0)
(-0.0969023 0.0468066 1.22424e-19)
(-0.0800598 -0.0717007 1.20001e-20)
(0.135939 1.09168 0)
(-0.148686 0.0749484 -2.46686e-19)
(1.76135 0.983539 -8.93419e-20)
(1.00724 -0.000786595 -4.48952e-19)
(-0.11804 -0.221378 -7.80732e-20)
(1.02128 0.011199 2.976e-19)
(0.692338 -0.0437721 0)
(-0.13802 -0.0936554 -1.25244e-20)
(0.633704 0.457119 -3.49326e-19)
(1.74761 0.732927 1.33272e-19)
(-0.0190322 0.191692 0)
(0.782365 0.0669723 9.53658e-20)
(0.543124 0.520097 5.23435e-20)
(1.22022 0.906658 -3.17393e-20)
(-0.0658855 -0.0538846 6.09472e-20)
(1.02168 0.0165738 0)
(0.192181 0.0688623 6.70407e-20)
(1.01141 0.000351514 1.68317e-19)
(2.11152 -0.143731 0)
(1.01095 0.0102364 2.82659e-19)
(0.0595003 -0.301987 -6.00635e-20)
(1.01926 0.0133332 -1.74838e-19)
(0.700487 -0.157297 0)
(2.20375 0.0890066 -1.32418e-22)
(1.00883 0.00637787 -1.17299e-19)
(0.994675 -0.0206061 3.0934e-19)
(1.10911 0.100618 -3.98581e-21)
(0.76332 0.909435 -4.77965e-20)
(-0.129877 -0.108633 1.61485e-19)
(2.12334 0.153017 2.09337e-19)
(-0.153215 0.711851 4.88353e-20)
(0.79788 0.0147815 -4.24683e-19)
(0.813382 0.027814 0)
(-0.0417353 0.218613 -5.77099e-20)
(1.02414 -0.0123313 -3.38786e-20)
(0.973992 0.0343774 0)
(1.05497 0.00160694 -2.13961e-19)
(-0.201981 1.0026 1.02133e-19)
(-0.642277 -0.721754 1.44506e-19)
(2.12239 -0.587602 0)
(-1.16505 -0.844565 -4.55389e-19)
(1.49083 -0.341435 0)
(1.04109 -0.016559 6.29414e-20)
(1.2029 -0.260967 2.22441e-21)
(1.01244 0.000824668 1.82469e-19)
(-0.781162 -0.563438 3.08722e-19)
(1.01924 0.00593265 0)
(0.993728 0.00388279 -4.35876e-19)
(1.0077 0.0102764 2.31785e-19)
(1.23506 -0.56315 0)
(1.60839 0.0585164 1.37384e-21)