/*--------------------------------*- C++ -*----------------------------------*\
| =========                 |                                                 |
| \\      /  F ield         | OpenFOAM: The Open Source CFD Toolbox           |
|  \\    /   O peration     | Version:  2306                                  |
|   \\  /    A nd           | Website:  www.openfoam.com                      |
|    \\/     M anipulation  |                                                 |
\*---------------------------------------------------------------------------*/
FoamFile
{
    version     2.0;
    format      ascii;
    arch        "LSB;label=32;scalar=64";
    class       surfaceScalarField;
    location    "16.2";
    object      phi;
}
// * * * * * * * * * * * * * * * * * * * * * * * * * * * * * * * * * * * * * //

dimensions      [0 3 -1 0 0 0 0];

oriented        oriented;

internalField   nonuniform List<scalar> 
3181
(
-1.04618
0.404652
0.641525
-0.391091
0.367807
0.0232838
0.525008
-0.360816
-0.164192
0.123783
-0.203567
0.079784
-0.0667357
0.0868504
-0.0201147
0.838996
0.574485
-1.41348
0.149292
-0.142933
-0.00635851
0.0678255
0.00359614
-0.0714217
0.596269
-0.767905
0.171636
-0.074567
0.138967
-0.0643999
-0.0102099
-0.0502983
0.0605083
0.125251
0.0480697
-0.173321
-0.0108797
-0.0539907
0.0648704
-1.09282
0.14909
0.943731
-0.328866
0.701939
-0.373073
-1.12125
0.638105
0.483146
0.0832318
-0.933463
0.850231
-0.357957
0.296688
0.0612693
-0.739966
-0.511387
0.00387224
0.0482246
-0.0520969
0.0346542
-0.0848893
0.0502351
-0.0739988
0.0617524
0.0122465
1.06025
-1.03521
-0.0250423
0.0184534
0.0348047
-0.0532582
-0.955527
0.325412
0.630114
-0.107696
0.231478
0.309071
-0.245116
-0.0639551
0.029948
0.0626321
-0.0925801
-0.406049
0.334727
0.0713217
-0.0325671
-0.0122869
0.0119156
0.000371278
-0.0352127
-0.920314
0.0709319
-0.0614876
-0.00944424
0.130613
1.45631
-1.58692
-0.0449372
0.0488559
-0.00391866
0.177068
0.272693
-0.449761
1.58178
-1.45117
0.0709857
-0.0363315
1.53737
-0.79572
-0.741652
-0.193586
1.03258
-0.107193
0.0963133
-0.0764126
0.00241373
-0.411314
0.0824483
-0.144121
0.0677089
-0.630503
0.127222
0.503281
-0.150602
0.0760346
-0.169339
0.173601
-0.00426216
-0.272011
-0.0770107
0.349021
0.0520503
1.46297
-1.51502
0.0709132
0.193866
-0.264779
-0.00841466
-0.0983883
0.104377
-0.00598835
0.517339
0.1846
-0.0960644
0.139275
-0.0432103
0.0958969
-0.024965
-0.172246
0.198887
-0.0266418
0.164249
0.0569244
-0.221174
0.109819
-0.115759
0.00593924
1.27159
0.265783
-0.858632
-0.187545
0.115236
-1.68582
1.57058
0.549021
0.23101
-0.780031
-0.441487
-0.204364
0.645851
-0.755351
0.561765
-0.271962
0.820983
-0.325121
-0.103173
0.428294
-0.204279
-0.20177
-0.192077
0.166938
0.025139
0.130852
0.285637
-0.416489
-0.172129
0.768398
-0.0206932
0.0885188
-1.96551
2.08074
0.189345
0.119726
-0.181384
-0.109847
0.291231
-0.269913
0.354321
-0.084408
-0.0822931
0.0901844
-0.00789133
-1.91346
-0.918427
0.00871505
0.909712
-0.0599664
0.0150292
-1.05413
0.796108
0.258023
0.567614
-0.310665
-0.256948
-0.85183
0.0964791
1.10518
-0.956086
-0.713449
1.14392
-0.200192
1.06996
0.166692
-0.175048
0.00835613
1.36173
-0.787246
0.539218
-0.539218
-0.00794709
-3.8526e-05
0.00798561
-0.214546
-0.0520946
0.26664
0.09693
-0.0699439
-0.0269861
-0.447187
0.836169
-0.388982
-0.0169165
-0.23817
0.255086
-1.07912
0.0439078
0.343672
0.055309
-0.398981
0.133917
-0.8505
1.08151
0.0783238
0.0968102
-0.175134
-0.0169327
-0.155313
-0.423338
0.0894476
0.33389
-0.221529
-0.201809
0.120408
-0.970907
0.335728
-0.782915
0.91994
-0.836709
-0.00106088
0.181607
-0.180546
0.0818473
0.0513489
-0.133196
-1.40051
-0.0987317
1.49924
-0.249228
0.411692
-0.162464
-1.27172
0.620791
0.650931
-0.468943
-0.585187
0.166276
-0.0953632
-0.153509
0.147875
0.0056339
-0.0772817
-0.0127141
0.0899958
-0.538658
-0.229247
-0.0965822
0.0419157
0.0546665
-1.10065
-0.175547
1.27619
1.81448
-0.351512
-0.0112032
0.00325611
0.0392523
0.150093
-0.197994
0.375062
0.0132448
0.265659
-0.278904
0.136585
0.0672557
-0.203841
0.32219
0.0453759
-0.367566
-0.594419
-0.526832
-1.10798
0.00733496
-0.0615906
0.139914
-0.107983
0.185132
-0.0771496
-0.0357674
0.0249459
0.124346
-0.0573164
0.0720813
-0.0147649
-0.0967503
-0.0224009
0.119151
0.075008
-0.075008
-0.185516
0.210462
0.346085
0.207111
0.105761
0.093126
-1.27634
1.10421
-1.57438
0.12084
1.45354
0.0332683
-0.0274892
-0.00577904
-0.0261814
-0.0505168
0.0766982
0.539605
-0.021752
-0.517853
-0.0419182
0.0432369
-0.00131872
-0.20085
0.015334
0.159456
0.676714
-0.371151
0.530607
-0.166382
-1.23413
-0.111602
0.0448666
0.488819
-0.307175
-0.181644
0.119779
-0.101617
-0.0181621
0.0481317
-0.320142
0.023322
-0.941749
0.04907
-0.157053
-0.28908
-0.402132
0.0706279
1.38583
-0.934962
-0.450865
1.08967
0.296158
0.0668607
0.282161
0.0344036
-0.00113531
-0.105355
0.172909
-0.0675541
-0.257011
-0.58189
0.838901
-0.359076
0.621765
0.839897
-1.35128
0.143704
0.0293498
-0.0546143
0.0252645
-1.51841
0.417488
1.10092
-0.301084
-1.21732
-0.303633
0.647305
-0.910141
-0.0184341
0.00487051
-0.264062
0.259191
1.46748
-1.5784
0.110919
-0.109384
-0.00221866
0.568204
-0.825215
0.180323
-0.430131
0.249808
-0.291748
-0.118849
0.410596
0.173054
-1.00459
-0.0745321
-0.00783416
-0.0442627
-0.552671
0.348307
-0.243279
0.0182927
0.224986
-0.022122
-0.0872617
0.0286003
-0.0286003
-0.117748
0.129105
-0.0113568
-0.309109
-1.26527
0.0735731
0.0281762
-0.101749
-0.149502
0.0157803
0.133722
-0.221682
0.0296046
1.59546
-0.484234
-1.11123
-0.196348
0.451096
-0.254749
0.00879906
-0.00815602
-0.000643045
-0.805749
-0.465973
-0.183141
-0.00472123
0.187862
-0.175767
0.30662
-0.100085
0.0984307
0.00165479
0.0752405
0.00985805
-0.0850985
-0.130402
0.146189
-0.0157872
-0.518863
1.11336
-0.594497
-0.219966
-0.0510224
0.270988
-0.695297
0.66071
0.0345872
-0.00257747
0.0373822
0.0269059
-0.0267243
-0.000181611
0.000265358
-0.0535235
0.864837
0.949643
0.174543
-0.884926
0.710383
0.000668746
2.0789
-2.07957
0.385646
0.385603
0.153615
0.061993
0.201458
-0.0648726
-0.0702247
-0.0281636
0.239137
0.155447
-0.0736001
0.734613
-0.409201
0.0603708
0.206269
0.0495253
-0.164556
0.11503
-0.78039
-0.143954
0.924343
-0.0367083
0.0367083
-0.0625485
-0.265029
0.537722
0.0124922
-0.232458
0.165849
0.130838
0.0338694
-0.0954601
0.133983
-0.144193
-0.346402
0.329485
0.0396991
0.0628671
-0.102566
0.384949
-0.336879
0.721412
-0.393052
-0.328361
-0.207047
0.273907
0.186383
-0.493558
-0.211273
0.615925
0.166132
-0.0338222
0.0338222
-0.256628
0.49746
-0.240833
0.386833
0.0248589
-0.0332392
0.0396565
-0.00641723
-0.167969
-0.0531439
-0.0434383
-0.0486808
0.182664
-0.178085
0.238325
-0.0602397
0.127755
0.0276924
-0.393182
0.148066
0.188787
-0.061032
-0.0451923
-0.0548931
-0.0721573
0.0712334
0.000923953
0.148078
-0.105026
-0.0430514
-0.0125837
0.390856
-0.378273
-0.114397
0.0937039
0.10283
-0.10708
0.00424998
0.0233728
0.472585
0.248828
-0.0923936
-0.0220145
0.114408
-0.0918798
-0.026871
0.118751
-0.0900557
0.0984018
-0.720134
0.621732
-0.0336199
-1.52359
-0.440497
1.96409
0.698329
1.03531
-1.73364
0.0831775
-0.310451
0.355827
0.277026
0.247916
-0.524942
-0.205411
0.254936
0.153601
-0.897278
0.743677
0.0239772
-0.115857
-0.0145079
0.00667377
-0.988492
0.444752
0.54374
0.934962
-0.814555
-1.69338
1.59465
-1.46748
1.58832
0.0403064
-0.0835167
0.00972704
0.0171789
0.0163614
0.810055
-0.656453
0.123536
-0.0744656
0.407769
0.736154
-0.130268
-1.78639
1.78706
-0.672434
-0.603905
-0.239878
-0.390625
-0.0180838
-0.166163
0.214294
-0.580724
-0.377446
0.181099
0.77705
-0.237445
-0.898723
-0.794656
0.742747
0.158297
-0.13432
0.288633
0.0385123
-0.0385123
0.670419
0.149317
-0.819736
-0.224899
0.895318
0.394483
-1.21828
0.8238
0.25394
-0.0468293
0.00703693
0.00605242
-0.0130893
-1.68582
-1.15433
0.802822
1.06268
0.53278
-0.0347467
-0.134592
-0.242066
0.759405
-0.195128
-0.0481513
-0.00315573
-0.0791374
-0.0523505
0.103699
0.374441
-0.247219
-0.838816
-0.282496
-0.121056
-0.022472
0.143528
-0.60879
0.994393
-0.154328
0.134721
0.0196072
0.0318059
0.00259763
-0.106
0.0554348
0.050565
0.00954361
0.418751
0.0889617
0.030817
0.0140064
0.00406859
-0.018075
-0.0160139
-0.167127
-0.722554
0.370489
0.352066
0.585487
-1.57952
0.994035
0.136426
-0.157278
0.0208521
-0.0109739
0.17725
0.17206
-0.711278
-0.10394
-0.00206016
-0.132327
0.0369635
0.142074
-0.340068
-1.61025
0.646645
0.963605
0.0343814
0.0931373
0.0549403
-0.78039
0.0641008
-0.582964
0.115857
-0.0604224
0.0431969
-0.638672
-0.0566251
0.0602805
0.128506
0.307611
0.0451863
-0.461676
0.123074
0.344233
-0.288924
-0.119241
0.0224905
0.221383
0.84125
-1.06263
0.104535
-0.713594
0.609059
-0.954708
0.810754
-1.28259
0.270226
1.01236
-0.0131311
0.0141849
-0.0010538
0.168791
-0.460539
0.205429
-0.120237
-0.0851926
0.042004
-0.068875
-0.0272892
-0.0937669
-0.00810803
0.0242576
-0.0239923
0.0209561
0.0759646
-0.0969207
1.09281
-0.00254491
0.00289161
-0.000346694
0.101271
-0.00756701
0.859488
0.0529285
-0.0551472
-0.342577
-0.811757
0.226113
0.0278273
0.00780987
0.0853274
-1.01236
0.711278
0.196428
-0.204718
0.00828973
-0.251816
0.0767678
0.119848
-0.111492
-0.00153435
0.0917188
-0.038322
-1.46955
-0.140704
-0.0412081
0.0621642
0.738282
-0.255137
-0.255905
0.106403
0.342218
0.0100492
-0.0432885
-0.00778589
0.0827939
0.146931
0.20739
0.153686
-0.328305
0.17462
0.114955
0.561758
-0.0417523
-0.108849
0.936457
-0.260152
-0.676305
-1.28259
-0.440215
1.0257
1.58178
-0.113753
0.354122
-0.240368
0.355992
-0.0719577
-0.284034
-0.225815
-0.626015
-0.0713699
0.0720969
-0.000727008
-0.0505993
-0.189645
0.240244
0.485926
-0.963846
0.477919
0.0395541
0.657925
-0.697479
-0.0442988
-0.10921
-0.00578152
-0.086612
0.31033
-0.566958
-0.0145585
0.00142745
0.163654
0.00826202
-0.171916
0.0456367
-0.150991
0.000884927
0.030921
0.05087
0.130737
-0.0232144
-0.00350992
0.195843
-0.434013
-0.482656
1.51796
0.026759
0.00994939
-0.987582
-0.0170057
0.145619
-0.0732739
-0.045967
-0.0794889
0.259812
0.875851
-1.04675
0.170897
0.183114
0.0429989
-0.942656
-0.01343
-0.0149152
-0.647932
0.746334
-0.0180478
0.18418
-0.00127242
-1.21701
0.18209
-0.443636
0.261546
0.00284354
0.262815
0.00194266
-0.00203075
8.80832e-05
-0.040954
-0.0894481
-0.0213599
-0.133953
0.746358
-0.641823
-0.121639
0.0812826
-0.108691
0.308897
-0.155211
0.128874
1.20501
-0.261958
-0.943051
-0.119019
0.137312
-0.50417
-0.218385
-0.56155
0.611378
-0.598781
-0.0125967
-0.0899074
-0.0317311
-1.78639
0.545541
-0.545541
-1.82242
1.82242
0.810055
-0.103657
-0.142525
0.246182
-0.894134
-0.0934481
0.625621
-0.365156
-0.260464
0.165586
-0.242735
-0.00994381
-0.00125939
-0.88794
-0.0829672
-0.932861
0.212727
0.0437858
-0.0662577
0.699287
-0.113076
-0.586211
1.14476
0.437015
-0.000799806
0.00274247
-0.967698
0.425957
-0.819008
-0.071413
-0.603086
0.674499
-0.0612519
-0.875957
-0.702439
0.217216
-0.811635
-0.924343
1.37332
-0.448973
-0.139637
0.280665
-0.141028
-0.0235557
0.722843
-0.105528
-1.01976
1.01976
-0.783245
0.34894
0.434306
0.00017294
-0.00271785
0.0822373
-0.436423
0.817767
-0.0216597
-0.0839126
-0.0353566
0.102195
0.00591668
0.00288239
1.69998
-1.42975
-0.32698
0.402221
-0.630645
1.00787
-0.377226
-0.0474305
-0.0565091
0.122314
-0.0550583
0.353556
0.0069296
-0.0609203
0.352764
0.0380922
0.0421635
-0.244582
0.202418
0.139441
0.0341598
0.0961326
0.178589
1.55141
0.529332
0.113249
0.694191
-0.80744
-1.02791
1.4454
0.201713
-0.134004
0.0773125
-0.76768
0.690367
0.0095917
0.130292
-0.476694
-0.0736278
0.134562
-0.0609345
0.134021
-0.207648
-0.445607
-0.107064
-0.0707561
0.0738159
-0.00305977
0.000386923
-0.0236013
-0.0140867
-0.0108782
0.656453
-0.609059
-0.0473941
-0.291704
0.304197
0.880804
0.602948
-0.246956
-0.0288112
0.0569874
-0.307424
-0.122707
0.172888
-0.581579
0.408691
-0.00188647
-0.000144279
0.00815285
0.123687
-0.13184
0.00386207
-0.0100708
0.0062087
-0.0234747
0.0155672
0.0079075
-1.26888
0.481632
-0.144588
-1.379
-0.197691
-0.814555
1.58832
1.59465
-0.19304
-0.173105
0.122083
-0.062459
0.0680831
-0.00562403
-0.175811
0.965859
-0.790048
0.549877
0.0757433
0.00154824
-0.00343471
0.119505
-0.461336
0.0353566
-0.0458768
0.00466878
-0.662374
0.35495
-0.0519018
0.0857713
-0.231734
0.616683
1.08967
-0.000121402
-0.061735
0.00149715
0.0602378
1.967
-0.372355
-0.0611719
-0.0545868
-0.973472
0.158917
0.382313
-0.209258
-0.475901
-0.130611
0.606512
0.816537
-0.364451
-0.452086
0.057567
0.818284
-1.78706
0.101242
-0.00692726
-0.0244121
0.0313394
0.266688
1.81221
-0.171012
0.178049
0.129895
2.25259
-0.664277
-0.681235
0.0568607
0.624374
0.382276
0.00758777
-0.347995
0.534984
0.814413
0.490054
0.0763407
-0.0214004
-0.676125
0.219069
0.457056
1.32937
0.0513982
-0.0373918
-0.0506741
-0.356151
0.104866
-0.310277
0.843877
0.361132
-0.10051
0.0106023
0.301325
-0.415078
-0.0210239
0.0184464
0.110969
-0.147842
0.0368735
-0.298994
0.313364
-0.0143701
0.487227
-0.749186
-1.39234
0.120784
1.27156
0.105981
-0.200476
0.0944946
0.270035
0.0388622
-0.392281
0.456381
-0.659937
0.659937
1.57058
1.14476
-0.713594
0.32983
0.484583
-0.586787
0.345954
0.911715
-0.361838
0.00908459
-0.876451
0.867367
0.134208
0.00475859
0.0258067
-0.702674
0.310393
0.11525
-0.165876
-0.123054
0.288931
0.287995
-0.514947
0.34907
-1.10483
-0.284053
-0.650852
-0.0511843
0.00258453
0.000307074
-0.223439
0.0681027
0.0754254
0.0340826
-0.14493
0.110848
-0.360707
-0.422539
-0.00571583
0.0683479
-0.949456
0.520897
0.428559
-0.569524
0.38788
-0.0933245
0.156192
0.235095
-0.00249404
-0.0120139
-0.958075
0.473841
0.0339175
0.0689124
-0.154366
0.0456744
0.19744
0.00798893
-0.427931
1.27298
0.466202
-0.00848285
0.869287
-0.791975
0.785975
-0.443757
-0.612513
0.17609
0.151186
-0.793242
0.767099
0.0261438
1.12489
-0.281016
-0.196204
-0.130776
-0.0922419
0.022298
0.955602
-0.842906
-0.112696
-0.181688
0.108088
0.0274991
0.120376
0.88107
0.583323
-0.800733
0.21741
-0.325276
-0.0521705
-0.21324
-0.736215
0.124527
1.37472
1.11634
0.0284238
0.169854
0.552763
-0.722617
0.0450898
0.0493184
-0.00283241
0.000338378
-0.510399
-0.102114
0.147354
-0.169476
-0.18533
0.136649
-0.532817
0.278069
-0.992579
-0.318336
-0.285919
-0.61199
1.54933
-0.0957885
-0.285946
-0.337047
-0.325327
0.158419
0.296921
0.0558431
1.33802
-0.852098
-0.18883
0.127798
-0.500968
-0.277236
0.778204
-0.00798991
0.00106265
0.0481323
-0.0591516
-0.239842
-0.121716
0.698556
-0.420537
-0.278019
0.166182
0.135204
-0.0972102
-0.0379935
0.240595
0.0563255
-0.409652
-1.32398
-0.0947342
0.137931
0.919496
-0.336173
0.0136932
0.105058
-0.0209375
0.0205813
0.000356274
0.0135947
-0.0410839
-0.241829
0.0772735
-0.0646531
-0.558355
0.418718
0.0173209
0.0943642
0.0116172
-0.694967
1.61779
-1.25666
0.0154228
-0.191054
0.175631
-0.137413
-0.539382
0.676796
0.0772311
-0.715903
-1.1678
-0.224539
-0.0602756
-0.000411989
0.0606876
-0.247065
-0.611378
-0.169012
-0.143186
-0.676125
-0.228666
0.163793
-0.310183
-1.15435
-0.546366
0.397172
0.149195
0.263778
0.115644
0.513951
0.153914
-0.667866
0.102634
0.0556625
0.867172
0.279221
-1.14639
-0.222212
0.404116
1.04128
-0.239055
0.178815
-0.715842
1.11996
0.153315
-0.0638672
-0.0290058
0.0453672
-0.0102053
1.12661
-1.13509
0.729023
0.0875143
-1.34388
-0.125667
0.234547
0.677168
0.916575
0.0198818
-0.0196126
-1.11634
-0.650852
-0.713145
0.72186
-0.0600016
-0.898723
0.657925
0.608945
-0.936354
0.807731
-0.00540832
-0.787834
-0.313344
0.637056
-0.772851
0.135795
0.0810345
0.0541691
-0.511397
-0.229525
1.15896
-0.929435
0.00101779
0.00156675
-0.260487
0.212336
0.714287
0.222527
-0.207193
-0.180891
0.635591
-0.811138
0.211206
0.034976
0.503683
0.742604
-1.24629
-0.836033
1.0551
0.990406
-0.469509
0.0777583
0.227531
-0.457056
-0.00655126
0.212905
-0.0605622
0.109875
0.0357446
0.00058386
-0.025137
0.0245531
-1.02629
-0.0363444
0.314076
-0.809072
-0.580056
1.50729
-0.927234
0.37202
0.635851
-0.0501489
0.053713
-0.00356417
-0.0166596
0.65225
-0.71599
0.697624
0.615551
-1.19561
0.311343
-0.0984377
-0.585641
-0.406938
-0.774023
1.27771
-0.0581162
-0.88186
-1.92041
-0.159162
0.227531
0.0493533
-0.858426
0.833721
-0.647114
-0.186607
-0.981515
0.395875
0.0068016
0.114088
-0.000305504
-0.113782
-0.970828
0.56389
-0.215749
0.911443
-0.924873
0.18958
-0.205594
-0.0945496
0.236624
1.17116
0.334845
-0.152719
-1.4513
0.508247
1.3196
-0.829542
-0.552892
-0.518901
1.07179
0.447108
0.0180929
-0.0120404
-0.733823
0.697479
0.0973579
-0.114018
-0.153615
0.0985221
0.0550932
0.846782
0.660508
0.780915
-0.813482
-0.492376
-0.449373
-0.471245
-0.499583
0.803081
-0.803081
0.68447
-0.68447
-0.733823
-0.195001
0.195001
-0.0985221
-0.476433
-0.501058
-0.499979
-0.181298
0.181298
0.0973579
-0.114018
0.780915
0.769575
-0.769575
0.813482
0.760774
-0.760774
0.507624
0.528755
0.481099
-0.08394
-0.500417
-0.550627
1.07938
-0.442874
-1.42625
0.652225
0.52351
0.466896
-0.113514
-0.0126448
0.0655733
-0.886213
0.0949577
0.791256
-0.115184
0.0971005
-0.995524
0.586323
0.933159
-0.603329
-0.123494
0.00840583
-0.00887061
-0.809251
-0.0756758
-0.54374
-0.00147125
0.00814502
0.603754
-0.139169
0.078747
0.172565
0.00531185
-0.0120947
0.00678288
-0.814601
0.0679961
0.746605
0.616393
0.554771
-0.531993
0.410373
0.12162
0.917916
-0.743495
-0.17442
0.0792011
0.29586
-0.0136437
-0.0571124
-0.0569392
-0.0144307
0.559076
-1.16787
-0.840352
0.0976155
-0.742132
0.796856
-0.0547243
0.121428
-0.898511
0.777083
-0.800997
0.903539
-0.102542
-0.0712557
0.0848504
0.0195956
-0.283658
0.563599
0.714107
-0.0963544
-0.789859
0.913693
-0.0901033
-0.82359
0.0737228
-0.121153
1.1399
0.821561
-0.849881
0.455466
-0.379723
0.102804
-0.892663
1.45117
0.371249
-0.789735
0.00190108
1.01708
-0.895651
1.22874
1.18533
-0.837343
-0.347992
-0.879955
-0.115568
-0.408606
0.0303337
-0.647706
0.818603
-0.78658
0.78658
-0.603941
-0.0866285
-0.863364
0.119868
-0.932009
0.860596
0.0747972
-0.195034
-0.0576057
0.0609345
0.0111468
0.188575
0.828505
0.81691
0.772795
0.138101
-0.910896
-0.688083
1.15498
-0.781372
-0.107454
0.888826
0.172123
-0.888113
-0.674789
0.888226
-0.785421
-0.107963
0.458264
-0.0268837
-0.43138
-0.0301995
1.34839
-1.31819
0.103972
-0.308903
0.20493
-0.889335
-0.83011
0.0879785
0.525972
0.260003
-1.8394
1.09641
-0.579471
0.579471
-0.897527
-0.553771
-0.0868689
0.397262
-1.01791
1.1387
0.780771
-0.204627
1.11873
-0.637094
0.987472
-1.20719
0.219721
-0.0981484
-1.48137
0.233984
0.497251
-0.391265
-0.191699
0.243088
0.29907
-0.219869
0.780847
-0.883389
0.747661
0.407319
-0.151123
0.737446
0.584261
-0.584261
-0.0735992
0.0761968
0.109326
-0.0752439
1.21234
0.136049
0.305814
-0.000513887
0.00302598
-0.00251209
-0.667911
0.694601
-0.0266895
0.358695
-1.19604
0.108488
-0.893909
-1.10121
1.45421
-0.352994
0.177978
0.875729
-1.19066
1.54936
-0.755808
0.601877
-0.658502
-0.657069
0.152899
-0.208566
0.0275137
0.0761154
-0.68026
0.471694
0.00478992
-0.817501
0.068551
0.728305
0.692846
-0.090969
0.0757693
0.783719
0.0310603
0.559047
-0.590108
-0.838015
0.527671
0.530152
-0.962265
0.73882
0.223445
-0.684382
-0.127252
0.964491
-0.444792
-0.122166
-0.0388543
0.485753
0.514247
-0.769909
-0.11348
-0.556149
-0.314613
-0.521616
-0.244687
0.402518
0.597482
-0.118734
0.111167
-0.860013
-0.0681266
-0.590375
-0.15625
-0.247666
0.403916
-0.034245
-0.004077
0.111349
0.0713147
-0.128327
-0.113502
0.760161
-0.641305
0.717074
-0.0356279
-0.644632
0.00456764
-0.000221365
-0.00434628
-0.745869
-0.19511
0.940979
-0.241793
0.230423
-0.0241533
-0.0920152
0.00475354
0.0142311
0.709235
-0.129764
0.124262
0.110833
-0.73538
0.0674693
1.00954
-0.345807
-0.118642
-0.209719
0.00599732
-0.287579
1.02373
-0.0060163
0.369402
-0.239507
-0.00929133
-0.0515149
-0.0905338
0.0615818
0.947961
0.231781
-0.221283
-0.0104988
0.848139
-0.0206345
0.000800538
0.0198339
0.126772
-0.0137199
-0.000838579
0.217764
-0.106796
0.232558
-1.25047
0.438659
-0.206878
0.00707246
0.288988
-0.221504
-0.95964
1.29787
-0.338229
-0.782384
0.838461
-0.0560774
0.246961
0.251001
-0.0976862
-0.0696816
1.27392
-0.453874
-0.078119
0.277865
0.459266
0.190561
-0.649827
0.407425
0.0419651
0.652635
-0.577145
0.565547
0.0115977
1.29898
-1.14056
-0.0247312
0.0318695
-0.00713832
0.697016
-0.00885977
-0.0829372
0.0191199
1.39417
0.627265
-0.380304
0.0779879
-0.0831459
-0.11733
0.139618
0.0445158
-0.184133
0.0089337
-0.00834984
1.06301
-0.783786
0.17806
0.221563
-0.0257595
-0.0915286
0.223699
0.0969774
0.00648984
0.0799315
0.765567
0.401834
0.0949142
-0.496748
0.79118
0.172586
-0.963767
0.643351
0.121037
-0.068517
0.00296054
0.0655564
-0.722028
-0.0645995
-1.14259
-0.00102818
0.743775
0.715173
0.163885
-0.0767954
-0.434602
0.815474
0.147957
-0.019083
-0.880017
0.11665
-0.271271
-0.195437
-0.172709
0.690114
0.075453
0.0131899
0.594109
-0.343108
-0.191416
0.163695
0.0279414
-0.112831
0.423862
-0.0568238
0.0327681
-0.0725498
0.169885
0.196979
0.594202
-0.15228
0.251532
-0.0513026
-0.108715
0.0201372
-0.000771082
-0.0193661
-1.45127
0.310708
-0.00707562
0.885052
-0.226314
-0.614558
0.636977
-0.0224193
0.464624
0.757584
0.0755221
-0.0798684
0.0775555
-0.172105
0.627881
0.129703
0.570922
0.423471
-0.266366
0.721832
0.125359
0.822602
-0.600837
0.348659
0.252178
-0.131356
-0.0708406
0.0414495
0.0632505
-0.0465716
1.1758
0.73615
0.0793238
0.615586
0.223315
-0.874787
-0.0807423
-0.674476
0.676377
-0.0238697
-0.585404
0.429154
0.871946
0.669846
0.16072
0.017086
-0.160651
-0.316043
1.11642
0.50137
0.162088
0.0193255
0.7891
0.0335024
0.683703
0.59249
-0.0770687
0.709231
-0.741762
0.931243
-0.189481
-0.410643
-0.190194
-0.0428933
-0.195448
-0.216161
0.779735
0.00670651
-0.00263793
0.62908
0.0878179
-0.297537
0.601719
-0.131614
0.238972
0.752215
0.237167
-0.989382
0.276779
-0.923893
0.149248
-1.40591
-0.182245
0.772618
-0.590373
-0.668823
-0.11836
0.0263447
-0.0544047
-1.0757
0.0231624
-0.0440999
0.89064
0.152288
-0.356789
0.204501
-0.032947
-0.580724
0.103618
0.265784
-1.41634
0.00149611
0.00381574
-0.218217
-0.0530347
-0.592946
0.0158008
0.567314
0.304631
1.06642
0.897662
-0.248993
-0.383635
0.632628
-0.0460049
-0.616474
0.616474
-0.242422
-0.914335
1.15676
0.0297838
-0.148803
0.685715
-0.1184
-0.220454
-0.374838
0.252673
0.637638
0.771579
-0.183281
0.175576
-0.104948
-0.444647
0.486356
0.0791908
0.0566143
0.0143713
-1.45295
-0.201603
-0.24055
0.695351
0.304649
-0.201603
0.695351
-0.162419
-0.208498
-0.162419
-0.695911
0.695911
0.304089
-0.0142162
0.183702
-0.0752614
0.190835
0.130421
-0.46257
0.637853
-0.0361341
0.659635
-0.50347
-0.156166
-0.0586757
0.0582562
0.000419531
-0.00893443
0.00842054
-0.123302
0.018735
-0.0654465
-0.43549
-0.349906
0.126466
0.0425978
0.831304
-0.278541
-0.606872
0.281545
0.00578404
-0.139374
-0.00711822
0.677923
0.0658522
0.202823
-0.0162571
-0.00181783
0.0100269
0.0861222
0.561925
-0.474308
-0.0876164
1.95768
0.546884
-0.498021
0.897993
0.0110786
-0.0615954
0.105232
0.189669
0.124421
1.12408
-0.371869
0.0132735
-0.0644578
0.591199
-0.693458
0.0225712
-0.0225712
0.0198488
-0.0198488
-0.0168969
0.0168969
0.026759
0.366237
0.459427
-0.0298578
-0.721281
0.483836
0.18867
0.0290941
-0.081672
-0.482682
0.779244
0.111821
-0.796203
-1.14682
-0.0701851
0.0914744
0.0189288
-0.00336162
-0.0197705
0.0197705
0.225473
-0.0193585
0.0193585
0.701252
0.0926389
-0.0110407
-0.00521644
0.00664327
-0.0683782
-0.0228152
0.0228152
-0.00972868
0.00972868
-0.0218839
0.0218839
-0.0152041
0.0152041
0.111082
-0.29358
-0.0825317
0.220529
-0.0144321
0.0144321
-0.371731
0.510823
-0.139092
0.501768
-0.221103
-0.337294
-0.269578
0.558482
-0.131084
0.074592
0.562385
0.566425
-0.00803954
0.00803954
0.105136
0.0243469
-0.0243469
-0.0134353
0.0134353
0.752515
-1.18333
0.0339407
-0.249407
0.373094
0.00421222
-0.00421222
0.0125089
-0.0125089
0.0179991
-0.0179991
0.0236671
-0.0236671
-0.0230482
0.0230482
0.0344045
-0.0344045
0.480363
-0.031189
0.031189
-0.00337365
0.00337365
0.0236231
-0.0236231
-0.00438797
0.00438797
0.00935826
-0.00935826
-0.0738442
-0.0250739
0.0250739
0.197181
0.0216335
-0.0386545
0.0386545
0.00456959
-0.00456959
0.0180142
-0.0180142
0.0328438
-0.0328438
0.0258125
-0.0258125
0.0049833
-0.0049833
-0.0010646
0.0010646
-0.502809
-0.269702
-0.00807951
0.00807951
-0.00231985
0.00231985
-0.0373422
0.0373422
-0.0280003
0.0280003
-0.000691526
0.000691526
-0.413382
0.647929
0.260497
-0.0313538
0.0313538
-0.0407963
-0.0141187
0.0141187
-0.00143435
0.00143435
0.0374028
-0.0374028
-0.203116
0.184033
0.00204503
-0.00204503
-0.0234901
0.0234901
-0.502998
0.0446856
-0.372698
-0.0314636
0.0314636
-0.446597
0.0344518
0.0192612
-0.0241258
-1.31975
-0.0358961
0.0358961
-0.198392
0.141568
-0.0408482
-0.00079131
0.00079131
0.00390579
0.0463293
0.261477
-0.324602
-0.279858
0.60446
0.19478
-0.00315075
0.00315075
-0.197968
0.383901
-0.185933
0.772839
-0.398625
-0.374214
-0.458264
-0.662438
-0.094598
0.376143
-0.481309
-0.356706
-0.574037
0.0112512
0.191259
-1.2833
0.0151801
-0.0151801
-0.000238994
0.000238994
0.0301555
-0.0301555
0.0261806
-0.0261806
0.00119957
-0.00119957
-9.47167e-05
9.47167e-05
0.0294096
-0.340075
0.177977
-0.301471
-0.00116473
0.00116473
-0.0449156
0.0449156
-0.0394093
0.0394093
0.192327
0.035607
-0.227934
-0.0023195
0.319079
-0.545393
0.000946838
-0.000946838
-0.0153113
0.0153113
-0.0946834
0.0820085
-0.176607
-0.000182797
0.000182797
0.0953798
0.0143293
1.00236
-0.485206
-0.0799031
0.565109
-0.630474
0.0382007
-0.685907
-0.0385571
0.0385571
-0.681904
0.277722
0.0483932
-0.0483932
-0.642278
0.381814
0.263996
0.120743
0.00130552
-0.00130552
-0.82761
0.000998451
-0.000998451
0.310614
0.412229
0.0537069
-0.0522635
0.0522635
-0.000413177
0.000413177
-0.0413904
0.0413904
-0.0536927
0.0536927
0.00134514
-0.00134514
-0.0593266
0.0593266
0.00129322
-0.00129322
-0.0446257
0.0446257
-0.000453461
-0.0451104
0.0451104
0.00217976
-0.00217976
0.047076
-0.047076
0.000459397
-0.000459397
0.047581
-0.047581
-0.158026
-0.00174366
0.00174366
-0.00398666
0.00398666
-0.0541823
0.0827939
-0.0101954
0.0101954
0.00544418
-0.00544418
-0.057901
0.057901
0.294907
-0.0181029
0.0181029
-0.0570343
0.0570343
-0.00776766
0.00776766
-0.0655543
0.0655543
-0.0133948
0.0133948
-0.0783933
0.0783933
-0.0213082
0.0213082
-0.0939078
0.0939078
-0.687453
0.253436
-0.529481
0.507062
-0.875957
0.105113
-0.567908
0.395199
0.0131255
0.153056
0.0037451
-0.0037451
0.317683
-0.723227
0.0423209
-0.0279496
-1.03186
1.46888
1.2498
0.254101
-0.0470021
-0.0302683
-0.394825
-0.579889
-0.0637634
0.391861
-1.27039
-0.018736
0.018736
-0.764147
0.0210008
-0.0210008
-0.000298474
0.000298474
0.30845
-0.376639
-0.00214124
0.00214124
0.0191693
0.0146529
0.595887
0.188805
-0.00813389
-0.0101075
-0.00950513
-0.094324
0.490496
-0.396172
0.207742
0.0262419
0.00755477
0.944874
-0.00512985
0.0554462
-0.407485
0.437819
-0.487388
-1.01215
-0.221978
-0.0700551
0.0177046
-0.243139
-0.0657638
0.0518651
-0.00355594
-0.014254
0.781025
-0.551129
-0.0365266
0.0644681
-0.0355133
0.06666
0.117042
0.424827
0.235882
-0.166687
0.211954
0.0115828
-0.00172475
-1.25245
0.0208288
-0.101146
-0.255642
-0.019251
-1.43767
-0.0705931
0.263233
-0.349812
0.387904
0.325517
-0.937507
0.045533
-0.0278395
-0.0933138
-0.345314
0.466934
-0.0798702
-0.0200773
0.0999474
-0.0266829
0.0266829
0.179681
-0.426637
-0.106675
0.122456
-0.0778456
0.053976
-0.0656931
-0.00675898
0.072452
-0.028259
-0.150488
0.109181
-0.0777302
-0.28968
-0.361823
0.651503
0.0142739
0.057823
0.1519
-0.0276381
-0.159707
0.0650619
-0.155435
0.306621
-0.00568161
0.0255155
-0.0283224
0.180222
0.00317599
0.256015
-0.00022007
0.00022007
-0.207604
0.891307
0.0888018
-0.169544
-0.0514857
-0.00976615
0.846532
0.702824
0.00165634
-0.0302567
-0.533929
0.00444803
0.188684
0.0880069
-0.676721
0.314883
-0.0566197
0.384208
-0.673888
0.221614
0.517206
-0.0874572
0.0874572
-0.000305504
-1.34378
0.583298
0.760485
-0.209784
0.155379
0.0954105
-0.140762
-0.608423
-0.125448
-0.032006
0.041733
0.930127
0.256561
-0.0958407
-0.0682162
-0.468768
-0.726839
-0.0753608
-0.267695
0.802679
0.582276
-0.263198
-0.260008
0.548996
-0.0288286
0.38295
-0.267324
0.097065
-0.466751
0.327659
0.123002
-0.123002
0.10771
-0.118347
0.0106368
0.00698848
-0.00152327
0.0205813
-0.26045
-0.461578
0.230513
-0.1863
-0.0442139
0.543438
-1.07431
0.185647
-0.997404
0.696492
-0.123128
-0.178343
-0.0423461
-0.0793702
-0.484037
0.0485469
-0.283442
0.00415443
-0.019251
0.373867
-0.00522503
0.00111733
0.000771919
0.0123138
-0.012534
0.000220224
-0.106119
-0.0167549
-0.164019
0.180774
-0.12954
-0.337211
0.0191693
0.346724
0.00277811
-0.369743
0.0838238
0.00246292
0.183698
-0.213556
-0.0119952
0.0119952
-0.000918871
0.00278025
-0.00940255
0.000996888
-0.071563
0.000851861
-0.00116426
0.248415
0.0113978
-0.000616675
0.000616675
0.107092
0.513655
0.00164917
-0.292127
0.448858
1.12649
-0.474854
0.337135
-0.438841
-0.240108
0.133433
0.230094
-0.231843
-0.013655
0.0183577
-0.00412665
-0.00860968
-0.180028
-0.382073
0.865908
0.496001
-0.466592
0.216536
-0.00156072
0.173708
0.00426927
0.00160981
0.00107042
0.0172873
0.263269
0.0013123
-0.000177009
0.716323
-0.651261
-0.243277
0.103516
0.925815
0.000885499
0.00098044
-0.0408482
-0.00565105
0.818336
-0.432477
0.511668
-0.555163
0.902131
-0.453184
0.582639
-0.18744
0.694026
0.00123723
0.00320534
0.0157235
-0.118187
0.138152
-0.226796
0.00921974
0.00137752
0.0635717
-0.0488198
-0.0147519
0.00110572
0.0400228
0.0254576
-0.0654804
-0.0887029
0.00282248
0.000203498
0.00156309
0.468426
-0.428029
-0.00270284
0.000255314
1.15177
-0.568475
0.388019
-0.00574059
0.000552315
0.216007
-0.0379475
-0.0401941
-0.118938
-0.0183797
-0.0035132
0.11875
0.0537653
-0.0015704
0.415952
0.000766121
-0.00391289
0.00391289
0.00575111
-0.0158586
3.48369e-05
-0.321035
-0.00363468
0.0709576
-0.10717
0.0188787
-0.00660174
-0.0654228
0.000217892
0.002243
0.471475
0.00010596
-0.00446038
-0.0384329
-0.00198117
0.000471454
0.104935
0.200879
-0.711166
0.482404
-0.864476
0.0162447
-0.00023038
-0.700497
0.103892
0.139196
0.598213
-0.0151356
0.0150863
-0.00387028
-0.00131721
-0.552201
-0.00323531
-5.19204e-05
-0.0400136
0.931019
-0.523594
-0.0024503
-0.000833828
-0.00563743
-0.00220306
0.0666646
-0.0222845
0.0222845
-0.0315065
0.0342867
-0.00232347
-0.00765333
0.0420947
-0.0409774
-0.163111
0.0922706
-0.00562719
-0.012839
0.0434913
-0.0160791
0.0607471
-0.0430425
-0.624548
0.569824
0.0184161
-0.00169908
0.325087
-0.155203
-0.0716979
-0.690438
-0.0778595
-0.121122
-0.0922156
0.0902344
0.686908