/*--------------------------------*- C++ -*----------------------------------*\
| =========                 |                                                 |
| \\      /  F ield         | OpenFOAM: The Open Source CFD Toolbox           |
|  \\    /   O peration     | Version:  2306                                  |
|   \\  /    A nd           | Website:  www.openfoam.com                      |
|    \\/     M anipulation  |                                                 |
\*---------------------------------------------------------------------------*/
FoamFile
{
    version     2.0;
    format      ascii;
    arch        "LSB;label=32;scalar=64";
    class       volVectorField;
    location    "12.1";
    object      U;
}
// * * * * * * * * * * * * * * * * * * * * * * * * * * * * * * * * * * * * * //

dimensions      [0 1 -1 0 0 0 0];

internalField   nonuniform List<vector> 
2186
(
(1.31317 -0.0630662 1.64719e-19)
(1.61327 -0.9412 -1.18737e-19)
(1.459 -0.917494 -1.39509e-21)
(0.739457 -0.583464 -1.16136e-19)
(-0.582208 0.594069 -2.15214e-19)
(1.06497 0.111871 0)
(0.724784 -0.669211 0)
(-0.324189 -0.543583 1.36347e-19)
(1.47769 -0.26572 2.13748e-19)
(0.553485 -0.313107 -2.36163e-21)
(0.683409 0.616633 0)
(0.818473 -0.270089 -1.53418e-19)
(-0.398856 -0.646203 -5.56857e-20)
(1.18315 0.0272633 -2.91282e-19)
(1.79898 -0.685857 -1.24118e-19)
(1.01874 -0.00320355 1.37587e-19)
(0.992412 0.0150483 0)
(-0.817162 0.449232 0)
(1.09621 0.0385754 0)
(-0.0640752 0.273865 -7.77001e-20)
(0.482834 0.0888414 -9.5694e-20)
(-0.233454 0.174418 1.05811e-19)
(1.16594 0.025636 2.41604e-19)
(-0.204784 0.00554855 4.93455e-21)
(1.03002 0.00394626 -1.89278e-19)
(0.788262 -0.557532 0)
(0.758948 -0.0314059 1.17926e-19)
(0.613022 -0.592567 -1.29842e-19)
(1.20839 0.71771 0)
(0.965466 0.0205367 -2.59449e-19)
(-0.0114282 0.0550607 0)
(1.03066 -0.0155426 8.9392e-21)
(0.00645871 0.354249 0)
(2.33267 0.230535 2.05907e-19)
(-0.101098 -0.138953 3.33279e-21)
(1.53276 0.783931 1.62117e-20)
(1.7109 0.153908 1.23065e-19)
(0.509402 0.136093 -2.8445e-19)
(1.94625 0.297175 -4.33189e-19)
(1.03967 0.0923028 2.10782e-21)
(-0.445849 -0.690994 0)
(-0.199767 0.150166 0)
(1.87589 -0.881806 1.02235e-19)
(-0.42707 0.206028 0)
(1.10552 0.284589 1.18844e-19)
(0.596221 -0.294198 2.32617e-19)
(0.923492 -0.786954 0)
(1.18861 -0.788829 7.1633e-20)
(2.24942 -0.537254 0)
(-0.427967 0.671774 2.46193e-19)
(0.00207589 0.12139 1.14898e-19)
(0.633914 0.585942 6.09388e-20)
(2.06364 -0.766427 1.31169e-19)
(0.594956 0.268136 -2.27474e-19)
(-0.240935 0.216577 3.93897e-20)
(0.764572 -0.651736 0)
(1.66276 -0.967514 1.84039e-20)
(0.583113 -0.543636 0)
(2.39999 0.234108 1.37746e-19)
(1.1227 -0.168264 -2.66939e-19)
(1.5383 -0.109558 1.23745e-19)
(1.35137 0.307053 -1.26578e-19)
(1.34356 0.542861 0)
(0.991679 0.0980947 -2.3093e-21)
(1.36082 0.392025 -7.00901e-20)
(1.25349 -0.731865 -9.25283e-20)
(1.16796 0.666803 3.79619e-20)
(0.676556 0.0702466 -4.58429e-19)
(0.818936 0.0552894 0)
(2.07635 -0.223118 -7.68113e-20)
(-0.302698 -0.606432 -1.58182e-19)
(1.78143 -0.482739 -1.12694e-19)
(0.723601 -0.0392727 -2.01669e-19)
(0.870556 -0.514953 0)
(0.830744 0.183275 -7.37488e-20)
(0.550381 -0.512331 -2.39262e-19)
(2.20309 -0.36923 0)
(1.00378 0.00694484 2.84805e-19)
(-0.0847596 -0.223272 0)
(2.00215 0.44159 0)
(0.905565 0.368843 1.62713e-19)
(0.886175 0.101379 -6.69899e-21)
(1.03729 0.00664749 3.14128e-20)
(1.32243 0.432036 1.85714e-20)
(0.96795 0.0272355 3.29524e-19)
(1.03986 0.0284709 -7.80961e-21)
(0.668348 0.17377 -2.73682e-19)
(1.10984 0.0802564 -8.65194e-23)
(0.30996 -0.0345414 0)
(-0.0648796 -0.0300862 1.10993e-19)
(0.859839 -0.622008 -1.25535e-19)
(-0.0944794 0.572702 -2.18068e-21)
(1.11847 -0.0767305 1.89127e-19)
(0.813189 -0.184474 0)
(0.984498 0.0196342 3.15799e-20)
(1.36152 0.652865 0)
(1.62447 -0.955819 0)
(1.30004 0.22127 0)
(-0.565251 0.661454 0)
(0.792301 -0.667294 2.2649e-19)
(0.737677 0.0372539 -4.81296e-19)
(0.891631 0.26567 3.15643e-19)
(1.52077 0.191089 0)
(1.11318 -0.0980779 -1.72897e-19)
(1.09136 0.0221479 1.41218e-19)
(0.00836274 0.666279 1.52064e-19)
(0.64004 0.50338 0)
(2.19686 -0.173963 -1.51714e-19)
(0.964869 -0.474508 6.30721e-20)
(-1.33136 0.250355 2.05699e-19)
(1.73833 0.313786 1.40678e-19)
(-0.315878 0.786669 -3.43344e-19)
(0.818901 -0.743941 0)
(0.566041 0.343562 1.37839e-19)
(1.64526 -0.268685 -6.14868e-19)
(-0.585919 -0.505408 -5.30268e-19)
(1.06463 -0.0784879 3.62235e-20)
(1.91466 -0.639835 0)
(-0.0869512 -0.0293253 -3.32552e-19)
(0.706703 -0.0746148 6.38601e-20)
(1.55477 0.887211 0)
(-0.324762 0.653206 -3.81505e-19)
(0.89125 0.7679 -2.07883e-19)
(-1.04749 0.461944 5.339e-19)
(1.03138 -0.0228643 0)
(1.10569 -0.0281398 -4.56375e-20)
(-0.490692 0.735484 0)
(0.69704 -0.496578 -8.53117e-20)
(-0.981829 0.438643 -2.86038e-19)
(0.791381 -0.721833 0)
(0.437727 -0.280322 3.4224e-19)
(0.544207 -0.460341 2.26357e-19)
(0.414286 -0.375064 0)
(0.985988 -0.782765 -8.56934e-20)
(0.947129 0.189207 0)
(-0.160916 0.737524 -1.9312e-19)
(0.812559 -0.699205 1.06194e-19)
(2.39783 -0.261471 3.38074e-19)
(2.25648 0.141377 0)
(-0.0597518 -0.151367 0)
(0.687981 0.640516 -2.52006e-19)
(1.77655 -0.627991 2.72015e-20)
(-0.199403 -0.283923 0)
(0.98622 -0.807482 -9.59637e-21)
(1.11847 -0.10688 0)
(1.10169 -0.125835 3.02063e-19)
(2.10617 -0.186768 -1.49514e-19)
(-0.614053 0.55381 0)
(1.2289 -0.554913 -3.71793e-20)
(-0.200463 0.409441 -4.91788e-20)
(-0.312449 0.718169 0)
(1.09687 -0.814092 1.23407e-20)
(1.00732 0.00185972 -4.75838e-19)
(0.651883 -0.482998 -8.4488e-21)
(0.812816 -0.514842 0)
(1.20354 -0.729165 -6.11669e-20)
(0.657206 0.232891 2.13116e-19)
(1.24395 0.0985769 0)
(1.51314 0.102781 -1.05366e-19)
(1.20111 -0.856414 -1.09443e-19)
(-0.0501556 -0.128152 -1.24009e-19)
(-0.029497 -0.489663 -2.4876e-19)
(1.07257 0.004904 1.77454e-19)
(0.912672 -0.46078 -7.93156e-20)
(1.0993 0.0723484 8.01038e-23)
(1.1461 0.0344083 -1.59417e-21)
(0.722358 -0.099119 1.36541e-19)
(-0.208987 -0.0119048 -2.99869e-19)
(1.16458 -0.245915 0)
(1.2778 -0.386645 4.87977e-20)
(1.44217 0.658656 7.57196e-20)
(0.808169 -0.615356 -1.65205e-19)
(0.998691 0.0121592 9.75545e-21)
(0.720894 -0.533479 2.34554e-19)
(1.30086 0.808218 7.51012e-20)
(1.89324 0.0532642 2.89723e-20)
(-0.671997 0.404496 0)
(1.07767 0.0552179 -1.83604e-19)
(-0.944489 -0.00195916 -3.52219e-19)
(1.07477 0.493656 6.04142e-20)
(0.0602199 -0.0876618 1.81171e-19)
(1.13135 0.0311777 -3.37456e-20)
(-0.158819 0.266621 -1.8799e-19)
(1.29199 0.590705 -4.86081e-20)
(1.13817 0.892269 0)
(-0.719916 0.36899 -1.11344e-19)
(-0.283406 -0.213581 0)
(0.657241 0.563157 -2.2117e-19)
(2.07156 0.230118 -3.04579e-20)
(-0.521391 -0.671948 1.90316e-19)
(-1.02178 0.0889895 -7.82085e-19)
(0.722789 0.0737791 2.01201e-19)
(2.1687 -0.170812 -6.7417e-20)
(0.987715 -0.348931 -2.34547e-20)
(-0.0110834 -0.0270331 0)
(-0.915615 -0.202348 2.60416e-19)
(1.32219 0.973619 1.80193e-20)
(0.842946 0.074158 -1.0911e-19)
(0.559262 0.524593 1.53009e-19)
(0.417586 0.191408 0)
(-0.0718796 -0.635666 -2.75544e-19)
(-0.468319 -0.0440834 1.10949e-19)
(1.29916 -0.959758 4.90949e-23)
(0.976567 -0.0386364 -1.47733e-19)
(-0.162572 -0.130033 7.0914e-21)
(-0.274034 0.350296 1.74399e-19)
(-0.314181 -0.110274 -2.15762e-19)
(1.91066 -0.612481 0)
(1.1194 0.0497278 -2.45347e-19)
(2.20491 -0.080511 2.38199e-19)
(1.28113 -0.620204 6.06363e-20)
(0.560614 0.0464829 1.00199e-20)
(0.593145 0.323008 0)
(0.946554 0.755729 -1.21397e-20)
(0.687496 0.633736 1.40527e-19)
(0.894374 -0.561252 1.13572e-19)
(0.687179 0.497463 0)
(1.01826 0.00472833 6.31662e-21)
(0.882402 -0.663972 1.61594e-19)
(0.840046 0.418836 -3.62816e-19)
(1.25323 -0.109043 0)
(-0.269803 -0.286597 -3.4649e-19)
(0.0277623 0.527872 -1.15708e-19)
(1.58143 0.732268 0)
(1.35252 -0.940813 -4.2017e-23)
(-0.84022 0.486358 0)
(-0.551419 0.731648 1.37169e-19)
(0.740363 0.655634 -7.65475e-20)
(0.847266 -0.224179 0)
(-0.205243 -0.137967 0)
(1.59558 -0.457186 0)
(-0.525853 -0.545086 5.14399e-19)
(1.2154 -0.885873 7.21428e-20)
(1.18417 -0.602482 4.12891e-20)
(1.0624 -0.164778 -1.18493e-19)
(0.879649 -0.694104 -1.26532e-19)
(0.187496 -0.19154 0)
(-1.27795 0.383796 0)
(1.00423 -0.508447 1.29327e-19)
(-0.121691 -0.256248 0)
(-0.456055 0.642887 0)
(-0.55853 -0.485819 4.51031e-19)
(0.79604 0.673368 6.64181e-20)
(1.0142 0.799806 0)
(0.699545 0.551576 -6.76774e-20)
(0.828701 -0.0448065 -1.79978e-19)
(0.74794 0.559598 -1.80157e-19)
(0.594925 0.552839 -1.31742e-19)
(-0.241866 -0.598339 3.42817e-21)
(0.721259 -0.646546 0)
(0.90424 0.176711 -2.56063e-19)
(-0.355428 -0.685192 7.29929e-20)
(0.606866 0.563081 2.92198e-19)
(0.959713 0.802844 0)
(-0.756461 -0.335343 4.82797e-19)
(-0.0388499 -0.456476 3.74732e-19)
(0.0404704 -0.396059 -1.92533e-19)
(0.667323 0.569932 -1.1775e-20)
(0.969263 -0.00637755 4.57824e-20)
(-0.462185 -0.704059 0)
(2.29395 0.0286432 -3.42593e-19)
(1.54547 -0.619712 -1.19495e-19)
(0.653818 -0.605438 -5.7574e-20)
(-0.601904 0.383433 1.9691e-20)
(1.19389 0.469953 1.29807e-19)
(0.887691 0.410512 0)
(1.03307 -0.18184 1.43587e-19)
(0.167714 -0.595735 -1.09895e-20)
(-0.0703988 0.146011 4.36153e-19)
(0.926323 0.0189763 -4.04942e-20)
(1.13706 0.126723 0)
(1.90919 -0.0635625 -3.47136e-19)
(1.95012 0.0751265 0)
(0.544446 0.248929 -3.7573e-19)
(-0.282287 0.409977 0)
(-0.276786 -0.54217 3.10075e-19)
(0.726852 0.0885068 0)
(0.622225 -0.51754 -1.4513e-19)
(1.12039 0.0147194 1.61079e-19)
(-0.632974 0.537839 5.18041e-20)
(2.00669 -0.107272 -5.91737e-21)
(2.0946 -0.27237 -1.55975e-19)
(1.11085 0.232627 -1.67142e-19)
(-0.37861 -0.720306 -1.45666e-19)
(1.07769 -0.852173 0)
(0.8058 0.0160496 -1.17314e-19)
(0.924365 -0.377807 -2.26146e-19)
(1.7172 -0.571866 -1.09398e-20)
(1.73055 0.0244383 3.29188e-19)
(1.07422 -0.00246501 2.95043e-19)
(0.154349 -0.547072 -1.93907e-19)
(1.00548 -0.43932 -9.4852e-20)
(0.197733 -0.19058 2.0576e-19)
(1.00938 -0.00986378 0)
(1.00187 -0.00491363 0)
(1.2413 -0.725431 3.25144e-20)
(-0.0502172 0.749088 -1.29553e-19)
(0.185873 -0.117942 -1.60569e-19)
(1.63725 -0.16632 2.23092e-20)
(1.3248 -0.531573 0)
(2.15354 -0.160589 -1.59549e-19)
(0.946102 -0.822928 -4.42326e-20)
(1.79215 -0.557321 -9.90614e-20)
(1.10485 0.842633 0)
(0.474301 -0.456897 0)
(0.607397 0.516755 -1.42157e-19)
(1.10051 0.286906 -3.05691e-19)
(2.25615 -0.261371 5.09437e-22)
(0.869567 0.161043 1.10264e-19)
(0.0763358 -0.543668 -5.92811e-19)
(0.941804 0.0523482 -2.04669e-20)
(-0.181149 -0.532022 0)
(-0.0613102 -0.151822 0)
(-0.595372 -0.642985 0)
(1.34308 -0.724191 -3.70883e-20)
(-0.331838 0.733769 -2.64792e-19)
(-0.119507 0.275981 0)
(1.28352 0.97623 -1.02323e-20)
(1.10924 0.152517 -3.19672e-19)
(1.52359 0.451736 -4.1698e-20)
(1.07668 0.922894 4.27107e-20)
(-0.260631 0.821129 1.77096e-19)
(0.598215 0.0494817 0)
(-0.596498 -0.575867 -4.00619e-19)
(-0.399158 0.817987 3.29876e-19)
(0.775358 0.0311477 1.47674e-19)
(1.52591 0.952019 4.70934e-20)
(1.29106 0.188085 -1.91086e-20)
(-0.158924 0.546991 -2.99025e-21)
(0.747197 -0.681437 -2.67941e-20)
(1.17213 0.00905223 0)
(1.735 -0.0101532 0)
(1.06647 0.0373622 0)
(-0.644697 0.251844 -1.31341e-19)
(-0.494335 -0.646079 1.49453e-19)
(1.04747 0.848903 0)
(0.990788 -0.00592327 3.97795e-19)
(0.7705 0.603653 -1.79788e-19)
(-1.21039 0.0606513 -1.56081e-19)
(0.861838 0.015568 -3.2776e-20)
(0.716111 -0.653199 -1.63825e-19)
(1.37842 0.71446 -1.43188e-20)
(0.565146 -0.454534 -2.36436e-19)
(1.11185 0.00330995 -3.56202e-19)
(0.829601 0.0442312 3.40863e-20)
(1.53122 -0.183747 3.09646e-20)
(0.836768 -0.118416 -4.21727e-20)
(-0.0379982 -0.0620806 -5.27127e-24)
(1.082 0.472068 -2.02187e-19)
(1.30418 0.613346 9.69551e-20)
(-0.0587124 -0.407086 0)
(0.0599647 -0.505688 2.21358e-19)
(-0.372878 -0.400708 1.45057e-19)
(-0.201647 -0.0603285 -1.54006e-19)
(0.475252 0.311331 0)
(1.33934 -0.699103 0)
(0.0124779 -0.00554661 -1.59022e-19)
(-0.285822 -0.723363 -8.37274e-20)
(1.04504 -0.0334432 1.41112e-19)
(-0.597026 0.438072 -4.97102e-20)
(1.66881 -0.589481 -5.4626e-19)
(0.00293783 0.778796 0)
(0.834868 -0.739498 -2.1521e-19)
(0.615234 -0.0355727 8.04348e-20)
(-0.387014 -0.296695 2.27364e-19)
(0.720429 0.160212 2.6639e-19)
(0.621701 0.13413 8.68944e-20)
(0.503073 -0.476876 1.60448e-19)
(-0.223416 -0.359079 -1.65356e-19)
(1.29433 0.221227 0)
(0.392281 0.341981 -1.59293e-19)
(1.02604 -0.0214794 -2.24568e-19)
(-1.10147 0.0971735 3.04273e-19)
(1.41681 0.496621 -6.47847e-20)
(-0.148411 -0.338159 -6.16661e-20)
(0.689066 -0.629069 -7.17833e-21)
(0.82132 0.189744 -1.64759e-19)
(0.981364 0.425455 1.75504e-20)
(1.13649 -0.140205 2.58966e-20)
(0.605858 -0.231088 -2.44022e-19)
(1.9988 -0.364465 -2.11562e-19)
(0.929179 -0.206364 0)
(1.1238 0.421399 -3.80482e-20)
(1.60674 0.185245 -1.99413e-20)
(1.02282 -0.276512 1.63566e-19)
(0.913356 0.35574 -2.15954e-19)
(0.957681 0.11724 1.2509e-20)
(0.418904 0.386693 -2.05131e-19)
(-0.27504 0.280947 3.41356e-19)
(1.93807 -0.178658 0)
(0.94138 0.0108313 0)
(0.875102 -0.77373 3.8848e-20)
(-0.0288585 -0.561249 -4.0978e-19)
(-0.978066 0.250399 -3.83046e-19)
(-0.0584574 -0.105485 -2.6449e-19)
(-0.594099 0.587997 -2.17406e-19)
(-0.263406 -0.482534 0)
(-0.0446957 -0.102965 4.67731e-20)
(0.333078 0.631542 -1.15506e-19)
(-0.309157 0.400984 -3.99295e-19)
(0.799027 -0.114001 0)
(1.37682 -0.535474 4.41262e-20)
(-0.335475 -0.401661 0)
(1.00407 0.028181 2.86243e-19)
(-0.0209616 -0.531162 3.02967e-20)
(0.541317 -0.426551 3.16866e-19)
(-0.93771 -0.048048 5.84187e-19)
(-1.57562 -0.193641 0)
(0.316255 0.69733 1.49192e-19)
(1.00468 0.0245052 -8.57342e-21)
(-0.2014 -0.0945272 0)
(1.00295 -0.00341134 -4.46434e-20)
(0.861196 -0.726723 -2.11262e-19)
(1.30726 -0.791626 0)
(0.93906 -0.279341 1.60736e-19)
(0.149759 0.599334 3.18623e-19)
(-0.00181217 0.00104953 0)
(-0.130454 -0.569735 -8.06747e-21)
(0.726504 -0.63508 -3.28912e-19)
(0.974345 -0.0267033 -2.02045e-19)
(-0.0429743 -0.636787 5.14973e-19)
(-0.198428 -0.490779 1.89022e-19)
(-0.229069 -0.54522 0)
(0.958634 0.472036 0)
(-0.277729 -0.51912 2.81697e-19)
(1.95597 0.111997 -2.39988e-19)
(1.07355 0.899778 1.17354e-20)
(1.06888 0.214697 -9.52189e-20)
(1.14671 -0.00693327 -1.64824e-19)
(1.03148 -0.0741177 -5.56845e-20)
(-0.0243829 -0.664593 -4.767e-19)
(1.9157 0.00233728 5.17045e-19)
(0.709797 0.022778 1.55031e-19)
(1.89324 -0.052209 1.52142e-19)
(1.02949 -0.132851 0)
(0.110218 0.448321 4.23875e-19)
(1.11259 0.0220957 -3.87932e-19)
(1.74117 0.629134 -2.71812e-20)
(0.737441 -0.454533 -1.27824e-19)
(-0.0668011 -0.0220441 2.48684e-19)
(0.798488 -0.699983 2.79989e-19)
(1.22848 0.196036 5.35959e-20)
(1.0018 -0.00954464 1.97896e-19)
(0.140703 -0.589482 -2.1515e-19)
(1.02796 0.0169475 0)
(1.41901 0.16255 -1.76311e-19)
(-0.011253 -0.0030891 0)
(1.02092 0.0172174 -1.16194e-19)
(-1.24204 -0.423434 -5.48839e-19)
(1.70132 0.333739 1.05818e-21)
(-0.524015 -0.411248 1.85683e-19)
(1.63646 0.033681 -3.75496e-20)
(1.02048 -0.0173726 4.08175e-20)
(1.34141 -0.0816508 0)
(1.44245 -0.608455 -6.40483e-20)
(1.01983 0.0345233 -1.20751e-19)
(1.43527 0.795088 -3.75644e-21)
(1.37092 -0.0542812 0)
(0.968145 -0.10665 -1.84892e-21)
(0.013603 -0.00614485 0)
(1.37049 0.0466893 0)
(-0.469381 -0.677764 0)
(1.24056 0.450686 0)
(1.8867 0.313741 6.93298e-20)
(0.744925 0.61736 3.14767e-19)
(0.292765 -0.294629 -1.89935e-19)
(-0.249393 -0.669024 -4.58294e-19)
(-0.010837 -0.0277274 0)
(1.37804 -0.498825 6.39373e-20)
(1.3183 0.519648 0)
(1.45931 0.301945 0)
(-0.647568 -0.55041 1.78273e-19)
(0.811523 0.719046 9.46739e-20)
(1.69272 -0.0156361 0)
(-0.421745 -0.587904 1.06259e-19)
(0.911767 0.224221 1.50303e-19)
(1.37022 -0.391945 -4.41993e-20)
(1.23962 0.932163 2.51242e-20)
(0.923113 -0.830461 -1.50768e-20)
(0.549669 -0.147207 -4.17573e-20)
(0.797462 0.722322 9.57951e-20)
(1.17595 0.928966 0)
(1.91689 -0.421778 1.25166e-19)
(1.28034 0.806764 0)
(1.29089 -0.358587 1.81001e-20)
(0.931721 0.10963 2.18431e-19)
(1.0055 -0.00492724 0)
(0.28532 0.268097 3.53279e-19)
(0.881558 -0.177259 3.76213e-20)
(0.628675 -0.409115 0)
(0.666587 -0.381053 1.70462e-19)
(1.23683 0.562817 -2.34477e-20)
(0.477874 0.450147 2.21817e-19)
(-0.357401 0.501577 4.71575e-20)
(0.117463 0.0639325 1.1477e-19)
(0.769618 0.0628258 0)
(1.32553 -0.901079 -1.46398e-20)
(1.04424 -0.0378511 3.13106e-19)
(1.48165 0.328947 1.71145e-19)
(-0.458282 -0.632272 9.25738e-20)
(-1.05184 -0.0279402 0)
(1.20643 -0.244462 -8.14348e-20)
(0.000287861 -0.00102807 -2.15029e-19)
(0.209054 0.259814 -5.08564e-20)
(-0.130397 0.0359768 -5.11337e-22)
(-0.206968 0.0900475 3.51614e-19)
(1.1628 0.0742812 -5.23135e-22)
(2.35711 -0.0263876 4.58786e-19)
(1.19347 0.468811 -2.09328e-19)
(0.934925 -0.0289039 0)
(1.88627 -0.0537258 3.21404e-19)
(1.83734 0.126082 1.41484e-19)
(0.912132 -0.765263 1.00821e-19)
(1.15752 -0.975385 -2.96543e-21)
(0.482656 0.44784 1.47631e-19)
(1.59481 0.546991 0)
(1.75239 0.586664 5.92287e-20)
(-0.00331221 -0.0107279 -4.3848e-19)
(0.887359 0.777021 0)
(1.14244 0.0521206 0)
(0.294033 -0.293895 -3.80184e-21)
(0.324181 0.302142 0)
(-1.40122 0.163899 -5.25333e-19)
(-0.447798 0.681283 -1.4383e-19)
(1.73697 -0.417593 0)
(1.29822 0.0604299 6.87126e-20)
(-0.801283 0.276648 3.2168e-19)
(0.534488 -0.507872 -3.60451e-19)
(1.93747 -0.0933668 -5.72952e-20)
(0.612112 -0.555705 0)
(1.04885 0.116362 0)
(1.36385 -0.226276 0)
(1.10379 0.233146 -1.76184e-19)
(1.31549 0.110286 2.46887e-19)
(-1.23603 -0.152604 0)
(0.851208 -0.0636438 0)
(1.84178 -0.118585 1.58953e-20)
(-0.118693 0.286592 1.20855e-19)
(2.36208 -0.254784 -3.16301e-19)
(1.06897 -0.509697 2.25458e-19)
(1.83595 -0.0802096 -3.25063e-19)
(-1.26049 0.381584 -2.3721e-19)
(1.99055 0.0801225 -2.73312e-19)
(1.01355 -0.0197126 3.22086e-19)
(1.51341 0.612849 0)
(-0.465126 0.741024 3.79718e-20)
(1.00492 -0.829046 1.15973e-19)
(0.855628 -0.0163961 3.83107e-20)
(0.633451 -0.432634 0)
(1.89187 -0.539831 1.16841e-20)
(1.20066 -0.198958 1.03979e-19)
(1.33713 -0.45822 0)
(0.6085 -0.564711 3.19393e-19)
(0.48843 0.0447859 -5.68365e-20)
(2.33662 -0.314447 6.09791e-19)
(-0.169675 0.445239 -2.512e-19)
(1.32946 0.62653 9.32585e-20)
(1.15173 0.412777 2.7348e-21)
(0.908262 0.373756 1.77338e-19)
(1.9668 0.247819 -2.52769e-19)
(-0.0541549 -0.669507 -7.66989e-21)
(0.986197 -0.178374 0)
(-0.152126 -0.0916892 4.10411e-19)
(1.09207 -0.949986 0)
(1.06322 -0.649072 1.54443e-20)
(1.32211 0.0349326 -7.43953e-19)
(1.13918 -0.0558234 -3.75507e-22)
(-0.645191 -0.295192 -5.36877e-19)
(0.990709 0.482998 1.34475e-19)
(0.0691337 0.316467 1.45359e-19)
(0.712978 -0.0412121 0)
(1.30937 -0.194852 0)
(1.20228 0.154617 1.78044e-20)
(0.754418 -0.0135456 0)
(1.34656 -0.223866 -1.06991e-19)
(-1.74906 0.35444 6.9225e-19)
(1.92529 0.500316 6.29913e-20)
(1.05677 -0.0321666 0)
(0.552318 -0.350183 8.35405e-20)
(1.01535 0.0242758 1.53647e-19)
(0.9812 0.835782 -1.65071e-19)
(-0.517931 0.537213 0)
(1.11732 -0.475318 3.51874e-19)
(1.18312 -0.110429 -2.88391e-22)
(1.11315 -0.497761 -1.53463e-19)
(2.38112 0.198186 2.45343e-19)
(1.28415 0.796665 0)
(0.869772 0.0193064 0)
(-0.527622 -0.653286 -2.34673e-19)
(0.0102553 -0.00417922 1.78901e-19)
(0.957344 0.370119 -1.61944e-19)
(0.32824 -0.463447 -1.90334e-19)
(0.649891 0.405124 1.96403e-19)
(0.911211 -0.126278 0)
(0.538519 -0.500562 0)
(1.25484 -0.0162939 1.7703e-21)
(1.24265 -0.511377 -6.72046e-20)
(0.622326 0.0123979 1.51724e-20)
(0.727944 -0.153829 9.55367e-20)
(-0.068979 0.15092 -3.20048e-19)
(1.53015 0.0413756 3.80095e-19)
(0.666235 0.621613 0)
(1.26743 0.701537 0)
(1.59085 0.256888 0)
(-0.366398 -0.493748 -2.24959e-19)
(1.24028 0.560618 2.46174e-19)
(1.96687 0.101431 5.58949e-20)
(0.967067 0.00122604 0)
(1.16655 -0.141034 0)
(2.10185 -0.0979884 -4.03065e-19)
(0.939303 0.645734 1.8809e-19)
(1.00654 0.00252254 -1.53791e-19)
(1.4923 0.482292 0)
(-0.436661 0.547462 0)
(1.24624 0.329163 2.10286e-19)
(1.0238 0.527105 -9.79235e-20)
(1.06585 0.0277703 0)
(1.84278 0.298035 0)
(1.97138 0.68075 -3.73684e-19)
(-0.122297 0.701463 -7.15345e-21)
(0.998821 0.0139993 0)
(0.711566 0.470231 -2.6666e-20)
(0.936363 -0.82498 0)
(1.01053 0.0136318 3.56814e-20)
(1.11702 -0.222386 5.25175e-20)
(0.899545 -0.322437 2.37113e-19)
(1.19416 -0.0294834 -4.02927e-20)
(2.16867 -0.130837 4.31001e-19)
(1.05606 0.167186 7.0635e-20)
(0.7565 -0.0241298 0)
(1.01391 0.00792214 0)
(-0.682221 -0.2748 0)
(0.669541 0.642083 -1.4174e-19)
(-0.0345424 0.0793863 2.15937e-19)
(1.16613 0.353215 -3.39015e-19)
(-0.787366 0.330863 0)
(0.832905 0.644671 1.31028e-19)
(1.02222 -0.339286 0)
(1.00729 -0.00628282 8.98141e-20)
(0.468525 0.236963 6.22057e-20)
(1.04151 0.40993 1.94344e-19)
(1.62851 0.0726891 0)
(2.1881 0.177103 -1.12016e-19)
(0.821858 -0.11183 -2.89182e-19)
(-1.34195 0.146748 -6.7451e-19)
(1.28527 0.432122 0)
(0.884509 0.247454 1.39484e-19)
(2.07745 -0.111171 0)
(0.779126 0.519029 2.87248e-19)
(-1.79328 0.303512 2.78194e-19)
(-0.0648365 0.159353 0)
(0.595917 0.566407 -5.53477e-20)
(1.02529 -0.636385 -1.08481e-19)
(0.4796 -0.247315 -1.00787e-19)
(1.01857 -0.0166035 0)
(-0.574408 0.392942 -3.18517e-19)
(0.637802 -0.569423 6.39506e-20)
(0.910376 0.293399 0)
(1.53554 -0.652228 6.85589e-20)
(0.985202 0.842928 1.72125e-20)
(1.15673 -0.175157 -3.82868e-20)
(0.226706 -0.267215 -2.91786e-19)
(0.23149 -0.038864 -4.5937e-19)
(-0.090204 -0.230559 1.14225e-20)
(0.820733 0.35626 1.95931e-19)
(-0.356641 0.762208 -6.59002e-21)
(1.41199 -0.649992 3.33813e-21)
(1.02547 0.0141248 -2.65977e-19)
(-0.477433 -0.439077 0)
(1.03446 0.0338415 -3.13372e-19)
(2.14476 0.347718 2.10157e-19)
(0.890785 0.69279 2.15147e-19)
(1.10515 -0.0584368 1.21116e-19)
(0.994639 -0.0315814 1.23264e-19)
(1.16483 -0.0657534 3.00387e-22)
(-0.422664 -0.507537 -2.30238e-22)
(1.72939 -0.87135 1.5215e-20)
(1.14048 -0.143482 -5.0922e-20)
(0.801339 0.0338936 5.8048e-20)
(0.905357 -0.295338 7.04988e-20)
(0.422671 0.119973 0)
(0.96453 0.73853 0)
(0.794347 0.270198 -7.41579e-20)
(2.06603 0.200378 -4.40359e-20)
(-1.31631 0.162994 2.52377e-19)
(1.02998 -0.533926 -3.80069e-19)
(0.616564 -0.534971 3.10241e-19)
(1.40013 0.257753 -2.06361e-19)
(0.371881 -0.542274 2.18789e-20)
(1.22357 -0.146316 0)
(0.755398 0.116926 -5.45556e-21)
(1.26147 -0.241484 -3.7684e-20)
(1.04099 0.766217 0)
(1.19845 -0.293969 0)
(0.74527 -0.00396998 0)
(-0.201462 -0.386468 -7.50488e-20)
(-0.165843 0.16328 0)
(1.57442 0.780045 2.27922e-19)
(1.20904 0.183936 4.75348e-21)
(-0.846851 -0.140832 1.97421e-19)
(1.32734 0.318242 2.35812e-20)
(1.81727 0.479215 -1.11207e-19)
(2.12194 -0.321474 -4.50297e-20)
(-0.175941 0.00107163 -2.49765e-19)
(-0.131171 -0.577614 6.01163e-21)
(0.750121 0.114796 0)
(0.693184 -0.0375266 0)
(0.997982 0.00115854 8.22248e-23)
(-0.411111 -0.483961 0)
(1.5008 0.00219697 -1.52569e-19)
(0.691448 -0.0335458 0)
(1.05385 0.0130057 9.68206e-20)
(0.999129 0.0143304 -3.49254e-20)
(1.46558 -0.0936196 2.3443e-19)
(1.06543 -0.0123564 -7.14896e-22)
(0.949521 -0.199848 -4.25031e-20)
(1.02472 -0.0317302 2.84701e-19)
(0.67102 -0.610303 1.43191e-19)
(-0.273144 -0.391948 -1.75973e-19)
(0.948807 0.0875625 3.76363e-20)
(0.00835375 0.00755329 0)
(1.12539 0.799838 0)
(1.02895 -0.00783876 0)
(1.00237 -0.772171 -7.26117e-20)
(1.03952 -0.890921 3.19319e-21)
(0.775287 -0.128583 -2.35537e-20)
(-0.0275291 0.0978359 -8.29908e-19)
(1.2016 -0.0495702 2.23195e-21)
(0.584996 -0.383247 -5.11617e-19)
(1.00383 0.299285 -7.37645e-20)
(1.25118 0.00902008 -2.01799e-20)
(2.05947 -0.329867 1.45171e-19)
(0.467949 -0.0661223 -5.36336e-20)
(-0.362644 -0.582681 -1.58815e-19)
(1.1137 0.554863 1.43851e-19)
(-0.0800036 -0.341077 0)
(0.256056 -0.495258 4.98082e-19)
(-0.0523927 -0.0821765 1.45909e-22)
(1.04538 -0.0429069 2.56904e-19)
(1.02098 0.00364569 -6.58994e-21)
(1.0927 -0.00926086 -7.11408e-20)
(1.09246 -0.0897109 -1.79641e-21)
(1.62651 0.321178 2.38081e-20)
(0.400308 -0.37561 -2.52435e-19)
(0.839966 -0.127582 3.87651e-20)
(1.02895 0.00699762 -1.87749e-19)
(0.801229 -0.0187288 -3.87304e-20)
(1.06305 -0.128159 0)
(1.109 0.594279 -2.68286e-19)
(1.00432 -0.00329331 7.34421e-20)
(0.680408 0.607238 2.05433e-19)
(1.16239 0.0340246 3.42973e-22)
(1.06834 -0.00783062 -2.3263e-20)
(1.11491 0.0124216 6.6037e-22)
(2.40331 -0.136886 2.4207e-20)
(0.131199 0.00867499 0)
(1.06392 -0.0362445 0)
(1.06503 -0.0319645 4.51763e-19)
(1.00277 -0.000835455 0)
(-0.0258792 -0.0528621 0)
(0.956276 -0.577945 0)
(0.996508 -0.000956103 -4.26964e-19)
(1.15727 -0.679044 5.40401e-20)
(1.02806 -0.00268631 8.9095e-21)
(1.34074 0.961323 -5.92324e-21)
(1.52102 1.00822 -1.23585e-19)
(1.21702 0.0233321 -3.62702e-21)
(1.63334 0.394879 2.0751e-19)
(0.921548 0.201199 0)
(0.0832145 0.726025 0)
(2.12973 0.0129262 5.35708e-19)
(1.21576 -0.506306 0)
(1.00005 -0.00511235 -1.32537e-19)
(1.00758 -0.00109889 2.57238e-19)
(1.40732 0.141324 -5.02591e-20)
(0.0083867 -0.123445 3.172e-19)
(0.975403 -0.000159442 1.39314e-19)
(0.582143 -0.0721298 2.52417e-20)
(0.592831 0.0698197 -1.31638e-20)
(1.09411 -0.0798502 -1.88461e-23)
(0.917654 0.0219387 -1.39911e-19)
(1.00016 0.00371594 1.66032e-19)
(0.999299 -0.00171048 9.80873e-21)
(0.785276 -0.0101493 0)
(0.723992 -0.0278874 0)
(0.724876 -0.0264232 6.10025e-22)
(0.703043 -0.0263332 0)
(0.264223 -0.0363183 0)
(0.313052 0.0108132 0)
(0.510228 0.0115721 7.71803e-21)
(0.669285 0.050393 -5.26104e-21)
(1.06764 0.0507667 0)
(1.11994 0.00926008 1.03185e-21)
(1.09603 -0.0481955 0)
(0.548293 -0.0109784 0)
(0.37339 -0.0275064 0)
(0.233633 -0.0152652 8.51028e-21)
(0.160907 0.0333638 1.0771e-19)
(0.796833 0.0212891 0)
(0.808126 0.0254043 0)
(0.951469 0.0216585 -1.72595e-19)
(0.831861 0.0068972 3.2411e-19)
(1.00549 -0.000259183 0)
(1.00046 -0.000627261 3.06534e-19)
(0.999318 -0.000854625 -2.63077e-22)
(0.809296 0.0188183 2.73867e-19)
(0.992379 -0.000876314 -1.59996e-19)
(0.680123 -0.0519839 0)
(0.39895 0.0241094 1.31761e-20)
(1.00251 0.0016312 -1.54996e-19)
(0.99895 -0.00224949 -2.65882e-19)
(1.06693 -0.0565772 0)
(1.00056 0.0036798 0)
(0.998476 0.00024053 0)
(1.12841 -0.0150746 1.09141e-20)
(1.27582 0.00452556 4.43903e-21)
(0.821055 -0.0596127 0)
(-0.562536 0.480298 2.33721e-19)
(-0.409804 0.646415 -3.43231e-19)
(1.02191 -0.013788 -2.05919e-19)
(-0.357653 -0.694348 -1.52843e-19)
(1.01798 0.0034186 -1.65156e-19)
(1.1622 -0.227375 -6.32725e-20)
(0.791676 -0.468863 2.37007e-19)
(-0.0387754 -0.0701695 -1.06815e-19)
(1.02352 0.00908969 0)
(1.06836 -0.00703181 -4.44635e-20)
(0.866488 0.0235153 0)
(-0.035006 0.0680632 3.15466e-19)
(1.19157 -0.441337 0)
(-0.509931 -0.569234 -3.9436e-19)
(0.512371 -0.0805716 -3.20988e-20)
(1.65147 0.691672 8.39758e-20)
(-0.0471504 -0.0444997 0)
(1.06887 -0.0388824 1.39563e-19)
(1.22469 0.03896 5.21482e-22)
(0.92148 -0.0118919 2.21949e-19)
(1.01356 -0.00552214 -1.40423e-19)
(1.66826 0.87038 7.99345e-20)
(0.526292 0.493022 0)
(0.447423 0.400597 1.66178e-19)
(1.07089 -0.00306821 -3.52851e-21)
(1.1315 0.127825 1.46369e-19)
(1.08605 -0.707867 0)
(1.02988 0.00843556 0)
(1.00222 -0.0174722 -3.24076e-19)
(1.01587 0.016803 -3.15016e-19)
(-0.130305 -0.392399 0)
(1.21995 0.827777 -7.66656e-20)
(1.15011 0.0715685 -3.65124e-22)
(1.01478 0.00655811 1.21203e-19)
(1.00728 0.0131547 -1.52398e-19)
(-0.671466 -0.508615 -3.90436e-20)
(1.22399 0.030986 -9.75034e-21)
(1.01121 -0.017172 5.17619e-19)
(1.08287 0.109573 0)
(1.85374 0.663696 -9.39377e-20)
(1.0198 -0.0109685 -1.6117e-19)
(1.91918 0.148518 -1.38329e-19)
(1.05352 0.00985568 -3.71336e-22)
(1.00586 -0.0163469 3.23061e-20)
(2.08504 -0.233365 -3.53451e-19)
(1.01538 0.00734389 1.56424e-19)
(1.2632 0.0103586 4.16925e-21)
(1.01762 0.00844182 0)
(0.936629 0.150566 3.9045e-20)
(-1.33111 0.00254742 5.94121e-21)
(0.991101 0.0206154 1.55745e-19)
(1.03624 0.0201714 -5.03867e-22)
(1.17487 0.0774906 -2.15516e-22)
(1.24981 0.317245 2.90573e-19)
(1.00306 0.0125478 1.06642e-19)
(1.01377 -0.0108047 3.80955e-22)
(1.74971 0.257083 -7.00049e-22)
(1.75674 0.941404 -1.2205e-19)
(0.774594 -0.694565 4.14097e-20)
(0.45023 -0.323623 -2.49958e-19)
(1.0039 -0.00782317 0)
(1.01804 0.0083617 3.88755e-20)
(1.01187 -0.00119543 8.19808e-20)
(1.24763 -0.0248772 2.20348e-21)
(1.02145 0.00331721 -1.62538e-19)
(1.02701 -0.0187502 1.85213e-19)
(1.01159 -0.00570108 -1.53352e-19)
(1.00992 0.0030473 -5.56153e-22)
(1.01439 0.00395516 -4.4703e-22)
(1.01745 0.0186854 1.55641e-19)
(0.90773 0.0834786 4.04406e-19)
(1.69698 0.675128 0)
(0.717895 0.108365 2.8206e-19)
(1.01365 -0.00510777 0)
(1.02568 -0.0188787 -4.51011e-20)
(1.54314 0.462028 -3.15697e-20)
(1.73793 0.0673245 0)
(1.62535 -0.413128 -6.67825e-20)
(1.38536 0.735162 -3.50762e-20)
(0.799423 -0.0119625 0)
(2.0125 -0.0160537 0)
(0.814953 0.58975 -1.028e-19)
(1.15593 -0.0114481 -1.29378e-21)
(1.01241 -0.00309681 -1.63905e-19)
(1.12133 -0.560039 -4.2989e-20)
(1.17912 0.0493481 -2.14554e-21)
(1.32817 0.2725 0)
(1.16786 -0.0656649 0)
(1.53584 0.516598 0)
(0.291373 0.580043 1.32282e-19)
(1.27959 -0.0244829 3.18094e-21)
(0.0747257 0.200038 0)
(-0.099898 0.590596 -3.99884e-19)
(1.69209 0.972816 -1.17447e-19)
(1.00473 -0.00292689 -3.20631e-19)
(1.2343 -0.0316236 1.576e-21)
(1.02282 0.00741879 2.1133e-19)
(0.716807 -0.0416674 0)
(-0.0978144 -0.321616 -3.25948e-20)
(0.617203 0.431556 -2.76258e-19)
(1.64746 0.692116 6.8151e-20)
(0.214742 0.630688 0)
(0.786654 0.106577 5.45961e-20)
(0.524224 0.500688 4.12674e-20)
(1.18667 0.89201 -1.95763e-20)
(-0.0229802 -0.00683965 1.58317e-19)
(1.01519 0.00896497 0)
(1.2939 0.0820121 4.24264e-21)
(1.00553 -0.00342569 1.20385e-19)
(2.43158 0.00767524 0)
(1.01557 0.00900494 2.01813e-19)
(0.329895 -0.505182 -2.34328e-19)
(1.01013 0.0111508 -1.24688e-19)
(1.21932 -0.027665 0)
(1.58255 -0.501946 3.11936e-22)
(1.0078 0.00551384 -8.39179e-20)
(0.989635 -0.0255619 2.22014e-19)
(1.08718 0.0965481 -2.61759e-21)
(1.26168 0.141529 -1.53859e-20)
(-0.1568 -0.0548746 4.1415e-19)
(2.04675 0.336781 2.58399e-19)
(1.19589 0.194522 1.84916e-20)
(0.818702 0.0206639 -3.03632e-19)
(0.812219 0.0306669 0)
(1.28535 0.0449363 1.2552e-20)
(1.02738 -0.00998208 -2.42598e-20)
(0.968231 0.0293344 0)
(1.04413 -0.00114163 -1.53832e-19)
(1.01787 -0.040821 -4.71675e-20)
(-1.56934 0.0478126 2.93157e-19)
(2.13979 -0.586622 0)
(-0.836366 -0.29743 -8.49255e-19)
(1.49445 -0.354484 0)
(1.03805 -0.0174579 4.52326e-20)
(1.02188 -0.0882857 2.47384e-22)
(1.01615 -0.002292 1.29987e-19)
(-1.05395 0.15632 6.22115e-19)
(1.0222 0.00313306 0)
(0.985504 0.00531867 -3.156e-19)
(1.01128 0.0083057 1.65611e-19)
(1.01998 0.0463495 0)
(0.999921 -0.0455693 -6.68147e-22)
(0.970646 -0.000297414 -1.42451e-19)
(-0.25916 -0.6853 5.08423e-19)