/*--------------------------------*- C++ -*----------------------------------*\
| =========                 |                                                 |
| \\      /  F ield         | OpenFOAM: The Open Source CFD Toolbox           |
|  \\    /   O peration     | Version:  2306                                  |
|   \\  /    A nd           | Website:  www.openfoam.com                      |
|    \\/     M anipulation  |                                                 |
\*---------------------------------------------------------------------------*/
FoamFile
{
    version     2.0;
    format      ascii;
    arch        "LSB;label=32;scalar=64";
    class       surfaceScalarField;
    location    "48.1";
    object      phi;
}
// * * * * * * * * * * * * * * * * * * * * * * * * * * * * * * * * * * * * * //

dimensions      [0 3 -1 0 0 0 0];

oriented        oriented;

internalField   nonuniform List<scalar> 
3181
(
-1.04621
0.408363
0.637851
-0.390335
0.367515
0.0228201
0.524347
-0.360483
-0.163864
0.121819
-0.201242
0.079423
-0.0462715
0.0336091
0.0126624
0.712375
0.842008
-1.55438
0.146748
-0.140599
-0.00614961
-0.0277883
-0.0271111
0.0548994
0.571055
-0.739196
0.168141
-0.0750298
0.136144
-0.0611143
-0.010966
-0.0529517
0.0639177
0.121115
0.0521067
-0.173222
0.0554755
0.0122499
-0.0677254
-1.09982
0.149346
0.950474
-0.330863
0.704598
-0.373735
-1.12447
0.637922
0.486545
0.0834011
-0.929048
0.845647
-0.0456664
-0.150561
0.196227
-0.865022
0.15893
-0.00716626
0.0654108
-0.0582445
0.0394357
-0.0880215
0.0485858
0.0242884
-0.0247533
0.00046485
1.0672
-1.04082
-0.0263852
0.0289228
0.039065
-0.0679878
-0.955355
0.323855
0.6315
-0.108402
0.230221
0.307791
-0.247262
-0.060529
0.0289777
0.0608605
-0.0898382
-0.41819
0.340179
0.0780103
-0.0326158
-0.0101344
0.00876583
0.00136856
-0.0346407
-0.920714
0.127221
-0.088613
-0.0386084
-0.0940867
1.35676
-1.26267
-0.0828399
0.0356955
0.0471444
0.196589
0.267589
-0.464178
1.08123
-1.17532
0.0735079
-0.0340722
1.46729
-0.905897
-0.561397
-0.0882546
0.80063
0.0557835
-0.000307984
0.0272269
-0.00293853
-0.410817
0.0799535
-0.0996301
0.126857
-0.638664
0.133283
0.505382
-0.14766
0.0726302
-0.167531
0.171526
-0.00399462
-0.271081
-0.0777401
0.348822
0.300784
0.375892
-0.676676
0.0733884
0.00308765
-0.0764761
-0.0173007
-0.104637
0.111084
-0.00644642
0.520095
0.184502
-0.0967745
0.143523
-0.0467483
0.0342193
0.0930021
-0.170893
0.196792
-0.0258989
0.164553
0.055213
-0.219766
0.10683
-0.112665
0.0058346
0.893024
0.574271
-0.86071
-0.185504
-0.215465
-0.922702
1.13817
0.558462
0.224079
-0.782541
-0.457738
-0.197848
0.655587
-0.688933
0.600679
-0.261588
0.82005
-0.323987
-0.104026
0.428014
-0.213885
-0.204304
-0.190651
0.168037
0.0226139
0.135998
0.284786
-0.420783
-0.230144
0.801199
0.0636711
-0.0914594
-1.26763
1.05217
0.185979
0.121812
-0.178267
-0.111848
0.290115
-0.270212
0.358689
-0.0884772
-0.079359
0.0873403
-0.00798128
-0.966847
-0.920751
0.011795
0.908956
0.0223023
-0.105142
-1.16807
0.722619
0.445448
0.280261
-0.666505
0.386244
-0.830853
0.14192
1.0986
-0.949254
-0.719327
1.15064
-0.200161
1.06396
0.170219
-0.175391
0.00517268
1.08853
-0.24652
1.64328
-1.64328
-0.00865292
-0.000965056
0.00961798
-0.21257
-0.0531925
0.265762
0.0898008
-0.0788509
-0.0109499
-0.452307
0.833124
-0.380817
-0.0199521
-0.234583
0.254535
-1.08443
0.0436104
0.340392
0.0683199
-0.408712
0.134012
-0.859244
1.08332
0.0745618
-0.0343536
-0.0402082
-0.0176512
-0.153242
-0.190632
0.578409
-0.387778
-0.662446
0.471814
0.108403
-0.967647
0.327561
-0.779867
0.923935
-0.840534
0.0490436
0.0368561
-0.0858998
0.084135
0.0532595
-0.137395
-1.35954
-0.147691
1.50723
-0.244738
0.409951
-0.165213
0.502989
0.420727
-0.923716
-0.455605
-0.712463
0.0903185
-0.01693
-0.151611
0.145976
0.00563512
-0.0789695
-0.0139333
0.0929028
-0.557191
-0.182005
-0.0293387
-0.00499347
0.0343321
-0.688222
0.337688
0.350534
0.519136
-0.143244
-0.0154659
0.006813
0.0359973
0.149982
-0.199262
0.39585
0.0816154
-0.113306
0.0316905
0.140587
0.0707917
-0.211379
0.373036
-0.684111
0.311075
-0.597025
-0.527441
-0.232936
-0.455286
0.0020705
0.0724913
-0.105605
0.183616
-0.0780111
0.327369
0.0244054
0.122343
-0.0566111
0.0694371
-0.0128259
-0.0947478
-0.0213269
0.116075
0.0734469
-0.0734469
-0.185075
0.209481
-0.382185
0.0847031
0.104604
0.0921883
-1.26419
1.03404
-1.20229
-0.0744563
1.27674
-0.0551519
0.0420525
0.0130993
-0.0279781
-0.0542987
0.0822767
0.540509
-0.0207582
-0.519751
0.0682632
-0.0632091
-0.00505415
-0.199659
0.0145839
0.162009
0.671114
-0.366
0.52801
-0.12475
-1.23479
-0.00924891
-0.0370226
0.486858
-0.304263
-0.182595
0.0689121
-0.0669786
-0.00193351
0.0485779
-0.319659
0.0222501
-0.943001
0.0488795
-0.154485
-0.286669
-0.401727
0.0734443
1.33321
-0.898293
-0.434918
1.00603
0.327177
0.0671414
0.28168
-0.0605914
0.00543956
-0.411209
0.332219
0.0789897
-0.25653
-0.586583
0.843113
-0.356586
0.223506
1.03432
-0.875389
0.150038
0.0355156
-0.0636179
0.0281023
-1.88355
-0.0954695
1.97902
0.0646699
-1.94822
-0.323982
0.664373
-0.906798
-0.0176253
-0.000841187
-0.270766
0.271607
1.21359
-1.39069
0.177104
-0.0452197
0.0359708
0.571008
-0.827538
-0.479226
0.0474968
0.43173
-0.300667
-0.116768
0.417434
0.185554
-1.0089
-0.075533
-0.0247619
-0.0334826
-0.562182
0.364334
-0.253767
0.0209936
0.232774
-0.0853887
0.0401691
0.014549
-0.014549
-0.122441
0.134325
-0.0118844
-0.0518717
-1.15042
0.00611905
-0.0312182
0.0250992
-0.230675
0.200529
0.0301461
-0.224257
0.0336057
0.932197
0.0487647
-0.980962
-0.191044
0.448278
-0.257234
-0.0326946
0.0289599
0.00373479
1.10952
-0.606534
-0.198525
-0.00297044
0.201496
-0.174711
0.310709
-0.106068
0.104269
0.00179937
0.068466
0.0596769
-0.128143
-0.168267
0.189271
-0.0210039
-1.03548
-0.305854
1.34134
-0.219605
-0.0505736
0.270179
-0.693598
0.661227
0.032371
-0.0085987
0.0476637
0.0200971
-0.0216976
0.00160042
-0.00658087
-0.061407
0.635409
-0.116273
0.175182
-0.882718
0.707536
-0.0849777
1.15487
-1.06989
0.382832
0.981366
0.661918
0.0645533
0.208822
-0.0682342
-0.0747766
-0.0298605
0.236922
0.159715
-0.0755798
0.735356
-0.411501
0.0608463
0.204916
0.0493177
-0.166789
0.117471
-0.779851
-0.130423
0.910274
0.00571839
-0.00571839
-0.0395693
-0.291912
0.559501
0.0122459
-0.231851
-0.261548
0.110987
0.0272543
-0.0251838
0.138374
-0.14934
-0.346662
0.32671
0.0807663
-0.023586
-0.0571803
0.392229
-0.340123
0.243516
-0.570377
0.326861
-0.20618
0.273321
0.187301
-0.491564
-0.207401
0.615764
0.16545
-0.0316023
0.0316023
-0.846928
0.205958
0.640969
0.383416
0.0265345
0.0606095
-0.0658204
0.00521086
-0.11083
-0.0625073
0.0331686
-0.05061
0.188984
-0.183646
0.247592
-0.0639458
0.130983
0.0287316
-0.391628
0.144365
0.193875
-0.0628914
-0.0475211
-0.0585471
0.0476037
-0.0707943
0.0231906
0.145537
-0.103762
-0.0417751
-0.0174654
0.398565
-0.381099
0.0749095
-0.0112383
0.108897
-0.113525
0.00462889
0.0251758
0.302115
-0.0585991
-0.0588038
0.0850209
-0.026217
-0.0902909
0.188539
-0.0982486
-0.0937094
0.0965327
-0.720365
0.623832
0.0619025
-1.52152
-0.361336
1.88286
-1.01723
1.50209
-0.484864
0.0809312
-0.249637
-0.434473
0.273953
0.261629
-0.535581
-0.21007
0.259388
0.1389
-0.889313
0.750413
-0.160167
0.0698758
-0.0353261
0.0105642
-0.992039
0.443524
0.548515
0.898293
-0.78989
-1.62341
1.47572
-1.21359
1.13913
0.0400764
-0.0868246
0.000979539
0.0191176
-0.0438557
0.801094
-0.662194
0.12138
-0.0725009
0.415866
0.734769
-0.0772308
-1.02656
0.941579
-0.686764
-0.577423
-0.243176
-0.395488
0.0746015
-0.165294
0.213872
-0.576173
-0.373668
0.182624
0.77759
-0.237081
-0.863171
-0.760238
0.74619
-0.00430079
-0.155866
0.283065
0.0359137
-0.0359137
0.669174
0.150738
-0.819912
-0.227178
0.896352
1.17401
-0.551338
-0.622676
0.0661696
0.0185335
0.00855837
0.00346837
-0.0120267
-0.922702
-0.0237718
-0.119473
0.468344
0.463853
-0.0347196
-0.132812
-0.245469
0.765564
-0.20123
-0.0525372
-0.00297817
-0.0763808
-0.0547806
0.10804
0.380816
-0.247534
-0.811514
-0.287677
-0.280633
0.0333679
0.247265
-0.780744
1.76211
-0.205002
0.299577
-0.0945754
-0.0270373
-0.0335541
-0.06546
0.0946119
-0.0291518
0.00970102
0.418313
0.0363206
0.0325916
0.00790845
0.0174782
-0.0253867
-0.0219496
-0.176576
-0.728409
0.371694
0.356716
0.506011
-1.00356
0.497552
0.142792
-0.166055
0.0232627
0.0283158
0.0620027
0.0692997
-1.71258
-0.0231646
-0.0422955
-0.0528767
0.0359467
0.159467
-0.358728
-0.205009
0.158232
0.0467771
0.0502315
0.0915862
0.0539504
-0.779851
-1.75029
0.714803
0.0185777
0.0760342
0.0463614
-0.639297
-0.0543013
0.0625353
0.131339
0.803669
0.0405836
-0.461367
0.121166
0.36328
-0.29496
-0.116153
0.0214056
0.22619
0.836602
-1.06279
0.103365
-0.717267
0.613902
-0.945514
0.815091
-1.36927
-0.278644
1.64791
0.0418594
-0.0441512
0.00229178
0.168456
-0.469122
0.258713
-0.156291
-0.102423
0.100594
0.0879451
0.00167152
-0.282305
0.0202673
0.0237092
-0.03029
0.0213444
0.0799582
-0.101303
0.156787
0.00762268
-0.00782361
0.000200928
-0.0580287
0.0467904
0.864112
0.0212233
0.0147475
0.316615
-0.340387
0.0444491
0.0217204
0.00727314
0.084313
-1.64791
1.71258
0.343761
0.0620301
-0.405791
-0.255837
0.0804457
0.120897
-0.115724
-0.00133318
0.0886734
0.0411521
-0.44343
0.238421
-0.0451996
0.066544
0.741357
-0.254812
-0.0866911
-0.143984
0.331605
0.00276093
0.0578486
-0.00779018
0.0812371
0.14671
0.211979
0.159115
-0.334599
0.175484
0.110297
0.560817
-0.0385617
-0.109098
0.92266
-0.248676
-0.673984
-1.36927
-0.120506
0.626518
1.08123
-0.0636128
0.36072
-0.297107
0.439576
-0.038995
-0.400581
0.223238
-1.05409
-0.0757331
0.0766298
-0.000896683
0.37838
-0.0788917
-0.299489
0.459106
-0.986605
0.527499
0.04191
0.65694
-0.69885
-0.0441867
-0.107424
-0.105897
0.0470932
-0.49814
-0.348787
0.0404923
0.00136709
-0.148523
0.132605
0.0159187
-0.0969162
-0.314293
0.0117522
-0.0387894
0.145837
-0.108981
-0.0193992
-0.00229832
0.197716
-0.432299
0.534687
0.967404
-0.00701256
0.00129417
-0.990434
-0.0184625
0.333891
-0.0718224
-0.0443309
-0.458372
-0.0208543
-0.0947275
0.226461
-0.131734
-0.0674722
0.111921
-0.933549
-0.0157052
0.0171484
-0.650156
0.746688
-0.0174045
0.182854
-0.896609
0.345272
0.184656
-0.441767
0.257111
0.03639
-0.149696
-0.0112974
0.00956582
0.00173162
-0.0172729
-0.150994
-0.0207655
-0.132476
0.749446
-0.646081
-0.0360213
-0.0680334
-0.301918
0.315576
-0.156461
0.42275
1.42065
-0.228489
-1.19216
-0.124516
0.14551
-0.510291
-0.218118
-0.561753
0.612841
-0.593693
-0.0191481
-0.0869764
0.0509551
-1.02656
0.53517
-0.53517
-1.59242
1.59242
0.801094
1.09059
-1.15116
0.0605707
-0.89866
-0.0917738
0.650398
-0.354458
-0.29594
0.162097
-0.240109
-0.0140372
-0.0014287
-0.89126
-0.0763871
-0.933861
0.213496
0.112411
-0.0790433
0.699137
-0.111371
-0.587766
0.574481
0.50675
-0.0115962
0.000298747
-0.959934
-0.647188
0.0768108
-0.149199
-0.556689
0.705888
-0.0422399
-0.794377
-0.596315
0.217648
-0.814673
-0.910274
1.34138
-0.431102
-0.139092
0.279857
-0.140764
-0.0251075
0.724244
-0.100898
-0.982441
0.982441
-1.04182
-0.096815
1.13864
0.00124999
0.0063727
0.0804802
-0.445374
0.911709
-0.189089
-0.0868042
-0.0329355
-0.0348381
-0.0206555
-0.0120391
1.41354
-1.69218
-0.402885
0.471351
-0.648405
1.01087
-0.362469
0.0894903
-0.112655
0.128846
-0.0580546
0.358935
-0.0172135
0.0294634
0.356767
0.0417982
0.0471192
-0.257088
0.209969
0.137869
0.0336574
0.100868
0.189911
1.34084
-0.288676
0.473661
1.31082
-1.78448
-1.6715
1.57603
0.445806
-0.318949
0.0739889
-0.76539
0.691402
1.56425
0.127299
-0.473962
-0.0741741
0.133079
-0.0589052
0.130543
-0.204718
-0.45761
-0.104573
-0.0752205
0.0785561
-0.0033356
-0.00678368
-0.0126156
0.273967
-0.180965
0.662194
-0.613902
-0.0482911
-0.291381
0.303627
0.878512
0.774553
-0.334978
0.00338715
-0.0346054
-0.442599
0.490096
0.17243
-0.579371
0.406941
0.00615955
0.00340627
0.472625
0.272684
-0.745309
0.0141742
-0.0212342
0.00705998
-0.0333733
0.025935
0.00743831
-1.58989
1.34337
-0.196743
-1.32478
-0.195981
-0.78989
1.13913
1.47572
-0.192386
-0.171549
0.120975
-0.0666717
0.0729361
-0.00626437
-0.0332298
1.48978
-1.45655
0.525935
0.124463
-0.0112305
0.01739
0.126044
-0.0747039
0.0329355
-0.0502069
0.00500729
0.029133
-0.471732
-0.0129151
0.0401694
-0.23789
0.630119
1.00603
-0.747777
-0.0592638
0.00115434
0.0581094
1.78916
-0.313444
-0.0599838
-0.0526808
-0.958917
0.169027
0.414834
-0.22928
-0.482241
-0.128517
0.610758
0.814056
-0.359717
-0.454339
-0.162344
0.0676169
-0.941579
0.0188774
-0.00688571
-0.0422765
0.0491622
0.206903
0.94797
-0.167802
0.17636
0.517033
1.45457
-0.31544
-0.680814
0.0555863
0.625228
0.372461
0.0196146
-0.351044
0.532121
0.810281
-0.704098
0.0745109
-0.0205605
-0.172891
-0.0870725
0.259964
0.675247
0.0532264
-0.0453179
-0.0443778
-0.367126
0.106025
-0.316095
1.26096
0.159687
-0.0202031
-0.0667733
0.318352
-0.381965
-0.025849
0.0172503
0.109948
-0.146309
0.0363608
-0.298783
0.312435
-0.0136516
0.710276
-0.938765
-0.447487
-0.701118
1.14861
0.276824
-0.202372
-0.0744521
0.273877
0.0416994
-0.792573
-0.957714
-0.654135
0.654135
1.13817
0.574481
-0.717267
0.325474
0.484807
0.15529
0.48568
0.945904
-0.419969
0.00645613
-0.870855
0.864398
0.130728
0.00541656
0.025275
-1.8343
1.04172
0.116833
-0.168808
-0.120595
0.289403
-0.231103
-0.511462
0.342654
-0.957769
-0.295802
-0.647679
-0.00405263
-0.00688172
-0.000941885
-0.228574
0.0127458
0.234519
0.0346592
-0.148501
0.113842
-0.108668
-0.933154
-0.00533358
0.0661941
-1.32504
1.54753
-0.22249
-0.564807
0.382212
-0.141767
0.118181
0.233713
-0.00802343
-0.0273027
-0.617756
0.666521
0.0354732
0.0734233
-0.2046
-0.0973185
0.242366
0.016347
-0.423747
2.04832
0.428015
-0.523477
0.865958
-0.791969
0.789187
-0.457582
-0.614194
0.16882
0.157109
-0.796365
0.767231
0.0291336
1.51203
-0.251069
-0.264
-0.138885
-0.0624941
-0.0163568
0.949818
-0.837533
-0.112284
-0.185844
0.110264
0.0270278
0.118948
0.874285
1.00871
-0.572751
-0.435963
-0.324837
-0.0488304
-0.124362
-1.20068
0.183577
1.32365
0.293397
0.281084
0.168752
0.552795
-0.721548
0.49376
0.053029
-0.0184336
0.0104102
-0.517856
-0.0963389
-0.0141704
-0.0712184
-0.190214
0.139604
-0.530711
0.273477
-0.992568
-1.18439
-0.293639
-0.999941
1.14321
0.133531
-0.287934
-0.436923
0.466056
-0.2947
0.302824
0.0539427
1.36216
-0.90305
-0.192785
0.129894
0.386025
-0.701025
0.315
-0.0206163
0.0137306
0.0513171
-0.0606606
-0.238123
-0.117725
0.697815
-0.418043
-0.279772
-0.513365
0.132648
-0.0957738
-0.0368745
0.244882
0.0579419
0.58244
-1.0673
-0.0991242
0.145486
1.1851
-0.176383
-0.01322
-0.0850286
-0.0227668
0.0172532
0.00551359
-0.0224008
0.0644533
-0.24532
0.078531
-0.0310319
-0.555635
0.416543
0.0170011
-0.0196446
0.296469
-0.697954
1.57687
-1.41718
0.016783
-0.196404
0.179621
-0.139402
-0.536762
0.676165
0.0771109
-0.716408
-1.31618
0.868693
0.0179634
-0.000367817
-0.0175956
-0.246263
-0.612841
-0.167009
-0.140181
-0.172891
-0.235507
0.167273
-0.711762
-0.973312
0.00144264
0.40526
-0.406703
0.262821
0.113399
0.195883
0.676735
-0.872619
-0.112203
0.107902
1.02799
0.580879
-1.60887
-0.222232
0.00576718
1.57027
-0.246596
0.18265
-1.22583
1.2316
-0.0982211
0.67663
0.028986
-0.0728417
-0.0637482
1.02304
-1.54651
0.722233
0.0918228
-0.232066
-0.211363
0.318022
0.627883
0.925532
-0.00287138
-0.019199
-0.293397
-0.647679
-0.711231
0.723026
-0.224244
-0.863171
0.65694
0.610044
-0.929307
0.278743
-0.0081369
-0.788228
-0.314468
0.636402
-0.77185
0.135448
0.079595
0.0530533
0.88048
0.00721496
0.286213
-0.293428
-0.000259749
-0.00662198
-0.269607
0.217069
0.713513
0.221651
-0.207067
-0.179339
0.461446
-0.123758
-0.520062
0.580633
-0.161969
1.78248
-1.62051
-0.591864
0.504791
1.2049
0.342627
0.114018
0.267179
-0.259964
-0.012826
0.221453
0.0434141
0.242686
0.0912049
0.0259529
-0.016433
-0.00951992
-1.02588
-0.0369124
0.317313
-0.808232
0.382288
1.18929
-1.57158
0.380537
0.630336
-0.0478383
0.0509918
-0.00315346
0.189282
0.272165
-0.716263
0.211509
1.23148
-0.849189
0.318458
-0.0970045
-0.58295
-0.409618
-1.96215
1.80018
-0.0603063
-0.878991
-1.22656
0.156661
0.267179
0.0493366
-0.857568
0.831741
-0.646791
-0.18495
-0.982013
0.399063
-0.00890334
0.112589
-0.001008
-0.111581
-0.971503
0.561885
-0.214426
0.909692
-0.925397
0.195221
-0.217171
-0.0955962
0.255063
1.55999
0.0554811
-0.0641793
-1.57206
0.379896
0.662867
-1.36697
-0.552104
-0.518901
1.071
0.447896
0.0148383
-0.0113699
-0.735762
0.69885
0.544211
-0.354929
-0.661918
0.221552
0.440366
-0.368304
1.55759
0.776334
-0.80895
-0.494141
-0.448859
-0.472417
-0.499086
0.804239
-0.804239
0.686425
-0.686425
-0.735762
-0.363472
0.363472
-0.221552
-0.464305
0.311565
-1.22901
-0.985631
0.985631
0.544211
-0.354929
0.776334
0.76534
-0.76534
0.80895
0.758527
-0.758527
0.505859
0.527583
0.481099
-0.44142
-0.500914
-0.551141
1.07872
0.333208
-2.25696
0.294813
-0.489013
1.69392
0.0877508
0.0103831
0.0108401
-0.887572
0.0962018
0.791371
0.00907675
0.0655247
-0.995443
0.583942
0.922089
-0.596615
-0.124571
-0.0310519
-0.0110223
-0.804092
-0.0786262
-0.548515
-0.0139861
0.0245502
-0.562967
-0.114867
0.190901
0.205043
-0.00207799
-0.0136675
0.0157455
-0.81259
0.0671372
0.745453
1.88234
-0.322345
-0.533524
0.415877
0.117647
0.918565
-0.743497
-0.175067
0.0995785
0.296272
-0.0143307
-0.0608897
-0.0610057
-0.0147274
1.22897
-2.00972
-0.841958
0.0980083
-0.740505
0.797381
-0.0568768
0.120972
-0.900334
0.779362
-0.802858
0.903464
-0.100606
0.0517131
-0.0741138
0.024314
-0.29508
-0.112053
1.91223
-0.0958565
-0.791716
0.915142
-0.0898466
-0.825295
0.200301
-0.110811
1.39333
0.822708
-1.66644
0.505188
-0.380725
0.102514
-0.89423
1.17532
0.417103
-0.794145
0.00591648
1.0184
-0.897427
1.21762
0.860696
0.338124
-1.19882
-0.877263
-0.11818
-0.414687
0.0335876
0.107794
-0.239528
-0.783802
0.783802
-0.61372
-0.0856494
-0.864617
0.12112
-0.957513
0.808314
0.0623912
-0.218682
-0.0562857
0.058402
0.0110351
0.187614
0.830784
0.817814
0.77311
0.137641
-0.910751
0.51853
1.17539
-0.781119
-0.107167
0.888286
0.1733
-0.889563
-0.677003
0.887393
-0.784879
-0.107582
0.462388
-0.022186
-0.440202
0.319009
0.613161
-0.93217
0.252555
-0.709045
0.456489
-0.888701
-0.832022
0.0915172
0.501929
0.287258
-1.10974
1.34204
-0.570116
0.570116
-1.00082
-0.57124
-0.542724
1.58445
-1.3756
0.67448
0.780226
-0.202161
1.36464
-0.0212682
0.0081221
-0.260305
0.252183
0.0508176
-1.05438
0.0783649
1.37923
-0.697277
1.41208
-0.263099
0.327634
-0.228056
0.780381
-0.880987
-0.485709
1.6611
-0.153662
0.737604
0.575509
-0.575509
0.0185465
-0.0521007
0.112587
-0.0779282
0.603897
0.00926398
-0.0377746
-0.00705937
0.00524213
0.00181723
-0.667923
0.695297
-0.0273734
0.844799
-0.506676
0.10832
-0.893199
-0.805253
0.79854
0.00671206
0.255432
0.876428
0.156326
0.688473
-0.755558
0.604628
-0.65893
-0.660538
0.150248
-0.498554
0.0305222
0.350312
-0.566747
0.0681936
0.0053933
-0.856192
0.0721737
0.725208
0.695452
-0.0908241
0.0787478
0.785364
-0.658016
0.912361
-0.254344
-0.0508987
0.527674
0.139771
-0.948077
0.725882
0.222195
-0.686397
-0.128276
1.13466
0.40956
-0.758347
-0.0406512
0.485965
0.514035
-0.770588
-0.110399
-0.336325
-0.318979
-1.46787
-0.13621
0.400939
0.599061
-0.003094
0.0498844
-0.860435
-0.0685798
-0.59035
-0.15843
-0.247525
0.405955
0.0418896
-0.000737449
0.114603
0.0743802
-0.129703
-0.115617
0.758248
-0.642355
0.721102
0.0918252
-0.658572
0.566191
0.632814
-1.19901
-0.746378
-0.194838
0.941216
-0.2409
0.23025
-0.0253344
-0.00562494
0.045794
-0.0342231
0.697868
-0.127753
0.122067
0.111646
-0.737638
0.0697146
0.799321
-0.787999
-0.0863592
0.41322
0.887171
-0.289633
1.0244
-0.00878073
0.170049
0.346984
0.0343994
-0.0196988
-0.0434547
-0.256871
1.05619
-1.35139
0.573713
0.777675
0.849766
-0.0376245
0.0212128
0.0164117
0.131386
0.0412888
-0.000796433
0.216263
-0.106315
-0.489249
-0.88635
-0.631058
-0.720331
0.00926056
0.273067
1.20653
-1.04907
0.986603
0.0624715
-0.774326
0.833576
-0.0592498
0.781022
-0.540921
0.442699
-0.0712132
0.347025
-0.45888
-0.074644
0.278024
0.454852
0.190434
-0.645286
0.400839
0.0419927
0.653304
-0.574118
0.563126
0.0109925
1.28187
-1.57657
-0.0269562
0.0309852
-0.00402905
0.696104
-0.00953151
-0.0839481
0.0191512
0.346732
-0.413334
1.19436
0.0646363
-0.344899
0.142527
-0.0667846
0.157671
-0.0908863
0.00581912
0.0201338
1.6361
-1.05522
0.122316
0.220719
-0.0253338
-0.09118
0.227156
0.0990022
0.00467316
0.110228
0.768277
-1.09161
0.480321
0.611293
0.619499
-1.2768
0.657306
0.638738
0.11927
-0.0244529
0.0267638
-0.00231094
-0.291465
0.210305
-0.47061
-0.00181851
0.748009
0.712929
-0.264641
0.71687
0.16361
0.812037
0.267354
0.155397
-0.878086
0.164986
-0.2736
0.630511
-0.172804
0.690811
0.0774666
0.0143889
-0.14014
-0.40078
-0.47029
0.162698
0.0242666
-0.112288
0.420849
-0.0588746
0.928004
-0.0691653
0.104961
1.13572
-0.51622
-0.155621
0.176475
-0.0454903
-0.109565
-0.0464996
-0.00237035
0.04887
-1.47736
-0.0992107
-0.01243
0.827773
-0.228397
-0.620488
0.64171
-0.0212226
-0.122037
0.760525
-0.644543
-0.554462
0.0872797
-0.182876
0.631295
0.129231
0.613725
1.14838
-0.246616
0.751804
0.477702
0.57849
-0.60183
0.351149
0.250681
-1.36487
-0.0720017
0.0414704
0.0660249
-0.0496077
1.02655
0.733641
0.0783962
0.622306
0.220807
-0.869731
-0.0825209
-0.675308
0.681225
-0.0248072
-0.583765
0.425334
0.869089
0.673287
0.0228738
-0.0914012
-0.156378
-0.317584
1.42188
0.15499
-0.499129
0.0218595
1.00273
-0.424239
0.848332
-0.497798
-0.0799929
0.448267
-0.737635
0.926327
-0.188692
-0.413821
-0.188009
-0.0288897
-0.185406
0.0225201
0.770154
0.02185
-0.00437175
0.628196
0.26585
0.14737
0.604708
-0.132087
0.236573
0.663205
0.312271
-0.975476
0.276502
-0.923293
-0.0480994
-1.36908
-0.175998
0.765234
-0.589236
-0.66882
-0.0812508
0.0756259
-0.0567998
-1.4432
0.0186474
-0.0414142
0.146378
-0.291361
-0.0816241
0.372985
0.0895569
-0.576173
0.378052
-0.208003
-0.881352
-0.00899273
0.00691474
0.695227
-0.0558866
-0.592059
0.0179405
0.565715
0.303374
0.893672
0.989187
-0.243615
-0.384417
0.628033
0.323844
-0.619288
0.619288
-0.0931549
-0.940153
1.03331
0.0321278
-0.156644
0.68063
-0.114915
-0.222153
-0.342413
-0.415934
0.986045
-0.0804006
0.0155832
0.179003
-0.105558
-0.550088
0.485441
0.0776853
0.0612262
0.0122817
-0.773297
-0.449714
-0.195457
0.693354
0.306646
-0.449714
0.693354
-1.10907
-0.878986
-1.10907
-0.696535
0.696535
0.303465
-0.013864
0.358559
-0.0793232
0.26484
0.0805362
-0.510616
0.640845
-0.0361374
0.657436
-0.504632
-0.152804
-0.0550976
0.0537921
0.00130546
-0.0154358
0.00837639
1.17555
0.0182253
0.0854345
-0.436873
-0.356819
0.128245
0.0457941
0.834774
-0.281978
0.284893
0.181164
-0.0552225
-0.0178238
-0.0124738
0.682953
0.0650558
0.265245
-0.0258841
0.000497395
-0.0163203
0.0836604
0.563118
-0.478164
-0.0849532
1.51175
0.550021
-0.285317
0.882466
0.0121771
-0.0664757
0.109853
0.0346539
0.0935822
1.08686
-0.423657
-0.00776737
0.00371473
0.962831
0.345194
0.0203458
-0.0203458
0.0223919
-0.0223919
-0.00422052
0.00422052
-0.00701256
0.367493
0.457832
-0.138003
-0.716725
0.479644
0.187651
0.0286118
-0.0869561
-0.485692
0.845851
0.112115
-0.798513
-0.3753
0.720571
0.183139
0.0208312
0.0051038
0.00476443
-0.00476443
0.274611
0.00513225
-0.00513225
0.702508
0.0950544
-0.0204012
-0.0054829
0.00633046
-0.0655942
-0.0208823
0.0208823
-0.0096483
0.0096483
-0.024302
0.024302
0.00556811
-0.00556811
0.0885638
-0.298877
-0.0807494
0.219349
0.00831394
-0.00831394
-0.375109
0.510247
-0.135138
0.500549
-0.220692
0.00897199
0.275921
0.561013
-0.423615
0.0739127
0.567797
0.567896
0.0184242
-0.0184242
0.707945
0.0270335
-0.0270335
0.0126326
-0.0126326
0.756866
-0.29896
0.0528439
0.755351
-0.482667
-0.0211407
0.0211407
0.00907972
-0.00907972
0.019858
-0.019858
0.0215631
-0.0215631
-0.0255238
0.0255238
0.0377557
-0.0377557
0.486369
-0.034247
0.034247
0.0219372
-0.0219372
0.0261224
-0.0261224
-0.00958194
0.00958194
-0.0133701
0.0133701
0.0764201
-0.0279302
0.0279302
0.491572
-0.0624307
-0.0423846
0.0423846
0.00798152
-0.00798152
-0.000718891
0.000718891
0.0360464
-0.0360464
0.0241375
-0.0241375
-0.0187704
0.0187704
-0.00770224
0.00770224
-1.37206
0.365532
-0.0102798
0.0102798
0.0196454
-0.0196454
-0.0410314
0.0410314
-0.0264936
0.0264936
0.00506387
-0.00506387
-0.374323
0.692344
0.256314
-0.034585
0.034585
0.0290636
-0.00714553
0.00714553
0.0162978
-0.0162978
0.0354007
-0.0354007
-0.27274
0.428136
0.00874879
-0.00874879
-0.0213139
0.0213139
-0.493226
0.0435738
-0.690307
-0.0295661
0.0295661
-0.444312
0.032807
0.0181848
0.309403
-0.54147
-0.0396848
0.0396848
-0.202721
0.143847
-0.0397896
0.0125631
-0.0125631
-0.00121044
0.0497963
0.262032
-0.323825
-0.278678
0.602503
0.192663
-0.0093819
0.0093819
-0.259734
0.618046
-0.358312
0.769277
-0.393964
-0.375313
-0.463465
-0.659238
0.407231
-0.226067
0.230556
-0.281455
-0.57225
-0.0555673
0.189906
-0.23219
0.0173846
-0.0173846
0.00721217
-0.00721217
0.0333153
-0.0333153
0.0250186
-0.0250186
-0.00285035
0.00285035
0.0038059
-0.0038059
-0.714468
0.0479637
0.173962
-0.298534
0.00369743
-0.00369743
-0.0432438
0.0432438
-0.0436099
0.0436099
0.274901
-0.285619
0.0107177
0.000676922
0.31367
-0.542067
-0.00443504
0.00443504
0.00826373
-0.00826373
-0.0927411
-0.0883349
0.495566
0.00207429
-0.00207429
0.0288805
0.0058273
1.01021
-0.487375
-0.0795258
0.566901
-0.630968
-0.235289
0.343084
-0.0370942
0.0370942
-0.68153
0.277549
0.0542485
-0.0542485
-0.659719
0.363779
0.263457
0.121252
-0.00222808
0.00222808
-0.805618
-0.0012862
0.0012862
0.312856
0.411388
0.072091
-0.0589808
0.0589808
-4.16962e-05
4.16962e-05
-0.0458961
0.0458961
-0.0520131
0.0520131
-0.00148713
0.00148713
-0.0576482
0.0576482
-0.00220711
0.00220711
-0.0495827
0.0495827
-0.0142458
-0.0437842
0.0437842
0.00385513
-0.00385513
0.05249
-0.05249
-0.00360231
0.00360231
0.045579
-0.045579
0.22102
-0.00597358
0.00597358
-0.00762559
0.00762559
-0.0329202
0.0812371
-0.0146856
0.0146856
0.0051757
-0.0051757
-0.0659121
0.0659121
0.325777
-0.0221239
0.0221239
-0.0559033
0.0559033
-0.00721378
0.00721378
-0.0752659
0.0752659
-0.0130347
0.0130347
-0.0910659
0.0910659
-0.024803
0.024803
-0.092264
0.092264
-0.69171
0.264029
-0.529839
0.508616
-0.794377
0.0386054
-0.563319
0.390515
0.0152674
-0.528632
0.00414376
-0.00414376
-0.0531118
-0.717789
0.0454357
-0.033154
-0.504197
1.01095
0.656429
0.253024
0.010196
0.11355
-0.394493
-0.580116
0.0213411
0.389565
-0.824301
-0.0221559
0.0221559
-0.75508
0.0185587
-0.0185587
-0.00667133
0.00667133
0.377481
-0.31457
-0.00289008
0.00289008
0.017807
0.0137953
0.598597
0.260696
0.00577706
-0.011988
-0.00721105
-0.0955972
0.495576
-0.399978
0.431333
-0.352968
0.0124045
0.993315
0.00867738
0.0523128
-0.409057
0.442644
-0.488583
-0.989692
-0.245098
-0.0735164
0.0187358
-0.405466
-0.303579
-0.0036993
-0.00477121
0.00214227
0.777985
-0.552277
-0.0388639
0.0631305
-0.0364502
0.17093
0.187628
0.423536
0.237691
-0.167222
0.210471
0.0805759
-0.020899
-1.14599
0.0105841
0.344336
-0.425961
-0.0177289
-1.31077
-0.0728277
0.265922
-0.352676
0.394474
-0.169014
-0.830927
0.061728
-0.162511
0.0516999
-0.348199
0.465846
0.0328923
-0.112378
0.0794862
-0.029458
0.029458
0.113273
-0.448251
0.134475
0.0660536
-0.0813072
0.0565
-0.0638186
-0.00620029
0.0700189
-0.0333047
-0.163507
-0.0699974
-0.23487
-0.288621
-0.354878
0.643498
0.015035
0.0615948
0.151806
-0.0297394
0.021775
0.0651556
-0.157537
0.314647
-0.0195392
0.0359509
-0.0258855
0.177692
0.00720235
0.264405
0.00595679
-0.00595679
0.277923
0.570409
0.0900488
-0.17257
0.0235835
-0.0658234
-0.508247
1.19672
-0.0318262
0.0172772
-0.533663
0.00382429
-0.487081
0.0899682
-0.689557
0.269588
-0.0568562
0.378778
-0.667399
0.21105
0.514832
-0.104298
0.104298
-0.001008
-0.870979
1.21589
-0.344916
-0.214735
0.157935
0.485049
-0.21258
-0.726185
-0.13881
-0.0227579
0.0237375
0.929377
0.147658
-0.124785
-0.070888
0.362745
-1.21193
-0.00847406
-0.27163
0.803751
0.577031
-0.263361
-0.297198
0.570265
-0.0908536
0.451573
-0.26859
-0.0261608
-0.464648
0.32951
0.120876
-0.120876
0.129618
0.00971821
-0.139337
-0.00224813
-0.00566084
0.0172532
-0.505303
0.213838
0.227487
-0.186529
-0.0409583
0.543811
-1.01997
0.00142937
-0.341816
0.692939
-0.119877
-0.178657
-0.0382713
-0.0794541
-0.486118
0.0492447
-0.291261
0.000435858
-0.0177289
0.390026
-0.00553828
-0.0049394
0.00274582
0.0228862
-0.0132098
-0.0096764
-0.103703
-0.0270069
-0.178166
0.205173
-0.126065
-0.338583
0.017807
0.348783
-0.00292501
-0.376287
0.0826485
0.00273151
-0.0572795
-0.0807235
-0.0116337
0.0116337
-0.000968109
-0.000568584
-0.00890705
0.00431867
-0.088795
0.000680775
-0.00122182
0.281088
-0.301942
-0.00133054
0.00133054
-0.0424811
0.512713
-0.000631552
-0.29139
0.710288
1.14686
-0.474264
0.333913
-0.439338
-0.0873661
0.221841
0.229343
-0.229442
-0.0235624
-0.0403536
0.00613047
0.00842535
-0.181107
-0.383421
0.863065
-0.00169851
-0.71277
0.291225
-0.00170939
0.126177
0.129255
-0.00193418
-0.00647664
-0.0338769
-1.21018
0.00135326
-0.000249188
0.715388
-0.650232
-0.248042
-0.206747
1.00755
-0.00334754
0.00104656
-0.0397896
-0.00542862
0.8175
-0.433153
0.510838
-0.514436
0.905707
-1.0152
0.577981
-0.187466
0.702581
0.000200043
0.00267917
0.018152
-0.0707698
0.137408
-0.350588
0.00929505
0.0168277
0.0662722
-0.0512975
-0.0149747
0.000633103
0.0485462
-0.0552682
0.00672198
-0.12059
0.00395329
0.00128884
0.00252459
0.501315
-0.429328
-0.00754484
0.000628833
0.702882
0.513013
0.387036
-0.00636956
-0.00535088
0.0960868
0.0262293
-0.0426246
-0.114802
-0.0166423
-0.00392505
0.121598
0.0174114
-0.00178711
0.410759
0.00103091
0.0122937
-0.0122937
-0.00253565
-0.00945234
0.000847079
-0.322934
-0.00393419
0.0759072
-0.107704
-0.12344
-0.0862424
-0.0651727
0.000737615
0.00165202
0.462392
0.000622267
0.000841805
-0.0297315
-0.00228625
0.000892915
-0.395298
0.357524
-0.709796
0.472975
-0.856396
-0.391914
-0.00211598
-0.552873
0.142389
-0.405487
0.591435
-0.0149188
0.231559
-0.00473227
-0.00175849
-0.552299
-0.00368658
-0.000719977
0.00794791
0.949358
-0.548519
-0.00290731
-0.0013952
-0.0069313
-0.00237126
0.103481
-0.02116
0.02116
-0.0140794
0.0135109
-0.00203808
-0.00935386
-0.00393736
-0.00100205
-0.16604
0.0940387
-0.00582095
-0.0157999
0.0409662
-0.0170164
0.0648239
-0.0460881
-0.626247
0.569371
0.0193176
-0.00103193
0.30679
-0.201829
-0.0684845
-0.680691
-0.0747215
-0.118016
-0.098902
0.0966158
0.690107
0.00071454
0.0178101
-0.0167635
0.0360347
0.0599753
-0.144426
0.0844506
-0.070986
-0.615139
0.863585
-0.535298