/*--------------------------------*- C++ -*----------------------------------*\
| =========                 |                                                 |
| \\      /  F ield         | OpenFOAM: The Open Source CFD Toolbox           |
|  \\    /   O peration     | Version:  2306                                  |
|   \\  /    A nd           | Website:  www.openfoam.com                      |
|    \\/     M anipulation  |                                                 |
\*---------------------------------------------------------------------------*/
FoamFile
{
    version     2.0;
    format      ascii;
    arch        "LSB;label=32;scalar=64";
    class       surfaceScalarField;
    location    "27.9";
    object      phi;
}
// * * * * * * * * * * * * * * * * * * * * * * * * * * * * * * * * * * * * * //

dimensions      [0 3 -1 0 0 0 0];

oriented        oriented;

internalField   nonuniform List<scalar> 
3181
(
-1.00873
0.386837
0.621891
-0.382795
0.358175
0.0246194
0.510318
-0.351695
-0.158623
0.114145
-0.190981
0.0768365
-0.0419282
0.0569345
-0.0150064
0.813854
0.939065
-1.75292
0.144359
-0.138236
-0.00612363
-0.0105792
0.00282953
0.00774971
0.515809
-0.775799
0.25999
-0.076584
0.129797
-0.053213
-0.0105113
-0.053636
0.0641473
0.135704
0.0419749
-0.177678
-0.00936624
0.013608
-0.0042418
-1.09919
0.154624
0.944564
-0.316401
0.68531
-0.368909
-1.12341
0.641593
0.481818
0.0844449
-0.9306
0.846155
-0.112902
0.175497
-0.0625943
-1.08958
-0.395792
-0.000103266
0.0705893
-0.070486
0.0504588
-0.0943557
0.0438969
-0.0713484
0.065455
0.00589344
1.0643
-1.04168
-0.0226242
0.0393248
0.0282023
-0.0675271
-0.958307
0.331984
0.626323
-0.106323
0.220468
0.302641
-0.255523
-0.0471174
0.0286034
0.0603861
-0.0889895
-0.425062
0.351156
0.0739061
-0.0348858
-0.0181137
0.02111
-0.00299632
-0.042438
-0.915869
0.0809885
-0.0638743
-0.0171141
0.352091
1.13016
-1.48225
-0.063244
0.0542047
0.00903925
0.18459
0.285836
-0.470425
1.72668
-1.37458
0.0764508
-0.025992
1.60107
-0.843146
-0.757929
-0.766492
1.58035
0.00897777
-0.018344
-0.0637846
-0.00756379
-0.402463
0.0860621
-0.151611
0.0878259
-0.647116
0.125104
0.522012
-0.140218
0.0636343
-0.164527
0.168586
-0.00405834
-0.26224
-0.076073
0.338313
0.146789
1.37869
-1.52548
0.066445
0.0921614
-0.158606
-0.018217
-0.104114
0.110473
-0.00635866
0.495373
0.189937
-0.0942529
0.151428
-0.0571755
0.0810212
-3.27777e-05
-0.164862
0.189976
-0.0251146
0.158538
0.0579074
-0.216446
0.105096
-0.110863
0.00576675
1.28302
0.318051
-0.831243
-0.177485
0.0303171
-1.69069
1.66037
0.565626
0.240987
-0.806613
-0.456933
-0.215323
0.672256
-1.53363
0.767136
-0.283225
0.848852
-0.312666
-0.103075
0.415741
-0.212701
-0.212361
-0.183543
0.171475
0.0120675
0.152062
0.277078
-0.42914
-0.27207
0.787879
-0.0120549
0.00147563
-2.07196
2.10228
0.173328
0.129313
-0.168587
-0.110817
0.279403
-0.267415
0.366316
-0.0989013
-0.0768856
0.085392
-0.00850645
-1.92517
-0.919927
0.0107433
0.909183
-0.030773
-0.032471
-1.1101
0.828191
0.281908
0.322028
-0.173877
-0.148151
-1.3817
-0.151928
1.10215
-0.947527
-0.740159
1.14655
-0.201982
1.05971
0.178211
-0.170613
-0.0075982
1.56274
-0.623678
1.40531
-1.40531
-0.00747987
-0.00265617
0.010136
-0.202456
-0.0532297
0.255686
0.0930741
-0.0778732
-0.0152009
-0.456501
0.8226
-0.366099
-0.0325726
-0.219288
0.251861
-1.08403
0.0423542
0.359436
0.0564697
-0.415906
0.127523
-0.884122
1.12511
0.0604268
0.0603763
-0.120803
-0.0180121
-0.14685
-0.260157
-0.0264351
0.286592
-0.101763
-0.158393
0.124715
-1.00884
0.316525
-0.773026
0.925185
-0.84074
0.0165211
0.112318
-0.128839
0.0906823
0.054122
-0.144804
-1.27608
-0.132476
1.40856
-0.232857
0.397062
-0.164205
-0.89547
0.0428502
0.85262
-0.490336
-0.619763
0.102749
-0.0363043
-0.1488
0.143298
0.00550179
-0.0790433
-0.0186904
0.0977336
-0.594356
-0.181443
0.0519329
-0.0129209
-0.039012
-0.896564
-0.677986
1.57455
1.84637
-0.467678
-0.0218629
0.014383
0.023042
0.150286
-0.207679
0.392269
0.0430494
0.113507
-0.156556
0.144739
0.0709593
-0.215699
-0.0351523
0.251152
-0.216
-0.593904
-0.529507
-1.43885
0.542289
-0.0312459
0.0916727
-0.0975774
0.175822
-0.0782443
-0.148055
0.0238972
0.120462
-0.0564198
0.0642252
-0.00780545
-0.0904277
-0.0194866
0.109914
0.0729618
-0.0729618
-0.179479
0.203376
0.220265
0.135211
0.100281
0.0896952
-1.19467
0.922599
-1.60784
0.101978
1.50586
0.0135953
-0.0155273
0.00193199
-0.0276571
-0.0534308
0.0810878
0.515435
-0.0138348
-0.501601
0.00228866
-0.00305234
0.000763689
-0.193345
0.0138667
0.167917
0.654683
-0.354166
0.522083
-0.101819
-1.17426
-0.0940629
0.0521347
0.471799
-0.291754
-0.180045
0.0796341
-0.0764747
-0.00315943
0.0474318
-0.309672
0.0231341
-0.943061
0.0483273
-0.145905
-0.27491
-0.388739
0.0839585
1.4324
-0.966688
-0.465714
1.11986
0.312541
0.065758
0.272555
0.0080096
0.00558574
0.103047
0.0393161
-0.142363
-0.247393
-0.596905
0.844298
-0.343674
0.473161
0.434945
-0.830738
0.175028
0.0311046
-0.0265192
-0.00458546
-1.84666
0.139566
1.70709
-0.0942873
-1.75237
-0.314099
0.673536
-0.907465
-0.0151594
0.00592915
-0.277274
0.271345
1.50759
-1.63176
0.124165
-0.0581859
-0.035877
0.581146
-0.828539
0.292555
-0.331323
0.0387684
-0.302076
-0.126879
0.428955
0.206133
-1.01027
-0.0737623
-0.018463
-0.0520231
-0.57695
0.361627
-0.255808
0.0190273
0.236781
0.0619262
-0.120112
-0.041946
0.041946
-0.125724
0.138255
-0.0125315
-0.294612
-1.31323
-0.0258171
0.00230897
0.0235081
0.0737355
-0.115625
0.0418896
-0.229961
0.046418
1.54546
-0.417169
-1.12829
-0.177721
0.433644
-0.255923
0.010878
-0.0115418
0.000663865
-0.978326
0.0828561
-0.192127
-0.00501032
0.197137
-0.163015
0.315077
-0.106476
0.104744
0.00173214
0.0781308
0.0111634
-0.0892942
-0.0360722
-0.00133688
0.037409
0.0771859
0.85681
-0.933996
-0.214272
-0.0492343
0.263507
-0.683652
0.663237
0.0204145
-0.0096477
0.03785
0.0132585
-0.0136115
0.00035298
-0.0270736
-0.0404535
1.00653
0.839834
0.169966
-0.895531
0.725565
0.00229282
2.08651
-2.0888
0.368724
0.393081
1.01223
0.0723851
0.212539
-0.0678
-0.0744086
-0.0297054
0.226174
0.16621
-0.0755282
0.735226
-0.403242
0.0592691
0.196417
0.0573218
-0.175119
0.117797
-0.742437
-0.127612
0.870049
0.0273121
-0.0273121
-0.0473533
-0.274675
0.560511
0.0111185
-0.225391
0.15205
0.0234465
0.0280703
-0.0593162
0.142924
-0.153435
-0.347454
0.314881
0.0105153
0.0655766
-0.0760919
0.379375
-0.3374
0.0237574
0.0408688
-0.0646263
-0.200315
0.266073
0.182685
-0.474439
-0.201456
0.588293
0.15955
-0.0323645
0.0323645
0.227736
0.0457956
-0.273531
0.368661
0.0284012
-0.00851131
0.00627847
0.00223283
-0.09823
0.0656932
-0.0137603
-0.0507685
0.193692
-0.188105
0.250974
-0.0628689
0.138046
0.0281648
-0.382441
0.126918
0.200793
-0.0627469
-0.0479001
-0.0585759
0.00398598
0.0120853
-0.0160713
0.142882
-0.101425
-0.0414571
-0.030498
0.410628
-0.38013
-0.00315052
-0.00890435
0.109138
-0.113628
0.00448998
0.0244341
0.130413
-0.106656
-0.0650756
0.0345718
0.0305038
-0.0530367
0.0780591
-0.0250224
-0.0975589
0.0969462
-0.720107
0.623161
-0.0168393
-1.31662
-0.354926
1.67155
0.413187
1.11815
-1.53134
0.0799819
0.0147934
0.236359
0.291064
0.256072
-0.547136
-0.210662
0.267984
0.133099
-0.862359
0.72926
-0.0797558
0.0267191
-0.0319693
0.0135063
-0.981741
0.442001
0.53974
0.966688
-0.841973
-1.54843
1.41595
-1.50759
1.60957
0.0370885
-0.094264
0.000822163
0.0124363
0.00546161
0.772164
-0.639065
0.115844
-0.0675164
0.411149
0.735397
-0.0686684
-1.75241
1.7547
-0.670434
-0.524234
-0.242511
-0.404605
-0.0214945
-0.160343
0.207775
-0.570592
-0.358259
0.180538
0.752822
-0.237387
-0.820193
-0.728234
0.751112
-0.0416186
-0.0381372
0.269439
0.0363673
-0.0363673
0.669783
0.149707
-0.819491
-0.226046
0.895829
0.558851
-0.885343
0.326493
0.122194
0.0130171
0.00485771
0.00889207
-0.0137498
-1.69069
-1.11694
0.649261
1.06548
0.479972
-0.0339248
-0.130603
-0.244731
0.740103
-0.205661
-0.0501474
-0.00273533
-0.0741502
-0.0575972
0.111719
0.385517
-0.260413
-0.772253
-0.297913
-0.0423434
0.0907043
-0.0483609
-1.17454
1.56762
-0.0374885
-0.0136295
0.0511181
0.0288321
-0.0208225
0.0401658
-0.0440095
0.00384361
0.0109641
0.404777
0.0436833
0.0359509
0.00845223
0.0146856
-0.0231378
-0.0165869
-0.17554
-0.740358
0.384219
0.356139
1.28799
-2.23048
0.942492
0.143491
-0.165446
0.0219549
0.0247602
0.077989
-0.13777
-1.26754
0.0140881
0.0260778
-0.0753075
0.0390032
0.148622
-0.356302
-1.86422
0.490534
1.37369
0.0457208
0.0897695
0.0531126
-0.742437
0.757529
-0.680343
-0.0116069
-0.0324026
0.045313
-0.641597
-0.0420542
0.06308
0.137713
-0.121516
0.0249318
-0.454072
0.118299
0.359275
-0.302806
-0.10868
0.018252
0.219461
0.841438
-1.0609
0.106199
-0.703657
0.597458
-0.909889
0.782277
-1.47431
0.112483
1.36183
-0.00546571
0.00475308
0.00071263
0.179593
-0.481669
0.216338
-0.126233
-0.0901056
0.0592795
0.0187795
-0.10667
0.0643266
-0.0146338
0.0125897
-0.0396633
0.0197333
0.0883878
-0.108121
0.972038
0.00251719
-0.00230002
-0.00021717
0.0164984
-0.0254027
0.861053
0.0283514
-0.0642284
-0.433099
-0.683841
0.0720916
0.0501021
0.00716956
0.0826
-1.36183
1.26754
0.0452547
-0.232745
0.187491
-0.262594
0.0919803
0.120256
-0.127854
-0.00126754
0.0866595
0.00511818
-1.87049
0.00627381
-0.0507838
0.0705171
0.74113
-0.259312
-0.0590525
0.132788
0.358157
-0.00836511
-0.000146195
-0.00768116
0.080643
0.142083
0.224233
0.156911
-0.343977
0.187065
0.101983
0.5527
-0.0299827
-0.110236
0.882119
-0.224936
-0.657184
-1.47431
-0.337478
1.62547
1.72668
-0.207092
0.200006
0.00708584
0.375851
-0.0757511
-0.3001
-0.185247
-1.19645
-0.0788693
0.0801557
-0.00128639
-0.113731
-0.0360096
0.149741
0.346535
-0.901413
0.554878
0.038786
0.665504
-0.70429
-0.0430323
-0.105768
-0.0575758
-0.00749979
0.232324
-0.00458796
-0.00216458
-0.00330113
0.118237
-0.0166895
-0.101547
0.092651
0.0103955
0.0111051
0.017727
0.00556965
0.106748
-0.0127083
-0.000903145
0.203392
-0.42268
-0.217242
1.33539
-0.0133737
-0.0139385
-0.991538
-0.0187312
-0.0673539
-0.0687292
-0.0399505
0.101626
0.190929
0.335853
-0.699046
0.363193
0.0937175
-0.0216259
-0.937152
-0.010375
-0.0160039
-0.64925
0.746196
-0.0168736
0.176424
0.190899
-1.07624
0.188289
-0.430532
0.242243
-0.0326112
0.146118
0.0100877
-0.0108644
0.000776786
-0.0506971
0.0146249
-0.019697
-0.127153
0.732917
-0.626718
-0.0308567
0.00372018
0.0551625
0.32278
-0.165869
-0.0971079
0.949239
-0.202523
-0.746716
-0.12538
0.144407
-0.509638
-0.23072
-0.545834
0.584608
-0.570708
-0.0139
-0.0561824
0.0253257
-1.75241
0.565647
-0.565647
-1.61959
1.61959
0.772164
-0.1372
0.213954
-0.0767537
-0.899797
-0.0917407
0.651483
-0.381272
-0.270211
0.151495
-0.229739
-0.0142095
-0.00765343
-0.92004
-0.0887972
-0.933008
0.212901
0.0542059
0.0364984
0.696076
-0.0989443
-0.597132
1.52805
0.198629
-0.00297862
0.0130663
-0.959776
0.656196
-0.615327
-0.0814102
-0.62626
0.70767
0.0510593
-0.905134
-0.726625
0.221317
-0.815221
-0.870049
1.28627
-0.416218
-0.137765
0.272627
-0.134862
-0.0358577
0.731934
-0.11115
-0.939359
0.939359
-0.599829
0.691102
-0.0912732
0.00143762
0.00107958
-0.0284462
-0.449095
0.865294
-0.0371024
-0.0903551
-0.033632
0.000427119
0.00290062
0.00797734
1.96961
-1.85713
-0.344667
0.422798
-0.659396
1.05017
-0.390778
-0.0423472
0.0564353
0.129216
-0.0582571
0.346908
0.00110226
0.0125058
0.358654
0.0519736
0.0441319
-0.256826
0.212694
0.135359
0.0332265
0.101559
0.187623
1.7888
0.313477
-0.301015
0.251586
0.0494284
-1.2811
1.42066
0.233863
-0.146038
0.0750854
-0.766303
0.691218
-0.438215
0.114583
-0.462037
-0.0748781
0.127653
-0.0527747
0.120444
-0.195323
-0.463662
-0.113288
-0.0758071
0.0791409
-0.00333381
-0.00281239
-0.00989595
0.00950231
-0.00953509
0.639065
-0.597458
-0.0416069
-0.28352
0.294638
0.880224
0.636374
-0.260522
0.0118376
-0.00952862
-0.0540311
-0.277292
0.160224
-0.56144
0.401216
-0.0104722
-0.000392223
0.0759151
-0.2972
0.221285
0.00483765
-0.0113352
0.0064976
-0.024954
0.0166567
0.00829733
-0.82548
0.201802
-0.111446
-1.20518
-0.20759
-0.841973
1.60957
1.41595
-0.186176
-0.168361
0.119126
-0.0666094
0.0726169
-0.00600746
-0.19633
0.412551
-0.216221
0.573511
0.0779722
-0.00211051
-0.00836171
0.125993
-0.948319
0.033632
-0.0551054
0.00432156
-0.38286
0.328829
-0.0242564
0.0523266
-0.239568
0.618942
1.11986
0.247117
-0.0587835
0.00106463
0.0577189
1.73104
-0.315087
-0.0586584
-0.0522049
-1.00534
0.163371
0.432511
-0.226377
-0.48422
-0.141707
0.625927
0.843179
-0.380572
-0.462607
-0.0638854
0.399738
-1.7547
0.0640138
-0.00708273
-0.0428644
0.0499472
0.225351
1.86116
-0.170106
0.174964
-0.170205
2.25107
-0.641497
-0.670771
0.0433137
0.627457
0.398861
0.0163652
-0.357509
0.508091
0.782115
0.0542977
0.0737558
-0.0206432
-1.55402
0.164584
1.38943
1.29084
0.0580653
-0.0496131
-0.0542792
-0.367543
0.115617
-0.326279
0.46526
0.48398
-0.00495214
-0.0512302
0.145271
-0.352363
-0.024825
0.0151773
0.107911
-0.14409
0.0361791
-0.289548
0.30168
-0.012132
0.13027
-0.332793
-1.91555
0.612975
1.30258
-0.0570113
-0.0192195
0.0762308
0.283925
0.0388551
0.40217
0.355359
-0.671814
0.671814
1.66037
1.52805
-0.703657
0.312612
0.469503
-0.215167
-0.0583642
0.951152
-0.377641
0.0111906
-0.88292
0.871729
0.121504
0.00829317
0.0253875
0.370776
0.0313942
0.0383192
-0.166398
-0.113472
0.27987
0.186061
-0.496154
0.329756
-1.13776
-0.296876
-0.660624
0.0273517
-0.00216656
-0.00013346
-0.22836
-0.0826508
0.0342899
0.0320316
-0.154747
0.122715
-0.643293
0.0434639
-0.00550309
0.0658892
0.124993
-0.156646
0.0316526
-0.549353
0.369308
-0.149975
0.215552
0.226434
-0.0054385
-0.0265308
-0.839737
0.422567
0.0361448
0.0729937
0.00111238
0.0540501
0.208246
0.00809171
-0.439697
1.56932
0.498661
0.622362
0.866053
-0.790967
0.81623
-0.458073
-0.634272
0.185177
0.157046
-0.795786
0.775686
0.0200998
0.760181
-0.294921
-0.206549
-0.138118
-0.065604
-0.0122692
0.950581
-0.838646
-0.111935
-0.193485
0.117957
0.0264647
0.116833
0.876818
-0.143196
-0.18734
0.330535
-0.316852
-0.0414064
0.197829
-0.0728361
0.180211
1.22835
1.8915
-0.363449
0.163917
0.549117
-0.713033
-0.193977
0.0522156
-0.0127506
0.00731213
-0.524215
-0.110057
0.125869
-0.0639425
-0.196292
0.145524
-0.515935
0.260012
-0.99235
0.0176242
-0.294603
-0.619472
1.57422
-0.0683583
-0.295762
-0.127821
-0.255039
0.461979
0.312991
0.0456635
1.15743
-0.810891
-0.20012
0.137373
-0.264471
0.126702
0.137769
-0.0169436
0.00986085
0.0511079
-0.0606202
-0.228928
-0.109633
0.698044
-0.427422
-0.270623
0.200349
0.127607
-0.0921778
-0.0354293
0.245423
0.0675675
-0.117731
-1.41361
-0.0999315
0.145244
0.0748961
-0.218092
-0.0525092
0.0274868
-0.0261298
0.0136077
0.0125222
-0.01255
-0.00297735
-0.252272
0.0771534
-0.0374715
-0.53968
0.401915
0.0272732
0.0659569
-0.122968
-0.695849
1.39471
-0.910732
0.015567
-0.201682
0.186115
-0.145477
-0.529051
0.674528
0.0644539
-0.706051
-1.09607
-0.819478
0.0179113
0.00155543
-0.0194667
-0.243925
-0.584608
-0.157829
-0.128563
-1.55402
-0.24098
0.17318
0.0935393
-1.18907
-0.251431
0.061215
0.190216
0.255189
0.107337
0.492802
0.222596
-0.715398
-0.0653587
0.0237401
1.05837
0.111457
-1.16983
-0.216176
0.0852535
1.33541
-0.251447
0.188578
-0.504754
0.590007
0.291477
-0.317912
0.00324823
0.00221338
-0.0102961
0.907274
-0.284912
0.756669
0.0865097
-1.72554
-0.144949
0.248206
0.702946
0.890371
-0.00825189
-0.0201163
-1.8915
-0.660624
-0.712418
0.723162
0.0670692
-0.820193
0.665504
0.587441
-0.930387
0.709159
-0.00022515
-0.795561
-0.315949
0.638966
-0.763325
0.124359
0.0772908
0.0503164
-0.736843
-0.324135
1.98632
-1.66218
0.000118786
-0.00228535
-0.27356
0.223413
0.70342
0.214046
-0.20018
-0.176042
0.716974
-1.39496
0.321408
-0.398162
0.360353
0.125079
-0.485432
-1.64255
1.80713
0.0566093
-0.213255
0.118118
1.0653
-1.38943
0.00350791
0.221365
-0.0168123
0.0547924
-0.122146
0.0116415
-0.0391045
0.027463
-1.02664
-0.034255
0.307804
-0.805327
-1.07078
1.35315
-0.282377
0.384287
0.665886
-0.0467262
0.0499296
-0.00320342
-0.31891
1.03588
-0.720011
1.038
-0.0236906
-1.04709
0.325989
-0.104624
-0.584254
-0.408095
-0.744473
1.10483
-0.0528532
-0.883145
-1.94733
-0.141472
1.0653
0.0511829
-0.85651
0.830465
-0.645791
-0.184675
-0.981805
0.397551
0.0140057
0.112199
0.000627584
-0.112827
-0.971525
0.56343
-0.206054
0.913101
-0.923476
0.198965
-0.215552
-0.0993111
0.247933
0.156732
0.543959
-0.078737
-1.22314
0.476424
1.02589
-0.971595
-0.552939
-0.518251
1.07119
0.447061
0.0190231
-0.010131
-0.738545
0.70429
0.38943
-0.70834
-1.01223
0.834809
0.177419
1.34726
0.00589403
0.772574
-0.80746
-0.493345
-0.449716
-0.471581
-0.499944
0.804026
-0.804026
0.687362
-0.687362
-0.738545
-0.682881
0.682881
-0.834809
-1.15101
-0.770987
0.0323528
-0.137373
0.137373
0.38943
-0.70834
0.772574
0.765105
-0.765105
0.80746
0.758449
-0.758449
0.506655
0.528419
0.481749
0.252057
-0.500056
-0.550284
1.0787
-0.7452
-1.61873
0.874261
0.24683
-0.19022
-0.35696
-0.0120174
0.0403688
-0.884493
0.0893371
0.795156
-0.00627308
-0.0152215
-0.994426
0.591184
0.887005
-0.574393
-0.123415
0.00668508
-0.00276778
-0.818876
-0.0766548
-0.53974
-0.00926964
0.0227759
0.521139
0.015526
-0.0479285
0.179239
0.000451801
-0.00827427
0.00782246
-0.811858
0.0680107
0.743848
-0.0792424
0.235974
-0.526279
0.423913
0.102365
0.915236
-0.744563
-0.170673
0.0824006
0.309869
-0.0141603
-0.0616469
-0.0654107
-0.0134586
0.560365
-1.7349
-0.864792
0.095626
-0.746657
0.794437
-0.0477805
0.120906
-0.900298
0.779393
-0.803785
0.902811
-0.0990259
-0.0226662
0.0101162
0.0200445
-0.297319
0.515321
0.589505
-0.0910865
-0.793407
0.91572
-0.0907683
-0.824951
-0.0709583
0.0286111
0.167587
0.82415
-1.2376
0.47447
-0.396498
0.0986275
-0.892034
1.37458
0.245008
-0.793207
-0.00235358
1.01681
-0.895904
1.10281
0.79158
-1.02138
0.229798
-0.883807
-0.110618
-0.425262
0.0451323
-0.159332
0.522525
-0.783837
0.783837
-0.621436
-0.0829575
-0.863254
0.118691
-0.978427
0.897017
0.078932
-0.205165
-0.0556358
0.0522388
0.0119865
0.186746
0.830064
0.819853
0.773343
0.137196
-0.910539
-0.98428
0.79406
-0.784357
-0.102218
0.886575
0.163624
-0.883635
-0.676508
0.886011
-0.787384
-0.103623
0.460928
-0.00946128
-0.451466
-0.653872
1.50447
-0.850596
0.0711121
0.0861309
-0.157243
-0.887979
-0.829011
0.0823541
0.546017
0.270213
-1.97486
0.253402
-0.594234
0.594234
-0.8025
-0.42064
0.479929
-0.448535
-0.59394
1.20691
0.783793
-0.194569
0.41458
-0.212778
1.0501
-0.829939
-0.220161
-0.651795
-1.57869
0.0992871
-0.1927
0.183536
-0.863879
0.117129
0.312845
-0.230444
0.782285
-0.881311
1.05529
-0.261229
-0.143645
0.734828
0.59516
-0.59516
-0.0384012
0.0175787
0.116786
-0.0847545
0.906486
0.597983
0.124492
0.00365055
0.00923987
-0.0128904
-0.675434
0.692281
-0.0168465
-0.259533
-0.761845
0.105695
-0.893079
-1.12395
1.44867
-0.324721
-0.0278584
0.87313
-1.69581
1.43628
-0.755883
0.610579
-0.652634
-0.673656
0.164017
0.288255
0.0269727
0.107365
0.0772075
0.211047
0.000925469
0.0165425
0.0621684
0.732269
0.688306
-0.0777265
0.0698054
0.791248
0.12812
-0.425419
0.297299
-0.392292
0.500536
0.0665276
-0.918803
0.700959
0.217844
-0.685338
-0.129883
0.667412
-0.26817
0.263582
-0.0338544
0.485947
0.514053
-0.771141
-0.11017
-0.429336
-0.881371
0.077788
-0.273486
0.400811
0.599189
-0.0219238
-0.00347892
-0.861909
-0.0568534
-0.59578
-0.157085
-0.236664
0.393749
0.00388959
0.00122859
0.118343
0.0753498
-0.128321
-0.123951
0.762512
-0.648454
0.71826
0.456796
-0.379588
-0.584915
0.471225
0.113691
-0.745086
-0.184801
0.929887
-0.23424
0.222063
-0.0256467
-0.0640224
-0.0560897
0.000195887
0.732598
-0.138364
0.112132
0.114302
-0.734326
0.0588912
0.733331
0.22759
0.045413
-0.110039
-0.264998
-0.280722
1.01612
-0.00195903
0.0474478
-0.217652
-0.00595609
-0.0270687
0.0160687
0.41256
0.320771
0.757466
-0.911362
0.153896
0.844866
-0.0365023
-0.000679612
0.0371819
0.133909
-0.00297477
0.000810191
0.212795
-0.104884
0.416157
-1.0101
0.84057
-0.0831032
0.00487991
0.282535
-0.440137
-1.02345
1.32337
-0.299926
-0.77899
0.829483
-0.0504926
-0.0233095
0.330068
-0.0385906
-0.0808555
1.31905
-0.465681
-0.0605973
0.271033
0.441154
0.180714
-0.621868
0.392565
0.0302734
0.662008
-0.571772
0.573789
-0.00201793
0.950515
-0.488535
-0.0278395
0.0308961
-0.00305653
0.701221
-0.00975179
-0.0823616
0.0186068
1.32001
0.729657
-0.752967
0.0684435
0.113881
-0.1331
0.134105
-0.0960873
-0.0380177
0.0235367
-0.0118952
0.483372
-0.371915
-0.0310688
0.212311
-0.0249639
-0.0785938
0.234063
0.0926761
0.00214768
0.0351615
0.76339
0.710791
-0.249361
-0.46143
-0.521497
0.385845
0.135652
0.644682
0.119166
-0.0188459
-0.038845
0.057691
-0.141469
0.278873
-1.10881
-0.0118161
0.762928
0.726491
0.665602
-0.230391
-0.506452
0.808306
0.0885133
-0.185621
-0.902303
0.116251
-0.273692
-0.184978
-0.170955
0.698285
0.065105
0.014041
0.600713
-0.270645
0.0773976
0.16695
0.0154184
-0.109774
0.42194
-0.0585794
-0.204339
-0.0662128
0.163043
-0.3338
-0.187697
-0.147463
0.167615
-0.0301586
-0.109294
0.000741939
0.000636321
-0.00137826
-1.17294
0.684406
-0.002057
0.932725
-0.226715
-0.621462
0.654183
-0.0327206
0.438514
0.757176
0.423114
-0.309423
0.0812929
-0.180604
0.639385
0.117791
1.01904
0.548584
-0.277837
0.752307
-0.0750123
0.395783
-0.588519
0.35219
0.236329
0.340011
-0.0707697
0.0406823
0.0696975
-0.0494812
1.21467
0.736585
0.0717211
0.633278
0.21102
-0.878265
-0.0821634
-0.680749
0.678396
-0.0280182
-0.567806
0.410721
0.860944
0.669658
0.0512269
0.0572003
-0.140533
-0.321504
0.628981
0.76573
0.539741
0.0234164
0.410138
-0.0143552
0.282383
1.29217
-0.0817892
0.100715
-0.731344
0.924007
-0.192663
-0.414508
-0.174011
-0.030999
-0.113534
-0.19122
0.810853
0.0175538
-0.00286822
0.62615
0.136252
-0.246291
0.612805
-0.131688
0.222625
0.782676
0.25026
-1.03294
0.277138
-0.922929
0.284703
-1.19543
-0.166828
0.755598
-0.58877
-0.67575
-0.0041358
-0.0598866
-0.0561583
-1.42284
0.0100286
-0.0361584
0.785513
0.193141
-0.0918194
-0.101322
-0.0347193
-0.570592
-0.134088
0.181536
-1.50239
-0.00285513
0.00330693
-0.213226
-0.0548652
-0.602182
0.0304101
0.568631
0.292313
0.952539
0.71901
-0.231327
-0.389499
0.620826
-0.0786764
-0.619351
0.619351
-0.242925
-0.953206
1.19613
0.0313679
-0.156748
0.672808
-0.104177
-0.219597
0.111021
0.152561
0.435927
1.33493
-0.00206005
0.186274
-0.102315
-0.391236
0.482188
0.091601
0.0710326
0.00541816
-1.94214
-0.428802
-0.139845
0.693132
0.306868
-0.428802
0.693132
0.0795539
0.147833
0.0795539
-0.696449
0.696449
0.303551
-0.0137693
-0.0336329
-0.078267
0.224328
0.0910062
-0.484386
0.636773
-0.0239683
0.645835
-0.50598
-0.139855
-0.0492361
0.0456832
0.00355291
-0.0198784
0.023529
-0.462587
0.01812
-0.0554324
-0.434723
-0.366988
0.138628
0.0375105
0.819381
-0.270265
-0.404873
0.149835
-0.0213775
-0.112573
-0.00220345
0.689863
0.0730653
-0.185332
-0.023611
0.0004732
-0.018946
0.0842321
0.552208
-0.479802
-0.0724053
1.89589
0.559047
-0.270531
0.930304
0.0117811
-0.0652119
0.111495
-0.0170829
0.00612154
1.16779
-0.385119
0.00174569
0.025606
0.201382
-0.455509
0.0198065
-0.0198065
0.02244
-0.02244
-0.00323748
0.00323748
-0.0133737
0.366285
0.464205
0.0701625
-0.697879
0.460492
0.183669
0.0291251
-0.0849817
-0.481625
0.700149
0.112662
-0.798
-1.16984
0.0935958
-0.0285977
0.0205157
-0.00385901
0.00790423
-0.00790423
0.279509
0.00634879
-0.00634879
0.70018
0.103912
-0.0200734
-0.00353767
0.00637416
-0.0651577
-0.0213934
0.0213934
-0.00245043
0.00245043
-0.0233861
0.0233861
0.00423976
-0.00423976
0.0225203
-0.29942
-0.0783554
0.219321
0.00331169
-0.00331169
-0.378196
0.500213
-0.122017
0.485485
-0.212858
-0.342129
-0.0627446
0.557029
0.074918
0.0850726
0.56911
0.564838
0.000508712
-0.000508712
-0.223923
0.02626
-0.02626
0.00250099
-0.00250099
0.774935
-1.15352
0.0382008
-0.616534
0.319333
0.00101243
-0.00101243
0.00267738
-0.00267738
0.0190302
-0.0190302
0.0219051
-0.0219051
-0.0245456
0.0245456
0.03643
-0.03643
0.496432
-0.0330712
0.0330712
-0.00182262
0.00182262
0.0250377
-0.0250377
-0.00197135
0.00197135
-0.0012724
0.0012724
-0.100223
-0.0275464
0.0275464
0.330004
0.0371453
-0.04092
0.04092
0.00161837
-0.00161837
0.00525255
-0.00525255
0.0348033
-0.0348033
0.0248112
-0.0248112
0.000376108
-0.000376108
-0.00176315
0.00176315
0.0451912
-0.112902
-0.00252152
0.00252152
-0.00253526
0.00253526
-0.039505
0.039505
-0.0270844
0.0270844
0.000965997
-0.000965997
-0.429662
0.677868
0.261026
-0.0331464
0.0331464
0.0073975
-0.00256138
0.00256138
-0.00326424
0.00326424
0.036092
-0.036092
-0.0936506
-0.0919706
0.00203874
-0.00203874
-0.0213593
0.0213593
-0.477649
0.0423979
0.627835
-0.0303252
0.0303252
-0.436296
0.0317523
0.0181773
-0.202152
-1.52339
-0.0380289
0.0380289
-0.209425
0.150846
-0.0397353
-0.0039281
0.0039281
-0.0113866
0.0552835
0.26666
-0.323553
-0.264681
0.588234
0.178709
-0.00208222
0.00208222
-0.0441945
-0.0322108
0.0764054
0.753312
-0.378097
-0.375215
-0.4776
-0.659622
-0.205176
0.35501
-0.180397
-0.211896
-0.575831
-0.028285
0.191871
-1.10254
0.0181184
-0.0181184
-0.00354373
0.00354373
0.0319312
-0.0319312
0.0253702
-0.0253702
-0.000243442
0.000243442
-0.0031515
0.0031515
-0.0176345
-0.156243
0.163136
-0.286552
0.000480965
-0.000480965
-0.0434902
0.0434902
-0.0417337
0.0417337
-0.0340693
0.152037
-0.117968
0.0148067
0.300565
-0.52728
-0.000744489
0.000744489
-0.0125176
0.0125176
-0.104545
0.115456
-0.320631
-0.00392829
0.00392829
0.0339301
0.0135462
0.913259
-0.488117
-0.0916399
0.579757
-0.619657
0.295126
-0.454458
-0.0373666
0.0373666
-0.674374
0.269915
0.0512633
-0.0512633
-0.669074
0.398863
0.254575
0.11425
-5.83641e-05
5.83641e-05
-0.862688
7.50987e-05
-7.50986e-05
0.324314
0.40762
0.0691372
-0.0553795
0.0553795
-0.00410415
0.00410415
-0.0438375
0.0438375
-0.0520612
0.0520612
0.000292268
-0.000292268
-0.057563
0.057563
0.000207701
-0.000207701
-0.0472564
0.0472564
-0.00915085
-0.0437936
0.0437936
0.00569059
-0.00569059
0.0498644
-0.0498644
-0.000355892
0.000355892
0.0460134
-0.0460134
-0.287627
-0.00224768
0.00224768
-0.00429327
0.00429327
-0.0521505
0.080643
-0.0107909
0.0107909
0.00477009
-0.00477009
-0.0613705
0.0613705
0.304045
-0.0190882
0.0190882
-0.0556791
0.0556791
-0.0073182
0.0073182
-0.0694332
0.0694332
-0.0131222
0.0131222
-0.0829652
0.0829652
-0.0226184
0.0226184
-0.0918582
0.0918582
-0.700774
0.077718
-0.542214
0.509493
-0.905134
-0.165582
-0.548785
0.37783
0.0766272
0.123722
0.00377579
-0.00377579
0.162841
-0.70165
0.0481135
-0.0426953
-1.36749
1.56612
1.11689
0.248821
0.019657
-0.0212702
-0.382744
-0.592662
-0.0749356
0.394955
-1.26976
-0.0251103
0.0251103
-0.729176
0.0171606
-0.0171606
-0.00149588
0.00149588
0.322645
-0.291919
-0.00303442
0.00303442
0.018437
0.0139274
0.599243
-0.165351
-0.0205581
-0.009841
-0.0102753
-0.106472
0.508471
-0.401999
0.113742
-0.0144546
0.00264608
0.998651
0.028978
0.0436211
-0.410214
0.455346
-0.501854
-0.940322
-0.233942
-0.0763527
0.0187555
-0.0332386
0.119369
-0.0268594
-0.00699192
0.00283948
0.799556
-0.538373
-0.0447065
0.0601249
-0.0392075
0.0127959
-0.0464289
0.416509
0.246728
-0.165891
0.208289
0.0125384
-0.001375
-0.836789
0.0108227
-0.17762
0.0858004
-0.01819
-1.19755
-0.0720518
0.269897
-0.353918
0.405892
0.271108
-0.89058
0.0492833
0.080661
-0.0520498
-0.355288
0.457653
-0.0297248
0.0723998
-0.042675
-0.0283715
0.0283715
0.18482
-0.445343
-0.12207
0.00644484
-0.0862208
0.0582026
-0.0605319
-0.00453404
0.065066
-0.0450389
-0.157336
0.0798116
0.0947703
-0.285853
-0.343004
0.628858
0.0170027
0.063153
0.149903
-0.0377707
-0.114919
0.0741608
-0.164076
0.321122
0.00683812
0.0303438
-0.01863
0.168533
0.00285858
0.268486
0.00127864
-0.00127864
-0.644649
0.927032
0.0966493
-0.178813
-0.0137207
0.06478
1.49292
-0.05664
0.0506866
-0.00874063
-0.535334
-0.00687995
0.0817663
0.101428
-0.702907
0.325267
-0.057057
0.366163
-0.652016
0.201541
0.499418
-0.0924814
0.0924814
0.000627584
-1.30022
-0.0570818
1.3573
-0.22085
0.164691
-0.209909
0.0654494
-0.398242
0.0116369
-0.0254132
0.0262353
0.929715
0.244952
-0.193726
-0.0700042
-0.970496
-0.0765894
-0.0357848
-0.269496
0.777587
0.562602
-0.262037
-0.303132
0.585667
0.0812731
0.118733
-0.267268
0.0294051
-0.458169
0.336152
0.120983
-0.120983
-0.0509362
-0.0442748
0.095211
-0.00546943
0.00931952
0.0136077
0.0463742
-0.187843
0.217741
-0.186318
-0.0314228
0.530899
-1.11174
0.234644
-0.918485
0.687268
-0.110217
-0.176334
-0.0294655
-0.0801674
-0.496995
0.0622717
-0.297342
-0.00210903
-0.01819
0.391777
-0.00510642
0.00201507
-0.000928066
0.0133808
-0.0113891
-0.0019917
-0.0984981
-0.0174891
-0.172279
0.189768
-0.114065
-0.344104
0.018437
0.349037
0.000676107
-0.386686
0.0920825
0.00287392
0.13582
-0.0656576
-0.0130204
0.0130204
-0.00155276
0.00022695
-0.00900758
-0.000810703
0.0586791
0.000511715
-0.00115954
0.0581825
0.132747
-0.00338405
0.00338405
0.0104591
0.502989
-7.10826e-05
-0.287158
0.506237
1.17486
-0.469353
0.320966
-0.439582
-0.0507154
-0.0713546
0.214951
-0.219512
0.038169
-0.000318477
0.000514364
-0.00238162
-0.179477
-0.374536
0.835028
0.379653
-0.397288
-0.0147789
-0.00162669
-0.0198818
-0.00797666
-0.000116005
0.000370453
-0.000688929
0.000442181
0.00141496
-0.000545852
0.735353
-0.661192
-0.248058
0.256589
0.528399
-0.000728982
0.000275594
-0.0397353
-0.00551405
0.817605
-0.43115
0.522751
-1.02122
0.906058
-0.125653
0.56336
-0.185531
0.712437
-0.000110873
0.00353021
0.0169855
-0.122698
0.138747
0.0370786
0.00815678
0.00224227
0.0692181
-0.0562389
-0.0129792
4.34877e-05
-0.0560394
0.0787911
-0.0227517
-0.0926089
0.00995997
-0.000720098
0.00230655
0.489107
-0.43803
0.00726504
0.000221504
1.10185
-1.15894
0.376345
-0.00609775
0.000384368
0.0686191
-0.0996879
-0.047545
-0.100144
-0.0125882
-0.00370478
0.131748
0.0269135
-0.00264593
0.397469
0.00026727
-5.6533e-06
5.65309e-06
0.00356667
-0.0134077
0.000237519
-0.323422
-0.00382584
0.0749901
-0.107577
0.216927
0.254079
-0.0653176
0.000263525
0.00204559
0.449381
0.000185078
0.00104349
-0.0320425
-0.00210383
0.000312645
0.0609503
0.0635418
-0.710028
0.453038
-0.827574
0.234825
-0.000175858
0.136094
0.0244283
0.092701
0.565532
-0.0146946
-0.115629
-0.00411613
-0.0013989
-0.556583
-0.00341883
-8.45686e-05
0.0141875
0.930063
-0.537498
-0.00260808
-0.000563592
-0.005991
-0.00189179
0.0701284
-0.0215813
0.0215813
-0.0135896
0.0138166
-0.00254812
-0.00806275
0.0252853
-0.0232702
-0.172429
0.101659
-0.00580399
-0.013532
0.0378777
-0.0181501
0.0654727
-0.0467172
-0.623659
0.575879
0.0123255
-0.0009943
0.375168
-0.212126
-0.0657011
-0.66318
-0.068673
-0.11015