/*--------------------------------*- C++ -*----------------------------------*\
| =========                 |                                                 |
| \\      /  F ield         | OpenFOAM: The Open Source CFD Toolbox           |
|  \\    /   O peration     | Version:  2306                                  |
|   \\  /    A nd           | Website:  www.openfoam.com                      |
|    \\/     M anipulation  |                                                 |
\*---------------------------------------------------------------------------*/
FoamFile
{
    version     2.0;
    format      ascii;
    arch        "LSB;label=32;scalar=64";
    class       volScalarField;
    location    "37.5";
    object      p;
}
// * * * * * * * * * * * * * * * * * * * * * * * * * * * * * * * * * * * * * //

dimensions      [0 2 -2 0 0 0 0];

internalField   nonuniform List<scalar> 
2186
(
1.17117
0.200017
0.474771
1.46806
-0.847667
-0.141293
1.12056
-0.409246
-0.237251
1.67388
1.22104
-0.33116
-0.423525
1.3232
-0.00434778
1.30503
1.34327
-0.95284
-0.0551225
-1.02736
1.69301
-0.988427
1.32884
-0.396077
1.32038
1.44575
1.54017
1.32056
0.69134
1.32228
-0.99374
1.32055
-0.975342
-0.628622
-0.339185
0.134886
-0.626125
1.67147
-0.807328
-0.0284017
-0.423184
-0.951575
-0.104173
-1.13282
1.08312
1.65492
0.828116
0.978786
-0.0288788
-0.981004
-1.00651
1.04096
-0.101587
1.57999
-1.04182
1.36354
-0.150698
1.38822
-0.864869
1.198
-0.0209424
0.758451
0.650935
0.0389545
0.683019
0.925444
0.780223
1.58802
1.4817
-0.231798
-0.401012
0.0526898
1.57967
1.4027
1.44024
1.54509
-0.116709
1.33632
-0.343255
-0.85889
-1.18533
-0.00939917
1.31687
0.737269
1.31516
1.31873
1.56919
-0.11033
-0.137834
-0.349401
1.36317
-0.993342
1.28454
1.51577
1.32858
0.492587
0.363185
0.704272
-0.914064
1.39951
-1.28488
-1.20986
0.773572
1.3021
1.34571
-1.00737
1.42968
-0.0726536
1.34098
-1.55922
-0.838069
-0.966404
1.00188
1.56229
-0.24394
-0.494049
0.361101
0.122845
-0.350166
1.59071
-0.0221702
-1.0626
0.995356
-0.984365
1.31129
0.363956
-0.91332
1.53356
-0.947463
1.10423
1.74064
1.61848
0.728951
1.097
-1.16285
-1.01431
1.33828
-0.244176
-0.474478
-0.36047
0.929368
0.325908
-0.400814
1.14296
1.28407
1.31822
-0.0326216
-0.844915
1.05885
-1.10002
-0.956563
1.03456
1.33959
1.56823
1.4439
0.987181
1.55213
0.538576
0.424998
0.893722
-0.358674
-0.386132
1.25648
1.39012
-0.0799882
0.135161
-0.263255
-0.343677
-0.00699681
0.176137
0.424816
1.40312
1.34352
1.50516
0.498534
-0.255622
-0.791711
1.25558
-0.611175
1.01527
-0.344091
1.33257
-1.01678
0.640251
0.61603
-0.776906
-0.533825
1.33292
-0.465489
-0.446393
-0.665092
1.55248
-0.76977
1.37303
-0.354654
-1.8226
0.0975049
1.46386
1.25567
-0.999267
-0.355904
-1.56037
0.584868
1.35812
-0.341853
-0.914566
-0.351123
0.248447
1.20929
-0.456801
0.980277
-0.201202
1.55255
0.96319
1.07533
1.36215
1.39768
1.32162
1.31838
1.31237
0.853475
-0.51033
-1.00281
0.120947
0.682581
-0.991082
-0.897115
1.21931
1.49264
-0.38434
-0.289453
-0.86372
0.847582
1.09857
1.1818
1.32062
1.51796
-0.983028
1.30298
-0.3733
-0.95518
-0.50771
1.17322
0.848916
1.35844
1.5025
1.31133
1.28174
-0.383802
1.25628
1.37139
-0.400549
1.15623
0.90385
-0.842876
-0.333443
-0.307721
1.35855
1.33291
-0.43512
-0.382391
0.652213
1.37186
-1.05045
0.888661
1.27673
1.24156
-0.307967
-0.999382
1.31322
0.766286
-0.0560769
-0.42976
1.61161
-0.922234
-0.390872
1.22351
1.57352
1.31875
-0.875415
-0.429854
-0.176621
1.1147
-0.412503
1.00617
1.30611
1.41351
0.335371
0.0707645
1.23115
-0.31092
1.33591
1.58417
1.33015
1.32774
0.512237
-1.0226
-0.406136
-0.137889
0.0185048
-0.652889
0.855578
0.00358276
0.708156
1.56213
1.42405
1.11011
-0.0790483
1.41348
-0.32517
-0.405181
-0.385341
-0.354319
-0.461767
0.83108
-0.965017
-0.97909
0.19435
1.14204
-0.438328
0.446433
-0.984056
-0.191381
-0.474506
-0.951696
1.52438
-0.0143613
0.316065
-0.997002
1.22546
0.680583
-0.355513
0.981293
-1.76419
-0.449449
0.769449
1.34922
1.26637
-1.58464
1.45801
1.31391
0.442775
1.6263
1.29706
1.2895
0.842554
0.239871
-0.365186
1.03456
-1.10151
-0.339158
-0.351737
-0.527732
-0.354831
1.6204
0.525829
-1.0031
-0.390426
1.29749
-0.771161
-0.464004
-1.04121
1.20003
0.063599
-0.468954
1.53192
1.60018
1.52502
-0.404205
0.121399
1.6337
1.30584
-0.702715
0.532833
-0.37778
0.670139
1.43928
1.17832
1.25799
1.6583
0.0607132
0.252141
-0.191819
-0.539883
-0.307995
-0.971071
-0.15304
1.54791
-1.10361
-0.313943
1.28405
1.04163
-0.337662
-1.06803
-0.367946
-0.98931
-0.404152
-0.351115
-1.02351
-0.898666
1.53545
0.281576
-0.503508
1.33371
-0.350788
1.64143
-0.637697
-1.21172
-1.05153
1.31861
-0.333366
1.33179
1.27763
0.471029
1.42019
-1.10721
-0.349367
-0.366011
1.42352
1.29291
-0.330651
-0.376748
-0.4002
1.17293
-0.416631
-0.66799
0.595669
1.17463
1.25298
1.12542
-0.341198
-0.478844
1.03293
-0.394424
1.20302
-1.7261
1.3387
-0.0422697
1.52321
-0.349518
1.28239
0.855629
1.33831
-0.331256
1.28612
-0.568317
-0.346882
1.32151
-1.3028
0.186262
-0.524094
-0.107607
1.30869
0.612587
0.779623
1.29349
0.285915
0.40408
0.116545
-1.00333
0.737553
-0.434599
0.84427
-0.785174
1.26317
1.53316
-0.380477
-0.353562
0.33302
-0.986275
0.510285
-0.486545
0.978442
0.483146
-0.433635
1.34683
0.277824
0.436737
0.78353
0.178357
0.934479
0.404991
0.244965
-1.79295
-0.285327
-1.01795
1.32714
-1.97568
1.46755
1.6095
1.5945
0.771007
1.37759
-0.890711
-0.926399
1.26161
0.711637
1.28565
-0.980739
-0.444336
-0.699754
1.2053
-0.347513
-1.21752
-1.02503
-1.06803
-0.503476
-0.287175
0.875195
0.874351
-0.475882
-0.208509
1.19169
0.581458
1.34029
-1.48361
-0.205196
-0.34818
0.891249
0.220868
1.56686
1.65166
-0.796108
-0.902183
-0.271722
0.355631
-1.20247
1.44794
-0.254113
1.40923
0.940537
-0.404495
1.07248
1.03423
-1.17196
1.25059
-0.266032
-0.992746
-0.399648
-0.316957
-0.365536
-0.925347
-0.514871
1.32412
0.256051
-0.933084
1.04875
1.46737
1.59934
0.198337
1.17068
0.127101
1.21653
-0.127099
-0.516795
-0.980959
0.587075
0.974334
1.27683
-0.817657
-0.346099
-0.300206
-0.352087
0.408898
1.17341
-0.647546
-0.254971
-0.483503
1.12262
-1.96289
1.22568
0.110308
-0.488675
1.29531
1.09362
-0.923457
-0.199252
1.24382
1.66622
1.3403
-1.78378
-1.04333
1.2302
0.180063
1.21591
-0.623169
0.525327
1.2397
-0.457443
-1.00004
1.22923
-0.301217
1.47865
0.20524
1.30638
-0.412426
1.07294
-0.264235
1.57778
-0.999717
-1.05568
1.13293
0.615925
0.599211
-0.42223
-1.00955
-0.331741
0.971927
-0.190295
-0.505135
-1.7504
1.32882
0.472732
-1.03339
0.903434
1.06474
1.26854
-1.00887
-0.885829
-0.992263
1.33179
1.39678
0.959894
1.32901
-0.565189
1.44257
-0.407674
-0.138108
-0.303881
1.28273
1.31028
-0.531112
1.00166
-0.999018
0.980375
-0.812528
1.18332
1.34958
1.32783
-1.44196
1.1099
-1.20735
-0.600272
1.50513
-0.887791
-1.61282
1.36156
-0.30365
1.31338
-1.01713
-0.991141
1.23305
1.21765
1.72078
1.31868
-1.14873
1.48876
1.31882
0.710098
0.749061
-0.584651
-0.266968
1.81301
-0.364254
1.36175
-0.948997
0.790945
1.31979
-0.457109
1.27599
-0.866022
1.09269
1.30506
1.33934
-0.272515
-0.457754
-0.0396596
1.02759
1.09385
1.44671
-0.0182713
0.978614
-1.26063
-0.337052
-0.729501
1.2611
1.54398
-1.06941
-0.284635
-0.704973
1.52504
-0.439847
0.868246
-0.614898
-1.28315
-0.388598
-1.00133
-1.65174
0.994653
-1.50055
0.0538136
-0.35477
0.0427901
-1.04451
-0.367273
-0.0845745
1.25298
1.33383
-0.441161
0.160562
1.27467
1.29238
1.33684
-1.13918
1.26906
1.42523
1.3282
1.46821
-1.11763
-0.207238
-1.00003
0.732202
1.33309
1.15478
0.655528
0.338093
-1.78141
-0.71078
1.63959
-0.323297
-0.146824
-0.056342
-0.167495
-0.412939
0.939901
-0.351641
-0.334492
-0.347491
1.30069
1.32274
1.31302
-0.0924653
0.411811
1.62543
0.286114
1.32479
0.0595766
0.0569486
0.907271
1.33004
1.29218
-0.72004
1.25663
1.26091
-0.563472
-0.121077
1.31439
1.32994
1.33097
-0.34929
-0.396095
1.33271
1.06658
1.32137
0.255396
-0.134985
-0.438922
-1.20126
-0.338688
-1.00877
-0.593723
-0.0468813
1.33537
1.33938
0.933502
-0.359258
1.29999
0.194401
-0.0772301
-0.143553
1.32398
1.34014
1.33345
1.34058
1.31485
1.30553
1.29222
-0.0330252
-0.141754
0.097821
0.0511586
-0.117729
-0.0122692
-0.145506
0.272093
0.307973
0.219176
-0.132915
1.32059
1.33476
1.33047
1.34934
1.34518
1.33426
1.33444
1.32688
1.31141
0.252512
-0.04887
1.33247
1.33456
-0.085162
1.33752
1.33302
-0.635075
-0.286957
0.120843
-0.782656
-2.02599
1.31338
-0.408066
1.31799
1.06743
1.47763
-0.362107
1.32032
1.21293
1.29129
-1.00272
-0.331262
-0.447446
0.00579589
-0.036313
-0.997962
1.32219
-0.337057
1.40406
1.31478
-0.188513
1.39761
1.57467
-0.523599
1.0945
1.11753
1.30603
1.32524
1.32732
-0.362981
0.578061
-0.551184
1.3154
1.33204
-0.482728
-0.500219
1.31526
-0.503259
-0.377057
1.31787
-0.498962
1.27984
1.32755
-0.211924
1.32995
0.275595
1.31911
1.34677
-1.37299
1.33847
1.3447
-0.671015
0.843733
1.32431
1.31854
0.186996
-0.871928
1.16561
1.7202
1.32374
1.32485
1.32257
-0.154692
1.32222
1.32174
1.32138
1.31946
1.3194
1.32364
1.39604
-1.08864
-0.824913
1.32442
1.31062
0.366454
-0.528946
0.427954
-1.41006
1.11683
-0.463838
-1.82898
-0.108897
1.31718
1.17123
-0.439406
0.224282
-0.677199
-0.628109
-1.07067
0.147602
-1.75468
-1.18197
-0.376653
1.32715
-0.297082
1.31387
1.18351
-0.352071
1.48989
-0.727459
-1.12318
1.16482
1.35013
0.547482
-0.347755
1.30264
0.503824
1.32326
-0.694651
1.32502
-0.307826
1.31329
0.423318
0.308559
1.32497
1.34358
1.19221
0.237859
-0.349829
-0.864527
0.149234
1.34324
1.16065
0.0010782
1.30845
1.35676
1.29359
-0.352732
-0.945928
-0.0898934
-1.15423
0.816355
1.31407
0.0109479
1.32252
-1.13515
1.3112
1.34999
1.3283
0.00917116
0.00540304
1.35649
-0.383692
1.33075
1.33269
0.532402
-0.412845
1.1281
1.38315
1.31176
1.29616
-0.0402836
-0.371504
1.30945
0.89303
1.32768
1.2793
-0.743589
-0.396734
1.08647
1.59934
1.30759
0.831626
-1.59804
0.0511352
-0.595119
-1.64369
1.32006
-0.262045
1.28373
-0.830659
-0.355665
-0.891466
0.573533
-0.317893
-1.106
-0.559126
1.31116
-0.347904
1.09495
-0.37118
0.359806
-0.471256
-0.365555
-1.11414
1.26425
-0.237426
-0.273481
-0.444463
-0.957572
1.32074
-1.24201
-0.243525
-1.29949
1.32389
-0.713868
-0.371097
1.38084
1.31832
1.31572
0.950732
-0.332838
1.3091
1.32656
-1.42368
-0.955032
1.31166
1.23701
1.50815
1.3269
0.360157
-1.08222
-0.975811
-0.516809
-0.755605
-0.347484
-0.782273
-0.282847
1.2405
0.498891
1.33255
1.48521
1.30162
-0.350911
-0.344121
1.31157
-0.1477
-0.311968
1.31412
0.283783
-0.703473
-1.11274
0.100736
1.21778
1.18331
-1.41553
1.2289
0.830014
-0.520717
1.32019
-0.408426
1.03394
-1.00848
1.37541
-0.427219
0.902939
1.3139
1.30991
-0.991861
-0.790884
1.06243
1.68409
1.33277
1.22596
-0.961695
1.63421
-0.282721
-0.317272
-0.228296
0.946537
-0.65595
1.41924
1.54926
-0.379161
-1.19604
1.30283
-0.602603
1.27493
1.34118
1.23519
-0.899288
1.3118
-0.0706946
1.34739
-0.0789719
-0.513165
-0.131263
1.31645
-0.419505
-0.529674
-1.00537
1.36566
-0.997902
1.43374
0.757823
1.5851
1.18737
-0.810704
1.3214
-0.988324
1.25421
1.26737
-0.302557
-1.17716
1.35649
1.28738
1.467
1.23786
0.600504
1.23124
1.32882
1.09021
1.31664
-0.298633
-0.873635
-0.598602
1.45418
-1.00216
-0.671157
-0.998725
-1.14332
-0.530034
0.396781
1.05156
-0.442606
1.30476
1.36641
-0.950485
-0.288912
-0.699418
-0.372849
-1.00823
-0.980899
1.30404
-0.625417
1.32798
1.61182
1.37492
-0.182837
1.3341
1.20844
-0.714746
1.31783
1.27689
-0.707046
1.27992
1.14074
-0.478593
-0.59932
1.79024
-0.101632
-0.668335
-0.420647
0.73516
1.3126
-0.793288
-0.983604
-0.996768
1.42699
-0.588012
1.03967
1.31003
1.33031
-0.489239
1.33397
-0.818925
1.32171
1.3378
-0.431546
1.33011
0.631188
1.33464
1.15279
-1.22107
0.145436
-0.0533201
-0.753215
1.50723
0.284998
1.3199
1.67913
-0.672603
0.0704262
1.38685
0.108385
1.38398
0.0605972
0.154105
1.37381
1.37864
0.905591
-0.350276
0.935889
-0.968377
-0.998663
-0.775681
1.33008
1.34789
1.7816
-0.348181
-0.234579
1.19105
-0.464888
1.35908
1.22172
1.34784
1.29411
1.30318
-0.900779
-0.348628
-0.44215
1.0206
1.18528
-0.961315
-0.971419
-0.368923
1.33541
1.37704
-0.932329
-0.917055
1.34588
-0.00016416
0.330463
0.948132
1.11966
-0.251999
-0.431587
-0.196822
-0.469463
-0.982432
-0.798727
-0.128318
1.74715
1.62636
-0.761108
-0.4874
1.33325
1.31185
-0.807652
0.47259
0.19158
0.812064
1.39647
-0.340769
1.31717
0.671008
-0.417628
-0.872396
-0.719611
-1.10991
1.3343
-0.471636
-0.406062
1.6391
-0.455203
1.31922
1.48914
-0.965103
1.46091
1.64294
-0.862862
1.48936
-0.442692
-0.402197
1.26328
-0.0457402
1.43463
1.3242
-0.430705
1.4085
0.657593
-1.12696
1.34706
1.45039
-0.299899
-0.48482
1.21105
1.31093
-0.398181
-1.01469
1.53461
-0.419585
1.16967
0.575169
1.30815
-0.340369
-1.43264
-0.372929
-0.833839
1.31756
1.38376
1.67568
1.44818
1.18618
1.36737
1.28507
-0.366623
1.36456
1.54879
-0.925533
-0.409138
-0.716421
1.58111
0.346469
-0.387526
-0.714645
1.13993
-0.908569
-0.715638
1.23554
1.44103
-0.38049
-0.962929
-0.393281
-0.599304
-1.17819
-0.886591
-0.360783
1.08653
1.32989
-0.986481
-0.491131
-0.268375
1.03032
-0.417818
-0.800774
-0.356003
1.37589
-0.451993
-0.952448
1.71052
1.2676
0.881222
1.59386
-0.621379
1.40654
1.31531
1.4684
1.60649
-0.223532
0.84968
1.22692
0.766205
-0.351652
1.73442
1.3354
1.31054
1.42006
-0.94036
-0.497502
1.25901
1.00769
1.31036
-0.827641
-1.10621
1.31776
-0.35671
1.2392
-0.00932812
1.68582
-0.349002
0.91204
1.19252
-0.998977
-0.347032
-1.23851
1.46415
-0.996063
-0.346611
1.15912
0.777846
-0.573292
1.36816
1.26196
-0.991636
-0.66036
1.21799
-0.821324
-0.347035
-0.370169
-0.996266
-0.199622
1.24501
1.35647
-1.50639
1.08613
1.32837
1.63577
0.77803
0.405087
0.0960864
1.31687
0.112025
-1.00092
0.202665
-0.62188
-1.00202
1.28616
-1.00408
0.279393
-0.34667
0.700272
1.0432
-1.00191
1.10177
-0.99361
0.977906
-1.00185
0.614988
-1.00267
0.8811
-0.348912
0.519252
-1.00252
1.26567
-0.543132
-1.00685
-1.01847
-0.348318
1.33145
0.608131
-1.0503
-0.355539
0.126635
0.234951
-1.01281
-0.348401
-1.09495
0.416219
-0.368259
-0.0611535
-0.398399
-0.300129
-1.17829
0.26125
1.1357
-0.252774
-0.736354
1.25992
0.0142551
-0.431003
0.931608
1.31438
-1.15143
-1.21635
-0.351863
-0.65051
1.28999
1.70412
-0.779876
-0.293836
0.54788
-0.463108
-0.320267
0.193397
1.2404
-0.701926
1.30914
-0.72304
1.76496
0.929206
1.78706
-0.972132
1.59029
-0.586863
1.42143
-0.225199
-0.349834
1.48995
1.33643
-1.25872
-0.347194
-1.00746
1.21435
-1.04367
1.28645
-0.856261
-0.361972
-0.376031
1.61088
1.30776
1.52092
1.2877
1.33869
-0.291605
0.0534125
1.44882
-0.719038
-0.489258
1.6905
-0.982804
1.17444
1.3472
1.69661
1.77592
-0.997652
-0.344195
1.37048
0.733175
0.1046
-0.966666
-1.22737
-1.4186
-0.963277
1.00984
-0.698328
1.60078
-0.61182
1.27002
1.39883
1.29552
-1.12821
-0.326361
-0.505259
1.41543
-0.524354
1.41109
-0.801077
-0.627775
1.48707
1.68766
-0.354205
0.176212
1.29832
-0.541712
-0.763343
1.11212
1.52589
1.58672
-0.954196
1.13055
1.04202
-0.349263
1.60284
0.400399
-0.979661
0.602001
0.277258
-0.531777
1.35538
-0.54713
0.372791
0.440308
-0.715731
-0.577306
-0.340517
1.27634
-1.18807
1.28338
-0.0469581
0.60258
1.13399
0.762885
-0.347831
-0.666629
-0.551269
-0.232238
0.199677
-0.902406
1.14048
-0.621752
-0.515004
1.25892
-0.464753
-0.923136
1.33256
-0.224802
1.18332
0.179936
-0.349932
0.225901
1.2196
-0.22624
-0.379373
1.3007
-0.370083
1.4169
-0.00488017
-0.554182
-0.481646
-0.349079
1.83914
-1.1471
1.50661
0.241865
1.30779
1.48091
1.16313
1.39173
1.39542
-0.0812154
-0.491714
1.32338
1.4897
1.71856
-0.463483
1.3348
0.839565
-0.449513
1.2303
1.60665
-0.627041
1.60342
0.232637
-0.739072
1.27283
-0.436749
-1.00932
1.30675
-0.493909
1.39572
1.47191
1.2167
-0.782072
1.12559
1.51143
-0.867372
-0.311798
-1.07442
-1.37268
-0.5263
-0.347381
1.7304
1.19926
-0.849722
1.34336
-0.424863
-0.546745
1.66049
1.46963
-1.2378
-0.549676
-0.347862
-0.363118
1.34848
-0.876122
0.597458
-0.957446
-0.431822
1.39605
-0.403057
1.65636
1.34088
1.28753
1.30342
1.55733
-0.596997
-0.414738
1.39073
1.53389
-0.619169
1.34802
-1.12949
-0.369864
-0.391103
1.30641
1.34091
-0.376849
-0.870826
1.01515
0.464288
-1.17928
1.27033
1.16544
-0.644291
1.21176
1.26101
-0.29216
-0.91723
-0.818145
-0.363555
-0.387255
1.69003
0.03175
1.11225
-0.899104
1.69314
1.12808
1.05625
1.17401
-1.24997
-0.983078
-0.357669
0.669256
-0.958464
1.35093
0.790001
-0.613655
1.08059
1.4261
1.35302
1.29585
0.0323765
1.36279
0.0431509
0.897614
1.01547
-0.629662
-0.934023
-1.11018
-0.790766
1.33101
1.39417
1.33165
-0.404979
-0.215821
-0.353025
-0.935462
1.31954
1.54359
1.33421
-0.947117
-0.601043
-0.614905
-0.597202
-0.347058
-0.34942
-0.192017
1.28439
-0.689838
-0.989428
0.251273
0.434895
0.885783
-1.76635
-0.350076
-0.233829
1.16999
1.75284
-0.195937
1.44186
1.78686
0.81548
1.47585
-0.914438
0.482146
1.76768
-0.347647
0.805238
-0.968289
-0.389049
-1.0031
-0.997973
1.36127
1.18468
1.42975
1.38607
-0.0340218
1.2251
0.101892
0.124549
-0.34646
1.44196
0.888092
1.33091
1.34708
0.205652
0.0905618
1.35461
-0.498
-0.352071
-0.994297
-1.01778
1.0481
-1.00035
1.305
1.1268
-0.349269
1.62525
-0.940016
-0.34126
1.3168
-0.570189
-0.504747
-0.550558
0.741494
-0.983769
-1.14614
1.1078
1.33906
-0.600128
0.568345
-0.719372
-0.346203
-0.03788
-1.23519
0.351752
1.06756
-0.560914
-1.00195
1.51418
0.348213
0.465713
-1.00215
-0.393317
1.32167
1.46125
0.659789
1.0091
-1.00165
-0.474163
-0.181926
0.570985
0.92552
-1.00205
1.07864
0.212088
-1.00284
1.71985
-1.00962
-0.44989
-0.384775
-0.935198
1.28233
-1.02953
-0.850641
-0.359097
0.526535
-1.0694
0.0439579
-0.745476
0.324725
1.42575
-1.12879
0.359555
-0.383177
-0.165027
1.60107
1.75892
1.47376
1.32429
1.4462
-0.857781
1.30335
-0.93173
1.45753
-0.352917
-0.313269
1.6511
-0.242248
0.951814
-1.27524
1.7463
-0.00762132
1.69061
0.73972
0.971882
-0.976379
-0.956586
-0.350186
-1.13601
1.63389
1.44962
1.2944
1.07728
1.31835
1.30403
0.987264
-0.992369
-0.355434
0.32792
-0.453393
0.957378
1.32227
0.49079
-0.976497
-0.996726
-0.312344
-0.350443
-0.330391
1.72001
1.34202
1.31743
0.189771
-0.0223401
1.35068
-1.12127
-0.347567
-1.02137
-0.455412
0.944028
-0.988088
-1.00123
0.232933
1.2839
-0.444741
-0.38344
1.31545
1.07434
1.13954
1.30444
-0.347322
1.05068
1.55282
1.27925
-0.347502
1.32142
0.845134
0.570729
-0.578642
-0.997319
1.74065
0.747331
-1.00147
0.55698
1.09725
1.20956
-0.479912
-0.509585
0.306382
-1.06501
-0.288597
-0.843092
0.415657
1.29643
-0.906876
1.26191
1.63617
1.50095
1.2405
1.31333
1.38613
1.31072
-0.5901
-0.0870479
-0.45247
-0.423082
-0.226476
-1.00101
1.40498
1.26929
-0.424008
1.3418
-0.643666
-0.379692
-1.00548
-0.650269
1.00053
-0.285919
1.28956
1.08803
-1.25301
0.151984
1.64801
-0.387968
0.179114
-0.251614
-0.832246
-0.976184
1.38062
0.937647
1.48247
-0.490598
-0.84533
-0.32328
-0.386539
-0.429546
-0.613328
-0.836522
-0.613659
1.09869
-0.160362
1.81013
-1.27741
-0.00685548
-0.378338
-0.999896
1.31436
-0.394016
-0.509607
-0.246444
0.225969
1.42582
1.59399
-0.924899
-1.13015
0.995682
-0.366822
-0.263428
1.48104
-1.11042
-0.689853
-1.18711
0.909629
0.126291
-0.43586
1.29667
0.072794
-1.05498
1.29561
-0.635405
-0.779508
-0.915142
-1.09672
0.461251
-0.435977
1.57083
-0.350798
0.669548
-0.35318
0.956601
-0.977508
-0.573117
0.786715
1.1872
1.38182
1.31728
1.43639
-1.0224
1.24356
1.00996
-0.809268
1.1674
-0.406735
-1.06324
-0.50595
1.55735
1.53993
-0.964548
-0.598969
-0.537493
1.21301
-0.667772
0.158017
-0.256924
-1.00587
1.53314
1.22383
-0.967247
-0.78504
-0.969096
-0.982965
1.153
-0.926965
1.18179
0.306427
0.855455
1.0077
-0.980797
-0.631792
1.13663
-1.00327
0.270041
1.59846
-0.35902
-0.985623
0.984165
-0.86702
-0.819522
0.350885
-0.485057
1.68396
-0.0556352
0.649521
-0.962789
1.68621
-0.945152
-0.767516
0.781071
-0.267383
-0.352733
1.68189
0.815614
1.42642
-0.837884
1.46796
-0.372998
-0.178298
-0.864816
-0.861116
-0.938864
1.50547
0.70285
-0.384903
-0.95211
-0.445044
1.37327
-0.698631
1.66519
-0.352169
0.895825
-0.993647
0.467831
0.660351
0.620917
0.527629
0.686341
-0.725499
1.22259
-0.875941
-0.78009
-0.270431
0.770575
1.69989
0.243897
-0.809562
-0.936564
-0.991551
0.34527
-1.25765
-0.995411
1.28307
0.691573
-0.974899
1.75518
-0.440719
-0.812416
1.69693
-0.985575
0.213217
-0.678436
-1.00277
-0.999459
1.7331
-1.00102
1.6286
-1.00013
-0.668964
1.42467
0.330969
-0.734639
0.691333
-0.476248
0.05852
0.141718
-0.995682
1.22618
-0.338467
-0.992172
-1.00227
-1.00443
-0.357229
1.25443
-0.141373
0.111289
-0.971414
1.64902
-0.265641
-0.804413
-0.947199
0.362111
-1.14842
-0.986652
-0.979827
0.447052
1.48537
-0.9333
-0.347002
-0.962228
-0.125008
-0.23302
-0.361797
1.72929
1.65298
0.517844
-0.636438
-0.354709
0.420012
-0.352623
1.72986
0.280783
1.48435
0.845594
1.66826
0.144358
-1.15423
-0.606144
-0.0320181
-0.870614
-0.0319528
0.413157
-1.00044
1.63608
0.272955
0.29462
0.153251
-0.338557
-0.67358
)
;

boundaryField
{
    frontback
    {
        type            empty;
    }
    Top
    {
        type            zeroGradient;
    }
    outlet
    {
        type            fixedValue;
        value           uniform 0;
    }
    bottom
    {
        type            zeroGradient;
    }
    Inlet
    {
        type            zeroGradient;
    }
    rectangle
    {
        type            zeroGradient;
    }
}


// ************************************************************************* //
