/*--------------------------------*- C++ -*----------------------------------*\
| =========                 |                                                 |
| \\      /  F ield         | OpenFOAM: The Open Source CFD Toolbox           |
|  \\    /   O peration     | Version:  2306                                  |
|   \\  /    A nd           | Website:  www.openfoam.com                      |
|    \\/     M anipulation  |                                                 |
\*---------------------------------------------------------------------------*/
FoamFile
{
    version     2.0;
    format      ascii;
    arch        "LSB;label=32;scalar=64";
    class       surfaceScalarField;
    location    "37.5";
    object      phi;
}
// * * * * * * * * * * * * * * * * * * * * * * * * * * * * * * * * * * * * * //

dimensions      [0 3 -1 0 0 0 0];

oriented        oriented;

internalField   nonuniform List<scalar> 
3181
(
-1.02015
0.395512
0.62464
-0.376076
0.354257
0.0218186
0.50585
-0.347573
-0.158277
0.114209
-0.190512
0.0763029
-0.0405348
0.0484361
-0.00790126
0.574821
1.459
-2.03382
0.141844
-0.135836
-0.00600766
0.00651853
-0.000623585
-0.00589494
0.537766
-0.719807
0.182041
-0.076004
0.128956
-0.0529525
-0.0107587
-0.0543739
0.0651325
0.110553
0.0512225
-0.161775
0.000475613
-0.00587875
0.00540314
-1.09833
0.153194
0.945133
-0.317649
0.675881
-0.358232
-1.12449
0.641753
0.48274
0.0835805
-0.92934
0.84576
-0.138802
0.0522663
0.0865354
-1.90183
0.26429
0.00648458
0.0565719
-0.0630565
0.050818
-0.0945731
0.0437551
-0.0424938
0.0456417
-0.00314791
1.06386
-1.04063
-0.0232262
0.027449
0.0325779
-0.0600269
-0.95656
0.329623
0.626938
-0.105626
0.219836
0.302417
-0.255135
-0.0472816
0.0280706
0.0589696
-0.0870402
-0.426851
0.351295
0.0755558
-0.0344719
-0.0275618
0.0294123
-0.00185052
-0.0407503
-0.91581
0.0553474
-0.0582324
0.00288501
0.259228
1.4517
-1.71093
-0.0582213
0.0456816
0.0125397
0.189655
0.283129
-0.472783
1.80534
-1.54612
0.0768
-0.0259821
1.60806
-0.901108
-0.706948
-1.12276
1.69758
-0.0301417
0.0306173
-0.0287477
-0.0137461
-0.39423
0.076581
-0.13608
0.107332
-0.649097
0.127602
0.521494
-0.139564
0.0635596
-0.16137
0.165278
-0.00390789
-0.261337
-0.0748358
0.336173
0.0290382
1.01596
-1.045
0.0429798
0.0682576
-0.111237
-0.0210772
-0.106034
0.112572
-0.00653827
0.501479
0.174402
-0.0947026
0.151926
-0.0572229
0.079508
-0.0241605
-0.163703
0.188529
-0.0248261
0.157529
0.0535491
-0.211078
0.103148
-0.108794
0.00564606
1.19096
0.417093
-0.841227
-0.178925
-0.0575563
-1.16232
1.21988
0.56813
0.238444
-0.806574
-0.460799
-0.212927
0.673726
-1.87112
0.748367
-0.279265
0.847395
-0.312084
-0.100789
0.412873
-0.214662
-0.212188
-0.183481
0.171313
0.0121678
0.151474
0.277333
-0.428807
-0.173543
0.71131
-0.00691249
0.013431
-1.60338
1.54583
0.173188
0.129229
-0.168486
-0.110165
0.278651
-0.267414
0.366473
-0.0990591
-0.0756145
0.0838678
-0.00825328
-1.57435
-0.920554
0.0115239
0.90903
-0.0254864
-0.0327349
-1.15122
0.812764
0.338457
0.231729
-0.302597
0.0708681
-1.55616
-0.314963
1.09977
-0.946577
-0.740065
1.14633
-0.201198
1.05902
0.178664
-0.171089
-0.00757499
1.87477
-0.415773
2.34991
-2.34991
-0.00745295
-0.00152308
0.00897603
-0.202109
-0.0526102
0.254719
0.0675488
-0.0555562
-0.0119926
-0.453323
0.820268
-0.366945
-0.0314104
-0.219688
0.251098
-1.08299
0.0423594
0.357242
0.06001
-0.417252
0.129774
-0.879281
1.11772
0.0460757
0.0333256
-0.0794013
-0.0177269
-0.145976
-0.167765
0.171601
-0.00383594
-0.209871
0.0421059
0.119926
-0.999206
0.319375
-0.772698
0.924606
-0.841025
0.026584
0.0711733
-0.0977572
0.0904562
0.0545697
-0.145026
-1.34325
-0.0874027
1.43065
-0.232867
0.39608
-0.163213
-0.162048
-0.178684
0.340732
-0.488547
-0.662674
0.078791
-0.0358112
-0.146267
0.140908
0.00535892
-0.0795262
-0.018463
0.0979892
-0.523808
-0.196
-0.0237094
0.00626824
0.0174411
-1.06555
0.168379
0.897175
1.22844
-0.212478
-0.0170465
0.00959356
0.0232715
0.149917
-0.207346
0.397
0.0274623
0.0609555
-0.0884178
0.145274
0.071791
-0.217065
0.202512
-0.127421
-0.0750905
-0.594426
-0.530067
-0.924993
-0.140561
-0.0258128
0.0718886
-0.0975774
0.175128
-0.0775505
0.0637098
0.023657
0.118187
-0.0559071
0.0637026
-0.00779554
-0.0896765
-0.0193299
0.109006
0.0707398
-0.0707398
-0.177915
0.201572
0.0218576
0.0957199
0.0998317
0.0886977
-1.20948
1.03593
-1.45186
0.0218724
1.42999
0.0079091
-0.00932469
0.00141558
-0.0281336
-0.0546959
0.0828295
0.522247
-0.0225703
-0.499677
0.0023152
-0.00225714
-5.80588e-05
-0.191926
0.014011
0.165251
0.655017
-0.355938
0.521189
-0.157329
-1.18592
-0.0552254
0.0146906
0.470504
-0.292696
-0.177809
0.0679537
-0.0616403
-0.00631332
0.0466269
-0.307964
0.0224733
-0.943027
0.0478017
-0.145379
-0.274112
-0.38692
0.0839616
1.40413
-0.950203
-0.453928
1.07956
0.324571
0.0644311
0.271741
0.00497503
0.00293407
-0.13962
0.134353
0.00526736
-0.250178
-0.596646
0.846823
-0.343032
-0.0270544
0.930716
-0.666426
0.138002
0.0405746
-0.0471394
0.00656476
-1.45615
-0.474197
1.93034
0.297577
-1.75372
-0.319845
0.677086
-0.906867
-0.0153843
0.00424578
-0.278025
0.273779
1.42196
-1.56458
0.142618
-0.0585287
0.00330333
0.579827
-0.830005
-0.11266
-0.178886
0.291546
-0.303585
-0.125638
0.429223
0.178576
-1.00947
-0.0735215
-0.00794557
-0.0551109
-0.578095
0.365169
-0.257761
0.0196794
0.238082
-0.0254683
-0.0330604
-0.00205549
0.00205549
-0.12662
0.139226
-0.0126058
-0.190449
-1.26142
0.0241643
0.00106883
-0.0252331
-0.115897
0.0634294
0.0524675
-0.230052
0.0465705
1.43573
-0.206573
-1.22915
-0.179007
0.43352
-0.254513
0.00327656
-0.00382631
0.00054975
-0.328256
0.166207
-0.195968
-0.00458443
0.200552
-0.164338
0.315812
-0.108288
0.106513
0.0017755
0.0796212
0.0230777
-0.102699
-0.086156
0.0853878
0.00076816
-0.185668
0.474462
-0.288794
-0.211309
-0.04899
0.260299
-0.684177
0.661802
0.0223751
-0.00615337
0.0387313
0.0256685
-0.026825
0.00115646
-0.0151295
-0.0448974
0.707118
0.521321
0.171509
-0.893774
0.722265
-0.0879997
1.76945
-1.68145
0.369715
0.524929
1.82498
0.0723993
0.21378
-0.0685063
-0.075868
-0.0301655
0.226041
0.166585
-0.0761289
0.73388
-0.404257
0.0587782
0.195941
0.0566961
-0.174962
0.118266
-0.754253
-0.134856
0.889109
0.000377195
-0.000377195
-0.0316485
-0.282355
0.565483
0.012211
-0.22352
-0.0149477
0.067214
0.023997
-0.0498098
0.143533
-0.154292
-0.346566
0.315156
0.0405306
0.0291186
-0.0696492
0.372201
-0.320979
0.641724
0.149967
-0.791691
-0.198766
0.263198
0.181037
-0.473733
-0.201873
0.597385
0.15861
-0.0310926
0.0310926
-0.35757
0.252006
0.105564
0.368538
0.0275412
-0.00489749
0.0038454
0.00105209
-0.0779118
-0.014067
-0.00964237
-0.0511781
0.194711
-0.188944
0.252596
-0.0636527
0.138047
0.0285376
-0.383035
0.1279
0.201285
-0.0632373
-0.0485349
-0.0597536
-0.0101868
0.0173579
-0.0071711
0.140576
-0.100037
-0.0405391
-0.0298775
0.410813
-0.380936
-0.0357229
0.0288104
0.110987
-0.115597
0.00460975
0.0248365
0.949367
-0.307643
-0.0578238
0.0224379
0.0353859
-0.0507996
0.0669982
-0.0161986
-0.0980824
0.0963521
-0.720109
0.623757
-0.00597737
-1.41146
-0.472808
1.88426
-0.416348
1.12336
-0.707009
0.0783216
-0.159873
0.0324516
0.289202
0.259805
-0.549006
-0.211502
0.268198
0.133852
-0.870448
0.736596
-0.0339227
-0.0168769
-0.0285904
0.0206448
-0.983336
0.441788
0.541548
0.950203
-0.830277
-1.63404
1.54663
-1.42196
1.44383
0.0372674
-0.0944903
0.00436845
0.0213001
0.00324426
0.777946
-0.644094
0.115035
-0.0672331
0.412172
0.734158
-0.0647107
-1.38717
1.29917
-0.646473
-0.563002
-0.243188
-0.405909
-0.0051056
-0.159146
0.205773
-0.571163
-0.358693
0.179686
0.748741
-0.226494
-0.860769
-0.773267
0.751336
0.0474454
-0.0813681
0.270307
0.0350405
-0.0350405
0.668975
0.150833
-0.819808
-0.2272
0.896176
0.320528
0.0494803
-0.370008
0.0993321
-0.0036122
0.0070543
0.00522984
-0.0122841
-1.16232
-0.80127
0.588792
0.749924
0.685804
-0.0332466
-0.128124
-0.229406
0.730886
-0.206575
-0.0511857
-0.0027201
-0.0728944
-0.0579145
0.112484
0.386475
-0.258873
-0.803802
-0.297292
-0.0926815
0.0127479
0.0799336
-1.50002
2.02495
-0.104375
0.10218
0.00219529
0.019728
-0.014753
-0.0477423
0.0369603
0.010782
0.00911728
0.403756
0.0412343
0.0267194
0.00897282
0.0163595
-0.0253323
-0.0181344
-0.177833
-0.741535
0.383278
0.358257
0.692154
-1.96628
1.27412
0.145038
-0.16762
0.0225821
0.00901374
0.0697773
-0.434883
-1.91503
-0.0404864
-0.00725591
-0.0617347
0.0259234
0.153019
-0.360365
-1.45803
0.656116
0.801912
0.0359003
0.0884696
0.0521065
-0.754253
-0.267481
0.0818128
0.0546197
-0.0176594
0.046021
-0.640613
-0.0435644
0.063601
0.137684
0.146206
0.0261051
-0.454912
0.116768
0.363468
-0.303458
-0.108034
0.0183574
0.221192
0.841881
-1.06307
0.105852
-0.70598
0.600128
-0.920118
0.785262
-1.31067
-0.306779
1.61745
-0.000375189
-1.71744e-05
0.000392363
0.178911
-0.482496
0.230587
-0.135695
-0.0948919
0.0570874
0.00991078
-0.018528
-0.0741535
-0.00167829
0.0173853
-0.0325149
0.0200595
0.0884816
-0.108541
-0.0958197
0.00997201
-0.0102401
0.000268132
0.0372687
-0.00845835
0.862945
0.0331946
-0.0298913
0.0708475
-0.872117
0.0644266
0.0349056
0.00713264
0.081337
-1.61745
1.91503
0.187835
-0.0407347
-0.1471
-0.263323
0.0922339
0.120472
-0.128047
-0.00122776
0.0850956
0.00169161
-1.55828
0.100248
-0.051267
0.0713265
0.74194
-0.259199
-0.109662
-0.00623455
0.353881
-0.00295961
-0.00193788
-0.00735936
0.0780992
0.142356
0.224117
0.157994
-0.34442
0.186426
0.104631
0.550386
-0.0299081
-0.109655
0.903618
-0.248527
-0.655092
-1.31067
-0.607515
1.29967
1.80534
-0.0340159
0.174005
-0.139989
0.410163
-0.0767303
-0.333433
0.0271357
-1.5833
-0.0797743
0.0810591
-0.00128479
0.0758461
-0.129599
0.0537526
0.460265
-0.875552
0.415287
0.0395431
0.664051
-0.703594
-0.0424263
-0.103841
-0.0366668
-0.021157
0.011898
-0.369468
0.000843089
-0.00121828
0.0275194
0.0221779
-0.0496973
0.00578736
-0.145408
0.00764748
0.0120805
-0.015689
0.0868623
-0.0236523
-0.00317269
0.202972
-0.42266
0.450867
0.67249
-0.0008802
0.000503004
-0.990527
-0.0189399
0.115825
-0.0681938
-0.0398401
-0.218419
0.105759
0.0695825
-0.64193
0.572347
0.0762926
-0.011866
-0.935519
-0.0110575
-0.00660883
-0.64985
0.746202
-0.0167313
0.175341
0.35875
-0.30927
0.187019
-0.430421
0.243402
-0.0412564
0.102212
0.00405059
-0.0046694
0.000618804
-0.0280265
-0.0581295
-0.0195995
-0.126377
0.739097
-0.633245
-0.0535437
0.0143982
-0.0985879
0.323421
-0.165427
0.193102
1.06585
-0.382585
-0.683267
-0.126721
0.1464
-0.512043
-0.229492
-0.551073
0.591955
-0.576073
-0.0158821
-0.059867
0.00632332
-1.38717
0.557542
-0.557542
-1.83492
1.83492
0.777946
0.622071
-0.0806872
-0.541383
-0.899418
-0.0911089
0.657709
-0.377239
-0.28047
0.151451
-0.229001
-0.0124804
-0.0045661
-0.912635
-0.0865716
-0.933445
0.213336
0.0443749
-0.031627
0.697282
-0.101698
-0.595584
1.41588
0.38946
-0.00357369
0.00762429
-0.958745
0.820613
-0.670647
-0.106593
-0.613587
0.72018
-0.0157453
-0.867138
-0.697439
0.220922
-0.815349
-0.889109
1.32264
-0.433532
-0.134114
0.270178
-0.136064
-0.0339092
0.731192
-0.109315
-0.980462
0.980462
-1.40276
0.330116
1.07265
0.00179276
0.00817925
0.0486423
-0.450863
0.908657
-0.0958935
-0.090691
-0.0323204
0.0300977
0.0002507
0.00302586
1.30286
-1.60963
-0.36643
0.446052
-0.663797
1.04989
-0.386091
-0.00676734
-0.0337191
0.130951
-0.0591595
0.342179
-0.000866419
-0.00501233
0.359071
0.0517419
0.0453488
-0.259385
0.214036
0.132956
0.0323226
0.102817
0.190387
1.42934
0.11649
-0.393285
0.995422
-0.602137
-1.39795
0.923751
0.317359
-0.210026
0.0735289
-0.765384
0.691855
0.228785
0.115601
-0.462167
-0.0742545
0.127022
-0.0527672
0.120365
-0.19462
-0.465955
-0.11214
-0.0771485
0.0805783
-0.00342979
-0.0038961
-0.0197562
0.0372993
-0.0614598
0.644094
-0.600128
-0.0439662
-0.280859
0.29307
0.881424
0.698573
-0.28841
-0.003199
0.00426783
-0.409986
0.2311
0.163154
-0.562259
0.399105
-0.00493647
0.000267078
0.683951
-0.269806
-0.414145
0.0109714
-0.0172852
0.00631371
-0.0292755
0.0214521
0.0078234
-1.29636
0.880584
-0.0942981
-1.31716
-0.20615
-0.830277
1.44383
1.54663
-0.184794
-0.165274
0.116284
-0.0679724
0.074234
-0.00626155
-0.66307
1.12111
-0.458035
0.564007
0.0937021
-0.00229339
-0.00264308
0.127653
-0.268877
0.0323204
-0.0558042
0.00453725
-0.314268
-0.0957175
-0.0302542
0.0542511
-0.219551
0.591752
1.07956
-0.147975
-0.0573676
0.00101264
0.0563549
1.92921
-0.382581
-0.0577688
-0.051025
-0.995359
0.165082
0.37643
-0.197853
-0.487103
-0.14009
0.627194
0.835463
-0.374504
-0.460959
-0.5218
0.591382
-1.29917
0.136842
-0.00649021
-0.0341457
0.040636
0.331947
1.4375
-0.161117
0.168171
0.176916
1.92025
-0.476415
-0.672792
0.0461536
0.626638
0.394731
0.0101539
-0.35693
0.519335
0.787794
-0.725458
0.0721273
-0.0200209
-0.846364
0.372648
0.473716
1.08187
0.0461384
-0.0371655
-0.0520829
-0.370095
0.115121
-0.326623
0.495467
0.570385
-0.0430995
-0.0167676
0.227409
-0.261425
-0.0230942
0.0169408
0.105918
-0.140714
0.0347961
-0.288111
0.300654
-0.0125434
0.212771
-0.595357
0.787863
-0.749449
-0.0384142
0.120356
-0.141895
0.0215395
0.283785
0.0396353
0.127512
-0.394993
-0.667521
0.667521
1.21988
1.41588
-0.70598
0.316917
0.470876
-0.170862
0.276426
0.957713
-0.393706
0.00968204
-0.881243
0.871561
0.120961
0.00799553
0.0251872
-0.699623
0.827135
0.0608984
-0.16496
-0.1144
0.279359
-0.0907932
-0.495045
0.330085
-1.09156
-0.299212
-0.657839
-0.0144511
-0.00940004
-0.000840105
-0.229298
0.0167061
0.0632275
0.0325252
-0.155241
0.122716
-0.537298
-0.865465
-0.00527082
0.0642404
-0.119627
-0.0113398
0.130967
-0.547339
0.36953
-0.103016
0.132134
0.226244
-0.00427995
-0.0243104
-0.975896
0.769324
0.0365558
0.0744315
-0.109932
0.0113437
0.220447
0.0101403
-0.437816
1.49546
0.533081
0.2958
0.865347
-0.791818
0.815186
-0.461304
-0.633221
0.182358
0.158147
-0.797522
0.774969
0.0225531
1.09524
-0.59977
-0.225256
-0.141175
-0.0522428
-0.00331341
0.94924
-0.838089
-0.111151
-0.193943
0.117814
0.0262399
0.114668
0.875718
0.461575
0.432179
-0.893754
-0.316672
-0.0420203
-0.468299
0.348672
0.111191
1.31946
1.45388
-0.0379951
0.164432
0.550043
-0.714475
0.250811
0.0534123
-0.0158422
0.0115622
-0.52581
-0.107411
0.0574523
-0.0829206
-0.196755
0.145577
-0.51545
0.260936
-0.992584
-0.743757
-0.29607
-0.954039
1.4099
0.0200877
-0.29476
-0.505334
0.191065
0.518968
0.313191
0.04588
1.22711
-0.766842
-0.200444
0.137207
0.08735
-0.642123
0.554773
-0.0191223
0.0126321
0.0521391
-0.0597655
-0.228346
-0.10886
0.697476
-0.424631
-0.272845
-0.0971471
0.12643
-0.0913972
-0.0350324
0.246201
0.0669901
0.271089
-0.978098
-0.101048
0.147069
-0.0257216
0.487297
-0.00156458
-0.014634
-0.0262436
0.0128538
0.0133898
-0.00669756
-0.00262713
-0.252509
0.0775469
-0.0357169
-0.537017
0.402903
0.024684
0.0411106
0.0792453
-0.698344
1.64171
-1.07132
0.0159633
-0.202283
0.18632
-0.144057
-0.529115
0.673172
0.0669303
-0.707543
0.136941
0.650922
-0.00284727
-0.000349092
0.00319637
-0.236701
-0.591955
-0.162298
-0.129653
-0.846364
-0.241825
0.173319
-0.0598065
-1.1188
-0.288194
0.344022
-0.0558283
0.254139
0.106781
0.438761
0.387648
-0.826409
-0.0131264
0.0605719
1.26222
-0.290818
-0.971404
-0.216753
-0.530925
1.45468
-0.252444
0.188791
-0.7731
0.242175
-0.0040019
0.175603
0.000729491
0.00251477
-0.0310886
1.41243
-1.11663
0.747553
0.0879096
-1.42691
-0.131367
0.274403
0.68331
0.886962
0.0166567
-0.0183041
-1.45388
-0.657839
-0.71175
0.723274
-0.068821
-0.860769
0.664051
0.59504
-0.929198
0.765488
-0.00248379
-0.795038
-0.31482
0.637994
-0.764692
0.126699
0.0763557
0.0500739
-0.52444
-0.0965278
1.34642
-1.24989
-0.00256549
-0.00683455
-0.274958
0.223772
0.704924
0.213192
-0.199181
-0.172633
1.04143
-0.873055
-0.285135
-0.256248
0.494037
0.267568
-0.761605
-1.00861
1.38125
0.272971
-0.28431
0.0831597
0.377188
-0.473716
-0.000491807
0.223073
-0.0125617
0.0864641
0.0293607
0.0102173
-0.0290748
0.0188576
-1.02823
-0.034848
0.30925
-0.807303
0.0851442
0.447319
-0.532463
0.386587
0.663301
-0.0456958
0.0487368
-0.00304099
0.235392
0.806043
-0.718539
1.07754
0.842247
-0.757103
0.326802
-0.10373
-0.583399
-0.409185
-0.789645
1.28368
-0.0550355
-0.883726
-1.73226
0.0508093
0.377188
0.0508369
-0.85814
0.831381
-0.646749
-0.184631
-0.981989
0.39859
0.00789818
0.107568
-0.000422512
-0.107145
-0.971411
0.562225
-0.205883
0.911869
-0.922927
0.199913
-0.218047
-0.0993676
0.252387
0.398535
0.637201
-0.0628517
-1.29245
0.609184
-0.0624668
-0.662991
-0.552416
-0.518652
1.07107
0.447584
0.0162476
-0.0110177
-0.738442
0.703594
0.817063
-0.581671
-1.82498
1.51979
0.305191
-0.0215792
0.468898
0.772361
-0.806833
-0.493882
-0.449146
-0.472052
-0.499359
0.804241
-0.804241
0.687605
-0.687605
-0.738442
-1.20483
1.20483
-1.51979
-1.53969
0.147476
-0.0471073
-1.21911
1.21911
0.817063
-0.581671
0.772361
0.764474
-0.764474
0.806833
0.758226
-0.758226
0.506118
0.527948
0.481348
-0.402052
-0.500641
-0.550854
1.0788
-0.362266
-1.74093
0.951284
0.445053
-0.172082
0.204483
-0.00603619
0.0392308
-0.885188
0.0904018
0.794787
-0.0566667
0.0515611
-0.993787
0.58953
0.89842
-0.581503
-0.122661
0.00139841
-0.00394079
-0.816525
-0.0772492
-0.541548
-0.0117522
0.032397
-0.835567
-0.081334
0.0636746
0.188245
-0.00814549
-0.00697828
0.0151238
-0.812998
0.0679953
0.745003
0.0773064
0.321229
-0.527674
0.42336
0.104314
0.916518
-0.745347
-0.171171
0.0880598
0.308941
-0.0144018
-0.0627467
-0.0660524
-0.0137219
0.478707
-1.97873
-0.861607
0.0947716
-0.74556
0.795471
-0.0499109
0.120198
-0.900241
0.780044
-0.803893
0.902364
-0.0984707
-0.0241975
0.0174999
0.021303
-0.299328
0.308553
0.975128
-0.0914424
-0.793746
0.915044
-0.0894516
-0.825592
0.0632252
-0.0699925
0.522359
0.825076
-1.72527
0.48932
-0.395617
0.0987073
-0.892453
1.54612
0.288799
-0.794661
-0.00037766
1.01723
-0.897035
1.14712
0.0940377
-0.346549
0.252511
-0.882022
-0.111765
-0.425191
0.0442552
0.255388
0.31696
-0.783413
0.783413
-0.624216
-0.0830272
-0.8638
0.118453
-0.987872
0.881279
0.0759665
-0.211662
-0.0544991
0.0519683
0.0117344
0.185935
0.831298
0.819336
0.774
0.136166
-0.910166
-0.0354696
-0.136613
-0.78344
-0.102523
0.885963
0.165376
-0.883915
-0.677865
0.886001
-0.787294
-0.103591
0.46163
-0.0104069
-0.451223
-0.0598352
1.57796
-1.51813
0.446805
-0.466722
0.0199177
-0.88703
-0.829601
0.0840412
0.537771
0.277415
-1.33855
1.3526
-0.588542
0.588542
-0.754299
-0.538152
-0.0913234
0.918458
-0.684444
-0.0650049
0.783478
-0.194373
1.11931
-0.238725
1.03213
-0.884015
-0.148112
-0.194923
-1.77136
0.0606036
0.0585681
-0.377986
0.459799
0.0124962
0.320219
-0.23216
0.781876
-0.880347
-0.0520727
-0.0845399
-0.145657
0.735187
0.590272
-0.590272
-0.0347958
0.0200428
0.117201
-0.0846755
1.5404
0.0375654
0.0903458
0.000609466
0.00648492
-0.00709439
-0.674188
0.693197
-0.0190095
0.116035
-0.462584
0.105154
-0.892448
-1.02739
1.19918
-0.171788
0.10317
0.87388
-0.513239
0.629274
-0.756283
0.609631
-0.653195
-0.673412
0.161369
0.569544
0.0269789
0.201709
-0.111662
0.681206
0.00172968
-0.0317993
0.0643918
0.731079
0.689472
-0.079842
0.0721942
0.790751
-0.877194
-0.181107
1.0583
-0.417984
0.511335
0.427568
-0.924819
0.709732
0.215086
-0.685289
-0.13006
1.17236
0.104428
-0.473896
-0.0348143
0.485861
0.514139
-0.771282
-0.109065
-0.157892
-1.14841
-0.810097
-0.776863
0.400749
0.599251
-0.0626208
0.0541625
-0.860734
-0.0586358
-0.594559
-0.149782
-0.23914
0.388922
0.00150157
0.000190045
0.118699
0.076012
-0.128624
-0.123885
0.762114
-0.64793
0.720124
0.877808
-0.98947
-0.000613588
0.808412
-0.807799
-0.744384
-0.187181
0.931565
-0.232013
0.221177
-0.0252366
-0.0383835
0.00532309
-0.00152765
0.724217
-0.135675
0.112356
0.113888
-0.735602
0.0614141
1.26128
0.649407
-0.539584
-0.252108
0.540472
-0.282913
1.01707
-0.00390986
0.178666
-0.00175034
-0.000892234
-0.0341503
-0.0369932
-0.178979
1.44026
-0.766229
-0.201157
0.967386
0.846156
-0.0313973
0.00336909
0.0280282
0.134663
0.000585694
0.000257396
0.20794
-0.102022
-0.452883
-0.231561
0.170724
-0.936953
0.00621183
0.273414
0.607256
-1.11715
1.27785
-0.160697
-0.776108
0.82838
-0.0522724
0.630523
-0.25928
0.255278
-0.0804221
1.36142
-0.46488
-0.0627943
0.272687
0.442333
0.183996
-0.626329
0.393898
0.0324442
0.660753
-0.5727
0.572396
0.000304677
1.48007
-0.9611
-0.0273772
0.0325214
-0.00514418
0.700498
-0.00945268
-0.0828416
0.0183824
0.823608
0.46783
0.162693
0.050248
-0.145504
0.00360814
0.0293647
0.0521689
-0.0815336
0.0158221
-0.00560479
0.438654
-0.729472
0.0501011
0.211725
-0.0244302
-0.0809051
0.23459
0.0940096
0.0038847
0.0537608
0.76489
0.198968
-0.369674
0.170706
-0.368414
-0.537288
0.905702
0.641199
0.119693
-0.0347179
-0.00129564
0.0360135
-0.537695
0.339035
-1.22305
-0.00961517
0.760951
0.723995
0.363434
-0.146437
-0.378004
0.806575
0.126041
0.0670612
-0.898775
0.124162
-0.272048
-0.68602
-0.167302
0.696641
0.0682494
0.0144804
0.356766
-0.616046
-0.383911
0.166675
0.015048
-0.109621
0.421218
-0.0590711
0.179036
-0.0650257
0.13057
0.403388
-0.771802
-0.146577
0.427614
-0.0315522
-0.108636
-0.00163778
0.000192892
0.00144489
-1.52468
0.563583
-0.00452283
0.933489
-0.224738
-0.623589
0.653829
-0.0302394
0.149442
0.758055
-0.180422
-0.627377
0.0838937
-0.183261
0.637866
0.120189
1.27811
0.746847
-0.272498
0.761818
0.576903
0.863352
-0.589316
0.351293
0.238023
-1.11737
-0.071227
0.0396775
0.0700186
-0.0504644
1.21105
0.734091
0.0724843
0.633205
0.213619
-0.877515
-0.0826302
-0.680735
0.680358
-0.0278252
-0.563528
0.413745
0.86079
0.67031
0.0459379
-0.00725843
-0.141607
-0.32056
0.887482
0.754225
0.430098
0.0163255
1.27781
-0.414459
0.958705
-0.0615298
-0.0824023
0.650435
-0.729756
0.920847
-0.191091
-0.413553
-0.175763
-0.0336906
-0.164242
-0.0939034
0.855854
0.0204252
-0.00406569
0.626844
-0.489788
0.237681
0.611675
-0.13106
0.224593
0.754361
0.274559
-1.02892
0.276485
-0.923234
0.307572
-1.37889
-0.16829
0.754545
-0.586255
-0.675791
-0.0591709
0.0207874
-0.0567062
-1.69813
0.0095449
-0.0357885
0.0990033
-0.0324492
-0.152902
0.185351
-0.00802431
-0.571163
0.142112
0.0365545
-1.71305
-0.0124733
0.00432783
0.592791
-0.0555054
-0.600887
0.0281866
0.566741
0.294048
1.11455
0.769711
-0.233194
-0.3876
0.620794
0.665294
-0.61961
0.61961
-0.197756
-0.95787
1.15563
0.0319665
-0.158687
0.673089
-0.106348
-0.217254
-0.419298
-0.054598
0.0824713
-0.0855216
-0.32295
0.186782
-0.10282
-0.93935
0.483447
0.0889486
0.0712737
0.00552632
-1.80935
-0.764037
-0.0407536
0.693044
0.306956
-0.764037
0.693044
-1.02462
-0.490279
-1.02462
-0.696478
0.696478
0.303522
-0.0134555
0.155401
-0.079125
0.255899
0.0661651
-0.497754
0.637631
-0.0259567
0.646747
-0.504799
-0.141948
-0.0485752
0.0450328
0.00354245
-0.0156175
0.0162269
0.223116
0.0176282
-0.0181088
-0.435598
-0.367455
0.138157
0.0393892
0.824336
-0.274293
-0.151387
0.342452
-0.0169943
-0.0661623
-0.00431581
0.689832
0.0711197
0.357651
-0.025772
0.000439662
-0.00979924
0.0834381
0.553209
-0.479004
-0.0742058
2.20592
0.557789
0.529456
0.924357
0.0121458
-0.0668418
0.112568
0.291063
0.0750183
1.15062
-0.396261
-0.000657286
-0.0137938
0.659576
-0.156564
0.0189851
-0.0189851
0.023289
-0.023289
-0.0135364
0.0135364
-0.000880201
0.367053
0.462342
-0.0535559
-0.694289
0.467795
0.180486
0.0274535
-0.0861665
-0.482775
0.642697
0.113137
-0.798426
-0.46376
0.15449
0.066994
0.0218522
-0.000400056
0.00122211
-0.00122211
0.104544
0.0015712
-0.0015712
0.701238
0.10394
-0.0200805
-0.00569151
0.00615695
-0.0635245
-0.0204658
0.0204658
-0.0108171
0.0108171
-0.024335
0.024335
0.00167281
-0.00167281
0.0691893
-0.300465
-0.0773684
0.21831
0.00194947
-0.00194947
-0.377446
0.500652
-0.123206
0.483366
-0.213188
-0.573862
0.422475
0.558094
-0.213262
0.0830675
0.570761
0.565876
0.00204301
-0.00204301
0.612929
0.0272782
-0.0272782
0.00217499
-0.00217499
0.772899
-0.6538
0.0390728
-0.054736
-0.21507
-0.00135598
0.00135598
0.0122743
-0.0122743
0.0197701
-0.0197701
0.0209621
-0.0209621
-0.0255222
0.0255222
0.0377007
-0.0377007
0.4953
-0.0342505
0.0342505
0.00109858
-0.00109858
0.0260317
-0.0260317
-0.00817819
0.00817819
-0.00198495
0.00198495
-0.00700193
-0.028563
0.028563
-0.0575608
0.0110598
-0.0423104
0.0423104
0.00702172
-0.00702172
0.0137994
-0.0137994
0.036026
-0.036026
0.0237883
-0.0237883
-0.00154888
0.00154888
-0.00619694
0.00619694
-0.283634
0.193631
-0.0101944
0.0101944
0.000706219
-0.000706219
-0.0408738
0.0408738
-0.0260456
0.0260456
0.00434663
-0.00434663
-0.418269
0.692671
0.244752
-0.0343356
0.0343356
0.00100976
-0.0125397
0.0125397
0.000200037
-0.000200037
0.0347642
-0.0347642
-0.178856
0.245917
0.0070712
-0.0070712
-0.0204506
0.0204506
-0.482486
0.0417733
0.164547
-0.0291182
0.0291182
-0.436367
0.0311211
0.0176157
0.175843
-1.60275
-0.039336
0.039336
-0.209822
0.150751
-0.0384172
-0.000349715
0.000349715
-0.0118847
0.0556399
0.264857
-0.321711
-0.266091
0.587802
0.180092
-0.00771979
0.00771979
-0.0954827
0.356085
-0.260603
0.752245
-0.380784
-0.371461
-0.477506
-0.657272
0.317275
0.025177
0.256902
-0.674886
-0.574665
-0.0172959
0.189986
-1.1228
0.0187517
-0.0187517
-0.00073249
0.00073249
0.0330519
-0.0330519
0.0244553
-0.0244553
-0.00307656
0.00307656
-0.000999569
0.000999569
-0.218967
-0.0836303
0.163346
-0.286007
0.00357638
-0.00357638
-0.0420835
0.0420835
-0.043151
0.043151
0.165447
-0.0777937
-0.0876534
0.0125246
0.30154
-0.526278
-0.00398283
0.00398283
-0.0130921
0.0130921
-0.102651
0.130453
0.186822
-0.00161837
0.00161837
0.0549306
0.0156662
0.936877
-0.48882
-0.0901012
0.578921
-0.620952
0.339871
-0.0844835
-0.0360758
0.0360758
-0.675464
0.267691
0.0530718
-0.0530718
-0.672146
0.391676
0.253582
0.117557
-0.00288543
0.00288543
-0.860429
-0.00204532
0.00204532
0.322066
0.409125
0.0522259
-0.0574103
0.0574103
-0.00214827
0.00214827
-0.0453237
0.0453237
-0.0504217
0.0504217
-0.00231345
0.00231345
-0.0557806
0.0557806
-0.002598
0.002598
-0.0488546
0.0488546
-0.0143176
-0.0423251
0.0423251
0.00406709
-0.00406709
0.051569
-0.051569
-0.0030963
0.0030963
0.0444762
-0.0444762
0.0719553
-0.00451871
0.00451871
-0.00582023
0.00582023
-0.0424808
0.0780992
-0.0121339
0.0121339
0.00477318
-0.00477318
-0.0637358
0.0637358
0.310771
-0.0199573
0.0199573
-0.053669
0.053669
-0.00710306
0.00710306
-0.0722461
0.0722461
-0.0127067
0.0127067
-0.0865764
0.0865764
-0.023349
0.023349
-0.0884651
0.0884651
-0.700238
0.256277
-0.540467
0.510227
-0.867138
-0.483273
-0.545556
0.378255
-0.0151364
-0.0820106
0.00359264
-0.00359264
0.125603
-0.702494
0.0487278
-0.0432015
-1.28567
1.67513
1.53726
0.244227
-0.00350456
0.0318251
-0.380803
-0.591471
-0.0293948
0.391732
-1.17835
-0.0258281
0.0258281
-0.736122
0.0163963
-0.0163963
-0.00544554
0.00544554
0.343549
-0.380281
-0.00254401
0.00254401
0.0176313
0.0134613
0.598577
0.121005
-0.0122484
-0.0136039
-0.00470017
-0.105569
0.507818
-0.402248
0.15442
-0.0938164
0.00456659
1.10606
0.0118311
0.0432659
-0.410508
0.454764
-0.50061
-0.975323
-0.210595
-0.0769945
0.01908
-0.130384
-0.336338
0.00677125
-0.00707641
-0.00199476
0.795114
-0.538139
-0.0448017
0.0598497
-0.0390303
0.0764737
0.0789278
0.416882
0.24492
-0.160625
0.202305
0.0335249
-0.0104472
-1.34962
0.0124409
0.0659449
-0.218847
-0.0174248
-1.40335
-0.0726157
0.269997
-0.354292
0.406034
0.0722881
-1.02633
0.0452966
-0.041792
-0.0282005
-0.354105
0.458419
-0.024616
-0.0187455
0.0433614
-0.0294615
0.0294615
0.167758
-0.456168
0.0060218
0.0574076
-0.0865496
0.0587244
-0.0599638
-0.00458751
0.0645513
-0.0383326
-0.160452
0.0199436
-0.0877682
-0.283387
-0.344068
0.627455
0.0169391
0.06412
0.149482
-0.0371257
-0.0557339
0.072661
-0.163993
0.32214
-0.000740175
0.0287684
-0.0187667
0.168249
0.00401129
0.269768
0.00496714
-0.00496714
0.133308
0.825397
0.0964658
-0.179096
-0.0160915
0.000346177
0.0089225
0.620351
0.013826
-0.0117706
-0.535685
-0.00478148
-0.0269695
0.100471
-0.702447
0.308741
-0.0545028
0.368382
-0.65177
0.212386
0.497347
-0.0971799
0.0971799
-0.000422512
-0.0674906
0.119892
-0.0524011
-0.221353
0.164646
0.328232
-0.225701
-0.369655
-0.0869298
-0.0258908
0.0302592
0.929278
0.15387
-0.107933
-0.0706012
0.0400683
-0.797171
-0.0384529
-0.256738
0.776072
0.561322
-0.259782
-0.264523
0.537937
-0.0911067
0.265111
-0.265341
0.0419288
-0.458085
0.334878
0.115919
-0.115919
0.0664079
-0.0399321
-0.0264759
0.000341906
0.00374653
0.0128538
-0.621199
0.0835037
0.217556
-0.185502
-0.0320539
0.531385
-1.0937
-0.0368717
-0.835246
0.68578
-0.110471
-0.175536
-0.0290761
-0.0797835
-0.495972
0.0603738
-0.298355
0.000101608
-0.0174248
0.396186
-0.00527404
0.000263025
0.000276662
0.0185867
-0.00949619
-0.00909049
-0.0995258
-0.0202274
-0.176171
0.196398
-0.115408
-0.342676
0.0176313
0.349429
0.000996678
-0.387101
0.0910304
0.00294326
0.0454756
-0.0990315
-0.0129754
0.0129754
-0.0014655
0.00145726
-0.00871862
0.000225523
-0.034837
0.000496267
-0.0011872
0.209654
-0.103895
-0.00206139
0.00206139
0.0321296
0.502879
0.00062268
-0.280543
0.594355
1.18745
-0.469513
0.322461
-0.440236
-0.107557
0.113579
0.216565
-0.219107
0.000733983
-0.00230157
0.000773925
-0.00137371
-0.176026
-0.366982
0.834777
0.331171
-0.550137
0.191548
-0.00167468
0.063515
0.0396553
0.000265401
-0.000279789
-0.00202178
-0.758811
0.00143657
-0.000511459
0.7321
-0.659439
-0.248944
0.207405
0.920256
-0.000506177
0.00087426
-0.0384172
-0.00532993
0.817661
-0.43253
0.521479
-1.18916
0.906208
-1.26714
0.560128
-0.181874
0.715103
0.000458397
0.00339168
0.0184605
-0.112619
0.137459
-0.186589
0.00877359
0.00243633
0.0696105
-0.0562968
-0.0133137
0.000648589
0.0114244
0.0142959
-0.0257203
-0.101568
0.0065718
-8.68745e-05
0.0020057
0.497185
-0.437312
-0.000707392
0.000363796
-0.118458
0.23835
0.374
-0.00628412
-0.000382773
0.0674035
-0.0173024
-0.0476732
-0.101489
-0.0124384
-0.00381504
0.13177
0.0283603
-0.00258886
0.399504
0.000751404
0.00126908
-0.00126908
-0.00562758
-0.00797634
0.000499823
-0.321574
-0.00393929
0.0765454
-0.107763
0.194495
0.440793
-0.0651826
0.000406447
0.00130152
0.451429
0.00019113
-0.000633996
-0.0330566
-0.00217262
0.000620512
0.00806908
0.0822767
-0.709897
0.464411
-0.831393
-0.205885
-0.000529896
0.146892
0.0111425
0.00135364
0.57804
-0.0143459
0.0736472
-0.00433857
-0.00150275
-0.555276
-0.00353093
-0.000284553
-0.00316265
0.903598
-0.5097
-0.00271442
-0.000498301
-0.00632546
-0.0014224
0.0792718
-0.0207748
0.0207748
-0.0244372
0.0258945
-0.00232988
-0.00851033
0.0266448
-0.0263818
-0.172776
0.101549
-0.0056036
-0.0143302
0.0372372
-0.0182701
0.066686
-0.0476059
-0.625072
0.575161