/*--------------------------------*- C++ -*----------------------------------*\
| =========                 |                                                 |
| \\      /  F ield         | OpenFOAM: The Open Source CFD Toolbox           |
|  \\    /   O peration     | Version:  2306                                  |
|   \\  /    A nd           | Website:  www.openfoam.com                      |
|    \\/     M anipulation  |                                                 |
\*---------------------------------------------------------------------------*/
FoamFile
{
    version     2.0;
    format      ascii;
    arch        "LSB;label=32;scalar=64";
    class       volScalarField;
    location    "10";
    object      p;
}
// * * * * * * * * * * * * * * * * * * * * * * * * * * * * * * * * * * * * * //

dimensions      [0 2 -2 0 0 0 0];

internalField   nonuniform List<scalar> 
2186
(
0.696942
-0.408651
-0.11226
0.980323
-1.12038
0.00578661
0.589611
-1.04741
-1.05775
1.22528
0.907246
-1.0051
-1.06959
0.910216
-0.630608
0.910301
0.938662
-1.7624
0.00107421
-1.06739
1.30031
-1.02559
0.918613
-1.08487
0.909431
0.955395
1.12955
0.810973
0.434286
0.907672
-1.05245
0.909799
-0.991303
-0.857038
-0.993922
-0.0669494
-0.683081
1.28611
-1.05012
0.0022405
-1.09632
-1.02036
-0.739867
-1.13332
0.76587
1.20705
0.268878
0.432422
-0.934666
-1.34641
-1.05846
0.749092
-0.736064
1.21159
-0.981106
0.85991
-0.787417
0.887319
-1.18427
0.73183
-0.456654
0.479553
0.392899
0.00081742
0.412637
0.375194
0.513795
1.19102
1.08603
-1.11735
-1.05436
-0.535768
1.16529
0.910635
1.06819
1.0671
-0.757862
0.932555
-0.997989
-1.0012
-2.14561
0.0022776
0.906138
0.465125
0.89972
0.904688
1.19115
0.0053679
-0.066017
-1.00217
0.861223
-1.06416
0.82566
1.07402
0.917452
0.25438
-0.233554
0.432089
-1.27418
0.900877
-2.32917
-2.38303
0.506073
0.858737
0.941024
-1.10353
1.08903
-0.8194
0.844255
-0.824242
-0.940258
-1.24583
0.458407
1.20361
-0.999388
-0.972357
-0.0143376
-0.824513
-1.00574
1.16961
-0.205868
-1.60925
0.708215
-2.05403
0.915889
-0.01906
-1.20122
1.05739
-1.83087
0.571018
1.29914
1.15235
0.161151
0.563052
-2.15594
-1.39211
0.831138
-1.0852
-0.794757
-1.01319
0.650005
-0.279505
-1.02607
0.613722
0.819084
0.861481
-0.750169
-1.15163
0.524529
-1.11051
-1.11788
0.493921
0.935968
1.09652
0.956358
0.442646
1.18285
0.278358
0.173194
0.33987
-1.01666
-1.62703
0.882438
0.899615
0.00176134
0.00559716
-0.939398
-0.964148
-0.120153
-0.189484
0.193196
0.90617
0.938982
1.02305
0.262017
-0.537085
-1.10398
0.882781
-2.02947
0.718737
-0.957175
0.921054
-1.05272
0.387196
0.370003
-1.15334
-0.787238
1.00516
-0.762855
-1.07742
-1.29516
1.15866
-1.6888
0.888882
-1.0134
-0.665683
-0.0942401
1.07717
0.93763
-1.03901
-1.24223
-0.129831
0.00720783
0.941128
-1.00576
-1.09856
-1.01288
-0.60772
0.846146
-0.991943
0.435066
-0.0578829
1.19207
0.67963
0.778884
0.86251
1.06056
0.913237
0.809672
0.979308
0.295001
-0.880552
-1.03298
-0.0794908
0.112052
-1.77186
-1.17345
0.905359
1.04516
-0.971958
-0.947168
-1.10463
0.290483
0.567683
0.70689
0.81112
1.03471
-2.10152
0.798438
-1.01702
-1.35415
-0.960574
0.864582
0.577878
1.02654
1.08484
0.984879
0.960106
-1.03897
0.739281
1.00655
-1.08256
0.850281
0.626986
-1.35934
-0.99062
-0.920725
1.02724
0.93404
-1.11411
-1.24283
-0.143718
0.86876
-2.18943
0.604937
0.947392
0.784949
-1.00275
-1.05062
0.887549
0.488581
-0.717027
-0.755488
1.23838
-1.10325
-1.03604
0.755318
1.10071
0.89881
-1.24023
-0.878813
-0.933206
0.78981
-1.11508
0.463178
0.884799
0.933715
-0.274887
-0.56846
0.865391
-1.08113
0.843098
1.11142
0.933737
0.928611
-0.0678224
-1.33485
-1.06983
-0.559175
-0.985131
-1.5387
0.299723
-0.627886
0.452211
1.08714
1.08472
0.790046
-0.789401
1.04001
-1.33294
-0.0375143
-1.4225
-1.01664
-1.12367
0.271068
-1.12206
-1.07401
-0.00872789
0.808725
-0.278784
0.21764
-1.22612
-0.141504
-1.08893
-1.20491
1.12315
-0.197029
-0.0412292
-1.04567
0.704477
0.401081
-0.661934
0.449461
0.0986507
-1.18739
0.50739
0.937565
0.946078
-0.261283
1.05661
0.803918
0.211474
1.16272
0.907277
0.850997
0.283163
-0.269625
-1.0175
0.733967
-1.14856
-0.960231
-1.44774
-0.837205
-1.01092
1.256
-0.101607
-1.05209
-1.09397
0.903339
-1.05393
-1.35491
-1.32264
0.676107
-0.226795
-1.81642
1.15421
1.2159
1.04353
-1.03333
-0.053467
1.27007
0.91148
-1.38487
0.288787
-1.02439
0.0979661
1.07368
0.859653
0.789228
1.21762
-0.582994
-0.273895
-0.322045
-0.595747
-1.72429
-1.00698
-0.00480527
1.19473
-1.8903
-1.38997
0.895779
0.501873
-0.997399
-2.21641
-1.02062
-1.60227
-1.61075
-1.01199
-1.09204
-1.09038
1.10253
-0.116164
-0.908223
0.92136
-1.58017
1.18106
-1.86638
-1.4194
-1.34878
0.908816
-0.960359
0.931655
0.763443
-0.179913
0.957177
-1.6782
-1.01089
-1.26095
0.928666
0.856728
-1.0223
-1.02605
-1.45534
0.857529
-1.84811
-1.80371
0.352285
0.83552
0.801038
0.628185
-1.05102
-0.914825
0.715293
-0.874149
0.740685
-1.23589
0.928761
-0.220657
1.04861
-1.00637
0.768504
0.572142
0.938034
-1.2688
0.901439
-0.453035
-1.01012
0.912552
-0.723793
-0.0489584
-0.901745
-0.353585
0.915126
0.026623
0.211132
0.908922
0.0704202
-0.232338
0.00316222
-1.05333
0.171085
-1.17113
0.560765
-0.947254
0.943889
1.05214
-1.05961
-1.01485
-0.281854
-1.02989
0.252398
-1.11656
0.693542
-0.129196
-1.05879
0.991572
-0.19605
0.20899
0.220609
-0.241824
0.654444
0.180315
-0.446032
-0.857403
-0.0647903
-0.92801
0.924924
-0.871204
1.02045
1.14655
1.13266
0.502935
1.04445
-1.09727
-0.951756
0.815038
0.14219
0.897924
-0.997669
-1.05139
-2.14243
0.707919
-1.01197
-1.92996
-1.05848
-1.10617
0.0117918
-1.10095
0.593937
0.579856
-0.83673
-0.86788
0.667503
0.00320981
1.01253
-1.33098
-0.36468
-1.01257
0.616061
-0.0557736
1.0916
1.28572
-2.07745
-1.13463
-0.910423
0.100868
-2.32274
0.955652
-0.864846
0.91145
0.630217
-1.0225
0.751715
0.71429
-1.41528
0.793478
-0.722183
-1.05311
-1.00447
-0.971079
-0.793547
-2.0114
-0.92772
0.911996
0.0443289
-1.18396
0.509938
1.05571
1.1331
-0.423822
0.667163
-0.0418939
0.694477
-0.244232
-1.23371
-1.06822
0.339339
0.678707
0.944568
-1.6009
-1.06832
-1.61288
-1.01746
-0.182474
0.648736
-2.00051
0.00469677
-1.51527
0.814699
-0.355841
0.859029
-0.336287
-0.361811
0.859075
0.573161
-2.04392
-0.356337
0.86933
1.21295
0.933536
-0.279445
-1.84443
0.717798
-0.290639
0.704909
-0.840774
0.285792
0.865993
-1.07369
-1.05158
0.902048
-1.33387
1.12858
-0.000871404
0.794367
0.0494115
0.543056
-0.821304
1.14849
-1.05187
-1.95515
0.82977
0.366133
0.34286
-1.42203
-1.05471
-0.882766
0.659958
-0.103743
-0.948364
-0.466376
0.92478
0.22898
-1.66575
0.609671
0.763828
0.889054
-1.71573
-0.961038
-1.06496
0.922173
1.05833
0.412916
0.917879
0.0998089
0.971531
0.0713774
-0.922631
-0.308038
0.839952
0.879139
-2.04107
0.714364
-1.05862
0.67699
-1.23842
0.873234
0.868859
0.927309
-1.43523
0.798641
-1.99255
-0.969615
1.07851
-2.10548
-0.980536
1.00914
-1.34154
0.985515
-2.00931
-1.06514
0.917673
0.698581
1.27974
0.908121
-2.17746
1.00272
0.975105
-0.260143
0.489698
0.0671025
-0.876005
1.40534
-1.02185
1.02164
-1.13069
0.224436
0.910748
-1.55949
0.894859
-1.288
0.793652
0.865015
0.924908
0.00845797
-1.01537
-0.668394
0.505399
0.581634
0.98331
-0.294115
0.692804
-1.87702
-0.579397
-1.89919
0.751727
1.06632
-1.33876
-1.09935
-0.00903556
1.14019
-0.0198897
0.594533
0.00624345
-2.35215
-1.0354
-1.04081
-0.335942
0.68211
-0.947464
-0.102045
-0.493436
-0.624201
-1.07969
-1.42702
-0.288228
0.87556
0.930332
-1.45934
-0.486597
0.888333
0.853087
0.929741
-2.05516
0.887472
0.972175
0.908113
0.979076
-0.485349
-0.123209
-1.05348
0.472857
0.914945
0.626441
0.0829069
-0.0319779
-1.35967
0.0261702
1.18105
-0.227157
0.0428224
-0.743078
-0.151177
-1.04653
0.652435
-0.960471
-1.63857
-1.01068
0.91018
0.911957
0.917032
0.00529208
0.165201
1.15881
-0.0166229
0.909893
-0.0720771
0.00134458
0.625812
0.930912
0.969399
0.00762424
0.882521
0.880773
-1.11371
-0.0970745
0.920642
0.931289
0.931186
-1.01424
-1.05276
0.93205
0.530656
0.91286
0.0457567
-0.304158
0.034065
-1.32692
-0.282389
-1.1266
-1.57217
0.0129564
0.937143
0.94025
0.633442
-1.02034
0.909229
-0.0180343
-0.0215052
0.00285642
0.909426
0.935817
0.931079
0.94327
0.920099
0.913204
0.902897
-0.16482
-0.0419028
0.00165835
-0.00229019
0.00125991
0.00146518
-0.000270766
0.00734588
-0.00735045
-0.0360473
-0.1932
0.904036
0.923559
0.918545
0.942147
0.942176
0.931495
0.935418
0.913733
0.918106
-0.00413977
-0.00738776
0.932076
0.930808
0.000924183
0.932287
0.93068
-0.00771669
0.0296936
-0.052794
-1.03358
-0.547484
0.913225
-1.17859
0.911945
0.548994
0.997212
-1.01903
0.911082
0.850181
0.859727
-1.04969
0.0605982
-1.26746
-0.0656528
-0.218823
-1.0473
0.92262
0.024022
1.00081
0.918181
-0.355319
1.06196
1.21813
-0.0420744
0.76583
0.58659
0.909674
0.927631
0.921541
-1.0151
0.334247
0.00916756
0.915614
0.925124
-1.21917
0.0231855
0.916272
0.00502071
-0.527656
0.917051
-0.871123
0.893862
0.92907
-1.04679
0.921104
0.0357881
0.912417
0.981054
-1.62424
0.927511
0.937797
0.0140429
0.556414
0.915458
0.917938
-0.0285415
-0.952712
0.638825
1.27396
0.924467
0.917044
0.918994
0.022097
0.918427
0.904444
0.919735
0.916825
0.916761
0.91602
1.01438
-0.270959
-2.32801
0.919349
0.912675
0.128389
-0.808842
-0.311768
-0.22377
0.77932
-1.56162
-0.0479801
0.00459998
0.914195
0.649454
0.0110321
0.0223262
-0.0213458
-0.30538
-1.20889
0.0238817
0.156983
-1.96216
-0.519947
0.921579
0.0158631
0.912907
0.827799
-1.00791
1.14014
-0.154142
-1.53043
0.67992
1.02065
0.308158
-1.00689
0.911961
0.030395
0.92016
-1.2032
0.920472
-1.50059
0.911343
0.0139231
-0.35414
0.923099
0.938648
0.848233
0.0442166
-1.00298
-1.01404
0.0701368
0.934331
0.811535
0.0500753
0.911782
0.954128
0.904463
0.129361
-2.06661
-0.726837
-1.49183
0.247792
0.914932
0.000752031
0.917646
-2.15157
0.912803
0.952827
0.9228
0.000645556
0.000982042
0.949262
-1.15741
0.925146
0.929273
-0.0579034
-1.04448
0.825252
1.03744
0.910355
0.904702
0.10733
0.265825
0.886276
0.34013
0.924178
0.766016
-1.10135
-1.03229
0.753331
1.16416
0.914316
0.271512
-0.0837712
0.0702625
-0.971368
0.195099
0.89666
-0.832084
0.898844
-1.8128
-1.0157
-1.11572
0.310496
-1.12663
0.000129212
0.37033
0.911446
-1.01095
0.796071
-1.02174
-0.234955
0.132451
0.00998071
0.305496
0.881434
0.0806211
-0.840738
0.221151
-1.34142
0.906722
0.403791
0.00952061
-2.04767
0.982701
-0.0635262
-1.01877
0.980996
0.901236
0.890295
0.406934
-0.963593
0.915885
0.940768
-0.754336
-1.08299
0.910901
0.71804
1.1522
0.926377
-0.49123
0.152956
-1.14211
-1.58555
-1.28237
-1.01226
0.0236081
-1.21166
0.722169
-0.0856281
0.920943
1.11611
0.908225
-1.00864
-1.23036
0.910766
-0.0837619
0.169673
0.894795
-0.355244
-0.94993
-1.96984
0.0416762
0.857457
0.830599
-0.466877
0.76904
0.557445
-0.320561
0.898734
-1.96967
0.713809
-1.01148
0.903931
-0.542262
0.349222
0.912157
0.985196
-1.88739
-1.96105
0.736311
1.28416
0.933365
0.910326
0.177719
1.16953
-0.889256
0.148562
-0.882898
0.398375
-1.61891
1.02118
1.08181
-1.02384
-0.829324
0.908358
-1.01942
0.774387
0.941714
0.873255
-1.85082
0.91447
0.00172339
0.941958
0.00142052
0.193097
-0.300859
0.916496
-0.0235865
-0.657868
0.083389
0.919702
0.359768
1.08905
0.193623
1.22438
0.877428
-1.19262
0.895607
-1.06381
0.882893
0.881653
0.100895
0.187534
1.02236
0.900128
1.12145
0.866239
0.0161674
0.866162
0.90264
0.765697
0.918884
-1.0036
-1.30278
-0.172412
1.01543
-1.05763
0.259631
-1.05582
-1.08871
0.0848654
-0.000925511
0.757355
0.129959
0.873197
0.925804
-1.09385
-1.30169
-1.15479
-1.40021
-1.36048
-1.06241
0.916105
-1.11118
0.929639
1.15716
0.968228
-0.360669
0.937523
0.846659
-1.22862
0.876855
0.893336
-1.10469
0.893328
0.835626
-0.00240336
-1.10827
1.37624
-0.867169
-1.57616
-1.21396
0.168995
0.892302
-1.67242
-0.293196
-1.04507
1.04542
0.295326
0.746517
0.925302
0.8999
-1.21382
0.88535
-1.53228
0.923786
0.938998
-0.585442
0.931892
0.384206
0.906403
0.635412
-2.21006
0.00159646
0.00236324
0.0365946
1.14446
-0.00547134
0.94024
1.30058
-0.3423
-0.00347599
0.981478
5.15351e-05
0.978382
-0.00147837
0.00592893
0.975172
0.979321
0.354482
-1.79747
0.654524
-0.949677
-1.24722
-0.865921
0.935943
0.913549
1.34794
-1.00981
0.0950831
0.666374
-1.29214
0.984852
0.892698
0.904988
0.90198
0.870479
-2.25644
-1.01379
-1.62957
0.710398
0.833552
-1.52066
-1.06795
-1.02363
0.930079
0.950065
-0.821826
-2.02827
0.949207
-0.273139
0.0827516
0.666543
0.818134
-0.240823
-1.33168
-0.381695
-1.03812
-0.955834
-2.13329
-0.494335
1.30076
1.26536
-0.966532
-0.943468
0.93082
0.906862
-1.31301
-0.13069
-0.416533
0.543965
1.00718
-1.58095
0.916489
-0.312668
-1.29556
-1.25653
-1.54682
-1.1469
0.901634
-0.998164
-1.69546
1.26772
-1.02566
0.92303
1.13261
-1.07067
0.970558
1.17915
-1.08826
1.14342
-1.04491
-1.33037
0.926065
0.0899203
0.940067
0.92412
-1.05038
0.976664
0.0793523
-2.11636
0.955384
0.958325
-0.949512
-1.73411
0.855816
0.91492
-1.03777
-1.9286
1.18371
-1.04886
0.821173
-0.00334156
0.858559
-0.987982
-1.911
-1.02553
-1.06353
0.992262
0.950179
1.21728
1.10682
0.876741
0.974746
0.963427
-1.02253
1.03325
1.07064
-1.10056
-1.04814
-1.18782
1.22522
-0.673041
-1.26352
0.0615762
0.836309
-1.10885
-0.890354
0.920233
0.947547
-1.02929
-1.08192
-1.19924
0.0134839
-1.95888
-1.09921
-1.01966
0.789179
0.8212
-1.06668
-0.60776
-0.917252
0.740023
-1.04804
-1.02659
-1.01758
0.872651
-2.15031
-1.08856
1.25786
0.820824
0.322666
1.12385
0.142045
0.908014
0.926723
1.03847
1.13703
-0.115926
0.579729
0.91024
0.20141
-1.01537
1.3385
0.882216
0.834255
0.981838
-1.09653
-2.33756
0.779348
0.703304
0.885272
-2.39433
-1.93223
0.902822
-1.01097
0.749629
0.00334663
1.31854
-1.01356
0.634737
0.668449
-1.05753
-1.01137
-1.86939
0.986322
-1.05973
-1.01376
0.630752
0.515899
-1.56458
0.980836
0.764491
-1.06255
-0.755812
0.864934
-2.44874
-1.00904
-1.16231
-1.05569
-0.960461
0.890939
0.929061
-1.62728
0.551245
0.921587
1.25405
0.212074
0.181946
-0.0959798
0.81183
-0.505172
-1.05568
-0.593475
-0.752467
-1.05417
0.906105
-1.05549
0.0691282
-1.00699
0.446756
0.502841
-1.05024
0.568125
-1.93143
0.431444
-1.04635
0.370446
-1.05675
0.327393
-1.00298
0.284727
-1.04122
0.748351
-2.20734
-1.04189
-1.04896
-1.00533
0.931558
0.0308564
-1.08287
-1.01163
-0.0677429
-0.00618437
-1.0495
-1.00984
-1.1307
-0.173846
-1.02837
-0.235791
-1.06026
-0.448653
-1.21198
-0.34198
0.800383
-0.0169367
-2.32822
0.893912
-0.218099
-0.0680331
0.382399
0.887691
-2.29752
-1.92655
-1.00542
-1.8331
0.817658
1.32591
-0.521235
-0.0380399
-0.0398636
-1.01072
-0.526672
-0.42135
0.883818
-0.985599
0.873386
-1.56224
1.39018
0.387572
1.34898
-1.07635
1.11882
-0.700459
0.938555
-1.02731
-1.00101
1.00374
0.914384
-2.36494
-1.00969
-1.054
0.878739
-1.226
0.901979
-1.37895
-1.09134
-1.02565
1.21878
0.948398
1.03954
0.927351
0.932546
0.020702
-0.621049
1.10677
-2.43901
-0.940216
1.32019
-1.08928
0.827185
0.877207
1.28866
1.35075
-1.13217
-1.83029
0.954581
0.161488
-0.51017
-0.992425
-0.42195
-1.72978
-1.07592
0.482098
-1.70111
1.12995
-1.03727
0.947122
1.04201
0.94637
-1.84489
-0.972478
-1.24232
1.00434
-1.05232
1.07419
-0.878861
-1.27569
1.13999
1.23357
-1.01097
-0.0264761
0.864702
-1.53103
-1.40127
0.590851
1.17512
1.14472
-1.44446
0.791075
0.745274
-1.00789
1.15773
0.174085
-1.07023
-0.351379
-0.00317084
-0.0122019
1.01965
-0.905579
0.15114
0.0130484
0.044701
-0.783186
-0.993445
0.903865
-2.41141
0.931039
-0.225179
0.0237597
0.617596
0.184245
-0.998879
-0.774058
-1.22298
-0.151805
0.0126635
-1.56483
0.834568
-2.3921
-2.06399
0.918416
-1.38352
-1.11044
0.931627
-1.00167
0.871573
0.00199939
-1.01317
-0.397728
0.715215
-0.83524
-1.95347
0.812814
-1.05698
0.990696
-0.630566
-1.18386
-0.975327
-1.00611
1.41301
-1.80639
1.04778
0.0154294
0.876951
1.09883
0.648924
0.946075
1.0597
-0.296822
-1.44304
0.887752
1.01857
1.28346
-1.01389
0.959915
0.567466
-1.03969
0.714579
1.13737
-0.740658
1.2453
0.02267
-0.929981
0.760304
-1.049
-1.04632
0.867708
-0.625915
0.975085
0.982842
0.870582
-1.00029
0.808754
1.16299
-1.45418
-0.471653
-1.74885
-1.39473
-1.15183
-1.01076
1.28085
0.67605
-1.07948
0.836835
-1.05215
-0.992923
1.19935
1.12591
-2.43374
-1.75882
-1.0041
-1.03776
0.896459
-1.09588
0.00665492
-1.02249
-0.599808
0.981552
-1.04619
1.2922
0.960196
0.804375
0.93567
1.20406
-1.34017
-1.05369
0.937034
1.06876
-0.77159
0.925825
-1.738
-1.02556
-1.0284
0.982694
1.01247
-1.02916
-1.1364
0.478278
-0.144352
-1.68683
0.895169
0.858836
-1.74602
0.899326
0.942471
-1.52042
-1.10423
-1.04722
-1.02267
-1.02986
1.23855
0.00235678
0.811817
-1.1116
1.23748
0.791511
0.762658
0.84964
-2.16958
-0.635485
-1.02034
0.415833
-1.08792
0.845016
0.228226
-0.778253
0.766106
0.930217
0.955225
0.922079
0.00307981
0.955994
0.00391005
0.343559
0.705657
-0.739838
-1.1015
-1.15156
-0.866769
0.928506
0.893253
0.92742
-2.10645
-0.856482
-1.0178
-0.973839
0.922555
1.18897
0.935635
-1.09513
-0.904987
-1.47871
-0.713279
-1.00693
-1.00502
-0.360743
0.909293
-0.840718
-1.06561
0.00767676
-0.158994
0.61177
-0.846319
-1.01512
-1.20337
0.843142
1.34618
0.0125281
1.01891
1.39736
0.549495
1.11356
-1.12357
-0.00823654
1.32484
-1.01264
0.239198
-1.08108
-1.03592
-1.04639
-1.05965
0.900452
0.658608
1.09072
1.05204
0.000974434
0.70463
-0.0970478
0.0077316
-1.01007
1.02645
0.613524
0.935239
0.949318
0.00711979
0.000311462
0.94937
-0.991004
-1.01251
-1.06258
-1.05499
0.517963
-1.05734
0.876618
0.595835
-1.01278
1.1588
-1.09258
-0.488765
0.901061
-0.85541
-1.03982
-2.32327
0.483581
-1.07012
-1.57582
0.807413
0.941236
-0.0402969
-0.0366317
-2.5557
-1.00743
0.117376
-2.00484
-0.267744
0.529585
-1.31166
-1.05533
1.16383
0.130939
0.236501
-1.05299
-1.04185
0.917757
0.97024
0.410635
0.46551
-1.04863
-0.992346
-0.807196
0.331118
0.375446
-1.04375
0.751956
0.00882571
-1.03747
1.34816
-1.04066
-1.93311
-1.03143
-0.996306
0.768235
-1.06043
-1.07946
-1.0177
-0.0557124
-1.10383
-0.141741
-0.960673
-0.0120589
1.07984
-1.16454
-0.235927
-1.04487
-0.328409
1.24175
1.32069
1.1289
0.923274
1.10486
-0.886307
0.90854
-1.09275
0.96709
-1.00685
-0.959843
1.18964
-1.16459
0.405775
-2.17963
1.32015
-0.204452
1.25693
0.481652
0.669954
-1.07453
-1.07759
-1.00133
-1.45006
1.22554
1.09805
0.905591
0.551344
0.912751
0.792487
0.701213
-1.04949
-1.03493
0.093935
0.0157667
0.675206
0.922087
-0.0942886
-1.07504
-1.04161
-1.7179
-1.00226
-1.18678
1.2704
0.944056
0.922235
0.00664086
0.00324528
0.946395
-0.505344
-1.00975
-2.30481
-1.03287
0.663677
-1.06071
-1.05051
-0.376937
0.915584
-2.22214
-1.02966
0.912489
0.537452
0.639056
0.909544
-1.0049
0.755672
1.10659
0.763362
-1.00157
0.908721
0.288025
0.330348
-1.12518
-1.05647
1.35347
0.172283
-1.46694
-0.052474
0.794707
0.870457
-0.978465
-1.69889
-0.0021104
-1.13499
-0.949942
-1.08882
0.00634939
0.904825
-1.41566
0.898564
1.19649
1.01599
0.893148
0.982072
1.04481
0.915108
-1.68827
-0.717523
-0.584449
-1.08626
-0.9301
-1.04863
1.05145
0.944888
-1.04354
0.883118
-0.852515
0.194502
-1.04411
-0.211628
0.463635
-1.40328
0.900604
0.789978
-1.79178
-0.460469
1.24855
-2.03228
0.0192087
-1.14677
-1.09629
-1.02213
0.958215
0.653847
1.01583
-1.40691
-0.450605
-0.987524
-0.533946
-1.0459
-1.32433
-1.69149
-2.50398
0.797386
-0.787439
1.37829
-1.30224
-0.640818
-1.04444
-1.04958
0.849757
-1.07011
-1.3395
-0.942896
-0.418589
1.08689
1.14153
-2.41823
-0.677471
0.705177
-1.02696
-0.906069
1.02368
-1.68586
-1.68333
-1.44348
0.629649
-0.503032
-1.04541
0.904783
-0.14803
-1.23673
0.915197
-0.903932
-1.79904
-1.49484
-1.13084
-0.16874
-1.0471
1.21351
-1.01289
0.079151
-1.00849
0.672224
-0.932703
-1.02219
0.523255
0.681369
0.969842
0.880508
1.08055
-1.0671
0.769969
0.473266
-1.54055
0.83173
-0.54719
-0.995989
-2.39596
1.10014
1.08555
-1.06421
-0.983508
-1.38633
0.900033
-0.982835
-0.0841576
-1.40598
-1.05432
1.1785
0.90456
-1.07597
-1.01174
-1.08598
-1.06637
0.812054
-1.13742
0.868809
0.0894606
0.584548
0.717218
-1.02852
-1.04875
0.828688
-1.05334
0.00572505
1.19265
-1.01682
-1.0611
0.699132
-1.56424
-1.05252
-0.274644
-1.02512
1.26934
-0.689629
0.064452
-1.07942
1.23065
-1.08327
-1.00004
0.518388
-1.3025
-1.00633
1.25437
0.549177
0.93124
-1.07186
1.12407
-0.173089
-0.886564
-1.0897
-1.10315
-1.08946
1.15735
0.448704
-1.02406
-1.08524
-1.03838
1.02608
-0.879122
1.20627
-1.00716
0.605177
-1.05996
0.237788
0.410646
0.375177
0.291488
0.112456
-0.936586
0.901502
-1.09404
-0.877295
-1.20042
0.197581
1.24705
-0.389674
-1.06082
-1.12735
-1.06213
0.127701
-1.29422
-1.05837
0.768308
0.107842
-1.06704
1.31243
-1.0427
-1.90976
1.27602
-1.06325
0.00932011
-0.892323
-1.0463
-1.05692
1.2867
-1.04324
1.19475
-1.05547
-1.03905
1.07347
-0.323188
-0.982992
0.438336
-1.01547
-0.129378
-0.491327
-1.05743
0.727362
-1.13046
-1.05691
-1.04834
-1.04764
-1.01621
0.765103
-0.308492
-0.547945
-1.07147
1.22181
-0.929681
-1.03697
-1.02551
-0.238362
-1.18665
-1.02935
-1.06928
-0.195688
1.13946
-1.10248
-1.00668
-1.61306
-0.803051
-0.392107
-1.02211
1.30908
1.23865
0.282412
-1.13153
-1.01319
0.194638
-1.01504
1.31816
0.0697911
0.996887
0.575918
1.21066
-0.052526
-1.19506
-1.17132
-0.210829
-1.09981
-0.210976
-0.184972
-1.05397
1.21536
-0.381527
0.0815577
-0.506807
-1.0143
-1.20202
)
;

boundaryField
{
    frontback
    {
        type            empty;
    }
    Top
    {
        type            zeroGradient;
    }
    outlet
    {
        type            fixedValue;
        value           uniform 0;
    }
    bottom
    {
        type            zeroGradient;
    }
    Inlet
    {
        type            zeroGradient;
    }
    rectangle
    {
        type            zeroGradient;
    }
}


// ************************************************************************* //
