/*--------------------------------*- C++ -*----------------------------------*\
| =========                 |                                                 |
| \\      /  F ield         | OpenFOAM: The Open Source CFD Toolbox           |
|  \\    /   O peration     | Version:  2306                                  |
|   \\  /    A nd           | Website:  www.openfoam.com                      |
|    \\/     M anipulation  |                                                 |
\*---------------------------------------------------------------------------*/
FoamFile
{
    version     2.0;
    format      ascii;
    arch        "LSB;label=32;scalar=64";
    class       surfaceScalarField;
    location    "10";
    object      phi;
}
// * * * * * * * * * * * * * * * * * * * * * * * * * * * * * * * * * * * * * //

dimensions      [0 3 -1 0 0 0 0];

oriented        oriented;

internalField   nonuniform List<scalar> 
3181
(
-1.03183
0.395077
0.636752
-0.384028
0.360729
0.0232994
0.514438
-0.353961
-0.160477
0.118851
-0.19659
0.0777388
-0.0996591
0.120803
-0.0211435
0.735668
0.465193
-1.20086
0.14554
-0.139349
-0.0061918
0.0869573
-0.00216636
-0.0847909
0.585255
-0.763207
0.177952
-0.0755966
0.133964
-0.0583671
-0.0104155
-0.0516722
0.0620877
0.127924
0.0455563
-0.17348
0.00253049
-0.0743524
0.0718219
-1.08554
0.148748
0.936795
-0.321637
0.688928
-0.367291
-1.11975
0.642346
0.477406
0.0840927
-0.936068
0.851975
-0.368354
0.294868
0.0734869
-0.634082
-0.428407
-0.0061712
0.0720226
-0.0658514
0.0432048
-0.0900885
0.0468837
-0.0792193
0.0652585
0.0139608
1.05697
-1.03021
-0.0267599
0.0208227
0.0338273
-0.05465
-0.954506
0.325997
0.628509
-0.106209
0.22506
0.306656
-0.249087
-0.0575695
0.0290962
0.0609351
-0.0900313
-0.417296
0.343461
0.0738342
-0.0285772
-0.00712802
0.0101305
-0.00300252
-0.042349
-0.912157
0.103136
-0.0688018
-0.0343341
-0.00881348
1.36043
-1.35162
-0.0429026
0.0382205
0.00468204
0.182103
0.279566
-0.461668
1.27774
-1.28655
0.0739474
-0.0307425
1.60398
-0.856041
-0.747939
-0.292472
1.02814
-0.145555
0.148085
-0.0794952
0.000275873
-0.403692
0.0820558
-0.161158
0.0816633
-0.635829
0.127615
0.508214
-0.145215
0.0696189
-0.165463
0.169564
-0.00410102
-0.265374
-0.076043
0.341417
-0.272645
1.47478
-1.20214
0.0862863
0.194974
-0.28126
-0.0132992
-0.10105
0.107167
-0.00611731
0.505397
0.183531
-0.0943854
0.145392
-0.0510066
0.0891359
0.014
-0.167417
0.193198
-0.0257806
0.160569
0.0562373
-0.216806
0.10668
-0.11247
0.00579014
1.27254
0.331438
-0.849837
-0.181992
0.236535
-1.20598
0.969447
0.556586
0.227372
-0.783958
-0.448229
-0.207893
0.656123
-0.974447
0.681975
-0.271065
0.827651
-0.318091
-0.102444
0.420536
-0.210605
-0.206691
-0.189564
0.170048
0.0195162
0.137756
0.284087
-0.421843
-0.192855
0.77811
-0.00444261
0.0913999
-1.4234
1.65993
0.18264
0.124016
-0.175784
-0.109466
0.28525
-0.267769
0.358302
-0.0905331
-0.0791623
0.0872495
-0.00808728
-1.69604
-0.918556
0.00967946
0.908876
-0.0412359
-0.00166664
-1.10068
0.817867
0.282815
0.631276
-0.423325
-0.207952
-0.990854
0.0164075
1.11048
-0.961734
-0.719294
1.13621
-0.19941
1.06813
0.17252
-0.172263
-0.000256999
1.17464
-0.709445
0.704157
-0.704157
-0.00854344
0.000563677
0.00797976
-0.207979
-0.0518146
0.259793
0.143632
-0.0942424
-0.0493895
-0.427557
0.810585
-0.383028
-0.0254778
-0.22759
0.253067
-1.07115
0.0409412
0.35117
0.0569975
-0.408168
0.13041
-0.852275
1.07965
0.109786
0.0962692
-0.206055
-0.0170812
-0.150336
-0.532366
0.390105
0.142261
-0.404798
-0.127568
0.110644
-0.962918
0.328179
-0.755736
0.914664
-0.830571
-0.0341775
0.238894
-0.204716
0.0864545
0.0522665
-0.138721
-1.35136
-0.122993
1.47436
-0.242963
0.404497
-0.161534
-0.664998
0.527143
0.137856
-0.485706
-0.614976
0.198458
-0.112172
-0.149843
0.144332
0.00551061
-0.0775079
-0.0162281
0.093736
-0.54437
-0.218837
-0.132708
0.0569827
0.0757249
-1.06472
0.0896251
0.9751
1.55954
-0.0847578
-0.00963001
0.00108657
0.0323641
0.150276
-0.20308
0.385183
0.0114392
0.260788
-0.272227
0.139854
0.0692061
-0.209061
0.348383
-0.021747
-0.326637
-0.594642
-0.52511
-0.797257
-0.267468
-0.0722266
0.182013
-0.102516
0.179696
-0.07718
-0.0199709
0.0242338
0.121307
-0.0568666
0.0677833
-0.0109167
-0.0931817
-0.0208316
0.114013
0.0731687
-0.0731687
-0.18106
0.205294
0.226479
0.206413
0.102508
0.0906894
-1.24378
1.05093
-1.5217
0.0658211
1.45588
0.016648
-0.0125473
-0.00410069
-0.0270358
-0.0519141
0.0789499
0.526953
-0.0195859
-0.507367
-0.0364609
0.0384004
-0.0019395
-0.195636
0.0145765
0.150628
0.659957
-0.36785
0.518477
-0.142116
-1.20925
-0.142609
0.04295
0.479852
-0.300856
-0.178996
0.180926
-0.1517
-0.0292259
0.0474208
-0.312795
0.0231205
-0.941676
0.0484491
-0.150965
-0.281993
-0.394134
0.0781341
1.41436
-0.977839
-0.436516
1.10544
0.308918
0.0658373
0.27558
0.019049
-0.00240106
-0.136289
0.199164
-0.0628752
-0.246293
-0.586632
0.832925
-0.352429
0.540556
0.698394
-1.1268
0.148746
0.0238301
-0.0616144
0.0377843
-0.978383
0.0364256
0.941957
-0.00419087
-0.974192
-0.308693
0.659863
-0.912947
-0.0168943
0.00468362
-0.271102
0.266419
1.47573
-1.60629
0.130561
-0.148714
0.00610477
0.562451
-0.808744
0.22748
-0.546756
0.319276
-0.299373
-0.121005
0.420379
0.172576
-1.00028
-0.0708676
-0.0200085
-0.0458428
-0.564457
0.356564
-0.249959
0.0190708
0.230888
-0.0391674
-0.109546
0.0358997
-0.0358997
-0.121078
0.133025
-0.0119468
-0.248775
-1.27292
0.112466
0.0304435
-0.142909
-0.192416
0.0201355
0.172281
-0.226517
0.0369536
1.65623
-0.302905
-1.35332
-0.186389
0.43997
-0.253581
0.00137826
-0.000828306
-0.000549956
-0.368183
-0.296815
-0.188499
-0.00475994
0.193259
-0.173039
0.310795
-0.102779
0.101079
0.00169955
0.0757644
0.0134728
-0.0892373
-0.166512
0.23674
-0.0702281
-0.222916
0.334724
-0.111808
-0.215472
-0.0498022
0.265274
-0.689915
0.655653
0.0342619
-0.00364164
0.0374689
0.0540488
-0.0546696
0.00062074
0.00613015
-0.0607802
0.567846
0.991696
0.162947
-0.878306
0.715359
-0.132354
1.92107
-1.78872
0.377408
0.102432
0.601726
0.0678841
0.206717
-0.066863
-0.072059
-0.0289906
0.233435
0.160072
-0.0736179
0.73089
-0.404893
0.059179
0.200614
0.0540953
-0.169531
0.115436
-0.772599
-0.148937
0.921536
-0.0481285
0.0481285
-0.102979
-0.2705
0.550066
0.0117922
-0.227264
0.154212
0.140656
0.0555349
-0.127762
0.13767
-0.148085
-0.345554
0.320076
0.0620829
0.0410889
-0.103172
0.378634
-0.333077
0.406354
-0.0650016
-0.341353
-0.202138
0.267975
0.183444
-0.4843
-0.210697
0.605774
0.161687
-0.0328084
0.0328084
-0.398382
0.5236
-0.125218
0.37927
0.0252269
-0.0196804
0.0255889
-0.00590851
-0.184991
-0.0696772
-0.0630304
-0.0497278
0.187397
-0.182474
0.244711
-0.0622366
0.132536
0.0275367
-0.387087
0.138
0.193877
-0.0613408
-0.0463106
-0.0564684
-0.0837977
0.0626069
0.0211908
0.144259
-0.102363
-0.0418963
-0.0200941
0.397096
-0.377002
-0.145974
0.141532
0.105498
-0.109887
0.00438895
0.0242435
0.547846
-0.141492
-0.0869941
-0.0161238
0.103118
-0.101331
0.00172052
0.0996103
-0.0935416
0.103816
-0.724308
0.620492
-0.0330886
-1.50283
-0.368977
1.87181
0.504366
0.870335
-1.3747
0.0808994
-0.321341
0.299594
0.278798
0.254594
-0.533392
-0.206714
0.260809
0.161168
-0.886593
0.725425
0.0498399
-0.151171
-0.0245781
0.00456964
-0.986306
0.447995
0.538311
0.977839
-0.867196
-1.64766
1.52467
-1.47573
1.54155
0.0383074
-0.089314
0.0165104
0.0375384
0.00760217
0.820108
-0.65894
0.119162
-0.070713
0.403017
0.733189
-0.163105
-1.60204
1.46969
-0.66487
-0.57891
-0.23919
-0.396638
0.00211074
-0.16199
0.209411
-0.58329
-0.36732
0.180931
0.760121
-0.233168
-0.886287
-0.761377
0.725399
0.236043
-0.186203
0.278436
0.037162
-0.037162
0.670746
0.149376
-0.820122
-0.226381
0.897127
0.430452
-1.1624
0.731948
0.267565
-0.0611519
0.00649902
0.0067133
-0.0132123
-1.20598
-1.18929
1.10454
0.823933
0.832294
-0.0340405
-0.131422
-0.240711
0.746107
-0.20005
-0.0499085
-0.00294343
-0.0762188
-0.0549955
0.107262
0.378005
-0.250391
-0.806987
-0.287863
-0.15095
-0.105836
0.256785
-0.78341
0.885842
-0.194943
0.199738
-0.00479444
0.0144675
0.00458148
-0.156901
0.0878687
0.0690318
0.0101431
0.410393
0.131044
0.0498819
0.027009
0.0125858
-0.0395947
-0.0167167
-0.171783
-0.728716
0.376961
0.351755
0.442433
-1.12922
0.68679
0.140119
-0.161692
0.0215725
-0.017407
0.215865
-0.198813
-0.505344
-0.153233
-0.00366801
-0.16639
0.0542176
0.14633
-0.34941
-1.19853
0.803448
0.395081
0.0406527
0.090733
0.0535262
-0.772599
-0.321355
0.0984387
0.169091
-0.0812228
0.0446602
-0.639114
-0.0508004
0.0613705
0.132506
-0.0334585
0.0357806
-0.457624
0.119786
0.353539
-0.296541
-0.11345
0.0202684
0.215623
0.83363
-1.04925
0.101276
-0.706789
0.605514
-0.944619
0.795682
-0.658911
0.149376
0.509535
-0.0057533
0.00657987
-0.000826566
0.171279
-0.470652
0.213903
-0.125266
-0.0886376
0.0574555
-0.055735
0.0309306
-0.18188
-0.0122288
0.0281288
-0.0219987
0.0200859
0.0827325
-0.102818
0.934817
-0.00184013
0.00257696
-0.000736833
0.116594
0.024938
0.85797
0.0790009
-0.0728961
-0.0575169
-1.13178
0.260594
0.00697077
0.00749157
0.0832415
-0.509535
0.505344
0.229612
-0.285811
0.0561988
-0.257216
0.0849532
0.120057
-0.120314
-0.00141021
0.0886598
-0.0386273
-0.783465
-0.415063
-0.0465866
0.0666725
0.742213
-0.264807
-0.317348
0.124932
0.34743
0.016608
-0.0362884
-0.00764059
0.0808093
0.143097
0.215205
0.156422
-0.335571
0.179149
0.124412
0.535545
-0.0357071
-0.109508
0.905729
-0.248298
-0.657431
-0.658911
-0.291465
0.733898
1.27774
-0.168897
0.484121
-0.315224
0.370015
-0.0711281
-0.298887
-0.300351
-0.690504
-0.0752021
0.0763024
-0.00110024
-0.0372351
-0.162966
0.200201
0.448547
-0.971208
0.522662
0.0443956
0.666467
-0.710862
-0.0433032
-0.106539
0.00294092
-0.089935
0.21757
-0.615952
-0.00830286
0.00254956
0.15525
0.0190204
-0.174271
0.0467173
-0.183006
-0.00136693
0.0158345
0.101943
0.136951
-0.0473596
-0.00730996
0.198158
-0.425748
-0.206092
1.07643
0.0351485
0.01298
-0.983636
-0.0166445
0.230094
-0.0707477
-0.0427024
-0.10621
0.33369
0.737366
-0.801143
0.0637771
0.165279
0.0953146
-0.94686
-0.0148739
0.000468452
-0.646028
0.749844
-0.0174226
0.17911
0.00397842
-1.16638
0.187592
-0.435469
0.247877
0.0460712
0.214717
-0.00174689
0.00181911
-7.22239e-05
-0.0178576
-0.148654
-0.020507
-0.129829
0.740932
-0.639656
-0.14823
0.0792149
-0.148226
0.316451
-0.160029
0.166737
1.26484
-0.177638
-1.0872
-0.122163
0.141234
-0.501006
-0.227709
-0.558414
0.614412
-0.609411
-0.00500072
-0.0929909
-0.0552389
-1.60204
0.58639
-0.58639
-1.67801
1.67801
0.820108
0.10531
-0.558609
0.453299
-0.891946
-0.0916899
0.637165
-0.372322
-0.264843
0.158884
-0.236064
-0.0101971
0.000567134
-0.881267
-0.0816514
-0.93609
0.211782
0.0323705
-0.138206
0.711369
-0.112959
-0.59841
0.793464
0.484272
-0.00102263
-0.000724254
-0.97362
0.274
-0.339002
-0.0788131
-0.607572
0.686385
-0.081906
-0.897864
-0.708423
0.216216
-0.810858
-0.921536
1.36229
-0.440756
-0.137772
0.275377
-0.137606
-0.0249659
0.736335
-0.10813
-1.01021
1.01021
-1.05276
0.461165
0.591593
0.00236784
-0.00420796
0.136003
-0.440496
0.86204
-0.0441731
-0.0867146
-0.0342186
0.137785
0.00220075
-0.000822488
1.18028
-1.03091
-0.339999
0.415763
-0.643131
1.02181
-0.378677
-0.0734166
-0.0798159
0.125615
-0.056409
0.352086
0.00459882
-0.0789513
0.351639
0.0454564
0.0435672
-0.251405
0.207838
0.13622
0.0333435
0.0985793
0.183687
1.06184
0.598097
0.205683
0.988467
-1.19415
-0.940044
0.976469
0.224181
-0.142517
0.0761104
-0.766427
0.690317
0.310993
0.11823
-0.463784
-0.074122
0.130696
-0.0565744
0.12719
-0.201312
-0.455656
-0.108801
-0.0729577
0.0761681
-0.0032104
-0.00306569
-0.0442939
0.0250801
-0.0110801
0.65894
-0.605514
-0.0534263
-0.285723
0.297515
0.878026
0.628223
-0.258208
-0.0407792
0.0712226
-0.399159
-0.147597
0.15573
-0.556573
0.400843
0.00173201
8.71066e-05
0.0275126
0.25822
-0.285732
0.0028727
-0.00976947
0.00689677
-0.0245738
0.0163696
0.00820428
-1.05627
0.346826
-0.180628
-1.32221
-0.201062
-0.867196
1.54155
1.52467
-0.188145
-0.169291
0.119489
-0.0642213
0.0700257
-0.00580441
-0.0211638
1.1156
-1.09443
0.55785
0.0793149
0.00104575
0.000686259
0.122823
0.00619158
0.0342186
-0.0510387
0.00445214
-0.707278
0.308119
-0.080431
0.135966
-0.232547
0.61118
1.10544
-0.103771
-0.0598338
0.00131402
0.0585198
1.85864
-0.333964
-0.0594685
-0.0530016
-1.02388
0.156688
0.388694
-0.216118
-0.473427
-0.13777
0.611197
0.81012
-0.366193
-0.443927
-0.0415813
0.778947
-1.46969
0.263708
-0.0152629
-0.0409453
0.0562082
0.488736
1.43234
-0.167892
0.174391
0.196963
2.11041
-0.568864
-0.670226
0.0495176
0.620708
0.389363
0.0156229
-0.351306
0.519411
0.792482
0.136384
0.0743312
-0.020805
-0.362252
-0.0195626
0.381814
1.31267
0.0903348
-0.0633258
-0.0516039
-0.362114
0.110201
-0.316915
1.06032
0.204516
-0.14829
0.0552991
0.319596
-0.488493
-0.0216728
0.0180311
0.108549
-0.144619
0.0360706
-0.293111
0.30664
-0.0135284
0.666415
-0.844053
-0.994963
0.043217
0.951746
0.125456
-0.26972
0.144265
0.276779
0.0396717
-0.307178
-0.0141774
-0.683573
0.683573
0.969447
0.793464
-0.706789
0.31235
0.480132
-0.573735
0.448517
0.927131
-0.369281
0.0189212
-0.876904
0.857983
0.127322
0.00664166
0.0227181
-1.13827
0.831093
0.116977
-0.163698
-0.119936
0.283633
0.310536
-0.502354
0.338657
-1.10482
-0.291858
-0.664652
-0.0738777
0.00263303
-5.60768e-05
-0.22537
0.16808
0.0887055
0.0321187
-0.149289
0.11717
-0.584336
-0.468422
-0.00555278
0.0664879
-1.09531
0.485295
0.610017
-0.556806
0.37781
-0.106965
0.148054
0.230522
-0.00789418
-0.016684
-1.10039
0.797486
0.0347579
0.0707398
-0.202053
0.0538271
0.205536
0.00836692
-0.437494
0.743144
0.508367
-0.149804
0.863565
-0.787455
0.796403
-0.448974
-0.614353
0.173857
0.155773
-0.785354
0.758113
0.0272414
1.2273
-0.166975
-0.205104
-0.134895
-0.137274
0.0430319
0.956542
-0.84392
-0.112622
-0.186714
0.113096
0.0267674
0.117565
0.885674
0.929143
-0.786812
-0.142331
-0.321259
-0.0460607
-0.622316
-0.472996
0.149628
1.32473
0.653716
0.139748
0.168478
0.549449
-0.717927
0.0334657
0.0507579
-0.00963488
0.00174069
-0.5132
-0.101153
0.169184
-0.208352
-0.19006
0.140332
-0.519483
0.265902
-0.992808
-0.579772
-0.291503
-0.873912
1.50131
-0.0454312
-0.287748
-0.434541
-0.272737
-0.0785519
0.302764
0.0488749
1.31766
-0.869112
-0.193546
0.132205
-0.408112
-0.472101
0.880213
-0.0200154
0.00475254
0.0494073
-0.058667
-0.234444
-0.115234
0.688365
-0.415504
-0.27286
0.136628
0.130751
-0.0941806
-0.0365709
0.240405
0.0623595
-0.341465
-1.03324
-0.0971474
0.141808
0.915988
0.0131551
0.00777902
0.0918313
-0.023859
0.016672
0.00718702
0.0155912
-0.0281385
-0.245426
0.0758951
-0.0974821
-0.547461
0.409689
0.018139
0.128396
-0.00294027
-0.699591
1.51055
-1.30603
0.015896
-0.195895
0.179999
-0.129092
-0.522845
0.651937
0.0657619
-0.704876
-0.900298
-0.0946644
-0.0780427
-0.00192922
0.079972
-0.243123
-0.614412
-0.158188
-0.133667
-0.362252
-0.234601
0.167738
-0.55226
-1.14236
-0.614597
0.491816
0.122781
0.259334
0.111075
0.531113
0.236451
-0.767564
0.161923
0.07412
0.918019
-0.148769
-0.76925
-0.220262
-0.0080387
0.984508
-0.245451
0.183214
-0.849938
0.841899
0.314865
0.0752399
-0.0280787
0.0356809
-0.00586954
1.09601
-1.24581
0.724579
0.0855413
-0.995334
0.211868
0.247179
0.679952
0.896082
0.00964726
-0.0217011
-0.653716
-0.664652
-0.714896
0.724575
-0.0736571
-0.886287
0.666467
0.61184
-0.93561
0.939747
0.00056005
-0.785915
-0.317239
0.642553
-0.769911
0.127358
0.0786615
0.05209
-0.37246
0.0862154
0.859413
-0.945629
0.0025209
0.000112139
-0.267694
0.217785
0.708315
0.216846
-0.202269
-0.176931
0.875052
-0.785427
0.208223
0.245076
0.673724
0.475553
-1.14928
-0.753323
0.73376
1.08156
-0.596265
0.0890952
0.46803
-0.381814
-0.012969
0.219317
-0.0457163
0.10758
0.122515
0.000498751
-0.01358
0.0130812
-1.02141
-0.0278462
0.315385
-0.805191
-0.444484
1.19065
-0.746165
0.374119
0.647689
-0.048143
0.051501
-0.00335803
0.0327716
0.842281
-0.720394
0.865605
0.551791
-0.996275
0.319406
-0.100089
-0.583054
-0.409754
-0.365147
1.03887
-0.0506313
-0.876344
-1.82975
0.0410302
0.46803
0.0498758
-0.855067
0.83594
-0.648049
-0.18789
-0.982443
0.39939
0.00083382
0.111655
-6.70451e-05
-0.111588
-0.971872
0.562118
-0.21069
0.908096
-0.92297
0.194572
-0.211289
-0.0969901
0.24332
1.08557
0.132864
-0.197745
-1.48158
0.394379
1.03527
-0.89889
-0.548993
-0.517767
1.06676
0.451007
0.0189151
-0.0122018
-0.738709
0.710862
0.580979
-0.548207
-0.601726
0.604938
-0.00321193
0.642157
0.548493
0.7827
-0.811277
-0.492219
-0.449457
-0.472083
-0.499789
0.801825
-0.801825
0.688833
-0.688833
-0.738709
-0.621345
0.621345
-0.604938
-0.51927
-0.372398
-0.420573
-0.711419
0.711419
0.580979
-0.548207
0.7827
0.770336
-0.770336
0.811277
0.764262
-0.764262
0.507781
0.527917
0.482233
-0.13044
-0.500211
-0.550543
1.07846
-0.52149
-1.09301
0.727864
0.572846
0.508715
0.0801778
-0.0156298
0.0946307
-0.887594
0.092139
0.795455
-0.160341
0.162451
-0.997762
0.592869
0.913123
-0.600773
-0.123108
0.00247918
-0.00406107
-0.807352
-0.0709548
-0.538311
-0.00601971
0.0105893
0.185336
-0.199418
0.118195
0.177744
0.00845498
-0.0126662
0.00421118
-0.818386
0.0748978
0.743488
0.486949
0.598621
-0.525591
0.414801
0.11079
0.922192
-0.74698
-0.175212
0.081818
0.303365
-0.0137204
-0.0592374
-0.0615712
-0.0136309
0.174992
-0.958402
-0.83962
0.0959495
-0.735657
0.791993
-0.0563357
0.114991
-0.897315
0.782324
-0.801123
0.905118
-0.103995
-0.0536911
0.0692823
0.0205173
-0.291619
0.581221
0.45765
-0.0927765
-0.794818
0.913745
-0.0885041
-0.825241
0.101835
-0.175252
1.05979
0.829416
-0.61964
0.468089
-0.388774
0.1002
-0.895018
1.28655
0.391458
-0.788802
0.00288726
1.01421
-0.899221
1.20055
1.04236
-0.533236
-0.509122
-0.881519
-0.116243
-0.414399
0.0373974
-0.58371
0.647487
-0.78698
0.78698
-0.610101
-0.0879458
-0.865559
0.118579
-0.956607
0.877794
0.0762247
-0.20149
-0.0561071
0.0561886
0.0115947
0.191331
0.822881
0.817173
0.776439
0.136777
-0.913216
-0.507932
1.01665
-0.783527
-0.102053
0.88558
0.173527
-0.89392
-0.674228
0.881521
-0.781322
-0.105797
0.460902
-0.020589
-0.440313
0.0750603
1.09922
-1.17428
0.0528196
-0.440414
0.387594
-0.889324
-0.82764
0.0919827
0.531607
0.264796
-1.37237
1.17107
-0.616311
0.616311
-0.948682
-0.532898
-0.139668
0.970762
-0.865522
0.908739
0.779468
-0.200667
0.952274
-0.605447
0.558485
-1.06048
0.501997
0.0175103
-1.14673
0.267222
0.534425
-0.182322
0.280761
0.246272
0.307464
-0.225646
0.784809
-0.888804
0.585702
0.430945
-0.139806
0.732676
0.612618
-0.612618
-0.0505237
0.0551052
0.112458
-0.0803396
0.964509
0.134707
0.310031
-0.00261629
0.00157408
0.00104221
-0.671981
0.69294
-0.020959
0.508241
-1.04148
0.104516
-0.885837
-1.08403
1.32138
-0.237351
0.27566
0.871607
-0.629609
1.13785
-0.74906
0.601783
-0.652583
-0.662091
0.161085
-0.482992
0.0292154
0.114101
-1.06053
0.577538
-0.00369322
-1.10539
0.0631304
0.728862
0.689562
-0.0877797
0.0726645
0.785305
-0.517915
1.15016
-0.63225
-0.842653
0.513561
0.506265
-0.932358
0.715613
0.216746
-0.6883
-0.122558
1.01296
-0.275171
-0.340781
-0.0321847
0.485084
0.514916
-0.774298
-0.114505
-0.508869
-0.53257
-0.491466
-0.538751
0.405166
0.594834
-0.156687
0.181625
-0.862803
-0.066237
-0.586346
-0.15451
-0.242034
0.396544
-0.0337024
-0.00492492
0.114204
0.0731932
-0.126287
-0.119139
0.755364
-0.650542
0.723207
-0.426363
-0.634167
0.944278
-0.339516
-0.604762
-0.745044
-0.181727
0.926771
-0.236179
0.224832
-0.024218
-0.119689
0.0101423
0.0103217
0.754884
-0.138572
0.11829
0.112232
-0.730997
0.0590158
1.0314
-0.527849
0.283881
-0.625233
0.78844
-0.281787
1.01498
-0.00349656
0.425337
-0.228374
-0.00322937
-0.0834966
-0.153833
0.0927722
0.938626
-0.297285
0.756341
-0.459057
0.847347
-0.0177632
0.00529419
0.0124691
0.1301
-0.00743843
-0.000864429
0.213346
-0.104797
0.174527
-1.04005
-0.420674
0.12339
0.00181498
0.281729
0.416825
-1.07552
1.34466
-0.269132
-0.786347
0.836321
-0.0499739
-0.139914
0.0212789
0.293586
-0.0765097
1.05728
-0.458336
-0.0672543
0.269932
0.444452
0.189684
-0.634136
0.395062
0.0369179
0.656022
-0.572579
0.56983
0.00274873
1.21496
-1.29351
-0.0490211
0.0629402
-0.0139191
0.707541
-0.0090349
-0.081405
0.0175537
1.16594
-0.140733
0.000819419
0.113637
-0.091618
-0.178102
0.163913
0.0621278
-0.22604
0.00237832
-0.00187957
0.706285
-0.855054
0.250629
0.215797
-0.0251307
-0.0841683
0.22805
0.0916707
0.00754263
0.0985334
0.770671
0.190578
0.649594
-0.840171
0.959232
-0.17884
-0.780392
0.654594
0.12392
-0.0967722
0.00610631
0.0906659
-0.747271
-0.36862
-0.691862
-0.0126329
0.738031
0.711666
-0.030851
-0.434424
0.0619634
0.82812
0.136712
0.0300243
-0.881421
0.162031
-0.271606
-0.150543
-0.170052
0.702425
0.0682457
0.0135573
0.772072
-0.750794
-0.306478
0.168494
0.0214332
-0.111522
0.420733
-0.0575541
-0.252541
-0.0689745
0.155833
0.601477
0.357756
-0.149547
0.714556
-0.0428228
-0.108874
0.0133469
-0.000820994
-0.0125259
-1.36754
0.0740306
-0.00213417
0.932444
-0.223918
-0.609072
0.639144
-0.0300725
0.188953
0.761441
-0.868153
0.263391
0.0799609
-0.176951
0.637127
0.124314
0.693716
0.192126
-0.270919
0.739008
-0.0436762
0.982302
-0.604305
0.35686
0.247445
-0.744764
-0.0695431
0.0407111
0.0665043
-0.0477989
1.22711
0.756538
0.0715825
0.621705
0.211221
-0.874529
-0.0804502
-0.676305
0.679192
-0.0262627
-0.573129
0.418618
0.883896
0.674045
0.165951
0.00607889
-0.147121
-0.316664
1.23468
0.27587
-0.637897
0.0395242
0.739395
0.242906
0.69635
0.278749
-0.0789604
1.00279
-0.723929
0.908146
-0.184217
-0.420892
-0.183413
-0.078247
-0.193098
-0.151586
0.862551
0.0186095
-0.00602377
0.631056
-0.0758251
-0.549408
0.607808
-0.131693
0.231226
0.760457
0.244118
-1.00458
0.276823
-0.924873
0.027447
-1.33348
-0.179535
0.766162
-0.586627
-0.67235
-0.156564
0.0368754
-0.055563
-0.91999
0.0158979
-0.0397569
1.02871
0.177549
-0.446591
0.269042
-0.0243377
-0.58329
0.139799
0.285538
-1.15677
0.00477833
0.00367665
-0.637077
-0.0546021
-0.595417
0.0228389
0.578771
0.305125
0.932712
0.9391
-0.24862
-0.383134
0.631754
0.165147
-0.613935
0.613935
-0.229879
-0.92407
1.15395
0.0307389
-0.152902
0.692416
-0.113644
-0.21815
-0.412548
0.0717663
0.536341
0.531173
-0.442992
0.180348
-0.102214
-0.714776
0.482554
0.0872754
0.0645109
0.00943645
-1.00699
-0.521513
-0.249237
0.698748
0.301252
-0.521513
0.698748
-0.529068
-0.235193
-0.529068
-0.694049
0.694049
0.305951
-0.0138575
0.259227
-0.0777124
0.213101
0.154714
-0.476023
0.643446
-0.0356386
0.669512
-0.512881
-0.156631
-0.0534343
0.0512806
0.00215373
-0.00664987
0.00403358
0.0125165
0.0182241
-0.0975822
-0.434988
-0.356419
0.131049
0.0469021
0.823873
-0.274424
-0.534934
0.262197
0.00225452
-0.185946
-0.00498601
0.667162
0.070869
0.0236551
-0.0370205
-0.00257429
0.0255238
0.0836351
0.556247
-0.472301
-0.0839457
1.6363
0.555667
-0.836193
0.905726
0.0114642
-0.0633783
0.107951
-0.0194251
0.172022
1.1374
-0.376945
0.0152759
-0.0891536
0.719235
-0.986736
0.0209841
-0.0209841
0.0213962
-0.0213962
-0.0311357
0.0311357
0.0351485
0.363564
0.459816
-0.0444392
-0.702852
0.469684
0.184722
0.0286233
-0.0844796
-0.483136
0.842258
0.111578
-0.799878
-1.03367
-0.132707
0.147684
0.0197849
-0.00341533
-0.0252477
0.0252477
0.309359
-0.0233185
0.0233185
0.700322
0.0989433
-0.0258588
-0.0111617
0.00643822
-0.0662721
-0.0219377
0.0219377
-0.0202436
0.0202436
-0.0226678
0.0226678
-0.0170351
0.0170351
0.14289
-0.29406
-0.0799755
0.222899
-0.0150189
0.0150189
-0.372834
0.500383
-0.127548
0.491718
-0.216341
-0.247467
-0.287467
0.558415
-0.129747
0.080338
0.558806
0.564609
-0.00584569
0.00584569
0.317241
0.0253972
-0.0253972
-0.0127101
0.0127101
0.7475
-0.897078
0.038689
-0.00744507
0.265665
0.00221294
-0.00221294
0.0249239
-0.0249239
0.0184591
-0.0184591
0.0226115
-0.0226115
-0.0237873
0.0237873
0.0353244
-0.0353244
0.491161
-0.0320164
0.0320164
-0.00134851
0.00134851
0.0242635
-0.0242635
-0.0108439
0.0108439
0.00778518
-0.00778518
-0.0944363
-0.0264975
0.0264975
0.0419756
-0.00576417
-0.0397133
0.0397133
0.0102232
-0.0102232
0.0316475
-0.0316475
0.033716
-0.033716
0.0250634
-0.0250634
0.00303393
-0.00303393
-0.00429285
0.00429285
-0.454347
-0.0953068
-0.0175332
0.0175332
-0.000521947
0.000521947
-0.0383942
0.0383942
-0.0272398
0.0272398
0.00100098
-0.00100098
-0.418067
0.665247
0.256447
-0.0322769
0.0322769
-0.0466713
-0.0272189
0.0272189
0.000228239
-0.000228239
0.0363717
-0.0363717
-0.184266
0.21429
0.00630946
-0.00630946
-0.0222423
0.0222423
-0.487906
0.0433002
-0.77458
-0.0305816
0.0305816
-0.434868
0.0329186
0.0185824
-0.193262
-0.802072
-0.0370966
0.0370966
-0.203079
0.145525
-0.0398252
0.000778192
-0.000778192
-0.00447567
0.0513593
0.263905
-0.317551
-0.272616
0.590167
0.183719
-0.0085404
0.0085404
-0.326095
0.501827
-0.175732
0.744947
-0.391393
-0.353554
-0.463267
-0.652347
-0.108317
0.370513
-0.400019
-0.442634
-0.578535
0.0187586
0.188374
-1.10693
0.0169441
-0.0169441
0.00091442
-0.00091442
0.0311207
-0.0311207
0.0254737
-0.0254737
0.000410495
-0.000410495
0.000827312
-0.000827312
-0.0765566
-0.346768
0.171498
-0.294606
-5.09517e-05
5.09517e-05
-0.0436978
0.0436978
-0.040759
0.040759
0.254389
0.0533893
-0.307778
0.00802564
0.306404
-0.530323
-0.000463884
0.000463884
-0.0266286
0.0266286
-0.103285
-0.0282565
-0.08006
0.000899536
-0.000899536
0.111397
0.0104064
0.990765
-0.483938
-0.0884578
0.572396
-0.628932
-0.200777
-0.382932
-0.037506
0.037506
-0.670514
0.272787
0.0501903
-0.0501903
-0.65416
0.389317
0.258662
0.117606
0.000860666
-0.000860666
-0.844855
0.000916746
-0.000916746
0.322591
0.413744
0.0801769
-0.0542395
0.0542395
0.000581576
-0.000581576
-0.0428452
0.0428452
-0.0522732
0.0522732
0.00165358
-0.00165358
-0.0577838
0.0577838
0.00194724
-0.00194724
-0.0462204
0.0462204
-0.00349881
-0.0439263
0.0439263
0.00155964
-0.00155964
0.0487936
-0.0487936
0.00116813
-0.00116813
0.0462787
-0.0462787
-0.1508
-0.00149001
0.00149001
-0.00420744
0.00420744
-0.0389814
0.0808093
-0.0111042
0.0111042
0.00578937
-0.00578937
-0.0601287
0.0601287
0.298154
-0.0193085
0.0193085
-0.0556786
0.0556786
-0.00790504
0.00790504
-0.0680807
0.0680807
-0.0132794
0.0132794
-0.0814278
0.0814278
-0.0223426
0.0223426
-0.0917492
0.0917492
-0.678536
0.222917
-0.536831
0.506759
-0.897864
-0.215258
-0.55564
0.385588
0.0843328
0.0522952
0.00396595
-0.00396595
0.385606
-0.708944
0.0455353
-0.0360988
-0.683475
1.16775
0.864019
0.249684
-0.0627668
-0.00495983
-0.386877
-0.587223
-0.0866299
0.385301
-1.31229
-0.0224475
0.0224475
-0.754935
0.0188257
-0.0188257
-0.00280819
0.00280819
0.320941
-0.331441
-0.00212332
0.00212332
0.0186252
0.0141832
0.59467
0.147006
-0.00135568
-0.00830935
-0.0133918
-0.0997346
0.496106
-0.396371
0.271706
-0.00448389
0.00684235
1.10731
-0.0368931
0.049734
-0.407508
0.444906
-0.495966
-0.975208
-0.234039
-0.073078
0.0180824
-0.410124
-0.0302897
0.0699627
-0.00550344
-0.0236375
0.782535
-0.544222
-0.0407831
0.0622163
-0.0375364
0.0263903
0.232837
0.419313
0.23634
-0.16344
0.208022
0.0129947
0.000478094
-1.18762
0.0370815
-0.103668
-0.342923
-0.0185796
-1.32417
-0.0708739
0.26408
-0.348338
0.393794
0.204987
-1.0789
0.0473829
-0.0309455
-0.144306
-0.346868
0.457658
-0.117691
-0.025155
0.142846
-0.0274739
0.0274739
0.179608
-0.437816
-0.144859
0.164994
-0.0821209
0.0558582
-0.0628303
-0.00555529
0.0683856
-0.0229958
-0.154838
0.162771
-0.101108
-0.285318
-0.349086
0.634404
0.015851
0.0604514
0.150897
-0.0326076
-0.16597
0.0689648
-0.15915
0.314923
-0.0156932
0.0281622
-0.0234679
0.174365
0.00345117
0.262967
0.00190175
-0.00190175
-0.127505
0.823855
0.092825
-0.173275
-0.0724992
-0.00940686
0.447952
0.689899
0.00801887
-0.0439185
-0.533812
-0.0030197
0.0432354
0.096568
-0.687471
0.31819
-0.0564459
0.368813
-0.654132
0.216587
0.499026
-0.0909258
0.0909258
-6.70453e-05
-0.982377
0.513024
0.469354
-0.214782
0.159219
0.0721162
-0.0917033
-0.75235
-0.171239
-0.0565812
0.0730916
0.925682
0.266185
-0.100234
-0.069257
-0.355433
-0.640842
-0.0711764
-0.26279
0.782201
0.567236
-0.260831
-0.266341
0.54807
0.0411301
0.442991
-0.264421
0.100891
-0.456065
0.328517
0.120373
-0.120373
0.148637
-0.169062
0.0204257
0.00990081
-0.00616357
0.016672
-0.410958
-0.336313
0.2237
-0.186409
-0.0372905
0.540578
-1.08537
-0.110529
-1.02125
0.690426
-0.116967
-0.177639
-0.0353892
-0.0798445
-0.49058
0.0555921
-0.29117
0.00628333
-0.0185796
0.383689
-0.00510128
0.000511845
0.00201619
0.0124869
-0.0147281
0.00224114
-0.103799
-0.0176741
-0.168993
0.186667
-0.120698
-0.335368
0.0186252
0.344687
0.00391676
-0.376765
0.0852615
0.00272941
0.193506
-0.237946
-0.0125357
0.0125357
-0.00125812
0.00468029
-0.00913191
0.00230883
-0.0976542
0.000673777
-0.00111947
0.30785
0.02584
3.48576e-05
-3.48576e-05
0.126415
0.511349
0.00271046
-0.284234
0.495916
1.14899
-0.467565
0.325746
-0.440374
-0.322431
0.177573
0.22334
-0.225841
-0.0186097
0.0136155
-0.00329385
-0.00695891
-0.17783
-0.370279
0.839963
0.485479
-0.562036
0.281938
-0.00160841
0.288834
-0.0131741
0.00229497
0.000482095
0.0131335
0.0359275
0.00131916
-0.000369198
0.712927
-0.643962
-0.245715
-0.0218018
0.952825
0.000750187
0.00201661
-0.0398252
-0.00551819
0.820868
-0.433563
0.520838
-0.781807
0.896086
-0.773944
0.569065
-0.183477
0.696739
0.00230355
0.0030341
0.0167508
-0.116876
0.138227
-0.284965
0.00878471
0.00712519
0.0662699
-0.0528734
-0.0133965
0.00223093
0.0533254
0.0368668
-0.0901922
-0.0923342
0.00102736
0.000546718
0.0015945
0.481108
-0.436583
-0.00501891
0.000537095
0.840829
-0.327806
0.380094
-0.00597595
0.000136229
0.286117
-0.0354888
-0.0442326
-0.106351
-0.0152605
-0.00366235
0.125836
0.0793847
-0.00215841
0.405625
0.00148466
-0.00255184
0.00255184
0.0105169
-0.0188262
0.000359541
-0.320883
-0.00368662
0.072974
-0.107776
0.182351
0.0998323
-0.0655147
0.000514836
0.00271744
0.456574
0.000450173
-0.00762989
-0.0706172
-0.00208624
0.000900771
0.0538793
0.256152
-0.713091
0.466884
-0.837163
-0.0585463
-0.00031796
-0.744465
0.155657
0.0906158
0.577173
-0.0147672
0.00851035
-0.00404916
-0.00139667
-0.5462
-0.00337524
0.000293664
-0.052866
0.915693
-0.520631
-0.00257319
-0.000779117
-0.0058892
-0.00265813
0.0706417
-0.021687
0.021687
-0.0558629
0.0605432
-0.00211567
-0.00795204
0.0632896
-0.0627777
-0.166923
0.0973802
-0.00537432
-0.0133471
0.0403639
-0.0172197
0.062924
-0.0448416
-0.624095
0.567759
0.0398419
-0.00182342
0.319071
-0.163237
-0.0683008
-0.671383
-0.0729256
-0.115552
-0.0949871
0.0929008
0.691753
0.000906442
0.0225404
-0.0205238
0.325585
0.0617876
-0.143532
0.0817447