/*--------------------------------*- C++ -*----------------------------------*\
| =========                 |                                                 |
| \\      /  F ield         | OpenFOAM: The Open Source CFD Toolbox           |
|  \\    /   O peration     | Version:  2306                                  |
|   \\  /    A nd           | Website:  www.openfoam.com                      |
|    \\/     M anipulation  |                                                 |
\*---------------------------------------------------------------------------*/
FoamFile
{
    version     2.0;
    format      ascii;
    arch        "LSB;label=32;scalar=64";
    class       volVectorField;
    location    "10";
    object      U;
}
// * * * * * * * * * * * * * * * * * * * * * * * * * * * * * * * * * * * * * //

dimensions      [0 1 -1 0 0 0 0];

internalField   nonuniform List<vector> 
2186
(
(1.29612 -0.0880081 1.68288e-19)
(1.60178 -0.931579 -1.10374e-19)
(1.44812 -0.907789 -8.2899e-22)
(0.735075 -0.580428 -1.16527e-19)
(-0.5501 0.625008 -2.3445e-19)
(1.04966 0.0337627 0)
(0.717053 -0.662491 0)
(-0.283522 -0.514341 1.25509e-19)
(1.49085 -0.261523 2.00006e-19)
(0.55204 -0.307224 -2.29583e-21)
(0.677269 0.610772 0)
(0.834889 -0.277053 -1.48325e-19)
(-0.366757 -0.644445 -5.11752e-20)
(1.16069 0.0174593 -2.89198e-19)
(1.79013 -0.681603 -1.16241e-19)
(1.01226 -0.00455764 1.3611e-19)
(0.984501 0.00730437 0)
(-0.716575 0.476917 0)
(1.06257 0.0074079 0)
(-0.0463476 0.272902 -8.58846e-20)
(0.488122 0.102047 -9.45184e-20)
(-0.235389 0.173321 1.16799e-19)
(1.1457 0.0278153 2.38813e-19)
(-0.219882 0.000861182 4.13327e-21)
(1.02352 0.00961907 -1.87975e-19)
(0.786133 -0.55808 0)
(0.764086 -0.0286426 1.16836e-19)
(0.607345 -0.587685 -1.30716e-19)
(1.22204 0.717468 0)
(0.987867 0.0179056 -2.5648e-19)
(-5.37409e-05 0.0484075 0)
(1.02304 -0.00617797 8.87437e-21)
(0.00771209 0.32585 0)
(2.17453 0.292492 1.69441e-19)
(-0.119141 -0.130684 2.94821e-21)
(1.55076 0.782704 1.72832e-21)
(1.61512 0.157517 9.64845e-20)
(0.514642 0.151155 -2.80383e-19)
(1.96532 0.244798 -4.50553e-19)
(1.05402 0.0188839 -1.99662e-22)
(-0.43534 -0.717606 0)
(-0.198699 0.156625 0)
(1.8645 -0.875607 9.76603e-20)
(-0.451051 0.21683 0)
(1.10789 0.282882 1.14492e-19)
(0.596712 -0.289422 2.321e-19)
(0.913965 -0.778617 0)
(1.17797 -0.781949 7.37976e-20)
(2.0202 -0.647741 0)
(-0.388938 0.686293 2.61483e-19)
(0.0181205 0.116982 1.26991e-19)
(0.630069 0.580577 5.78413e-20)
(2.05489 -0.758076 1.24689e-19)
(0.596526 0.283925 -2.23225e-19)
(-0.264081 0.17319 4.3671e-20)
(0.758326 -0.647715 0)
(1.6511 -0.960541 1.79831e-20)
(0.578289 -0.539539 0)
(2.38872 0.190985 1.40292e-19)
(1.12526 -0.184649 -2.72472e-19)
(1.32309 -0.112396 8.5538e-20)
(1.35329 0.291246 -1.17902e-19)
(1.34406 0.536684 0)
(1.07226 0.0306847 2.18749e-22)
(1.36026 0.378825 -6.31562e-20)
(1.24694 -0.729199 -9.67701e-20)
(1.18128 0.666369 3.54325e-20)
(0.685402 0.074638 -4.52766e-19)
(0.822726 0.054215 0)
(2.10167 -0.204457 -7.22884e-20)
(-0.257849 -0.582933 -1.46083e-19)
(1.63419 -0.505008 -8.00004e-20)
(0.72856 -0.0365519 -1.99693e-19)
(0.872726 -0.522887 0)
(0.824885 0.181022 -7.24562e-20)
(0.546398 -0.508255 -2.398e-19)
(1.98998 -0.386608 0)
(1.00365 0.00982542 2.82577e-19)
(-0.103182 -0.205642 0)
(2.03253 0.421758 0)
(1.01977 0.319608 1.73976e-19)
(0.962897 0.0379447 -2.27705e-22)
(1.03506 0.0107489 3.12239e-20)
(1.32027 0.415238 1.70618e-20)
(0.978382 0.0187296 3.27119e-19)
(1.03865 0.031917 -7.75299e-21)
(0.670299 0.183856 -2.69278e-19)
(1.06785 0.0193203 1.15989e-22)
(0.503929 0.0197638 0)
(-0.0679375 -0.0268318 1.05993e-19)
(0.855746 -0.622421 -1.26262e-19)
(-0.0796462 0.538359 -1.75499e-21)
(1.09442 -0.0793089 1.8971e-19)
(0.813244 -0.178963 0)
(0.995751 0.0304316 3.1278e-20)
(1.37764 0.650748 0)
(1.61184 -0.944299 0)
(1.30867 0.218858 0)
(-0.537732 0.702457 0)
(0.786026 -0.663259 2.27514e-19)
(0.802067 -0.17016 -4.6713e-19)
(0.973201 0.107786 3.30756e-19)
(1.50404 0.185478 0)
(1.09805 -0.122953 -1.73439e-19)
(1.08285 0.0261741 1.40288e-19)
(0.0293084 0.629769 1.64306e-19)
(0.637972 0.51181 0)
(2.17497 -0.153406 -1.44792e-19)
(0.963266 -0.485872 6.33283e-20)
(-0.839741 0.376505 1.14774e-19)
(1.76957 0.285507 1.5394e-19)
(-0.292464 0.763762 -3.69574e-19)
(0.810265 -0.736178 0)
(0.567818 0.358361 1.34669e-19)
(1.65375 -0.261643 -5.7372e-19)
(-0.587016 -0.453214 -4.87903e-19)
(1.04569 -0.0900711 5.53672e-21)
(1.77497 -0.681471 0)
(-0.0925427 -0.0216337 -3.1775e-19)
(0.711284 -0.0713709 6.34128e-20)
(1.57127 0.887765 0)
(-0.294326 0.728641 -4.12173e-19)
(0.88749 0.760941 -1.98005e-19)
(-0.958417 0.345085 5.89554e-19)
(1.02722 -0.0232207 0)
(1.07256 -0.0995637 -6.97536e-21)
(-0.453695 0.734618 0)
(0.694577 -0.494394 -8.55141e-20)
(-0.907567 0.413945 -3.20146e-19)
(0.783119 -0.71447 0)
(0.434538 -0.270985 3.41683e-19)
(0.540359 -0.455237 2.26685e-19)
(0.409573 -0.370574 0)
(0.975883 -0.775654 -8.76807e-20)
(1.03161 0.141412 0)
(-0.100751 0.757416 -2.05108e-19)
(0.805432 -0.69428 1.06889e-19)
(2.36424 -0.248258 3.22901e-19)
(2.20228 0.109085 0)
(-0.0344234 -0.113579 0)
(0.686216 0.636533 -2.38217e-19)
(1.77413 -0.623018 2.40831e-20)
(-0.166902 -0.243602 0)
(0.976422 -0.800632 -9.77221e-21)
(1.12215 -0.109867 0)
(1.0828 -0.141658 3.02745e-19)
(2.09307 -0.161861 -1.40659e-19)
(-0.589319 0.608074 0)
(1.21829 -0.556455 -3.8167e-20)
(-0.205238 0.397176 -5.45126e-20)
(-0.292549 0.682784 0)
(1.08637 -0.807324 1.2028e-20)
(1.00454 0.0100982 -4.7204e-19)
(0.649293 -0.4792 -8.46371e-21)
(0.814562 -0.518706 0)
(1.19519 -0.728128 -6.28769e-20)
(0.65903 0.245861 2.09134e-19)
(1.24501 0.0921254 0)
(1.52199 0.0937777 -7.79775e-20)
(1.18995 -0.848485 -1.16262e-19)
(-0.0259797 -0.0964188 -1.17385e-19)
(-0.0792815 -0.559379 -2.54668e-19)
(1.06418 0.00725582 1.74806e-19)
(0.920044 -0.471062 -7.96382e-20)
(1.06629 0.0133626 -1.07384e-22)
(1.07314 0.00511539 -1.90977e-21)
(0.733156 -0.112543 1.3247e-19)
(-0.22512 -0.00257575 -2.87862e-19)
(1.03141 -0.041864 0)
(1.16092 -0.132141 3.07596e-20)
(1.44867 0.656946 6.35377e-20)
(0.803927 -0.61381 -1.65949e-19)
(0.995858 0.00387426 9.6793e-21)
(0.717843 -0.531425 2.35116e-19)
(1.31281 0.80526 6.53496e-20)
(1.87825 0.0123314 2.94647e-20)
(-0.648741 0.487511 0)
(1.05441 0.0556534 -1.80507e-19)
(-1.04869 -0.208326 -3.69153e-19)
(1.08012 0.491168 5.78589e-20)
(0.0692675 -0.0893383 1.73889e-19)
(1.11962 0.02776 -3.32942e-20)
(-0.145348 0.252223 -2.07052e-19)
(1.30756 0.586416 -4.33004e-20)
(1.14236 0.888108 0)
(-0.699952 0.480074 -1.20094e-19)
(-0.252805 -0.142306 0)
(0.652833 0.563187 -2.13519e-19)
(2.05154 0.196086 -3.10068e-20)
(-0.517241 -0.67499 1.75265e-19)
(-1.0375 0.168331 -8.05282e-19)
(0.732632 0.0770381 1.98648e-19)
(2.14928 -0.300326 -6.05814e-20)
(0.974912 -0.345352 -2.34928e-20)
(0.00387125 -0.0130679 0)
(-0.547763 -0.0198184 1.12031e-19)
(1.3339 0.975742 2.78329e-20)
(0.841959 0.0693677 -1.0735e-19)
(0.55391 0.519882 1.47389e-19)
(0.445635 0.187054 0)
(-0.0161629 -0.770603 -2.61419e-19)
(-0.0239778 0.125298 -7.23447e-21)
(1.28791 -0.949863 8.69586e-23)
(0.982184 -0.0368755 -1.46788e-19)
(-0.159234 -0.135496 7.27075e-21)
(-0.264577 0.337672 1.91442e-19)
(-0.343847 -0.0987566 -2.08622e-19)
(1.73854 -0.688432 0)
(1.10692 0.0485026 -2.40685e-19)
(2.09159 -0.197752 1.96769e-19)
(1.27523 -0.621844 6.32398e-20)
(0.759785 0.0401494 2.95398e-21)
(0.5947 0.338421 0)
(0.945661 0.749392 -1.15206e-20)
(0.683059 0.627368 1.34162e-19)
(0.894993 -0.568198 1.14211e-19)
(0.684964 0.506924 0)
(1.01953 -0.00110114 6.26467e-21)
(0.876867 -0.662706 1.62525e-19)
(0.838213 0.430822 -3.52389e-19)
(1.22063 -0.123848 0)
(-0.251397 -0.251087 -3.16211e-19)
(0.0335801 0.491645 -1.27457e-19)
(1.59404 0.730803 0)
(1.34032 -0.930576 -7.44187e-23)
(-0.734716 0.51051 0)
(-0.523419 0.72104 1.49017e-19)
(0.734795 0.651539 -7.35467e-20)
(0.844481 -0.208187 0)
(-0.233858 -0.13514 0)
(1.6031 -0.454564 0)
(-0.393311 -0.303308 3.29573e-19)
(1.20383 -0.876467 7.65151e-20)
(1.17655 -0.610274 4.23863e-20)
(1.04466 -0.157349 -1.20866e-19)
(0.872028 -0.690407 -1.27415e-19)
(0.186017 -0.190011 0)
(-1.23689 0.0399048 0)
(1.00162 -0.518826 1.30777e-19)
(-0.0884204 -0.202409 0)
(-0.375792 0.702249 0)
(-0.570273 -0.42444 4.1517e-19)
(0.791873 0.669376 6.38126e-20)
(1.01572 0.793698 0)
(0.695843 0.556946 -6.54708e-20)
(0.832554 -0.0405229 -1.78086e-19)
(0.745214 0.565302 -1.74234e-19)
(0.589306 0.548521 -1.26915e-19)
(-0.197035 -0.548777 2.615e-21)
(0.714183 -0.641179 0)
(0.892515 0.172582 -2.50696e-19)
(-0.327306 -0.716336 6.76169e-20)
(0.601492 0.557445 2.80379e-19)
(0.958408 0.796221 0)
(-0.731777 -0.162685 3.58956e-19)
(-0.0642457 -0.408884 3.53137e-19)
(-0.0140427 -0.345771 -1.77556e-19)
(0.663059 0.571561 -1.13838e-20)
(0.979244 -0.014103 4.58299e-20)
(-0.464344 -0.744973 0)
(2.27372 0.0993657 -3.29e-19)
(1.32904 -0.462412 -5.74111e-20)
(0.648206 -0.600879 -5.79213e-20)
(-0.612693 0.23528 2.1062e-20)
(1.19381 0.458601 1.22443e-19)
(0.885263 0.419813 0)
(1.06908 -0.196429 1.46102e-19)
(0.136266 -0.563754 -1.02923e-20)
(-0.0505444 0.13561 4.80181e-19)
(0.927508 0.0183003 -4.02422e-20)
(1.13841 0.118633 0)
(1.88902 -0.0197801 -3.16597e-19)
(1.91982 0.0428737 0)
(0.548327 0.263754 -3.69452e-19)
(-0.27351 0.39503 0)
(-0.229832 -0.501607 2.86629e-19)
(0.743965 0.0943516 0)
(0.618568 -0.513182 -1.45431e-19)
(1.10802 0.0234652 1.59822e-19)
(-0.58915 0.617236 5.63483e-20)
(1.87565 -0.0997337 -1.079e-20)
(2.09575 -0.254628 -1.47209e-19)
(1.11308 0.231845 -1.61854e-19)
(-0.360155 -0.777792 -1.36141e-19)
(1.06709 -0.843872 0)
(0.80258 0.0152014 -1.16338e-19)
(0.931161 -0.377511 -2.26107e-19)
(1.70895 -0.564617 -1.00535e-20)
(1.71062 0.0339367 2.93559e-19)
(1.05871 0.000873224 2.89911e-19)
(0.154141 -0.60083 -1.79498e-19)
(0.990343 -0.440488 -9.56149e-20)
(0.196139 -0.188965 2.0616e-19)
(1.00546 -0.00343244 0)
(1.00747 -0.00884959 0)
(1.23278 -0.671131 2.41565e-21)
(-0.00467259 0.74861 -1.38472e-19)
(0.18349 -0.118903 -1.53683e-19)
(1.39066 -0.177872 2.20646e-20)
(1.40123 -0.694891 0)
(2.16796 -0.323172 -1.30347e-19)
(0.936608 -0.814275 -4.68183e-20)
(1.78939 -0.550838 -9.41652e-20)
(1.10892 0.837261 0)
(0.470755 -0.453005 0)
(0.604901 0.521651 -1.37825e-19)
(1.09207 0.276069 -2.94449e-19)
(2.2215 -0.245366 4.79063e-22)
(0.859156 0.154997 1.08099e-19)
(0.151344 -0.687924 -5.7883e-19)
(0.952544 0.0899008 -5.62408e-21)
(-0.218368 -0.640768 0)
(-0.038838 -0.118395 0)
(-0.62874 -0.639599 0)
(1.33482 -0.719435 -4.13741e-20)
(-0.308666 0.696939 -2.87593e-19)
(-0.110439 0.261191 0)
(1.29343 0.977426 -5.07677e-21)
(1.11329 0.160765 -3.10328e-19)
(1.318 0.362897 -2.78257e-20)
(1.08261 0.923549 3.48643e-20)
(-0.237535 0.790505 1.90624e-19)
(0.740389 0.0643922 0)
(-0.635322 -0.549943 -3.71343e-19)
(-0.370883 0.788262 3.55228e-19)
(0.783772 0.0308111 1.45946e-19)
(1.5403 0.94996 6.11293e-20)
(1.11385 -0.063739 -3.96127e-21)
(-0.137386 0.513474 -2.60991e-21)
(0.739649 -0.675455 -2.71084e-20)
(1.21243 0.00924645 0)
(1.71849 0.0250746 0)
(1.06657 0.0332339 0)
(-0.104274 0.305934 -2.92249e-20)
(-0.541123 -0.675278 1.41454e-19)
(1.04874 0.843116 0)
(0.998466 -1.96766e-05 3.9467e-19)
(0.766882 0.606283 -1.7332e-19)
(-0.696895 0.0405243 -6.91771e-20)
(0.860898 0.0151595 -3.2372e-20)
(0.709641 -0.648329 -1.65034e-19)
(1.39479 0.713114 -1.06054e-20)
(0.561517 -0.448917 -2.36616e-19)
(1.0955 -0.0024019 -3.52087e-19)
(0.834953 0.040684 3.41737e-20)
(1.53075 -0.195826 3.319e-20)
(0.751738 -0.0275646 -4.0174e-20)
(-0.0226197 -0.044198 -2.06877e-22)
(1.08373 0.468757 -1.94075e-19)
(1.3377 0.619644 1.07902e-19)
(-0.126568 -0.360159 0)
(0.121131 -0.673726 2.17674e-19)
(-0.351368 -0.337876 1.32577e-19)
(-0.220635 -0.0579744 -1.47354e-19)
(0.481097 0.325934 0)
(1.24759 -0.535444 0)
(0.0241854 -0.0112337 -1.75196e-19)
(-0.250277 -0.771756 -7.93e-20)
(1.05246 -0.0198383 1.39258e-19)
(-0.584275 0.505072 -5.46611e-20)
(1.70007 -0.731867 -4.39555e-19)
(0.0267318 0.762738 0)
(0.82661 -0.733068 -2.17987e-19)
(0.695993 0.0548491 6.93055e-20)
(-0.552003 -0.359377 2.29035e-19)
(0.722614 0.166161 2.62025e-19)
(0.628713 0.14521 8.56224e-20)
(0.499342 -0.473197 1.60864e-19)
(-0.188226 -0.318322 -1.52486e-19)
(1.12168 -0.0319701 0)
(0.397545 0.354573 -1.55943e-19)
(1.02696 -0.00544769 -2.22139e-19)
(-1.13527 0.147565 3.12902e-19)
(1.4236 0.484984 -5.43629e-20)
(-0.111823 -0.279024 -5.74879e-20)
(0.681979 -0.622178 -1.16765e-20)
(0.814173 0.189845 -1.61313e-19)
(0.979631 0.427259 1.69299e-20)
(1.10438 -0.167493 2.608e-20)
(0.607822 -0.22664 -2.43498e-19)
(1.98917 -0.355799 -1.97706e-19)
(0.638967 -0.129844 0)
(1.06232 0.233996 -2.93217e-20)
(1.41005 0.240762 -1.79721e-20)
(1.15019 -0.339445 1.70412e-19)
(0.961681 0.355303 -2.36139e-19)
(1.04106 0.0522775 5.78567e-22)
(0.421548 0.393861 -2.00035e-19)
(-0.163991 0.299397 3.74075e-19)
(1.98672 -0.16884 0)
(0.943646 -0.00114128 0)
(0.866011 -0.765735 3.97794e-20)
(-0.0520696 -0.510308 -3.8631e-19)
(-1.1407 -0.0702962 -3.92244e-19)
(-0.0383847 -0.0794072 -2.48563e-19)
(-0.494981 0.674976 -2.40643e-19)
(-0.37241 -0.544175 0)
(-0.0228919 -0.0770772 4.4514e-20)
(0.317913 0.579904 -1.25087e-19)
(-0.297742 0.38529 -4.38013e-19)
(0.798126 -0.106977 0)
(1.25569 -0.348304 1.94488e-20)
(-0.320892 -0.369645 0)
(1.01722 0.018706 2.8271e-19)
(-0.0100885 -0.650621 2.8817e-20)
(0.537879 -0.420692 3.17122e-19)
(-1.05626 -0.238247 6.12013e-19)
(-1.42726 0.0990377 0)
(0.35405 0.687757 1.57034e-19)
(1.01747 0.0193938 -8.50194e-21)
(-0.229715 -0.0911942 0)
(1.00331 -0.0132949 -4.41218e-20)
(0.853333 -0.72178 -2.13208e-19)
(1.28046 -0.664139 0)
(0.930393 -0.258384 1.60612e-19)
(0.220575 0.654471 3.44323e-19)
(0.0107934 0.0134278 0)
(-0.086487 -0.71251 -7.85456e-21)
(0.721017 -0.631123 -3.30238e-19)
(0.977157 -0.0339899 -2.0281e-19)
(-0.0580944 -0.620861 4.75573e-19)
(-0.155168 -0.430812 1.75749e-19)
(-0.300802 -0.625617 0)
(0.961943 0.477811 0)
(-0.402713 -0.605463 2.95376e-19)
(2.15126 0.255907 -2.40834e-19)
(1.07724 0.89714 1.05394e-20)
(1.06552 0.219629 -9.32331e-20)
(1.13171 0.0102157 -1.67715e-19)
(1.07161 -0.0417379 -5.71211e-20)
(-0.00972407 -0.671479 -4.40695e-19)
(1.80669 -0.0296536 4.48842e-19)
(0.733208 0.0288301 1.50595e-19)
(1.81308 -0.0256164 1.33305e-19)
(1.04111 -0.198831 0)
(0.105766 0.493093 3.36613e-19)
(1.10034 0.0283236 -3.83461e-19)
(1.7472 0.62614 -3.70372e-20)
(0.737451 -0.454446 -1.28004e-19)
(-0.0688388 -0.0115053 2.37707e-19)
(0.790941 -0.694501 2.82282e-19)
(1.23624 0.201321 5.09468e-20)
(1.00527 -0.0082902 1.95511e-19)
(0.202243 -0.731929 -2.00438e-19)
(1.04617 0.0121807 0)
(1.28616 0.128061 -1.30879e-19)
(0.00323052 0.0112103 0)
(1.02835 0.00706418 -1.15014e-19)
(-1.10116 -0.323242 -3.46971e-19)
(1.70144 0.323318 -5.57021e-21)
(-0.517016 -0.3339 1.74193e-19)
(1.62255 0.0464228 -4.10862e-20)
(1.00947 -0.0212868 4.03407e-20)
(1.32252 -0.0901369 0)
(1.43887 -0.604776 -7.01824e-20)
(1.03556 0.031114 -1.18785e-19)
(1.45008 0.794621 8.92551e-21)
(1.38643 -0.0321205 0)
(1.04357 -0.0406798 8.59216e-22)
(0.0307172 -0.0133147 0)
(1.40094 0.0321946 0)
(-0.51011 -0.722071 0)
(1.23559 0.439375 0)
(1.90843 0.273597 7.3438e-20)
(0.74038 0.616248 3.03422e-19)
(0.290539 -0.292366 -1.90434e-19)
(-0.207243 -0.678054 -4.24563e-19)
(0.00614392 -0.0127695 0)
(1.2949 -0.345796 4.91146e-20)
(1.35663 0.518416 0)
(1.46608 0.290815 0)
(-0.69553 -0.516874 1.65792e-19)
(0.808477 0.71242 8.96714e-20)
(1.71287 -0.0224316 0)
(-0.395554 -0.577007 9.77047e-20)
(0.902419 0.221336 1.47139e-19)
(1.19445 -0.208624 -2.81645e-20)
(1.2466 0.929484 2.1289e-20)
(0.913684 -0.821638 -1.67256e-20)
(0.402995 -0.0520333 -3.22759e-20)
(0.794904 0.71668 9.03608e-20)
(1.18287 0.928251 0)
(1.67785 -0.431224 8.88556e-20)
(1.47311 0.93374 0)
(1.17392 -0.16774 7.05857e-21)
(0.981516 0.0976491 2.43369e-19)
(1.01049 -0.00601284 0)
(0.208485 0.53787 1.92445e-19)
(0.882967 -0.157894 3.7464e-20)
(0.627392 -0.405421 0)
(0.667114 -0.378179 1.70441e-19)
(1.24459 0.558611 -2.18708e-20)
(0.474444 0.448625 2.14703e-19)
(-0.344092 0.482081 5.17846e-20)
(0.133369 0.0283539 1.27379e-19)
(0.798836 0.0620996 0)
(1.31456 -0.891399 -2.04159e-20)
(1.05143 -0.0453522 3.089e-19)
(1.51411 0.319982 1.87078e-19)
(-0.439585 -0.629638 8.48486e-20)
(-1.11474 -0.264953 0)
(1.19391 -0.227542 -8.22458e-20)
(0.013506 0.0112389 -2.04661e-19)
(0.378576 0.425484 -5.60638e-20)
(-0.13366 0.0325372 -5.32376e-22)
(-0.212102 0.0919852 3.8788e-19)
(1.07692 0.0279477 -6.76829e-22)
(2.34171 -0.000591414 4.40601e-19)
(1.20156 0.461008 -1.97452e-19)
(0.981385 -0.0256948 0)
(1.82548 -0.0113565 2.98878e-19)
(1.80275 0.152645 1.30372e-19)
(0.903176 -0.759191 1.02095e-19)
(1.14753 -0.965791 -6.56793e-21)
(0.47816 0.444399 1.425e-19)
(1.74496 0.788069 0)
(1.76952 0.578879 6.87772e-20)
(0.0121814 0.0039126 -4.17175e-19)
(0.885897 0.771048 0)
(1.06511 -0.100866 0)
(0.291734 -0.291502 -3.75321e-21)
(0.330819 0.314076 0)
(-1.40408 -0.116967 -5.44342e-19)
(-0.428268 0.656193 -1.56578e-19)
(1.73686 -0.412614 0)
(1.30843 0.0343146 4.89773e-20)
(-0.723918 0.0825473 3.31649e-19)
(0.530268 -0.504112 -3.61846e-19)
(1.88485 -0.0758532 -5.16876e-20)
(0.607126 -0.551604 0)
(1.05069 0.115363 0)
(1.36843 -0.219821 0)
(1.11399 0.237994 -1.70593e-19)
(1.30512 0.108204 2.38548e-19)
(-1.16802 0.100587 0)
(0.853679 -0.0559969 0)
(1.67211 -0.101322 1.93668e-20)
(-0.102366 0.264396 1.32646e-19)
(2.21167 -0.313202 -2.61515e-19)
(1.05903 -0.506668 2.15065e-19)
(1.67521 -0.105211 -2.60761e-19)
(-1.24622 0.13373 -2.65023e-19)
(1.92689 0.0428541 -2.53428e-19)
(1.00399 -0.0224009 3.1878e-19)
(1.52848 0.607616 0)
(-0.435139 0.723069 4.15769e-20)
(0.994564 -0.821087 1.18601e-19)
(0.85525 -0.0102152 3.78385e-20)
(0.631379 -0.428831 0)
(1.89094 -0.535934 1.07372e-20)
(1.21148 -0.164543 1.04611e-19)
(1.17466 -0.260769 0)
(0.601985 -0.559086 3.23146e-19)
(0.575106 -0.0578039 -3.77197e-20)
(2.18411 -0.414433 5.21742e-19)
(-0.152365 0.418108 -2.74781e-19)
(1.34121 0.624001 8.30802e-20)
(1.14999 0.402824 2.61157e-21)
(0.904349 0.381252 1.72395e-19)
(2.00591 0.342835 -2.37035e-19)
(-0.0249479 -0.722227 -7.91484e-21)
(1.08624 -0.196478 0)
(-0.155353 -0.0993538 3.93433e-19)
(1.08273 -0.940989 0)
(1.05726 -0.652014 1.56413e-20)
(1.55645 0.190338 -7.79593e-19)
(1.07683 -0.00658217 -1.41516e-21)
(-0.821155 -0.296641 -5.31263e-19)
(0.995011 0.487909 1.29331e-19)
(0.296937 0.477254 3.25626e-20)
(0.730921 -0.0359903 0)
(1.03524 -0.22038 0)
(0.919135 0.173398 1.20812e-20)
(0.749259 -0.0172716 0)
(1.35505 -0.195932 -1.07642e-19)
(-1.84909 -0.0112335 7.22663e-19)
(1.92107 0.492309 7.66438e-20)
(1.05611 -0.0201428 0)
(0.55004 -0.34432 8.36763e-20)
(1.02715 0.0286013 1.5218e-19)
(1.10731 1.00088 -7.93839e-20)
(-0.472403 0.628502 0)
(1.10652 -0.483344 3.56659e-19)
(0.969868 -0.121931 -2.03889e-22)
(1.09216 -0.499815 -1.55529e-19)
(2.35047 0.156697 2.53003e-19)
(1.29813 0.79685 0)
(0.880208 0.027258 0)
(-0.533463 -0.654854 -2.16189e-19)
(0.019583 -0.00848706 1.97086e-19)
(0.949799 0.370213 -1.56974e-19)
(0.390614 -0.614643 -1.80134e-19)
(0.648226 0.418989 1.91447e-19)
(0.98687 -0.0331705 0)
(0.53312 -0.496029 0)
(1.13174 0.0105494 1.28971e-21)
(1.22674 -0.50941 -6.89366e-20)
(0.63195 0.0213498 1.42896e-20)
(0.731249 -0.14935 9.50184e-20)
(-0.0512575 0.137279 -3.5181e-19)
(1.59761 -0.0500775 3.65417e-19)
(0.660552 0.615112 0)
(1.28296 0.701031 0)
(1.57986 0.240315 0)
(-0.48426 -0.538192 -2.1958e-19)
(1.27334 0.568302 2.72454e-19)
(1.91197 0.137766 5.04319e-20)
(0.994121 -0.00274486 0)
(1.05834 0.020358 0)
(2.00989 -0.0884144 -3.54209e-19)
(1.10182 0.763813 8.72512e-20)
(0.999235 0.00489656 -1.52025e-19)
(1.48993 0.47666 0)
(-0.348034 0.625183 0)
(1.24085 0.312525 2.00138e-19)
(1.03256 0.531373 -9.37798e-20)
(1.05376 0.0272165 0)
(2.02289 0.55732 0)
(2.00868 0.675127 -4.1167e-19)
(-0.099707 0.660467 -5.88772e-21)
(0.999259 0.00832481 0)
(0.708957 0.482066 -2.58791e-20)
(0.926747 -0.816289 0)
(1.01225 0.0214971 3.52041e-20)
(1.1456 -0.0646646 3.37855e-20)
(0.901807 -0.31497 2.37155e-19)
(1.12935 0.0160198 -2.51603e-20)
(2.15974 -0.0964483 4.09057e-19)
(0.909402 0.124016 5.13187e-20)
(0.751741 -0.0358584 0)
(1.00346 0.0103346 0)
(-0.854651 -0.426832 0)
(0.666056 0.636749 -1.34873e-19)
(-0.0225582 0.0731435 2.3719e-19)
(1.16349 0.343873 -3.23256e-19)
(-0.75443 0.447056 0)
(0.83049 0.644892 1.26048e-19)
(0.993639 -0.326573 0)
(1.00293 0.00531161 8.91281e-20)
(0.880466 0.682084 6.06919e-20)
(1.03937 0.404765 1.86493e-19)
(1.7343 -0.0509892 0)
(2.15024 0.143628 -1.07163e-19)
(0.819827 -0.107144 -2.86776e-19)
(-1.27441 -0.157752 -7.05711e-19)
(1.2945 0.755897 0)
(0.870935 0.245397 1.36374e-19)
(2.12605 -0.0803905 0)
(0.776889 0.528286 2.77825e-19)
(-1.76232 -0.103401 2.80226e-19)
(-0.0564538 0.148817 0)
(0.590018 0.561156 -5.32033e-20)
(1.02043 -0.640936 -1.09946e-19)
(0.476942 -0.238419 -1.00616e-19)
(1.01053 -0.0185576 0)
(-0.481724 0.302512 -3.49459e-19)
(0.63342 -0.565575 6.41276e-20)
(0.901224 0.294861 0)
(1.40697 -0.529172 3.40989e-20)
(0.986158 0.838156 1.61063e-20)
(1.15598 -0.0151192 -2.62059e-20)
(0.17354 -0.2059 -2.70776e-19)
(0.228044 -0.0185935 -4.56629e-19)
(-0.059867 -0.18098 1.07343e-20)
(0.817358 0.368663 1.90467e-19)
(-0.33421 0.724703 -7.14197e-21)
(1.40982 -0.646828 3.35729e-21)
(1.00845 0.0027354 -2.63271e-19)
(-0.622348 -0.462076 0)
(1.03612 0.0288798 -3.08701e-19)
(2.11955 0.479189 1.97078e-19)
(0.89004 0.690706 2.05785e-19)
(1.0843 -0.0766114 1.21473e-19)
(1.00125 -0.0205619 1.21755e-19)
(1.07639 -0.0184549 1.31393e-21)
(-0.406143 -0.495292 -2.87945e-22)
(1.71848 -0.863449 1.49694e-20)
(1.11246 -0.127335 -5.25742e-20)
(0.861495 0.0584384 5.99258e-20)
(0.9086 -0.283041 7.03524e-20)
(0.304803 0.0449665 0)
(0.965858 0.735178 0)
(0.812897 0.462144 -7.23517e-20)
(2.03379 0.198219 -4.47852e-20)
(-1.37434 -0.128879 2.64281e-19)
(1.02542 -0.545062 -3.83356e-19)
(0.612756 -0.530917 3.10869e-19)
(1.46484 0.198126 -2.07385e-19)
(0.357387 -0.60139 2.0523e-20)
(1.1154 0.0401218 0)
(0.757095 0.118961 -5.37732e-21)
(1.11036 -0.0621667 -1.33901e-20)
(1.04539 0.762755 0)
(1.16024 -0.0926917 0)
(0.676802 -0.260192 0)
(-0.162686 -0.333411 -6.94594e-20)
(-0.164403 0.150593 0)
(1.42844 0.793938 1.096e-19)
(1.21489 0.186302 4.56632e-21)
(-0.662344 0.443044 1.24166e-19)
(1.13412 0.0384121 1.12022e-20)
(1.83299 0.467154 -1.25792e-19)
(2.09367 -0.307015 -4.23346e-20)
(-0.179543 -0.0061455 -2.75918e-19)
(-0.128 -0.718255 5.85144e-21)
(0.66735 0.0781179 0)
(0.695624 -0.0351179 0)
(1.00083 -0.00141122 3.40276e-22)
(-0.541951 -0.518783 0)
(1.50166 0.0346597 -1.34443e-19)
(0.688013 -0.0313776 0)
(1.04485 -0.00188161 9.73258e-20)
(1.00027 0.0118963 -3.45722e-20)
(1.61371 -0.271725 2.21397e-19)
(1.05918 -0.013956 -7.04366e-22)
(0.948026 -0.178805 -4.23258e-20)
(1.03091 -0.0203205 2.82817e-19)
(0.66625 -0.606125 1.43688e-19)
(0.036217 -0.400948 -7.78518e-20)
(0.950227 -0.071634 1.39865e-20)
(0.0185691 0.00424203 0)
(1.13315 0.79704 0)
(1.02538 0.00401897 0)
(0.992777 -0.766535 -7.38527e-20)
(1.02963 -0.881881 7.07187e-21)
(0.940706 -0.0992484 -4.37316e-21)
(0.165141 0.894638 -6.54266e-19)
(1.11996 0.0268853 3.43714e-21)
(0.58233 -0.377393 -5.11607e-19)
(0.962762 0.0509066 -4.87068e-20)
(1.12318 -0.000414362 -1.5931e-20)
(2.05111 -0.315779 1.36039e-19)
(0.654812 -0.0756204 -2.80793e-20)
(-0.325866 -0.566888 -1.46111e-19)
(1.12233 0.555286 1.36187e-19)
(-0.139116 -0.329544 0)
(0.341263 -0.631584 5.12578e-19)
(-0.0406817 -0.0629379 8.68221e-23)
(1.03727 -0.0343631 2.54044e-19)
(1.01482 -0.00180009 -6.53573e-21)
(1.0921 -0.0111578 -7.02738e-20)
(1.0713 -0.0270967 2.12651e-21)
(1.6247 0.305661 1.7198e-20)
(0.396681 -0.371677 -2.52786e-19)
(0.999849 -0.06183 6.44502e-21)
(1.03458 0.00493581 -1.8655e-19)
(0.906013 -0.104083 -1.43929e-20)
(1.07016 -0.0341912 0)
(1.11968 0.594137 -2.53463e-19)
(1.00459 0.00298667 7.28989e-20)
(0.674825 0.60497 1.98349e-19)
(1.09859 0.056122 -1.60042e-22)
(1.05483 -0.008731 -2.28961e-20)
(1.10678 0.0211254 6.50644e-22)
(2.29023 -0.208645 2.18193e-20)
(0.386549 -0.0169766 0)
(1.05336 -0.0376886 0)
(1.06983 -0.0326263 4.4722e-19)
(0.999611 -0.00814769 0)
(-0.00434664 -0.0323517 0)
(0.947992 -0.572923 0)
(1.00079 1.02233e-06 -4.23489e-19)
(1.15068 -0.680341 5.55489e-20)
(1.01857 -0.00290479 8.83523e-21)
(1.35013 0.959458 -1.16832e-21)
(1.53483 1.00923 -1.58527e-19)
(1.1114 0.0254962 -5.80609e-21)
(1.62938 0.625189 1.76975e-19)
(0.625349 0.137045 0)
(0.110385 0.681256 0)
(2.14985 0.0563409 5.47054e-19)
(1.15269 -0.292593 0)
(0.998523 -0.00480465 -1.31188e-19)
(1.00472 0.00176739 2.54912e-19)
(1.39644 0.143218 -4.77745e-20)
(0.00792394 -0.126111 3.03174e-19)
(0.981309 0.0048763 1.37676e-19)
(0.773289 -0.0332012 4.70606e-21)
(0.786812 0.0365696 -2.31359e-21)
(1.07181 -0.0208191 1.85107e-23)
(0.903877 0.012627 -1.38537e-19)
(1.00352 0.00185759 1.64653e-19)
(1.00017 0.00189846 9.71007e-21)
(0.784214 -0.00775817 0)
(0.73014 -0.020027 0)
(0.728683 -0.0241156 7.231e-22)
(0.714923 -0.0337308 0)
(0.35842 -0.00757663 0)
(0.546055 0.0176565 0)
(0.63996 0.0066683 -8.47111e-23)
(0.803967 0.012214 -5.81346e-23)
(1.05924 0.00990647 0)
(1.07087 0.0015578 1.13048e-21)
(1.06421 -0.00922351 0)
(0.668805 -0.0104845 0)
(0.567629 -0.00709733 0)
(0.503127 -0.0148084 3.8956e-21)
(0.276073 -0.00334625 6.40271e-20)
(0.815855 0.023904 0)
(0.810943 0.023682 0)
(0.949688 0.0184177 -1.70964e-19)
(0.836444 0.011841 3.21509e-19)
(1.00516 -0.00153832 0)
(0.999142 -0.00269739 3.03583e-19)
(0.9999 -0.000261736 -3.9979e-22)
(0.813301 0.0331885 2.71232e-19)
(0.998368 -0.0120576 -1.58244e-19)
(0.807573 -0.0159101 0)
(0.59354 0.0049552 2.31566e-21)
(1.00412 -0.000872085 -1.53628e-19)
(1.00238 0.00629227 -2.63322e-19)
(1.06936 -0.0110727 0)
(0.994827 0.000920416 0)
(0.998658 -0.00097823 0)
(1.07952 0.0623988 1.55987e-21)
(1.1195 -0.00072798 4.95427e-21)
(0.961396 -0.0976565 0)
(-0.543353 0.525787 2.56909e-19)
(-0.237302 0.442587 -1.8346e-19)
(1.02223 -0.0122585 -2.0358e-19)
(-0.367768 -0.778691 -1.4562e-19)
(1.01775 0.0130293 -1.64143e-19)
(1.18013 -0.199272 -6.45223e-20)
(0.795335 -0.473378 2.37549e-19)
(-0.0202835 -0.0499684 -1.00768e-19)
(1.02326 0.0192519 0)
(1.06087 0.00123806 -4.38427e-20)
(0.861194 0.0198165 0)
(-0.0163999 0.0623741 3.47747e-19)
(1.13855 -0.207393 0)
(-0.607301 -0.592717 -3.75505e-19)
(0.72602 -0.0562537 -8.37594e-21)
(1.66958 0.687934 1.09049e-19)
(-0.0396006 -0.0668008 0)
(1.07312 -0.0269063 1.37574e-19)
(1.10799 0.0171557 6.34888e-22)
(0.921543 -0.00660629 2.19453e-19)
(1.01673 -0.00969736 -1.38837e-19)
(1.68569 0.867923 9.38563e-20)
(0.522802 0.492502 0)
(0.450399 0.410495 1.62479e-19)
(1.04212 0.0787264 -1.31722e-21)
(1.14453 0.134238 1.41725e-19)
(1.07821 -0.70784 0)
(1.01503 -0.00131358 0)
(1.004 -0.0182794 -3.19814e-19)
(1.01136 0.0136465 -3.11726e-19)
(-0.0980593 -0.324073 0)
(1.23028 0.825374 -6.6709e-20)
(1.0802 0.044745 1.70384e-22)
(1.02319 0.00386546 1.19854e-19)
(1.00723 0.0225391 -1.50768e-19)
(-0.760311 -0.480943 -3.70842e-20)
(1.09771 0.00870946 -1.03625e-20)
(1.02573 -0.0102654 5.11654e-19)
(1.06203 0.0463098 0)
(1.87544 0.657763 -1.09082e-19)
(1.01626 -0.0112379 -1.5923e-19)
(1.843 0.171717 -1.21348e-19)
(1.05462 0.011647 -3.658e-22)
(1.00837 0.00737728 3.19685e-20)
(2.09412 -0.211693 -3.37002e-19)
(1.01842 0.012222 1.54668e-19)
(1.12217 -0.0373908 1.7765e-21)
(1.02743 0.00369955 0)
(0.931306 0.149459 3.82197e-20)
(-0.824403 0.309933 5.95381e-21)
(0.987975 0.0234545 1.53967e-19)
(1.02607 0.024855 -6.5083e-22)
(1.08953 0.0309663 -1.07759e-21)
(1.25484 0.310093 2.72368e-19)
(1.00273 0.0142658 1.05569e-19)
(1.02513 -0.0131481 1.36994e-22)
(1.74867 0.238637 3.68488e-21)
(1.79101 0.949528 -1.33616e-19)
(0.766512 -0.687972 4.19739e-20)
(0.446292 -0.315065 -2.49787e-19)
(1.01109 -0.0189049 0)
(1.02713 5.81933e-07 3.85583e-20)
(1.01463 -0.00805864 8.06859e-20)
(1.10423 -0.0186683 1.00152e-21)
(1.01852 0.0106825 -1.61186e-19)
(1.03827 -0.0272962 1.83561e-19)
(1.00491 -0.00483616 -1.51245e-19)
(1.00639 0.00771581 -5.21562e-22)
(1.0181 0.00879055 -1.7382e-22)
(1.02126 0.00992949 1.54055e-19)
(0.903391 0.0831848 3.97644e-19)
(1.47992 0.569694 0)
(0.858187 0.237859 3.09151e-19)
(1.00487 1.7051e-06 0)
(1.017 -0.0233547 -4.46657e-20)
(1.54511 0.44952 -2.25497e-20)
(1.61052 0.0909925 0)
(1.40861 -0.380627 -5.13011e-20)
(1.32469 0.782055 -1.51826e-20)
(0.830289 -0.0185387 0)
(2.12521 0.0378184 0)
(0.963458 0.796843 -1.8819e-20)
(1.07443 -0.00532947 -1.40407e-21)
(1.01286 -0.00126065 -1.6213e-19)
(1.11252 -0.567342 -4.36082e-20)
(1.08484 0.0142971 -2.21698e-21)
(1.16888 -0.0202191 0)
(1.1036 0.0744981 0)
(1.29414 0.412411 0)
(0.291941 0.551517 1.37902e-19)
(1.11451 -0.0324694 7.97507e-21)
(0.351942 0.314779 0)
(0.0170304 0.600074 -4.38461e-19)
(1.70934 0.973433 -1.37896e-19)
(1.01298 -0.00780139 -3.17265e-19)
(1.09156 -0.0134865 2.02679e-21)
(1.02226 0.0218554 2.10031e-19)
(0.747858 -0.0418341 0)
(-0.0772708 -0.264158 -3.09478e-20)
(0.616231 0.444057 -2.6914e-19)
(1.39007 0.513851 2.30099e-20)
(0.25435 0.62184 0)
(0.84248 0.0649201 5.60112e-20)
(0.519796 0.49795 3.98837e-20)
(1.19317 0.888117 -1.65878e-20)
(-0.0148051 0.00729954 1.51107e-19)
(1.01932 0.0218051 0)
(1.13751 -0.0398189 6.23458e-21)
(1.0047 0.00337032 1.19033e-19)
(2.36757 -0.0755787 0)
(1.01907 0.0096568 1.99775e-19)
(0.433393 -0.62189 -2.39986e-19)
(1.01624 0.0105871 -1.2341e-19)
(1.09757 -0.0733681 0)
(1.43019 -0.476401 2.20542e-22)
(1.00011 0.00495152 -8.31763e-20)
(0.989615 -0.0288435 2.19658e-19)
(1.09415 0.111098 -2.80517e-21)
(1.13864 -0.0464754 -1.08749e-20)
(-0.172527 -0.04964 3.96128e-19)
(2.06928 0.302029 2.69119e-19)
(1.16103 -0.00754824 1.27857e-20)
(0.820188 0.0113148 -3.005e-19)
(0.833168 0.0337243 0)
(1.14321 -0.008724 8.6873e-21)
(1.0174 -0.0137332 -2.39718e-20)
(0.969281 0.0282937 0)
(1.0485 0.00419535 -1.51811e-19)
(1.13306 -0.00183453 -2.49505e-20)
(-1.64418 -0.130686 3.17946e-19)
(2.13421 -0.578823 0)
(-0.893423 -0.29717 -6.21547e-19)
(1.50077 -0.350706 0)
(1.04007 -0.0166098 4.46583e-20)
(1.04671 -0.0271267 -2.51528e-23)
(1.00364 -0.00192773 1.28906e-19)
(-1.06476 -0.151698 5.82683e-19)
(1.01786 0.00354463 0)
(0.982903 0.00318439 -3.12414e-19)
(1.01823 0.00884531 1.63797e-19)
(1.04249 0.00971002 0)
(1.0303 -0.00101784 4.5148e-22)
(0.967539 -0.00155097 -1.40978e-19)
(-0.235662 -0.783818 4.76183e-19)