/*--------------------------------*- C++ -*----------------------------------*\
| =========                 |                                                 |
| \\      /  F ield         | OpenFOAM: The Open Source CFD Toolbox           |
|  \\    /   O peration     | Version:  2306                                  |
|   \\  /    A nd           | Website:  www.openfoam.com                      |
|    \\/     M anipulation  |                                                 |
\*---------------------------------------------------------------------------*/
FoamFile
{
    version     2.0;
    format      ascii;
    arch        "LSB;label=32;scalar=64";
    class       volVectorField;
    location    "47.3";
    object      U;
}
// * * * * * * * * * * * * * * * * * * * * * * * * * * * * * * * * * * * * * //

dimensions      [0 1 -1 0 0 0 0];

internalField   nonuniform List<vector> 
2186
(
(1.36163 -0.0703472 2.92218e-19)
(1.70587 -0.999904 7.027e-21)
(1.54107 -0.971747 1.04414e-20)
(0.797343 -0.641393 -1.76557e-19)
(0.0241997 -0.351478 -1.42169e-19)
(1.00516 0.0472557 0)
(0.768153 -0.708351 0)
(0.315328 0.248235 1.33905e-19)
(1.68275 -0.135581 5.57747e-20)
(0.597876 -0.38829 -2.00712e-21)
(0.644121 0.574528 0)
(0.886322 -0.31194 -8.51245e-20)
(0.375205 0.180026 -5.35371e-20)
(1.2203 0.016933 -4.43121e-19)
(1.90887 -0.735571 -7.14812e-22)
(1.01198 -0.0116021 2.05374e-19)
(0.976125 0.0134104 0)
(-0.513947 -0.892671 0)
(0.516304 0.174791 0)
(-0.10877 0.269339 -7.61164e-20)
(0.483939 5.23663e-05 -1.29097e-19)
(0.0675664 0.12223 1.00402e-19)
(1.20242 0.0214 3.64333e-19)
(-0.285658 -0.0422862 5.64017e-21)
(1.03713 -0.00360983 -2.87195e-19)
(0.849868 -0.616896 0)
(0.77189 -0.0831434 1.67832e-19)
(0.650085 -0.627123 -2.12059e-19)
(1.17286 0.666187 0)
(0.963382 0.0202186 -3.91219e-19)
(-0.0437224 0.117721 0)
(1.0284 -0.0210106 1.35643e-20)
(-0.285166 0.268269 0)
(1.87728 0.388622 -2.86299e-20)
(-0.240555 -0.0875828 3.20254e-21)
(1.51289 0.706984 9.2994e-20)
(1.17839 0.213709 -4.43972e-20)
(0.498456 0.0506209 -3.85129e-19)
(1.83587 -0.174224 -1.81608e-19)
(0.653017 -0.175834 -1.95608e-20)
(0.281642 -0.018396 0)
(0.13355 0.149357 0)
(2.00403 -0.942069 5.47404e-20)
(-0.210416 0.261234 0)
(1.08168 0.247294 1.74114e-19)
(0.637079 -0.365661 3.22386e-19)
(0.98194 -0.835677 0)
(1.26419 -0.838652 1.59048e-19)
(1.03612 0.299127 0)
(-0.349026 -0.120118 1.72377e-19)
(-0.0246845 0.166229 1.12511e-19)
(0.609883 0.559374 9.09964e-20)
(2.21082 -0.803646 3.46626e-20)
(0.567597 0.196188 -3.10375e-19)
(-0.244753 0.153561 4.38167e-20)
(0.818685 -0.701998 0)
(1.76959 -1.03879 1.96664e-20)
(0.61786 -0.576497 0)
(1.94957 -0.0418553 4.46e-20)
(1.18157 -0.189808 -4.71874e-19)
(1.5132 -0.00324345 -1.34931e-19)
(1.29741 0.266475 -2.05045e-19)
(1.29507 0.492927 0)
(0.66708 0.288837 2.14299e-20)
(1.30441 0.360369 -1.27265e-19)
(1.32645 -0.784481 -2.33272e-19)
(1.12946 0.614418 5.99998e-20)
(0.673422 0.00673838 -6.31881e-19)
(0.820495 0.00442369 0)
(2.5386 -0.0612361 -2.12496e-20)
(0.285217 0.2457 -1.51989e-19)
(1.61734 0.37992 1.28355e-19)
(0.734177 -0.104109 -2.79162e-19)
(0.932611 -0.571353 0)
(0.809215 0.127896 -1.02889e-19)
(0.591115 -0.555209 -3.49205e-19)
(1.66403 0.258969 0)
(1.00717 0.00867542 4.25123e-19)
(-0.274719 -0.0788447 0)
(2.08108 0.0651019 0)
(0.304929 -0.707352 3.9375e-20)
(0.738521 0.19911 6.75584e-21)
(1.02397 0.000184039 4.77079e-20)
(1.27659 0.360696 3.17314e-20)
(0.972858 0.0191358 5.01403e-19)
(1.04456 0.0194627 -1.18503e-20)
(0.65348 0.106682 -3.75124e-19)
(0.781072 -0.524185 5.75801e-21)
(1.16612 -0.395279 0)
(-0.0698368 -0.0472577 6.19234e-20)
(0.9228 -0.678328 -2.04715e-19)
(-0.327681 0.10739 2.7457e-21)
(1.1432 -0.0942878 3.06056e-19)
(0.848696 -0.234404 0)
(0.971824 0.0217768 4.75781e-20)
(1.32145 0.590316 0)
(1.72773 -1.0081 0)
(1.25636 0.205865 0)
(-0.194148 -0.206496 0)
(0.854097 -0.724549 3.55514e-19)
(-0.0523578 -0.888957 5.78195e-20)
(-0.241645 -0.586508 3.74998e-20)
(1.48519 0.161592 0)
(1.17132 -0.120022 -2.7978e-19)
(1.12364 0.0221058 2.10433e-19)
(-0.286821 0.0709427 1.63568e-19)
(0.591806 0.445111 0)
(2.24498 -0.0962702 -2.54127e-20)
(1.01646 -0.527175 1.00786e-19)
(0.93277 1.46192 2.00641e-19)
(1.80074 0.157279 1.19445e-19)
(-0.303774 -0.0515286 -2.55475e-19)
(0.86846 -0.788016 0)
(0.524969 0.270739 1.88021e-19)
(1.86882 -0.188834 -1.74987e-19)
(0.0385252 -0.624751 -5.40295e-19)
(0.74891 -0.621614 -1.37067e-19)
(0.683569 0.335147 0)
(-0.0979208 -0.0571805 -1.85717e-19)
(0.723344 -0.134559 8.84434e-20)
(1.54131 0.828483 0)
(-0.393907 -0.331298 -2.599e-19)
(0.846891 0.720557 -3.063e-19)
(-0.692906 -1.20654 2.9236e-19)
(1.0285 -0.0288668 0)
(0.602458 -0.640532 1.72629e-19)
(-0.145324 -0.178737 0)
(0.754526 -0.559143 -1.2627e-19)
(-0.642563 -1.0389 -1.5468e-19)
(0.840895 -0.764222 0)
(0.485615 -0.373836 4.62272e-19)
(0.593994 -0.520909 3.21469e-19)
(0.438479 -0.396394 0)
(1.05006 -0.836517 -1.75521e-19)
(0.47055 -0.810538 0)
(-0.411221 -0.225999 -1.34965e-19)
(0.869981 -0.751833 1.74205e-19)
(2.38167 -0.171644 9.33756e-20)
(1.8517 -0.0675187 0)
(0.079569 0.252403 0)
(0.663411 0.614773 -3.821e-19)
(1.91221 -0.66158 -3.37078e-20)
(0.346064 0.331703 0)
(1.05363 -0.863052 -1.8588e-20)
(1.18184 -0.114307 0)
(1.1133 -0.143614 4.85021e-19)
(2.2095 -0.0992777 -1.07642e-20)
(-0.0335743 -0.364365 0)
(1.2915 -0.594505 -7.59101e-20)
(-0.0170148 0.273511 -5.47435e-20)
(-0.145605 -0.0366327 0)
(1.161 -0.869835 1.17259e-20)
(1.00761 0.005627 -7.10068e-19)
(0.705794 -0.545577 -1.22706e-20)
(0.871873 -0.573364 0)
(1.2748 -0.780085 -1.32491e-19)
(0.630091 0.169605 2.90807e-19)
(1.15998 0.137229 0)
(1.35765 0.022346 -3.2674e-19)
(1.2696 -0.913043 -3.17163e-19)
(0.0017642 0.217605 -8.34347e-20)
(0.080432 -1.14 -1.39774e-19)
(1.05445 -0.00127531 2.62717e-19)
(0.974734 -0.515851 -1.26727e-19)
(0.662133 -0.271678 -5.32969e-21)
(0.727924 -0.489838 -3.83525e-20)
(0.814772 -0.13627 7.76694e-20)
(-0.23941 -0.0482966 -1.61629e-19)
(2.31247 -0.613712 0)
(2.15612 -0.307153 -4.8088e-20)
(1.40384 0.595602 1.59424e-19)
(0.869563 -0.672887 -2.59375e-19)
(0.996294 0.00797867 1.45494e-20)
(0.778678 -0.593797 3.47103e-19)
(1.26834 0.747285 1.43258e-19)
(1.56992 -0.00755636 -3.108e-21)
(0.0324925 -0.492119 0)
(1.07156 0.0347853 -2.70914e-19)
(0.130098 -1.12825 -2.83621e-19)
(1.02734 0.444786 8.88588e-20)
(0.0611767 -0.129686 9.76144e-20)
(1.16615 0.0234872 -5.06395e-20)
(-0.204352 0.181227 -1.86547e-19)
(1.25401 0.532238 -8.75029e-20)
(1.10076 0.844973 0)
(-0.049286 -0.597552 -7.90692e-20)
(0.0937863 -0.469209 0)
(0.614006 0.515062 -3.08978e-19)
(1.70599 -0.107102 -6.33349e-21)
(0.225688 -0.0655768 1.76869e-19)
(-0.207126 -1.08308 -5.57654e-19)
(0.723224 0.00988725 2.77604e-19)
(1.36308 -0.112788 2.39902e-20)
(1.03021 -0.389568 -3.67582e-20)
(0.088223 0.167611 0)
(0.443139 1.67371 1.91597e-19)
(1.31716 0.93574 -2.47332e-20)
(0.835262 0.0240602 -1.52465e-19)
(0.531588 0.495086 2.14874e-19)
(0.705666 0.170171 0)
(-0.36611 -0.864292 -2.00856e-19)
(0.418204 1.63519 8.69071e-20)
(1.37912 -1.01578 9.00449e-22)
(0.994778 -0.061472 -2.21987e-19)
(-0.191655 -0.180073 7.87335e-21)
(0.0867282 -0.125246 1.28281e-19)
(-0.337023 -0.157807 -1.25863e-19)
(0.770932 0.606149 0)
(1.10753 0.0318437 -3.63709e-19)
(1.40244 -0.0802599 -1.26226e-19)
(1.3521 -0.662765 1.48769e-19)
(0.626848 -0.194968 -1.54907e-20)
(0.558677 0.254034 0)
(0.901079 0.705098 -1.81275e-20)
(0.658608 0.600975 2.04807e-19)
(0.956682 -0.618649 1.85126e-19)
(0.639381 0.440708 0)
(1.02475 -0.00906464 9.54332e-21)
(0.944771 -0.720206 2.63605e-19)
(0.799887 0.370418 -5.07161e-19)
(1.27478 -0.133868 0)
(0.0722958 0.0237526 -4.23016e-19)
(-0.265946 0.10762 -1.23774e-19)
(1.55382 0.654555 0)
(1.43983 -0.99636 -7.70859e-22)
(-0.478334 -0.774934 0)
(-0.039685 -0.22439 9.30465e-20)
(0.693694 0.607393 -1.08774e-19)
(0.88432 -0.270662 0)
(-0.393263 -0.124217 0)
(1.75609 -0.484653 0)
(-0.115436 1.40979 2.30751e-19)
(1.29507 -0.939258 2.06669e-19)
(1.24755 -0.649629 8.42718e-20)
(1.11727 -0.187302 -2.2001e-19)
(0.945849 -0.751919 -2.09559e-19)
(0.192998 -0.198343 0)
(-0.730481 -1.00177 0)
(1.06419 -0.561245 2.26306e-19)
(0.217834 0.334436 0)
(-0.334794 -0.233455 0)
(0.103913 -0.712197 4.66325e-19)
(0.747915 0.623507 9.43467e-20)
(0.97136 0.749734 0)
(0.649503 0.495909 -9.42428e-20)
(0.839438 -0.0976093 -2.5411e-19)
(0.700837 0.508154 -2.51937e-19)
(0.562473 0.518348 -1.85113e-19)
(0.0935144 0.209498 8.55648e-21)
(0.76643 -0.687771 0)
(0.882304 0.127247 -3.60935e-19)
(0.189173 0.0400183 7.2506e-20)
(0.581273 0.535014 4.17078e-19)
(0.914689 0.753759 0)
(-0.255384 0.490393 2.30625e-19)
(-0.373953 -0.0277461 2.3131e-19)
(-0.343059 -0.040613 -9.51973e-20)
(0.619166 0.516257 -1.63878e-20)
(0.970614 -0.00881397 6.85234e-20)
(0.208286 -0.152972 0)
(2.24348 0.341612 -5.44196e-20)
(1.79636 0.37576 2.55529e-20)
(0.69486 -0.643777 -9.2682e-20)
(-0.580375 -0.973993 8.31589e-21)
(1.15217 0.416161 2.00737e-19)
(0.847771 0.359651 0)
(1.09309 -0.201286 2.40799e-19)
(-0.401295 -0.352755 -2.10372e-20)
(-0.148353 0.147933 4.30735e-19)
(0.937992 0.013034 -6.24772e-20)
(1.07223 0.139585 0)
(1.88497 0.0797235 6.17201e-20)
(1.50468 -0.0257945 0)
(0.518066 0.176841 -5.0972e-19)
(0.0778983 -0.139416 0)
(0.241742 0.302367 2.93027e-19)
(0.729503 0.122568 0)
(0.678387 -0.579969 -2.11461e-19)
(1.15546 0.0109403 2.47215e-19)
(-0.174652 -0.335422 3.1715e-20)
(1.37086 0.0308536 -2.1321e-20)
(2.32738 -0.17043 -4.25064e-20)
(1.08125 0.197586 -2.44329e-19)
(0.152545 -0.0961519 -1.41504e-19)
(1.14829 -0.907454 0)
(0.81967 0.0186554 -1.79734e-19)
(0.977751 -0.424335 -3.46299e-19)
(1.79646 -0.601513 5.50684e-21)
(1.71601 -0.0347603 -9.99048e-20)
(1.06293 -0.0124861 4.35781e-19)
(-0.345429 -0.460059 -8.87065e-20)
(1.05096 -0.484497 -1.57994e-19)
(0.204383 -0.196712 2.9632e-19)
(1.00814 -0.00846066 0)
(1.00483 -0.00690967 0)
(0.915117 1.02602 3.40908e-20)
(-0.404125 0.00353594 -1.04747e-19)
(0.162055 -0.123204 -9.35744e-20)
(1.38423 0.0827964 1.15617e-20)
(0.0172557 0.462288 0)
(1.0789 -0.156476 1.01357e-19)
(1.00426 -0.873183 -1.24236e-19)
(1.91757 -0.593922 -2.61834e-20)
(1.06599 0.79152 0)
(0.507747 -0.492298 0)
(0.560926 0.462652 -1.96628e-19)
(1.05826 0.241046 -4.47886e-19)
(2.24241 -0.168809 6.34181e-23)
(0.845495 0.114263 1.55253e-19)
(-0.219019 -0.850567 -2.69172e-19)
(1.51129 -0.864926 2.15848e-20)
(-0.104265 -1.24674 0)
(-0.0877115 0.171635 0)
(0.08407 -0.735755 0)
(1.42046 -0.772898 -1.49573e-19)
(-0.179493 -0.00459855 -2.2058e-19)
(-0.0794172 -0.00373021 0)
(1.27098 0.93721 -3.8805e-20)
(1.0879 0.118888 -4.70288e-19)
(1.02151 0.10695 2.98994e-20)
(1.05457 0.891765 9.38789e-20)
(-0.315302 0.0464164 1.35073e-19)
(1.11516 -0.392989 0)
(0.0276503 -0.937913 -3.77967e-19)
(-0.219915 -0.0669522 2.39487e-19)
(0.77375 -0.0226494 2.06903e-19)
(1.52254 0.884846 -8.39447e-21)
(0.309018 -0.319968 3.44427e-20)
(-0.297344 0.179914 7.70256e-21)
(0.791798 -0.722421 -4.76543e-20)
(0.996044 -0.0454895 0)
(1.36239 -0.0499001 0)
(1.11707 0.0680758 0)
(0.925894 1.44244 -7.89104e-20)
(0.0178899 -0.908587 1.29412e-19)
(1.00575 0.800297 0)
(1.00686 -0.0212455 5.96234e-19)
(0.72203 0.550232 -2.52496e-19)
(0.709142 1.73484 -1.24715e-19)
(0.857299 -0.0269953 -4.68588e-20)
(0.763123 -0.695935 -2.72063e-19)
(1.34823 0.64561 -3.65475e-20)
(0.618076 -0.523097 -3.31047e-19)
(1.12475 -0.00745471 -5.30444e-19)
(0.834663 0.0432927 5.42834e-20)
(1.60818 -0.149928 1.22923e-19)
(1.81272 -0.161732 9.93239e-20)
(0.178147 0.250593 4.19568e-21)
(1.04058 0.423462 -2.96075e-19)
(1.46061 0.588909 8.18827e-20)
(-0.496574 -0.0254784 0)
(-0.112937 -1.04845 1.05759e-19)
(0.108424 -0.0717812 1.7985e-19)
(-0.208732 -0.114458 -8.59947e-20)
(0.434094 0.229924 0)
(1.27342 0.789452 0)
(-0.0633868 0.0661866 -1.53223e-19)
(-0.0387018 -0.0863015 -8.1543e-20)
(1.04258 -0.0344951 2.10205e-19)
(0.13408 -0.548311 -3.60978e-20)
(0.102827 -0.0091452 2.39911e-19)
(-0.282488 -0.0594131 0)
(0.889038 -0.787028 -3.89244e-19)
(1.65413 -0.200669 -1.87754e-19)
(0.149711 -1.19471 1.79549e-19)
(0.703902 0.0977189 3.65514e-19)
(0.609821 0.0605819 1.18108e-19)
(0.537246 -0.511979 2.36024e-19)
(0.379432 0.320145 -1.57996e-19)
(0.273145 0.0497562 0)
(0.350885 0.26878 -2.16716e-19)
(1.02514 -0.021699 -3.35173e-19)
(-0.241193 -1.10425 2.16132e-19)
(1.37503 0.410628 -1.36373e-19)
(0.19921 0.320143 -5.45771e-20)
(0.734407 -0.669196 -1.07595e-19)
(0.7944 0.1327 -2.29769e-19)
(0.937263 0.378134 2.52752e-20)
(1.18177 -0.158899 4.35917e-20)
(0.639344 -0.304384 -3.38471e-19)
(2.16305 -0.335219 -3.06056e-21)
(1.82865 0.121067 0)
(1.01865 -0.0784755 3.85982e-20)
(1.07514 0.220025 -4.10341e-21)
(1.27335 -0.193887 7.52247e-20)
(1.31296 0.256639 -1.9341e-19)
(0.781563 0.276898 -1.15421e-20)
(0.383307 0.338713 -2.80566e-19)
(-0.510733 -0.786876 1.92116e-19)
(2.44085 0.043424 0)
(0.920439 0.000468882 0)
(0.930244 -0.820477 8.00149e-20)
(-0.406804 -0.0444145 -2.52914e-19)
(-0.556397 -1.11704 -1.81446e-19)
(0.205817 0.288485 -1.98725e-19)
(-0.433943 -0.438624 -1.25772e-19)
(-0.0411935 -1.22691 0)
(-0.0596056 0.136374 2.87845e-20)
(0.0944563 -0.109405 -1.23836e-19)
(0.0961885 -0.14172 -2.88952e-19)
(0.821914 -0.168641 0)
(1.82568 0.165377 8.14291e-21)
(0.0764542 0.0661654 0)
(0.99337 0.0243023 4.28986e-19)
(0.0724171 -0.988388 3.24892e-20)
(0.591666 -0.493831 4.43757e-19)
(-0.0381414 -1.19373 4.67809e-19)
(0.25403 0.820023 0)
(-0.145687 -0.0519352 1.43234e-19)
(1.00611 0.0159754 -1.29541e-20)
(-0.224663 -0.13453 0)
(1.00583 -0.00910385 -6.62506e-20)
(0.922888 -0.77943 -3.62e-19)
(0.709139 1.26131 0)
(0.970778 -0.31354 2.48963e-19)
(-0.399815 -0.413546 2.16285e-19)
(0.0133259 0.0578489 0)
(-0.273065 -1.0419 -5.40337e-21)
(0.781444 -0.6859 -5.05583e-19)
(0.988466 -0.0375072 -3.22462e-19)
(-0.498905 -0.18858 3.07019e-19)
(0.0934555 0.291116 1.71886e-19)
(-0.115397 -1.33121 0)
(0.916717 0.425286 0)
(0.22821 -1.03647 1.89477e-19)
(2.40474 0.696907 -5.7144e-20)
(1.04165 0.858004 2.08001e-20)
(1.04146 0.183097 -1.38649e-19)
(1.17559 0.0101799 -2.76395e-19)
(1.09396 -0.0875303 -1.05089e-19)
(-0.455414 -0.291804 -3.26758e-19)
(1.29659 -0.00674128 -1.75987e-19)
(0.628518 0.0207736 2.33979e-19)
(1.73477 0.137262 -2.43961e-20)
(1.10064 -0.174539 0)
(1.55865 1.58554 3.66141e-19)
(1.14437 0.0230546 -5.81138e-19)
(1.70269 0.532416 1.66983e-20)
(0.792 -0.51534 -1.86985e-19)
(-0.093231 -0.040502 1.38911e-19)
(0.851413 -0.748038 4.7142e-19)
(1.1984 0.183222 8.33555e-20)
(1.00691 -0.00739666 2.93259e-19)
(-0.259496 -0.726396 -1.19318e-19)
(1.01492 0.00428448 0)
(0.808671 0.14594 9.62109e-20)
(-0.0267363 0.04719 0)
(1.01226 0.00901973 -1.7502e-19)
(0.172363 1.22813 -3.20471e-19)
(1.58807 0.183293 4.98609e-20)
(0.0664879 -0.801442 2.13229e-19)
(1.386 -0.00610829 2.34892e-20)
(1.01256 -0.0228814 6.06667e-20)
(1.36021 -0.110611 0)
(1.52919 -0.647452 -2.32158e-19)
(1.01139 0.0138505 -1.77869e-19)
(1.40863 0.736312 -6.83608e-20)
(1.37016 -0.00627755 0)
(1.40014 -0.8319 9.91106e-20)
(-0.07302 0.0754521 0)
(1.43003 0.0690148 0)
(0.0873681 -0.649887 0)
(1.19345 0.40899 0)
(1.89119 0.0220575 3.74593e-20)
(0.696346 0.565871 4.42587e-19)
(0.304899 -0.306379 -2.79302e-19)
(-0.00712399 0.0876068 -4.38631e-19)
(0.0498271 0.162871 0)
(2.04329 0.184145 -8.19066e-20)
(1.56005 0.445054 0)
(1.39051 0.25204 0)
(0.0404044 -1.20997 1.64809e-19)
(0.776063 0.679206 1.42493e-19)
(1.74436 0.00854388 0)
(0.348462 0.162281 1.04067e-19)
(0.884581 0.173681 2.11751e-19)
(2.46581 -0.244654 4.78844e-20)
(1.20991 0.884052 5.07313e-20)
(0.981158 -0.881301 -5.83748e-20)
(1.87842 -0.0524796 9.6608e-20)
(0.765364 0.687398 1.46356e-19)
(1.15256 0.88851 0)
(1.95236 0.292168 -1.42419e-19)
(1.72129 1.49926 0)
(1.91006 -0.465674 3.62787e-20)
(1.28457 0.0878302 2.32696e-19)
(1.00465 -0.00687004 0)
(0.940578 1.55536 1.99691e-19)
(0.911787 -0.218229 5.63739e-20)
(0.682454 -0.477551 0)
(0.714522 -0.447092 2.41946e-19)
(1.19824 0.513999 -3.72473e-20)
(0.451014 0.420956 3.07653e-19)
(0.11391 -0.196444 3.33839e-20)
(0.769722 -0.072261 1.39356e-19)
(0.785007 0.076602 0)
(1.40214 -0.956356 -1.50434e-19)
(1.02278 -0.0455544 4.66122e-19)
(1.62793 0.256011 1.52951e-19)
(0.27644 0.119339 8.62495e-20)
(0.255 -0.745891 0)
(1.28173 -0.256207 -1.47824e-19)
(0.0346441 0.0736158 -1.26921e-19)
(1.34505 0.685418 -5.3802e-20)
(-0.155288 0.0891593 -1.44849e-21)
(-0.212124 0.127827 3.49172e-19)
(1.07421 -0.523585 -1.03326e-20)
(2.28744 0.0989205 7.28812e-20)
(1.14829 0.408494 -3.23698e-19)
(0.768484 -0.0426919 0)
(1.32496 -0.0542606 -5.78836e-20)
(1.67353 0.122495 -1.79445e-20)
(0.974097 -0.817656 1.81562e-19)
(1.23007 -1.03553 -8.25296e-20)
(0.45745 0.420857 2.05934e-19)
(2.05328 1.41232 0)
(1.72224 0.468448 2.38069e-20)
(0.0257881 0.0955609 -2.63028e-19)
(0.851149 0.735782 0)
(0.470387 -0.270234 0)
(0.306592 -0.30737 -3.37593e-21)
(0.287565 0.235405 0)
(0.058574 -0.823859 -4.7075e-19)
(0.0364761 -0.209016 -1.02363e-19)
(1.87253 -0.453506 0)
(1.1481 0.113789 2.48447e-19)
(-0.86344 -1.25481 1.50485e-19)
(0.568772 -0.539669 -5.50792e-19)
(1.80492 0.0283245 7.12044e-21)
(0.650126 -0.592419 0)
(0.982754 0.10778 0)
(1.49091 -0.273693 0)
(1.08803 0.201142 -2.6246e-19)
(1.28593 0.0857854 3.73102e-19)
(0.131957 0.613654 0)
(0.92305 -0.0776478 0)
(1.39378 0.0405195 1.38752e-20)
(-0.17126 0.0869313 1.16257e-19)
(1.55783 0.0718987 1.68162e-19)
(1.126 -0.562439 1.17095e-19)
(1.27781 0.043435 1.9329e-19)
(-0.480385 -1.10655 -1.14481e-19)
(1.39816 -0.0530779 5.29162e-20)
(1.02131 -0.0370616 4.85586e-19)
(1.47903 0.529586 0)
(-0.160378 -0.110504 2.80211e-20)
(1.07054 -0.882413 2.35562e-19)
(0.867861 -0.0612804 5.47735e-20)
(0.687257 -0.499881 0)
(2.05279 -0.558683 -5.8836e-21)
(1.26086 -0.217105 1.99105e-19)
(2.21101 -0.223829 0)
(0.645776 -0.59865 5.68549e-19)
(0.368658 -0.0666384 8.03166e-20)
(1.40343 0.0878077 -2.92223e-19)
(-0.153822 0.0289049 -2.29216e-19)
(1.29292 0.56966 1.6785e-19)
(1.11107 0.366948 4.0714e-21)
(0.873488 0.325151 2.49324e-19)
(2.21296 0.66666 -6.50775e-20)
(-0.493815 -0.373131 1.83663e-21)
(1.17002 -0.105746 0)
(-0.149306 -0.124276 2.28106e-19)
(1.16256 -1.01065 0)
(1.13004 -0.702996 2.79892e-20)
(1.94356 0.398145 -4.39696e-19)
(0.839586 -0.822889 -1.84579e-20)
(-0.0680435 -1.29804 -3.9234e-19)
(0.950652 0.435604 1.93857e-19)
(0.639138 1.58952 8.72564e-20)
(0.677829 -0.0393001 0)
(1.61301 0.136963 0)
(0.454512 0.114956 -8.22971e-21)
(0.797529 -0.0169766 0)
(1.41903 -0.210915 -2.04878e-19)
(-0.519893 -1.26673 5.35911e-19)
(1.85718 0.390106 -2.50599e-21)
(1.02446 -0.0370664 0)
(0.59976 -0.425942 1.20455e-19)
(1.0083 0.0276125 2.29941e-19)
(1.3165 1.28626 -3.05753e-20)
(-0.524095 -0.816186 0)
(1.18042 -0.521756 6.2682e-19)
(1.70661 -0.072521 4.66827e-22)
(1.15848 -0.537863 -2.72418e-19)
(2.01798 0.0503097 7.9542e-20)
(1.2508 0.745308 0)
(0.843534 0.0143846 0)
(0.147458 -0.171448 -2.19045e-19)
(-0.0649176 0.0638684 1.72482e-19)
(0.914387 0.323035 -2.30367e-19)
(0.0609324 -0.688649 -5.45041e-20)
(0.608469 0.345851 2.69098e-19)
(1.1738 -0.735625 0)
(0.570112 -0.529183 0)
(1.2718 -1.35001 -8.25946e-21)
(1.29733 -0.543395 -1.32747e-19)
(0.781316 0.0207683 7.02376e-21)
(0.753743 -0.216412 1.34319e-19)
(-0.139657 0.114794 -3.10201e-19)
(0.728236 -0.452846 -7.4835e-20)
(0.635788 0.589798 0)
(1.23215 0.644541 0)
(1.53366 0.2243 0)
(-0.129081 -1.32967 -1.75668e-19)
(1.39171 0.541398 2.38002e-19)
(1.74567 0.218776 -6.94998e-21)
(0.878622 -0.00518473 0)
(2.05977 -0.717844 0)
(1.4259 -0.035447 1.24262e-19)
(1.20441 1.38744 3.44336e-20)
(1.00539 0.00328717 -2.29278e-19)
(1.43062 0.437853 0)
(-0.504331 -0.50097 0)
(1.20145 0.27544 3.22222e-19)
(0.982627 0.481344 -1.44082e-19)
(1.06252 0.010624 0)
(2.27424 1.09912 0)
(2.06728 0.545032 -3.21968e-19)
(-0.325718 0.084146 -1.47485e-21)
(0.998193 0.0104389 0)
(0.667155 0.414119 -3.69753e-20)
(0.995198 -0.874524 0)
(0.998575 0.0136461 5.35446e-20)
(1.23514 -0.571028 -2.96037e-19)
(0.944006 -0.367563 3.66682e-19)
(1.59389 -1.41177 1.98526e-19)
(2.25034 0.0250099 5.95616e-20)
(0.494601 0.0627141 -4.5842e-20)
(0.813051 -0.0397764 0)
(1.03289 0.0040787 0)
(0.279995 -0.956222 0)
(0.645666 0.616071 -2.09408e-19)
(-0.102348 0.0868945 2.07871e-19)
(1.12887 0.313913 -5.16425e-19)
(-0.187486 -0.56894 0)
(0.784824 0.592149 1.85995e-19)
(1.05264 -0.374386 0)
(1.00593 -0.00172352 1.34025e-19)
(1.54943 1.17587 4.70188e-20)
(0.996397 0.363387 2.8489e-19)
(1.12342 -0.409219 0)
(1.67908 -0.0916009 8.93896e-21)
(0.84436 -0.159095 -4.18494e-19)
(0.18057 -0.444013 -6.61109e-19)
(1.54906 1.36417 0)
(0.853379 0.192077 1.95204e-19)
(2.34978 0.120548 0)
(0.734395 0.467254 4.01468e-19)
(-0.350065 -0.785859 2.54173e-19)
(-0.104277 0.0517182 0)
(0.566383 0.536475 -7.82788e-20)
(1.09042 -0.691081 -1.96261e-19)
(0.521067 -0.336584 -1.34534e-19)
(1.02416 -0.0278224 0)
(-0.491563 -1.14171 -1.10624e-19)
(0.686269 -0.617469 9.52181e-20)
(0.878719 0.240831 0)
(1.39441 0.598841 -3.17246e-20)
(0.949717 0.800635 2.70273e-20)
(1.65311 -1.07998 2.6282e-19)
(0.0873326 0.0421559 -1.12326e-19)
(0.253339 -0.173775 -6.04567e-19)
(0.0375652 0.270891 8.89387e-21)
(0.78455 0.30291 2.73441e-19)
(-0.17065 -0.0655798 -5.01137e-21)
(1.49442 -0.686862 3.20211e-21)
(1.02639 -0.0065916 -4.01252e-19)
(-0.13442 -1.33995 0)
(1.02762 0.0152704 -4.64061e-19)
(2.08598 0.801164 5.41077e-20)
(0.842785 0.641614 3.1199e-19)
(1.15652 -0.0895619 1.93302e-19)
(1.01008 -0.0491327 1.85513e-19)
(0.93328 -1.13209 1.64811e-20)
(0.173627 0.133846 -1.82032e-21)
(1.8334 -0.930592 1.62853e-20)
(1.18665 -0.151549 -1.06118e-19)
(0.861417 0.0655132 1.22925e-19)
(0.951968 -0.338401 1.05564e-19)
(0.242551 0.00579276 0)
(0.91895 0.687246 0)
(1.77408 1.17239 -5.6017e-20)
(1.82477 0.0815524 4.72366e-21)
(-0.151362 -1.26389 1.97048e-19)
(1.08281 -0.583759 -6.46396e-19)
(0.666903 -0.588746 4.50213e-19)
(1.45986 -0.319773 -5.7355e-20)
(-0.0617465 -0.372485 7.43447e-21)
(2.01882 -1.18233 0)
(0.74534 0.058137 -7.54634e-21)
(2.18158 -0.858387 -6.02756e-20)
(0.998294 0.714675 0)
(1.76066 -0.768174 0)
(-0.609941 -0.389902 0)
(0.324201 0.349085 -7.01758e-20)
(0.24577 0.07548 0)
(1.31297 1.01442 -1.29623e-20)
(1.18076 0.169757 7.19812e-21)
(0.201995 1.62971 1.61578e-19)
(0.17412 0.140832 -3.31271e-20)
(1.78197 0.328134 -5.52312e-20)
(2.14491 -0.261898 -9.83688e-21)
(-0.188704 0.0527337 -2.45055e-19)
(-0.260463 -1.16379 4.02505e-21)
(0.354266 -0.0539427 0)
(0.667773 -0.0341371 0)
(0.999999 0.000542749 1.65384e-22)
(-0.0588608 -1.37717 0)
(1.47748 0.105982 5.80043e-20)
(0.673739 -0.0307636 0)
(1.07788 0.00751065 1.54698e-19)
(0.985722 0.0149899 -5.22878e-20)
(0.457076 -0.486109 -2.40833e-20)
(1.05342 -0.02511 -1.06369e-21)
(0.980336 -0.225317 -6.36867e-20)
(1.03446 -0.0443009 4.34221e-19)
(0.721584 -0.660063 2.17483e-19)
(0.143934 1.539 -1.13507e-19)
(0.393306 -0.0921303 -7.79152e-20)
(-0.0723384 0.0732297 0)
(1.08748 0.749102 0)
(1.03632 -0.0237079 0)
(1.06827 -0.827927 -1.39353e-19)
(1.10569 -0.943677 8.89021e-20)
(0.362237 -0.6009 1.32978e-19)
(1.36357 1.58442 -7.06216e-19)
(1.52421 -1.32961 -7.04107e-21)
(0.633145 -0.456129 -7.12598e-19)
(0.613695 -0.0601333 9.2216e-20)
(1.37402 -1.56272 7.47617e-20)
(2.24647 -0.272425 1.20207e-20)
(0.409467 -0.0526625 8.6522e-20)
(0.356556 0.26129 -1.53445e-19)
(1.07268 0.508231 2.18951e-19)
(-0.437947 -0.177445 0)
(0.264708 -0.83651 2.33437e-19)
(-0.135398 0.0346784 1.42626e-21)
(1.02281 -0.0458814 3.82552e-19)
(1.02744 -0.0113809 -9.95612e-21)
(1.10704 -0.0157386 -1.05856e-19)
(1.18609 -1.03899 3.98595e-20)
(1.54224 0.274779 7.34075e-20)
(0.430559 -0.407365 -3.57555e-19)
(0.75392 -0.363332 -2.5521e-19)
(1.04099 -0.0128219 -2.86125e-19)
(0.155253 -0.109487 8.0136e-20)
(1.16645 -1.19167 0)
(1.06926 0.546901 -4.1061e-19)
(1.00232 -0.00453263 1.09407e-19)
(0.636561 0.5606 2.87013e-19)
(1.55571 -1.12727 -3.52041e-21)
(1.05597 -0.0179519 -3.44841e-20)
(1.11688 0.00450924 9.82562e-22)
(1.59206 -0.0995298 -7.62106e-21)
(0.447556 -0.101254 0)
(1.04247 -0.0410285 0)
(1.04937 -0.034764 6.70506e-19)
(1.00274 -0.00212236 0)
(-0.0148025 0.132756 0)
(1.00377 -0.628643 0)
(1.00117 0.00022966 -6.36371e-19)
(1.22719 -0.730441 1.1706e-19)
(1.02441 -0.0101604 1.34619e-20)
(1.31989 0.90721 -3.10451e-20)
(1.51611 0.955774 1.24834e-20)
(1.5238 -1.44024 1.71863e-20)
(1.91089 1.04703 5.29542e-20)
(0.172683 0.088896 0)
(-0.343107 0.0260703 0)
(2.3594 0.272579 2.1494e-19)
(1.48721 -0.0813224 0)
(1.00015 -0.00432217 -1.9637e-19)
(1.01043 -0.00036655 3.81812e-19)
(1.37611 0.116855 -7.81661e-20)
(-0.0212316 -0.114694 1.7682e-19)
(0.964686 -0.00403979 2.07361e-19)
(0.968014 -0.329194 -1.5655e-19)
(0.414667 0.117366 5.0957e-21)
(1.16294 -1.20762 2.2697e-22)
(0.934758 0.0158982 -2.11592e-19)
(1.00376 0.0041827 2.47627e-19)
(1.00027 0.000322002 1.46042e-20)
(0.790171 -0.0122871 0)
(0.727192 -0.0265563 0)
(0.722445 -0.0270628 9.06087e-22)
(0.697233 -0.0286068 0)
(1.61303 -0.25575 0)
(0.151714 -0.0893119 0)
(0.412493 -0.116872 -3.77371e-20)
(0.485202 0.327343 1.97616e-20)
(0.594406 0.311774 0)
(0.507575 0.100165 2.26484e-20)
(0.867684 -0.39537 0)
(1.47987 -0.329248 0)
(0.974736 -0.13409 0)
(0.625424 -0.00274665 1.70761e-20)
(0.372961 -0.00122674 -1.62698e-19)
(0.785441 0.0218604 0)
(0.786409 0.0201129 0)
(0.971711 0.0183214 -2.60356e-19)
(0.813761 0.00904879 4.83057e-19)
(1.00911 -0.00118291 0)
(1.00025 -0.000165954 4.57174e-19)
(1.00007 -0.000646033 -2.61743e-22)
(0.788073 0.0216147 4.13714e-19)
(0.989418 -0.00930698 -2.38144e-19)
(1.39374 -0.200004 0)
(0.022917 -0.123944 -5.09993e-21)
(1.00071 -0.000768694 -2.30603e-19)
(0.999304 0.00142323 -3.96544e-19)
(1.36478 -0.583857 0)
(0.999033 0.0023093 0)
(0.999657 0.000557318 0)
(1.83936 -1.08976 -1.73569e-20)
(1.15713 -1.30436 1.0826e-20)
(0.511994 -0.231165 0)
(0.194906 -0.503743 1.65752e-19)
(1.30307 1.63662 -1.92478e-19)
(1.01852 -0.0251431 -3.07883e-19)
(0.0171528 -0.556098 -1.38827e-19)
(1.01884 -0.00884037 -2.49029e-19)
(1.22369 -0.238451 -1.52147e-19)
(0.849876 -0.527181 3.57689e-19)
(0.144246 0.249996 -7.42515e-20)
(1.03365 0.00478845 0)
(1.03233 -0.0185428 -6.63029e-20)
(0.872352 0.0203661 0)
(-0.122663 0.109939 3.06666e-19)
(1.56822 -0.256548 0)
(-0.0157509 -1.2068 -3.31955e-19)
(0.655517 -0.180091 1.26804e-19)
(1.62771 0.597792 -2.24722e-20)
(-0.0844208 0.0406431 0)
(1.05258 -0.0383839 2.07341e-19)
(1.38521 -1.19023 -6.31186e-22)
(0.926961 -0.0445222 3.23151e-19)
(1.01132 -0.0123594 -2.09265e-19)
(1.66884 0.781159 3.61925e-20)
(0.492498 0.456168 0)
(0.40578 0.3384 2.26451e-19)
(2.10236 -1.02556 2.55334e-21)
(1.12225 0.109825 2.18026e-19)
(1.15237 -0.762108 0)
(1.01983 -0.00360752 0)
(0.999764 -0.0193551 -4.81715e-19)
(1.01939 0.0118777 -4.72565e-19)
(-0.0406671 0.243872 0)
(1.1869 0.774328 -1.4625e-19)
(1.45331 -0.738551 3.74866e-21)
(1.01693 -0.000202515 1.81253e-19)
(1.01205 0.0117233 -2.27797e-19)
(-0.00585966 -1.2407 -3.23287e-20)
(1.23315 -1.08981 -1.66902e-20)
(1.01721 -0.0229266 7.71716e-19)
(1.01712 -0.145549 0)
(1.84826 0.532517 -3.7759e-20)
(1.01483 -0.0178052 -2.40824e-19)
(1.52408 0.207516 2.3347e-20)
(1.05653 -0.00312576 -5.51592e-22)
(1.01069 -0.0109766 4.80409e-20)
(2.26761 -0.0693927 -8.24298e-20)
(1.01625 0.00520968 2.34433e-19)
(0.921761 -1.39929 -2.18848e-20)
(1.01994 -0.00691782 0)
(0.914635 0.111308 5.56482e-20)
(0.577764 0.753186 6.71819e-21)
(1.00255 0.0199176 2.32863e-19)
(1.04259 0.0190806 -5.25872e-22)
(1.24025 -0.671717 -2.35534e-20)
(1.21237 0.291148 4.62931e-19)
(0.999 0.0113711 1.60717e-19)
(1.01677 -0.0185776 5.84817e-22)
(1.61508 0.170519 -3.29769e-20)
(1.87221 0.903808 -1.19473e-19)
(0.82228 -0.736975 7.54787e-20)
(0.497625 -0.408015 -3.4049e-19)
(1.00694 -0.0139149 0)
(1.02085 -0.000767968 5.82054e-20)
(1.01041 -0.0120835 1.2229e-19)
(1.18411 -1.36581 -7.64903e-21)
(1.01458 -0.00104687 -2.4414e-19)
(1.03522 -0.03593 2.81898e-19)
(1.00803 -0.00979182 -2.28531e-19)
(1.01372 -0.000104546 -4.79571e-22)
(1.014 -0.000914877 -4.24344e-22)
(1.02693 0.00844502 2.33969e-19)
(0.89402 0.0471493 5.75644e-19)
(0.43313 0.317621 0)
(1.3774 0.352651 2.43734e-19)
(1.01223 -0.00986865 0)
(1.01991 -0.0309244 -6.75304e-20)
(1.48055 0.37114 -1.02028e-19)
(1.36997 0.128554 0)
(2.28592 0.0908482 8.5562e-20)
(0.95131 0.755873 3.49727e-21)
(0.716526 -0.015905 0)
(2.36912 0.354939 0)
(0.854023 1.03752 3.09751e-21)
(0.854248 -0.992521 -1.86345e-20)
(1.01684 -0.011184 -2.45633e-19)
(1.17979 -0.606734 -7.79119e-20)
(1.00931 -0.763379 -1.13193e-20)
(0.363025 -0.686337 0)
(1.72255 -1.10241 0)
(1.10099 0.101493 0)
(0.179785 -0.257441 1.48036e-19)
(0.822078 -1.2342 3.30696e-20)
(0.464897 1.26583 0)
(-0.366404 -0.850585 -2.24049e-19)
(1.69948 0.908381 -5.31735e-20)
(1.00809 -0.00614692 -4.80153e-19)
(0.98813 -1.17261 1.4486e-20)
(1.02289 -0.0050094 3.18651e-19)
(0.660532 -0.0408871 0)
(-0.161456 0.153148 -2.13503e-20)
(0.571772 0.368899 -3.79246e-19)
(0.538673 0.455581 -4.46232e-20)
(-0.0310061 -0.281936 0)
(0.834078 0.0693671 1.03062e-19)
(0.495292 0.469009 5.74261e-20)
(1.15285 0.841558 -3.95349e-20)
(-0.0465611 0.00367716 8.96159e-20)
(1.01459 0.00124563 0)
(0.640109 -1.0627 -6.02434e-21)
(1.01173 -0.00752267 1.80122e-19)
(1.72969 -0.177352 0)
(1.01165 0.00334382 3.02324e-19)
(0.205968 -0.667037 -1.03039e-19)
(1.01897 0.00211129 -1.87201e-19)
(0.77279 -1.10859 0)
(1.8595 0.404137 -5.04916e-22)
(1.00879 0.00110541 -1.25443e-19)
(0.994561 -0.0520544 3.30686e-19)
(1.07298 0.0731693 -3.65338e-21)
(0.644161 -0.924689 6.43898e-20)
(-0.152766 -0.0991243 2.30998e-19)
(1.99526 -0.0767753 1.07765e-19)
(0.671596 -0.842972 -7.55278e-20)
(0.7986 0.0154783 -4.53738e-19)
(0.777413 0.021329 0)
(0.907876 -1.20425 -4.93572e-20)
(1.01947 -0.0299569 -3.626e-20)
(0.978466 -0.000592588 0)
(1.04822 -0.00917084 -2.29153e-19)
(1.06066 -0.610448 1.55531e-19)
(-0.0456446 -0.498863 3.0927e-19)
(2.31162 -0.602578 0)
(-0.238403 0.407974 -3.79811e-19)
(1.57993 -0.36424 0)
(1.03931 -0.0210405 6.73813e-20)
(1.39585 -0.934035 -5.66049e-21)
(1.01467 -0.0114323 1.95247e-19)
(-0.690943 -0.883327 3.70925e-19)
(1.01853 -0.00254316 0)
(0.993422 0.00391406 -4.65683e-19)
(1.00798 0.00593669 2.47885e-19)
(0.662033 0.273785 0)
(1.8825 -0.461262 3.43907e-20)
(0.956508 -0.000805663 -2.11608e-19)
(-0.176377 -0.504266 4.78509e-19)
(1.00353 -0.00209721 -2.4161e-19)
(1.00422 0.00558062 -5.68237e-19)
(1.7637 -0.639493 -3.09186e-20)
(0.337647 0.286105 -1.17234e-19)