/*--------------------------------*- C++ -*----------------------------------*\
| =========                 |                                                 |
| \\      /  F ield         | OpenFOAM: The Open Source CFD Toolbox           |
|  \\    /   O peration     | Version:  2306                                  |
|   \\  /    A nd           | Website:  www.openfoam.com                      |
|    \\/     M anipulation  |                                                 |
\*---------------------------------------------------------------------------*/
FoamFile
{
    version     2.0;
    format      ascii;
    arch        "LSB;label=32;scalar=64";
    class       volScalarField;
    location    "28.6";
    object      p;
}
// * * * * * * * * * * * * * * * * * * * * * * * * * * * * * * * * * * * * * //

dimensions      [0 2 -2 0 0 0 0];

internalField   nonuniform List<scalar> 
2186
(
1.06424
-0.0427781
0.260876
1.37701
-0.794884
0.124339
0.9784
-0.584641
-0.607085
1.62485
1.30363
-0.634398
-0.569672
1.30052
-0.266996
1.30496
1.32894
-0.812177
0.12743
-0.681247
1.6938
-0.654734
1.30924
-0.709975
1.30078
1.35111
1.5247
1.2053
0.832574
1.3008
-0.661726
1.301
-0.627161
-0.412999
-0.663602
0.330102
-0.473484
1.67876
-0.52782
0.0823447
-0.573824
-0.634492
-0.381259
-0.760846
1.16829
1.60555
0.649283
0.816653
-1.28299
-0.728314
-0.667871
1.14469
-0.375742
1.6049
-0.643467
1.25508
-0.433298
1.28302
-0.604568
1.10087
-0.936268
0.888615
0.796305
0.0824247
0.820998
0.757892
0.912547
1.58597
1.48172
-0.603581
-0.587689
-0.933152
1.56086
1.30356
1.46461
1.46627
-1.0914
1.3235
-0.674257
-0.578206
-0.877617
0.0722431
1.29627
0.869092
1.2896
1.29733
1.58537
0.137236
-0.141941
-0.666645
1.25501
-0.677263
1.219
1.46689
1.3099
0.6545
0.136966
0.840205
-0.759137
1.2967
-1.14711
-1.02154
0.900542
1.23592
1.33079
-0.664376
1.4835
-0.314727
1.23444
-1.06247
-0.548092
-0.729978
0.84352
1.59606
-0.646132
-0.600486
-0.00602396
-1.46718
-0.666639
1.56497
0.187301
-0.736511
1.10394
-0.903132
1.31004
-0.133379
-0.759873
1.45486
-0.846642
0.95925
1.70049
1.55297
0.538198
0.950933
-0.990275
-0.725472
1.22554
-0.515812
-0.450994
-0.631551
1.04518
0.0859545
-0.587692
1.00277
1.20805
1.24608
-0.299491
-0.792655
0.908657
-0.722452
-0.719979
0.879685
1.32655
1.49502
1.35093
0.827085
1.57711
0.685817
0.58345
0.722022
-0.637909
-0.645947
1.27671
1.29147
0.113515
0.1603
-0.582303
-0.664891
-0.339949
-0.430679
0.594044
1.30125
1.32969
1.42046
0.658717
-0.11231
-0.809049
1.27828
-0.715985
1.11836
-0.648209
1.3151
-0.672398
0.78821
0.765034
-0.795449
-0.684242
1.40074
-0.369356
-0.565382
-0.750153
1.55379
-1.07287
1.27876
-0.639737
-1.0845
0.297049
1.47317
1.33385
-0.660746
-0.62842
-1.27303
0.381914
1.33188
-0.648648
-0.757974
-0.676434
-1.38842
1.24187
-0.9887
0.818151
-0.0989407
1.58531
1.07559
1.17466
1.25523
1.45586
1.30429
1.20286
1.37647
0.673275
-0.609776
-0.64986
0.318917
0.489272
-0.80021
-0.768914
1.30177
1.43773
-0.762212
-0.590701
-1.5476
0.671773
0.953077
1.07479
1.20481
1.43351
-1.05049
1.18826
-0.614126
-0.74523
-0.614648
1.26097
0.973812
1.42234
1.48067
1.38117
1.35608
-0.605927
1.13177
1.40364
-0.589056
1.24643
1.02282
-1.53507
-0.662499
-0.707388
1.42272
1.3273
-0.565225
-0.408855
-0.7506
1.26428
-0.921028
1.0071
1.34503
1.15747
-0.670513
-0.668175
1.28003
0.887193
-0.229228
-0.339859
1.63148
-0.751221
-0.598322
1.13878
1.49976
1.29152
-0.777441
-0.848116
-0.463847
1.19157
-0.580172
0.848545
1.27591
1.32508
0.0938314
-0.127114
1.2611
-0.688816
1.23144
1.51122
1.32308
1.32028
-0.502161
-0.704029
-0.729356
-0.971242
-1.61564
-1.10517
0.681264
-0.26259
0.847864
1.48675
1.47901
1.19213
-0.36067
1.43735
-0.675533
-0.109788
-0.60803
-0.641809
-0.569074
0.651598
-0.714427
-0.698182
0.383604
1.20926
-0.907011
0.611381
-0.709872
-0.256725
-0.576684
-0.732827
1.51869
0.194883
-0.605139
-0.668491
1.09592
0.812808
-0.22805
0.821891
-1.02147
-0.566383
0.902796
1.32803
1.34243
-1.21779
1.45167
1.19804
0.609633
1.56315
1.30011
1.23818
0.665937
-0.633889
-0.625731
1.1343
-0.766807
-0.715946
-0.65195
-0.640488
-0.673699
1.64603
-1.05103
-0.670279
-0.599485
1.29974
-0.821475
-1.47394
-0.691972
1.0669
-0.375396
-0.656864
1.54937
1.61043
1.4423
-0.583289
-0.907647
1.65905
1.30464
-0.767398
0.691623
-0.61058
0.473696
1.46984
1.25863
1.17434
1.61556
-0.2188
-0.679382
-0.751155
-0.526493
-0.687918
-0.635098
0.0584173
1.58567
-0.818669
-0.527151
1.2907
0.888096
-0.659172
-1.09983
-0.620678
-0.76249
-0.626652
-0.647051
-0.654391
-0.761019
1.4972
-0.517393
-0.590151
1.31703
-0.662544
1.58178
-0.72595
-1.31927
-0.682723
1.30011
-0.646371
1.32579
1.15618
-1.29303
1.34629
-0.737766
-0.655807
-0.621816
1.32511
1.24245
-0.667238
-0.613739
-0.605985
1.25583
-0.671892
-0.334799
0.74667
1.2344
1.17924
1.00293
-0.651687
-0.804656
1.11296
-0.416093
1.10381
-0.611192
1.32276
0.174934
1.44488
-0.665587
1.16163
0.970245
1.33286
-0.659425
1.29657
-0.562445
-0.656189
1.30333
-1.48082
0.36345
-0.644255
0.0562019
1.30672
0.409123
0.590769
1.30448
0.467526
0.173605
0.192783
-0.670105
0.544594
-0.568725
0.963473
-0.491377
1.34014
1.45139
-0.608483
-0.643213
-0.750751
-0.652476
0.670733
-0.584202
1.08885
0.273772
-0.569119
1.38887
-0.714245
0.603478
0.599702
-0.473427
1.04968
0.574042
-0.931858
-0.534868
-0.38544
-0.577337
1.31803
-0.697082
1.41293
1.54537
1.53031
0.903634
1.43922
-0.768697
-0.581186
1.1964
0.520479
1.29185
-0.639899
-0.559199
-0.743945
1.0903
-0.648895
-0.564548
-0.678603
-0.721002
0.235918
-0.383907
0.994807
0.975626
-0.464718
-0.310201
1.05792
0.377417
1.40801
-0.448437
0.026834
-0.647814
1.01151
-0.358581
1.49144
1.67373
-0.864735
-0.767462
-0.566616
0.531123
-1.04305
1.3532
-0.326992
1.30775
1.03287
-0.747778
1.15122
1.11293
-1.41191
1.17568
-0.91443
-0.68171
-1.08723
-0.625675
-0.859928
-0.924439
-0.594334
1.30376
0.443115
-0.741731
0.896409
1.45125
1.53209
-0.0551514
1.05066
-0.242031
1.08573
-0.384318
-1.11678
-0.693825
0.739344
1.08059
1.34258
-0.350482
-0.645
-0.695015
-0.66527
0.187314
1.03749
-0.208593
0.129819
-0.616039
1.21306
-0.950014
1.25176
-0.880497
-0.547216
1.24942
0.960957
-1.03772
0.0322405
1.26322
1.61317
1.32487
-0.889952
-0.80632
1.10399
-0.819515
1.09014
-0.395081
0.683527
1.26025
-0.563649
-0.668834
1.30069
-0.687303
1.52337
0.238695
1.18806
-0.0947544
0.926314
-0.686032
1.54418
-0.67336
-1.07718
1.22576
0.764936
0.749811
-0.587428
-0.669369
-0.36662
1.05498
-0.205286
-0.726897
-0.717148
1.31864
0.634854
-0.757132
1.01301
1.16253
1.28414
-0.396389
-0.578272
-0.684849
1.31649
1.45401
0.797103
1.31258
-0.180475
1.36266
-0.0389011
-0.379846
-0.680709
1.2238
1.26955
-0.681361
1.10966
-0.67717
1.07966
-0.783449
1.26982
1.25681
1.31936
-0.61287
1.19856
-0.954866
-0.566887
1.473
-0.896553
-0.470737
1.40588
-0.511531
1.38208
-1.13829
-0.685707
1.31391
1.08829
1.68024
1.30205
-0.895148
1.40081
1.37329
-0.926245
0.884547
-0.0615453
-0.666399
1.80103
-0.626105
1.41852
-0.72751
0.60447
1.30277
-0.608573
1.29008
-0.324165
1.19036
1.24977
1.31681
0.0886336
-0.566824
-0.309014
0.878315
0.962584
1.37334
-0.534536
1.0893
-0.485535
-0.196097
-0.83477
1.14001
1.46521
-0.699718
-0.708419
-0.164144
1.53559
-0.310012
0.991218
-0.128365
-1.23173
-0.596977
-0.670055
-0.784386
1.08282
-1.19784
-0.92156
-0.109933
-0.232933
-0.697821
-0.631198
-0.544942
1.26974
1.32181
-0.588255
-0.0586193
1.28428
1.23633
1.32173
-1.19453
1.2822
1.36143
1.29895
1.37668
-1.52535
-0.254072
-0.67042
0.869595
1.30458
1.0155
0.458773
0.189165
-0.821911
0.067986
1.58105
-0.548659
0.020337
-0.347858
-0.119388
-0.577742
1.05228
-0.73483
-0.682161
-0.65648
1.3025
1.30423
1.31321
0.0236056
0.586069
1.55971
0.280544
1.29994
-0.136312
0.0920589
1.02519
1.32136
1.36537
0.148135
1.27719
1.27557
-0.927634
0.0525088
1.31369
1.32606
1.32293
-0.644639
-0.710887
1.32296
0.916641
1.3046
0.439341
0.0861578
0.169961
-0.431724
-0.53343
-0.676634
-0.332123
-0.306004
1.32858
1.33305
1.03277
-0.675503
1.30221
0.323805
0.00469468
0.00762366
1.30213
1.32745
1.32377
1.33633
1.31327
1.30638
1.29676
-0.323831
-0.0675428
0.0496979
0.0645334
0.0511955
0.0528326
-0.015971
0.252137
0.351095
0.278624
-0.296378
1.29678
1.31669
1.31153
1.33418
1.33177
1.32378
1.32698
1.30634
1.31091
0.298424
0.0188289
1.32436
1.32342
-0.0125071
1.32576
1.32413
0.0859129
0.0652519
0.104604
-0.826141
-0.627983
1.30657
-0.582904
1.30391
0.933731
1.39206
-0.628962
1.30362
1.24242
1.25185
-0.667344
-0.661146
-0.572818
0.184312
0.177434
-0.663825
1.31945
0.111257
1.39503
1.3099
0.0360432
1.45645
1.60871
-0.0849414
1.16466
0.973953
1.30252
1.32044
1.31334
-0.629619
0.730678
0.117121
1.30907
1.31863
-0.588579
0.196673
1.31053
0.0884725
-0.133171
1.31016
-0.412664
1.28928
1.32238
-0.4323
1.31572
-0.159912
1.30636
1.37813
-0.993969
1.32148
1.32915
0.225637
0.962751
1.30767
1.31244
0.391426
-0.568693
1.02877
1.67557
1.31869
1.30964
1.31403
0.0640792
1.30951
1.29606
1.31545
1.30965
1.31207
1.30857
1.41125
-1.09628
-0.320014
1.31102
1.30492
0.533935
-0.4287
-0.843519
-1.11066
1.17113
-0.458259
-1.27334
0.147908
1.30665
1.03582
0.261627
-0.780581
-0.0329992
-0.868217
-0.658104
-0.107945
-1.29449
-0.773785
-0.130784
1.31438
0.187251
1.30178
1.22136
-0.645317
1.5343
-1.2382
-0.714534
1.05442
1.41581
0.703392
-0.661621
1.30509
-0.319051
1.31236
-0.742941
1.31267
-0.706646
1.30422
-0.197876
-0.855459
1.31472
1.32949
1.24698
-0.513039
-0.666844
-0.520169
-0.472319
1.32698
1.20472
-0.216072
1.30451
1.34768
1.29737
-0.268368
-1.04614
-0.368606
-1.54879
0.637937
1.31083
0.0533251
1.30842
-1.22831
1.30591
1.34461
1.31631
0.0284211
0.0114592
1.34251
-0.603878
1.31838
1.32172
0.319284
-0.57976
1.22139
1.43446
1.30211
1.2988
-0.769786
-0.965976
1.27817
0.722601
1.31686
1.15809
-0.793377
-0.593844
1.14723
1.56015
1.30642
0.652197
-1.38408
-0.131808
-1.63093
-1.34662
1.29207
-1.00952
1.29118
-0.872057
-0.636241
-0.774971
0.721892
-0.666643
-1.60335
-0.953267
1.30311
-0.663783
1.19251
-0.616852
0.133793
-0.716696
0.284087
-1.27037
1.2768
-0.204214
-0.660116
-0.906082
-0.74534
1.29501
-1.15065
0.298969
-1.32582
1.38062
-1.50604
-0.621899
1.37518
1.29342
1.28436
0.787008
-0.643663
1.31079
1.33635
-0.516153
-0.718048
1.30261
1.10961
1.5468
1.32361
-1.16068
-1.10848
-0.709606
-0.631622
-0.777508
-0.654062
-0.165441
-0.738799
1.11349
0.286424
1.31394
1.51184
1.30186
-0.664969
-0.642308
1.30473
-1.19074
-0.879055
1.28448
0.0594974
-0.821712
-1.25221
-1.08042
1.25359
1.22515
-0.584998
1.14017
0.957037
-1.47269
1.29008
-0.699118
1.11175
-0.644079
1.29295
-1.78245
0.730282
1.30569
1.38102
-1.37622
-0.922454
1.13149
1.67866
1.32605
1.30692
-1.12535
1.57072
-0.702371
-1.12149
-0.521916
0.782205
-1.51538
1.41679
1.47795
-0.609097
-0.525927
1.30207
-0.620818
1.16071
1.3355
1.2711
-1.34035
1.3062
0.0572476
1.33361
0.045324
-1.21451
0.0890606
1.3092
0.0183315
-0.263291
-1.71053
1.30834
-1.44372
1.48456
0.572566
1.61571
1.27368
-0.627291
1.28671
-0.685924
1.27816
1.27919
-0.778977
-1.59658
1.41876
1.29452
1.51538
1.26069
0.390146
1.26322
1.29384
1.16677
1.31315
-0.742858
-0.774333
-1.43723
1.40777
-0.368836
-0.571703
-0.676116
-0.438506
-1.5609
0.0448559
1.15335
-1.38472
1.26065
1.31619
-0.723705
-0.618528
-0.673997
-0.456194
-0.704694
-0.691272
1.30999
-1.59315
1.32284
1.55449
1.36306
0.0438398
1.32958
1.23926
-0.314226
1.26676
1.28945
-0.773787
1.28861
1.23243
0.0731589
-0.783833
1.7739
-1.67009
-0.768083
-0.575966
0.547017
1.2835
-0.823713
-0.919852
-0.661507
1.44231
-0.861716
1.14333
1.32054
1.29014
-0.390988
1.27538
-1.54551
1.31926
1.33405
-0.206204
1.32408
0.778583
1.29599
1.01933
-1.32944
0.152113
0.0262884
0.119843
1.53958
0.28275
1.33572
1.69202
-0.657083
0.00306048
1.37205
0.00902711
1.36918
0.0447928
0.115804
1.36902
1.37378
0.737454
-0.722608
1.05143
-0.588626
-0.704116
-0.482865
1.32925
1.30353
1.7505
-0.662865
-0.958558
1.05692
-0.580335
1.38159
1.2917
1.29654
1.29795
1.26363
-0.750074
-0.653535
-0.617902
1.11324
1.22887
-1.56402
-0.703522
-0.623316
1.32192
1.33995
-0.397753
-1.01005
1.34353
-1.56104
0.493481
1.06171
1.21409
-0.765826
-0.578787
0.0203894
-0.567645
-0.607836
-0.225688
-1.62028
1.70465
1.65307
-0.845577
-0.577626
1.32202
1.29851
-0.784472
0.242851
-0.0527094
0.941152
1.40349
-0.610074
1.31402
-1.35875
-0.581368
-0.678409
-0.786616
-0.760441
1.29
-0.564561
-0.541311
1.65898
-0.560292
1.31544
1.52779
-0.705707
1.36832
1.58096
-0.788728
1.53553
-0.5616
-0.59585
1.32485
-1.10475
1.33681
1.31718
-0.566347
1.36693
0.457619
-0.776083
1.35011
1.35572
-0.602753
-0.635773
1.25396
1.30789
-0.587964
-1.48552
1.57461
-0.574373
1.21809
-0.29951
1.24931
-0.66999
-0.647797
-0.613251
-0.803743
1.38744
1.34056
1.61987
1.50017
1.27283
1.36912
1.35967
-0.621072
1.4281
1.47016
-0.746093
-0.579783
-0.769375
1.61478
-1.49075
-0.60142
0.0273477
1.23247
-0.760352
-0.875225
1.31641
1.34482
-0.605351
-0.712667
-0.595833
0.253412
-1.46266
-0.77405
-0.628252
1.18502
1.21577
-0.69081
-0.217135
-0.56276
1.13546
-0.575354
-0.822737
-0.634801
1.2681
-0.704377
-0.722146
1.66112
1.20323
0.710071
1.52376
-0.428819
1.30455
1.32043
1.43197
1.53745
-1.16754
0.974809
1.30708
0.579766
-0.640756
1.73171
1.27063
1.21935
1.37175
-0.733627
-0.55555
1.16359
1.10591
1.2723
-0.647826
-1.06825
1.29548
-0.639973
1.13366
-1.16789
1.70479
-0.646519
1.03003
1.05942
-0.676377
-0.651658
-0.790557
1.37983
-0.68052
-0.664416
1.02018
0.910598
-0.683756
1.37661
1.14971
-0.684936
-0.951104
1.26444
-0.524683
-0.656655
-0.618781
-0.661656
-0.369012
1.2891
1.31856
-0.938627
0.939099
1.31405
1.64727
0.59139
0.57487
0.301249
1.20319
-0.140772
-0.673222
-1.44051
-0.348051
-0.670702
1.30216
-0.672493
0.461387
-0.659937
0.841168
0.888827
-0.667577
0.955438
-0.367949
0.815547
-0.665039
0.764476
-0.674404
0.709554
-0.665625
0.67836
-0.662756
1.14053
-0.680544
-0.664061
-0.671606
-0.662882
1.32421
0.404908
-0.701932
-0.67239
0.323625
0.40362
-0.670179
-0.657244
-0.747185
0.196479
-0.685713
0.154261
-0.719247
-0.0601609
-0.828142
0.0227655
1.19811
0.0202039
-0.669332
1.29144
0.196236
-0.130686
0.761882
1.27891
-0.917484
-0.927972
-0.669084
-0.764157
1.20204
1.7157
-0.473327
-1.47759
0.337462
-0.566557
-0.125784
-0.0518964
1.28221
-0.811248
1.26144
-0.988809
1.77569
0.767399
1.75285
-0.70454
1.51888
-0.3065
1.33046
-0.394982
-0.667925
1.40244
1.3032
-1.19792
-0.660989
-0.668828
1.27868
-0.620292
1.2947
-0.787446
-0.625967
-0.611909
1.61338
1.34598
1.4378
1.32416
1.32444
-1.4927
-0.190084
1.50045
-0.332235
-0.584985
1.70769
-0.695748
1.22174
1.26445
1.68422
1.75055
-0.686452
-0.711424
1.34508
0.539106
-0.147824
-0.61854
-0.73984
-0.69174
-0.710349
0.863493
-0.806593
1.5302
-0.378901
1.34403
1.43846
1.34467
-0.892087
-0.672853
-0.60835
1.39822
-0.627487
1.46866
-0.498928
-0.716003
1.5332
1.63533
-0.676938
0.367225
1.25423
-0.655381
-0.784359
0.972549
1.56693
1.53966
-0.756873
1.18768
1.14356
-0.666381
1.55375
0.569662
-0.696919
-1.07756
0.145894
0.0418308
1.41637
-0.677569
0.545811
-0.088014
-0.100468
-0.794023
-0.683519
1.30058
-1.07902
1.33003
0.173186
0.40013
1.0005
0.571537
-0.669742
-0.388003
-0.887546
-0.459303
0.0257714
-0.883189
1.23161
-0.645675
-0.320805
1.31729
-0.588702
-0.748001
1.32205
-0.75886
1.26864
0.120114
-0.643119
-0.0293951
1.09999
-0.590526
-0.637298
1.19927
-0.620158
1.38281
-0.275324
-0.655544
-0.567999
-0.6652
1.81536
-1.3825
1.44096
-0.053647
1.27194
1.49476
1.03199
1.33516
1.45437
0.112004
-1.36078
1.27772
1.41215
1.68292
-0.560253
1.35701
0.965551
-0.559088
1.10304
1.53846
-0.354837
1.63407
0.42205
-0.866857
1.1515
-0.562655
-0.667573
1.24963
-0.238892
1.36701
1.38118
1.26871
-0.838813
1.20938
1.55448
-0.786809
-0.0860178
-1.53472
-1.01224
-0.628428
-0.656843
1.68444
1.06609
-0.7984
1.23173
-0.568199
-0.657547
1.60165
1.51869
-0.99202
-0.692568
-0.664146
-0.627373
1.28446
-0.781364
0.384115
-0.650322
-0.214027
1.37393
-0.583327
1.67927
1.35648
1.18759
1.33239
1.59429
-0.693179
-0.574783
1.32607
1.46352
-0.865664
1.31563
-1.23497
-0.616126
-0.595554
1.37862
1.40746
-0.608167
-0.779691
0.859257
0.231548
-0.721519
1.29181
1.25497
-0.774514
1.29546
1.33866
-0.710374
-0.751416
-0.816191
-0.624213
-0.600721
1.63975
-0.794431
1.20775
-0.769718
1.64042
1.18835
1.15821
1.24953
-0.648554
-0.416879
-0.63131
0.813055
-0.717422
1.24014
0.607931
-0.356512
1.1682
1.32719
1.34792
1.31772
0.0348588
1.34828
0.0707843
0.721932
1.10496
-0.346821
-0.738595
-0.767091
-0.483097
1.32036
1.28924
1.31993
-0.618693
-0.507975
-0.63754
-0.598844
1.31758
1.58147
1.33088
-0.727556
-0.748795
-0.718298
-0.327535
-0.66125
-0.665394
0.0320789
1.30532
-0.896391
-0.687905
0.00684239
0.213626
1.00696
-0.942752
-0.644044
-0.692868
1.24337
1.74187
0.102443
1.41189
1.78815
0.944373
1.50919
-0.75484
-0.671098
1.7288
-0.649042
0.616405
-0.708539
-0.596426
-0.663705
-0.678716
1.28834
1.04879
1.48472
1.44669
0.0433576
1.09636
0.303775
0.0352735
-0.654137
1.42077
1.00876
1.32586
1.34258
0.221529
0.0584978
1.33964
-0.3936
-0.669062
-0.682818
-0.674915
0.897964
-0.675138
1.26991
0.9847
-0.650137
1.56031
-0.730887
-0.100046
1.29108
-0.730044
-0.606448
-0.451398
0.878154
-0.693951
-0.728603
1.2033
1.33415
-0.215906
0.349391
-0.481821
-0.658358
-0.549586
-0.785048
0.106099
0.916417
-0.665979
-0.673183
1.55635
0.523585
0.629789
-0.669446
-0.59257
1.30996
1.36802
0.804854
0.850539
-0.666229
-0.569687
-0.50792
0.724985
0.758622
-0.66382
1.14835
0.400717
-0.66071
1.73466
-0.66449
-0.552494
-0.600289
-0.609448
1.16167
-0.681669
-0.793586
-0.675669
0.316971
-0.721106
0.249077
-0.842661
0.269064
1.47585
-0.780431
0.132132
-0.702578
0.0609167
1.63123
1.72287
1.52206
1.31605
1.49849
-0.510469
1.30226
-0.739938
1.36407
-0.670141
-0.734269
1.59119
-0.455109
0.789181
-0.859093
1.71902
0.201871
1.6552
0.876305
1.07118
-0.700694
-0.716681
-0.668274
-0.70697
1.62126
1.49383
1.29988
0.934137
1.30491
1.1865
1.0961
-0.661841
-0.638274
0.519352
0.254661
1.06986
1.31849
0.27828
-0.697618
-0.658701
-0.772913
-0.668346
-1.29014
1.67332
1.33708
1.31352
0.167281
0.0478565
1.33586
-0.638029
-0.658676
-0.361416
-0.565092
1.05883
-0.686665
-0.666374
-0.00779168
1.31234
-0.671816
-0.603087
1.30444
0.924581
1.01943
1.30333
-0.662649
1.15287
1.50078
1.15607
-0.664139
1.2983
0.669133
0.72436
-0.68221
-0.677418
1.74431
0.553874
-0.752863
0.332799
1.19245
1.27038
-0.577742
-0.651622
0.18305
-0.615544
-0.595668
-0.80068
-0.00949936
1.29837
-0.769092
1.29633
1.59362
1.4144
1.29328
1.37922
1.44138
1.30698
-0.709606
-0.361995
-0.197148
-0.746841
-0.600363
-0.665343
1.44792
1.34216
-0.572513
1.27029
-0.828158
-0.825382
-0.665006
-1.05201
0.843816
-0.719854
1.29499
1.186
-0.766263
-0.0993582
1.64331
-0.713375
-0.775832
-0.723082
-0.805995
-0.635219
1.349
1.05237
1.40835
-0.604394
-0.612412
-0.627821
-0.142404
-0.568065
-0.367524
-0.821737
-0.591217
1.19466
-0.504451
1.7812
-0.919799
-0.287574
-0.694342
-0.664506
1.23545
-0.701077
-0.615812
-0.743828
-0.0220267
1.48093
1.53782
-0.530794
-0.575847
1.10332
-0.684251
-0.632599
1.41604
-0.820402
-1.28919
-0.695737
1.02777
-0.141104
-0.565233
1.29865
0.272349
-0.676866
1.31054
-0.790695
-0.866098
-0.781353
-0.745686
0.219529
-0.565936
1.60483
-0.6454
0.465254
-0.669213
1.06975
-0.577587
-0.686944
0.918222
1.0652
1.36271
1.26723
1.47655
-0.680486
1.15046
0.854642
-0.800631
1.23276
-0.159508
-0.589289
-0.592806
1.49521
1.4794
-0.578929
-0.722451
-0.64505
1.29621
-0.786705
0.334134
-0.757473
-0.669193
1.57148
1.30215
-0.707982
-0.829633
-0.707122
-0.693156
1.2071
-0.74837
1.26622
0.485081
0.979674
1.11477
-0.647426
-0.738205
1.22634
-0.668067
0.0620293
1.58812
-0.632811
-0.690012
1.09435
-0.799444
-0.808692
0.104093
-0.579681
1.66559
-0.3533
0.444602
-0.712957
1.63323
-0.72709
-0.837455
0.913235
-0.735982
-0.670086
1.65184
0.94409
1.32831
-0.803319
1.51705
-1.02075
-0.524737
-0.787706
-0.788683
-0.733162
1.54937
0.843167
-0.603879
-0.722787
-0.562612
1.42353
-0.872889
1.60808
-0.668771
1.00766
-0.682019
0.631186
0.804917
0.769391
0.685296
0.490751
-0.849442
1.29936
-0.779618
-0.492715
-0.714726
0.577644
1.64945
-0.00907136
-0.810774
-0.739702
-0.685107
0.520445
-0.912504
-0.679162
1.16132
0.490338
-0.699418
1.71565
-0.564484
-0.913618
1.67309
-0.689098
0.4012
-0.836022
-0.665286
-0.676115
1.68928
-0.657178
1.59157
-0.673989
-0.767475
1.46969
0.0706968
-0.8321
0.832884
-0.572324
0.261659
-0.12843
-0.68012
1.11076
-0.650334
-0.68028
-0.666839
-0.66667
-0.672913
1.1479
0.0811428
-0.138378
-0.702933
1.6186
-0.565031
-0.817444
-0.641369
0.132587
-0.802196
-0.650828
-0.696817
0.196753
1.53219
-0.737301
-0.660822
-0.783981
-0.452902
-0.0029781
-0.677862
1.70678
1.6346
0.676349
-0.729698
-0.670042
0.5879
-0.666258
1.71453
0.462188
1.39506
0.971152
1.61204
0.338852
-0.811218
-0.70577
0.17975
-0.780868
0.179522
0.186444
-0.673633
1.61148
0.0123805
0.474376
-0.0930521
-0.643799
-0.746809
)
;

boundaryField
{
    frontback
    {
        type            empty;
    }
    Top
    {
        type            zeroGradient;
    }
    outlet
    {
        type            fixedValue;
        value           uniform 0;
    }
    bottom
    {
        type            zeroGradient;
    }
    Inlet
    {
        type            zeroGradient;
    }
    rectangle
    {
        type            zeroGradient;
    }
}


// ************************************************************************* //
