/*--------------------------------*- C++ -*----------------------------------*\
| =========                 |                                                 |
| \\      /  F ield         | OpenFOAM: The Open Source CFD Toolbox           |
|  \\    /   O peration     | Version:  2306                                  |
|   \\  /    A nd           | Website:  www.openfoam.com                      |
|    \\/     M anipulation  |                                                 |
\*---------------------------------------------------------------------------*/
FoamFile
{
    version     2.0;
    format      ascii;
    arch        "LSB;label=32;scalar=64";
    class       volScalarField;
    location    "6.3";
    object      p;
}
// * * * * * * * * * * * * * * * * * * * * * * * * * * * * * * * * * * * * * //

dimensions      [0 2 -2 0 0 0 0];

internalField   nonuniform List<scalar> 
2186
(
0.818605
-0.349814
-0.0462242
1.05949
-1.31555
0.0103043
0.662741
-1.24565
-1.22737
1.29147
0.970866
-0.940069
-1.27075
0.988271
-0.557068
0.99011
1.01653
-1.94984
0.00189012
-1.07882
1.36652
-1.00012
1.00127
-1.04198
0.993633
1.03461
1.19989
0.890432
0.49234
0.992095
-1.06005
0.994894
-1.0504
-0.306953
-0.944112
-0.0164041
-0.280452
1.35322
-0.979767
0.00306126
-1.30806
-1.01127
-0.685379
-1.05375
0.833415
1.27357
0.333518
0.504512
-0.19252
-1.64844
-1.07518
0.808228
-0.655892
1.28118
-0.968652
0.94008
-0.741766
0.967468
-1.10746
0.854199
-0.172284
0.547339
0.451051
0.00630324
0.479641
0.448755
0.572874
1.25929
1.15632
-1.25989
-1.257
-0.162499
1.23409
0.988279
1.13617
1.14457
-0.233818
1.00983
-0.955051
-0.965668
-2.3038
0.00942565
0.979916
0.531661
0.978678
0.981851
1.25871
0.0111453
0.0162214
-0.977067
0.940935
-1.17475
0.91299
1.14598
1.00452
0.31124
-0.167268
0.499309
-1.48554
0.981654
-1.56224
-1.94673
0.566409
0.949242
1.01609
-1.25554
1.15887
-0.711206
0.921789
0.214819
-0.866712
-1.46125
0.527505
1.27491
-1.10807
-1.14631
0.0149689
-0.103377
-0.986952
1.23774
-0.159366
-2.01047
0.766913
-1.93531
0.993593
0.0173087
-1.40633
1.13337
-1.87844
0.643396
1.36156
1.22476
0.223491
0.635646
-2.05052
-1.75251
0.910725
-1.0192
-0.582701
-1.08668
0.707058
-0.203734
-1.1995
0.688307
0.913539
0.945241
-0.676368
-1.34213
0.602649
-1.06283
-1.29865
0.56606
1.01453
1.17131
1.03424
0.51549
1.25164
0.349946
0.237696
0.409871
-1.0771
-2.25773
0.955515
0.97688
0.00533407
0.00346286
-0.880412
-0.830914
0.0086508
-0.000237795
0.251724
0.986173
1.01754
1.10095
0.316815
-0.39013
-1.2795
0.956605
-1.92096
0.78229
-0.853518
1.00477
-1.08448
0.442384
0.423863
-1.3133
-0.96648
1.07248
-0.588528
-1.27007
-1.37835
1.22752
-0.860595
0.964396
-1.05746
0.17455
-0.0501904
1.14661
1.00246
-1.04374
-1.61222
0.175377
0.06923
1.02015
-0.966701
-1.27771
-0.98134
-0.0493156
0.923594
-0.488234
0.514443
0.0126525
1.26248
0.738012
0.838794
0.940751
1.12938
0.995884
0.88898
1.04385
0.38545
-1.0604
-1.12331
-0.0273016
0.176463
-2.08545
-1.3759
0.969094
1.12049
-0.84526
-0.866497
0.139601
0.357677
0.643978
0.801335
0.890863
1.11409
-1.44456
0.875095
-1.13875
-1.61405
-1.13236
0.927181
0.634857
1.09441
1.15921
1.05113
1.02593
-1.22269
0.81693
1.07454
-1.30315
0.912197
0.684312
0.0445379
-1.06356
-1.03707
1.09545
1.01325
-1.31477
-0.77627
0.0284757
0.949127
-2.08198
0.664858
1.01171
0.861993
-1.19515
-1.09546
0.968356
0.561899
-0.474333
-0.542416
1.30772
-1.27759
-1.22256
0.84285
1.17601
0.978235
-1.43606
-0.422506
-0.853479
0.857561
-1.34268
0.533524
0.964707
1.00986
-0.199261
-0.382606
0.940728
-1.40711
0.919347
1.18733
1.00701
1.00081
0.074873
-1.63391
-1.03899
-0.200242
-0.0652879
-0.61781
0.365161
-0.546615
0.507647
1.16352
1.15492
0.859043
-0.696118
1.10876
-1.87554
0.0128546
-1.82798
-1.06574
-1.30046
0.344718
-1.30252
-1.17616
0.0380168
0.877575
-0.0314848
0.269042
-1.44856
-0.000334036
-1.25717
-1.41147
1.19327
-0.152389
0.020459
-1.13908
0.780863
0.464372
-0.498142
0.544437
0.183841
-1.37238
0.563128
1.02033
1.01115
0.224514
1.12825
0.883362
0.266984
1.23403
0.987962
0.919388
0.375987
-0.0510704
-1.1039
0.797296
-1.15411
-1.00859
-1.99628
-1.01624
-0.979667
1.32689
0.0483213
-1.082
-1.3216
0.98791
-1.23518
-0.211836
-1.63412
0.751835
-0.0123399
-2.26449
1.22158
1.28463
1.12195
-1.2161
0.0215358
1.34147
0.989726
-1.451
0.347725
-1.15975
0.159122
1.14053
0.924273
0.886372
1.28354
-0.490824
-0.0816447
-0.0338702
-0.227088
-2.32509
-0.986994
0.0145769
1.26686
-2.36018
-1.45817
0.968486
0.57226
-1.08851
-1.29402
-1.11998
-1.89775
-2.11553
-1.04325
-1.228
-1.27452
1.17442
0.0209867
-1.08886
1.00303
-2.2479
1.25081
-1.72907
0.151531
-1.701
0.990678
-0.822557
1.013
0.841968
0.0796822
1.03244
-2.13097
-1.02368
-1.62929
1.00921
0.930663
-1.21835
-1.18126
-1.89869
0.921528
-2.45924
-0.97178
0.405592
0.90199
0.868327
0.691964
-1.2674
-0.439897
0.794728
-0.575326
0.834401
0.0914445
1.00197
-0.168827
1.12357
-0.987377
0.847224
0.635897
1.01534
-1.77385
0.978922
-0.188181
-1.01755
0.995254
0.240987
0.0371788
-1.07526
-0.232198
0.996698
0.114835
0.289993
0.986856
0.122453
-0.136362
0.00661846
-1.07928
0.26134
-1.37683
0.62413
-0.91343
1.00892
1.13109
-1.26693
-1.05818
-0.0340766
-1.0299
0.320172
-1.27404
0.751584
-0.0311368
-1.26007
1.05891
-0.00595398
0.260229
0.284289
-0.0289199
0.711747
0.231172
-0.0883472
0.0604951
0.0275376
-0.799687
1.00101
0.0943987
1.09758
1.21746
1.2031
0.561312
1.11345
-1.28593
-0.902838
0.909026
0.210116
0.970663
-0.903073
-1.24459
-1.73745
0.796833
-1.0314
-0.508545
-1.06496
-1.11967
0.0144738
-0.728768
0.655299
0.645885
-0.553443
-0.501171
0.743388
0.0636572
1.08006
-0.0895213
-0.311991
-1.03759
0.672812
0.0153771
1.16853
1.35657
-1.25929
-1.32849
-0.78775
0.166534
-1.74688
1.03638
-0.461388
0.991847
0.697001
-0.825739
0.814767
0.783196
0.0114582
0.876108
-0.257751
-1.13051
-0.422626
-0.934993
-0.322726
-1.72098
-0.599066
0.989868
0.10038
-1.38594
0.580992
1.12925
1.20547
-0.34975
0.75532
0.0339798
0.770595
-0.0174184
-0.480195
-1.1857
0.396117
0.740969
1.00886
-0.600197
-1.29947
-2.17518
-0.978446
-0.124823
0.724747
-1.22552
0.00113525
-1.6907
0.878492
0.146661
0.938771
-0.140031
-0.170517
0.942832
0.658418
-1.30068
-0.297258
0.951452
1.28038
1.00434
0.119795
-2.20037
0.793203
-0.110907
0.780822
-0.735074
0.342025
0.948173
-1.25978
-1.08772
0.967098
-1.96323
1.19818
0.00833926
0.873229
0.0277157
0.621085
-0.73313
1.21798
-1.09882
-1.29686
0.890962
0.423532
0.402471
-1.77012
-1.06601
-0.502837
0.742695
0.016589
-0.541891
0.085686
1.00267
0.291247
-2.05721
0.677246
0.827027
0.964532
-0.508463
-0.950305
-1.20542
1.00501
1.1266
0.480816
1.00273
0.0475479
1.04674
0.0335601
-0.819746
-0.117627
0.921044
0.959049
-2.23325
0.772787
-1.11604
0.744323
-1.41177
0.936061
0.943404
1.00067
-0.0839373
0.862405
-1.716
-0.7115
1.15212
-1.00269
-0.00326399
1.07528
-1.28046
1.05145
-0.885761
-1.14167
0.981798
0.776617
1.34302
0.990589
-2.35064
1.08241
1.04062
-0.00208812
0.54471
0.0395985
-0.995938
1.46661
-1.11513
1.08736
-1.32257
0.305864
0.991182
-1.83364
0.966561
-0.445938
0.854538
0.945292
1.00512
0.00358967
-1.20692
-0.615585
0.574393
0.627283
1.0585
-0.0345897
0.752024
-0.431766
-0.440038
-1.50542
0.827006
1.14368
-1.4835
-1.51366
0.0255662
1.20817
0.0275635
0.65247
0.0386863
-1.26207
-1.2006
-1.02201
0.0478566
0.751487
0.171831
0.0150082
-0.427389
-0.526331
-1.08936
-1.90341
-0.0465471
0.955531
1.00954
-1.75736
-0.33743
0.965595
0.942519
1.00647
-1.28902
0.962981
1.04841
0.984456
1.05919
0.202975
0.00665981
-1.09399
0.529507
0.993781
0.701635
0.144333
0.0131054
-0.0409592
0.0276826
1.2505
-0.00338107
0.0260132
-0.650394
0.000295876
-1.24597
0.714961
-0.903768
-2.43123
-1.01326
0.979241
0.996994
0.98848
0.00676986
0.223399
1.23148
0.0145164
0.983212
0.00770614
0.00695377
0.687152
1.00824
1.03532
0.0214291
0.956461
0.961577
-0.583365
0.00657234
0.989523
1.00373
1.01182
-1.05003
-1.01668
1.00916
0.604683
0.995397
0.0942773
-0.264183
0.0229376
-0.174062
-0.0783213
-1.32257
-0.925192
0.0436893
1.01367
1.01398
0.697845
-0.986687
0.98383
0.0115664
0.0207766
0.00631097
0.988335
1.01517
1.01003
1.01452
0.996972
0.98802
0.981293
-0.0027936
0.01946
0.00857816
0.0134186
0.00150313
0.00409311
0.00272682
0.00880096
0.00794209
0.0109309
-0.00562823
0.98491
1.00303
1.00104
1.02179
1.01759
1.00995
1.01021
0.994936
0.99396
0.00422762
0.0184337
1.00923
1.0073
0.00261066
1.01418
1.01042
0.0207833
0.0203756
0.00973501
-1.22004
0.220984
0.994004
-1.43195
0.98781
0.632728
1.07328
-1.09948
0.993181
0.924237
0.935673
-1.08236
0.0458282
-1.46459
0.00727801
-0.169626
-1.05458
0.999516
0.0163007
1.07563
1.00137
-0.312123
1.13164
1.29024
0.0153795
0.836754
0.660726
0.987766
1.00259
1.00372
-1.12492
0.389253
0.0162815
0.998785
1.00182
-1.36466
0.0162786
0.996707
0.0159236
-0.485588
0.997431
-0.391667
0.973305
0.998296
-0.908072
1.00138
0.0271599
0.990451
1.04991
-0.00497941
1.00943
1.01167
0.0165775
0.623086
0.998744
0.997907
0.0154709
-0.942489
0.713486
1.33801
0.99719
0.997659
0.99927
0.0147795
1.00145
0.979185
0.994807
0.99589
0.995105
0.993308
1.08417
0.0102958
-1.33582
1.00594
0.988694
0.200271
-0.292723
-0.0376322
0.044375
0.858594
-1.2355
0.097553
0.0058322
0.991296
0.725464
0.00927644
0.031444
0.0201361
-0.0450002
-1.53509
0.0200976
0.127772
-2.46039
-0.485627
1.00227
0.00777
0.989146
0.909602
-1.06857
1.21054
0.0108355
-1.99168
0.763054
1.08868
0.361421
-1.00334
0.988708
0.026053
1.00125
-0.769238
1.00345
-2.28769
0.988865
0.021547
-0.0861573
1.00368
1.01406
0.91756
0.0306988
-0.973577
-1.00222
0.0384317
1.01362
0.891251
0.0280438
0.989464
1.02922
0.977863
0.0493098
-0.710794
-0.641445
-0.0525165
0.340242
1.00101
0.00572835
0.99708
-1.0541
0.992357
1.02953
1.00395
0.00157507
-0.000415636
1.02967
-1.43194
1.00324
1.00658
0.0259011
-1.23527
0.886608
1.10365
0.987599
0.981223
0.0503056
0.0650851
0.964779
0.407617
1.00515
0.844296
-1.25913
-1.19788
0.831805
1.23294
0.990878
0.342915
0.0673765
0.0331734
0.17446
0.111049
0.98125
-0.291777
0.971944
-1.56389
-1.07097
-1.30733
0.38224
-1.53203
0.055944
0.0919773
0.988694
-0.993525
0.856742
-1.13118
-0.177452
0.0526223
0.00834608
0.0998978
0.963143
0.0397497
-0.627069
0.07325
-1.23815
0.981161
0.128971
0.00497014
-0.82226
1.0481
0.0347574
-1.12511
1.05523
0.978369
0.969712
0.495092
-0.807318
0.992445
1.01428
-0.0397411
-1.23
0.988282
0.79546
1.2217
0.998586
-0.0722589
0.135438
-1.3269
-1.70692
-1.4167
-1.02523
0.035317
-1.78217
0.799422
-0.0267228
0.999039
1.18363
0.986794
-0.97501
-1.6627
0.990073
0.14664
0.0806413
0.971023
-0.214648
-1.12402
-0.609448
0.0360885
0.930006
0.90733
0.00344984
0.870173
0.616825
0.200992
0.981726
-2.63593
0.789491
-1.10866
0.979872
0.167469
0.429747
0.990236
1.05183
-0.645376
-1.24336
0.810607
1.35011
1.01212
0.974196
0.179669
1.24134
-0.922271
0.0680395
-0.816926
0.466835
-0.234253
1.09476
1.15409
-1.15533
-0.0979787
0.983854
-0.687041
0.851205
1.02009
0.948765
-0.813405
0.992029
-0.000571148
1.02018
0.00353564
0.0679986
-0.261249
0.996533
0.020957
-0.620494
0.0647624
0.998026
0.0881861
1.15764
0.258325
1.29575
0.94024
-1.01985
0.975046
-1.1665
0.953168
0.967788
0.057006
0.0877302
1.08919
0.976694
1.19201
0.942232
0.0961138
0.937803
0.981121
0.831606
0.994946
-1.28683
-1.50275
0.174684
1.09424
-0.265969
0.0955737
-1.11579
-0.240636
0.0518598
0.0162099
0.817069
0.0556822
0.952379
1.00779
-1.25411
-1.49322
-0.810068
-1.14582
-1.40658
-1.15238
0.990789
0.0934814
1.00554
1.22562
1.04428
-0.303999
1.01432
0.922308
-0.494977
0.961584
0.971525
-1.24894
0.969589
0.89751
0.019764
-0.657007
1.43756
0.0169244
-1.51575
-1.45269
0.23175
0.978996
-1.60458
-0.0203911
-1.05637
1.11499
0.121588
0.806906
1.0023
0.982106
-0.635374
0.971575
-0.109974
1.00262
1.0098
-0.519793
1.00795
0.437809
0.990198
0.710908
-0.917045
0.0036824
-0.000592581
0.0343133
1.21309
0.00643982
1.01197
1.36892
-0.0930303
-0.00206595
1.05865
0.00813941
1.0571
0.000127986
0.010168
1.04808
1.05307
0.420923
-2.6311
0.713571
-0.829035
-1.49862
-0.838832
1.01341
0.993037
1.40833
-1.00029
0.115161
0.741616
-1.46161
1.05475
0.957717
0.98618
0.978763
0.960091
-0.916174
-1.02915
-1.99905
0.778172
0.909303
-0.196166
-1.18025
-1.16745
1.00656
1.02877
-0.258897
-1.24301
1.02607
0.126795
0.1681
0.72398
0.879015
-0.00703328
-1.57889
-0.3163
-1.22161
-0.831539
-1.15721
0.132011
1.36361
1.33726
-1.15729
-1.1244
1.00386
0.983004
-1.46512
-0.050492
-0.362884
0.601796
1.07946
-1.83797
0.997823
0.0458746
-1.54381
-1.11122
-1.51896
-1.16628
0.985267
-1.18038
-1.70073
1.3373
-1.21081
1.00051
1.20127
-1.19477
1.05074
1.25046
-1.27637
1.21539
-1.23469
-1.62297
0.99194
0.0476515
1.0209
0.998318
-1.2407
1.05304
0.157193
-0.558418
1.02909
1.03885
-0.910229
-2.05571
0.929557
0.987516
-1.20645
-0.491915
1.25632
-1.2368
0.895503
0.0208259
0.943162
-0.901705
-0.298224
-1.14301
-1.25305
1.05909
1.03022
1.28584
1.1779
0.939271
1.04601
1.02912
-1.12017
1.10176
1.14851
-1.26962
-1.23104
-1.32072
1.29783
0.0804407
-1.56993
0.0359089
0.897472
-1.28773
-1.08169
0.98422
1.02803
-1.16631
-1.20987
-1.48987
0.0107788
-0.534987
-1.28349
-1.09769
0.84902
0.900563
-1.15087
-0.534136
-0.875964
0.798647
-1.24152
-1.2167
-1.07869
0.953156
-2.64179
-1.23205
1.32344
0.914268
0.4169
1.1981
0.0548077
0.988687
1.00239
1.11446
1.21129
0.0143714
0.63557
0.974038
0.26437
-1.0585
1.4032
0.969428
0.912814
1.0601
-1.25384
-2.29749
0.861001
0.769667
0.9593
-1.387
-0.34709
0.980772
-1.09968
0.834511
0.032854
1.38894
-1.04337
0.691501
0.743377
-1.10824
-1.02913
-2.26253
1.06118
-1.12071
-1.00155
0.704838
0.570874
-1.56357
1.05431
0.841129
-1.13351
-0.952614
0.936574
-1.37438
-1.01564
-1.45177
-1.05513
-0.744144
0.959414
1.00769
0.0451701
0.62269
0.997924
1.32198
0.288316
0.232063
-0.0429295
0.889237
-0.444533
-1.09707
0.0218564
-0.67524
-1.08594
0.983112
-1.12441
0.117027
-1.00479
0.500823
0.572555
-1.07177
0.642181
-0.673382
0.499214
-1.05855
0.423477
-1.10038
0.392662
-0.984426
0.336454
-1.04562
0.826208
-2.40289
-1.04331
-1.04966
-1.00667
1.00928
0.0909533
-1.08962
-0.969487
-0.023141
0.0828047
-1.10144
-1.05027
-1.14138
-0.116653
-0.985875
-0.195811
-1.02489
-0.416231
-1.22539
-0.288224
0.86878
0.0212309
-1.82497
0.968523
-0.117742
0.0165961
0.463662
0.963919
-2.41105
-0.214038
-0.96966
-1.65917
0.90224
1.39419
-0.201346
0.030846
0.0380821
-1.20027
-0.430741
-0.348916
0.952636
-1.15043
0.953352
-0.900911
1.45715
0.474516
1.40928
-1.18949
1.19385
-0.653561
1.01411
-0.805136
-0.974319
1.08343
0.992561
-1.37816
-1.00841
-1.06127
0.9464
-1.54714
0.980326
-1.10237
-1.33048
-1.15063
1.28712
1.01618
1.11812
0.995212
1.00999
0.0386347
-0.522613
1.17765
-1.6978
-1.12083
1.38972
-1.24433
0.902679
0.954576
1.35371
1.41168
-1.33584
-2.68753
1.02909
0.244368
-0.457336
-1.0014
-0.0339338
-0.0557316
-1.20738
0.554532
-1.49684
1.20483
-0.41967
1.01181
1.10803
1.01299
-1.62807
-1.02185
-1.36208
1.08001
-1.2037
1.14417
-0.810528
-1.35741
1.21138
1.3003
-0.935693
0.0220117
0.944676
-1.59694
-1.49306
0.671509
1.24725
1.21336
-1.69438
0.860231
0.807405
-0.979073
1.22594
0.227222
-1.16635
-0.00530031
0.0131832
0.0194669
1.086
-1.0765
0.201923
0.0168218
0.0409621
-0.96623
-0.963213
0.976245
-1.74552
0.999432
-0.172313
0.0924502
0.704196
0.271348
-0.936596
-0.755566
-1.19345
0.0068103
0.016606
-1.18497
0.896816
-2.21451
-1.70097
0.985098
-1.57689
-1.29055
1.00799
-1.30923
0.93449
0.0113092
-1.12768
-0.310496
0.795167
-0.777573
-2.29505
0.889187
-1.2652
1.06809
-0.583294
-1.30314
-1.15644
-0.992479
1.47164
-0.385183
1.11982
0.0190425
0.956927
1.16751
0.727403
1.02347
1.12913
-0.218075
-0.349478
0.968391
1.09214
1.34654
-1.19625
1.03092
0.62651
-1.22648
0.792096
1.21125
-0.713138
1.31776
0.0784317
-1.12077
0.838604
-1.23875
-1.04931
0.953712
-0.596748
1.05389
1.0627
0.936855
-1.19067
0.873801
1.23544
-1.58524
-0.410192
-0.220498
-1.41086
-1.28376
-1.01252
1.34496
0.752225
-1.26813
0.916714
-1.24064
-1.14932
1.26937
1.19753
-2.06876
-1.79007
-0.993222
-1.21764
0.978024
-1.28195
0.0904091
-1.00051
-0.528682
1.05624
-1.22181
1.36355
1.03298
0.881045
1.00552
1.27693
-1.41031
-1.2387
1.01656
1.14045
-0.959119
1.00441
-0.17153
-1.13593
-1.18551
1.04901
1.08015
-1.15908
-1.3351
0.558198
-0.0570842
-1.988
0.96618
0.920651
-1.56811
0.962567
1.00729
-2.35203
-1.27779
-1.23701
-1.11407
-1.17953
1.30489
0.0600149
0.872257
-1.2935
1.30458
0.871571
0.821768
0.914389
-0.590389
-0.184286
-1.09096
0.472526
-1.22472
0.92508
0.291582
-0.712063
0.833332
1.01093
1.03251
0.993306
0.00830166
1.03683
0.00673395
0.428629
0.771143
-0.664276
-1.26426
-1.16363
-0.823187
1.00455
0.973936
1.0084
-2.44053
-0.814471
-1.07064
-0.975164
0.992434
1.26072
1.00956
-1.24568
-1.07037
-1.48282
-0.678472
-0.999086
-0.991845
-0.315358
0.979294
-1.0329
-1.14391
0.0115804
-0.0887227
0.66808
0.132651
-1.0536
-1.80438
0.910476
1.40929
0.00925797
1.09405
1.46191
0.604898
1.18129
-1.3116
0.0281073
1.38635
-1.03668
0.326615
-1.20264
-1.1917
-1.05171
-1.11524
0.978752
0.733322
1.16129
1.12132
6.24301e-05
0.780994
-0.0387833
0.00488818
-1.02217
1.10169
0.669966
1.01422
1.02401
0.00704607
0.00527993
1.02831
-0.457124
-0.989823
-1.12921
-1.05757
0.598608
-1.10354
0.960092
0.668726
-1.03611
1.23148
-1.26068
-0.454867
0.97976
-1.02798
-1.20035
-1.99192
0.538122
-1.16265
-2.11085
0.867996
1.01953
0.0194565
0.0545882
-1.76372
-1.00953
0.0772705
-2.56409
-0.176809
0.600091
-1.40064
-1.09149
1.23564
0.180127
0.287544
-1.0794
-1.20794
0.994623
1.05057
0.464219
0.53412
-1.06486
-1.17631
-0.750337
0.38357
0.441863
-1.05138
0.830409
0.0554205
-1.03816
1.4172
-1.03908
-1.91813
-1.17658
-1.00173
0.846227
-1.06404
-1.27137
-0.972804
0.00327429
-1.11299
-0.0990293
-1.14827
0.011542
1.14768
-1.17741
-0.179985
-1.00655
-0.291401
1.31367
1.38241
1.20028
1.00107
1.17576
-0.885043
0.984516
-1.2585
1.0472
-0.965647
-0.99315
1.2596
-1.0752
0.495017
-2.56326
1.38222
-0.139435
1.32119
0.536272
0.73538
-1.18157
-1.21187
-0.978946
-1.84639
1.29273
1.16593
0.983625
0.642415
0.991903
0.871185
0.759278
-1.05056
-1.20738
0.136298
0.0106153
0.732826
0.999736
-0.0325095
-1.20462
-1.04566
-2.54538
-0.970311
-0.338081
1.3349
1.02361
1.00045
0.00818384
0.00618537
1.02324
-0.0806934
-1.00938
-0.971577
-1.22527
0.720893
-1.1332
-1.0771
-0.308575
0.987606
-2.69601
-1.17322
0.98992
0.608588
0.718258
0.987916
-0.998797
0.816835
1.17666
0.841376
-0.98706
0.986979
0.352323
0.382902
-1.25214
-1.10934
1.41939
0.262315
-1.47606
0.0228508
0.8574
0.937678
-1.15989
-1.89555
0.00945131
-1.3347
-0.915941
-1.28198
0.0165859
0.981849
-1.63
0.969132
1.26322
1.09545
0.962035
1.04717
1.11151
0.99404
-1.61245
-0.670699
-0.557018
-1.05374
-0.947572
-1.06814
1.11761
1.00942
-1.24002
0.966248
-1.03263
0.0679658
-1.04895
-0.00699885
0.545308
-2.09487
0.980249
0.850182
-2.33296
-0.40913
1.31562
-2.66963
0.0910819
-1.59058
-1.28798
-1.03697
1.03597
0.715035
1.08899
-1.55295
-0.119115
-0.939097
-0.494034
-1.24299
-0.710433
-1.68592
-2.205
0.859331
-0.765237
1.43756
-1.31805
-0.553296
-1.00809
-1.06479
0.933485
-1.03037
-1.43921
-1.07381
-0.308996
1.15728
1.21013
-1.08935
-0.124945
0.766529
-0.992705
-0.858193
1.09846
-1.72347
-0.66016
-1.79842
0.68966
-0.410894
-1.23993
0.983423
-0.0885636
-1.37829
0.990506
-1.07339
-1.50187
-1.66544
-1.15005
-0.0976767
-1.24499
1.28542
-1.04457
0.17051
-0.972118
0.732228
-0.908808
-1.16802
0.578648
0.76778
1.045
0.966232
1.14752
-1.08304
0.860099
0.561709
-1.59
0.900769
-0.516091
-1.13124
-2.4631
1.16995
1.15506
-1.13109
-1.13344
-1.46283
0.963472
-1.14139
0.0153054
-2.01147
-1.08362
1.24961
0.968331
-1.19496
-1.20162
-1.22778
-1.15461
0.892673
-1.327
0.932266
0.141303
0.640576
0.778156
-1.02016
-1.1883
0.892014
-1.07205
0.0151369
1.26107
-1.08292
-1.14115
0.757109
-1.62189
-1.24464
-0.183665
-1.19789
1.33456
-0.613035
0.141769
-1.20734
1.2978
-1.23298
-1.18718
0.573514
-1.76166
-0.973858
1.31903
0.604674
1.01196
-1.26456
1.19556
0.00206515
-0.872908
-1.28098
-1.29786
-1.24738
1.2293
0.502915
-1.17598
-1.22691
-1.23014
1.09203
-1.06723
1.27496
-0.978082
0.668746
-1.12332
0.288981
0.464337
0.428406
0.343551
0.186856
-1.12206
0.96546
-1.28367
-0.861263
-1.58751
0.289859
1.3132
-0.286975
-1.25049
-1.31412
-1.13383
0.176898
-1.30317
-1.11698
0.846575
0.200302
-1.16797
1.37439
-1.23625
-1.41853
1.34022
-1.14289
0.0562586
-1.07308
-1.05638
-1.10637
1.35012
-1.05788
1.26206
-1.10058
-1.18862
1.14043
-0.271412
-1.16253
0.492511
-1.19543
-0.0861166
-0.398928
-1.11727
0.808081
-1.45846
-1.12102
-1.06377
-1.05461
-0.974875
0.847119
-0.270304
-0.441519
-1.18046
1.28796
-0.885694
-1.22836
-1.01769
-0.167407
-1.20123
-1.02301
-1.16629
-0.137286
1.21119
-1.28039
-0.964213
-1.82376
-0.762127
-0.355794
-0.985017
1.37206
1.30492
0.334539
-1.25158
-0.974019
0.245111
-0.978654
1.38155
0.117917
1.07662
0.631917
1.27896
-0.00681694
-1.20477
-1.28336
-0.169938
-1.29361
-0.169705
-0.107017
-1.09767
1.28243
-0.325438
0.130192
-0.421023
-0.976371
-1.31747
)
;

boundaryField
{
    frontback
    {
        type            empty;
    }
    Top
    {
        type            zeroGradient;
    }
    outlet
    {
        type            fixedValue;
        value           uniform 0;
    }
    bottom
    {
        type            zeroGradient;
    }
    Inlet
    {
        type            zeroGradient;
    }
    rectangle
    {
        type            zeroGradient;
    }
}


// ************************************************************************* //
