/*--------------------------------*- C++ -*----------------------------------*\
| =========                 |                                                 |
| \\      /  F ield         | OpenFOAM: The Open Source CFD Toolbox           |
|  \\    /   O peration     | Version:  2306                                  |
|   \\  /    A nd           | Website:  www.openfoam.com                      |
|    \\/     M anipulation  |                                                 |
\*---------------------------------------------------------------------------*/
FoamFile
{
    version     2.0;
    format      ascii;
    arch        "LSB;label=32;scalar=64";
    class       volScalarField;
    location    "48";
    object      p;
}
// * * * * * * * * * * * * * * * * * * * * * * * * * * * * * * * * * * * * * //

dimensions      [0 2 -2 0 0 0 0];

internalField   nonuniform List<scalar> 
2186
(
1.15218
0.145115
0.435366
1.41413
-1.07618
0.105572
1.08438
-0.781788
-0.020415
1.59935
1.11245
-0.465127
-0.768509
1.25705
-0.0594707
1.22622
1.27185
-1.25747
-0.00299696
-1.41563
1.62076
-1.31622
1.26065
-0.533392
1.25214
1.39453
1.46579
1.27548
0.541818
1.25513
-1.37099
1.25207
-1.52039
0.0589156
-0.440347
-0.0528016
0.254919
1.59989
-0.694731
-0.0466434
-0.778286
-1.29309
-0.176654
-1.45792
0.96229
1.58312
0.790954
0.951634
0.890815
-1.43338
-1.39215
0.916994
-0.16371
1.50347
-1.53254
1.31661
-0.22945
1.33927
-0.606752
1.17516
0.74968
0.622144
0.50742
0.0654376
0.543623
0.899942
0.635484
1.51158
1.40306
-0.142907
-0.80951
0.777359
1.50624
1.35723
1.35173
1.48209
0.722476
1.26417
-0.456819
-1.04293
-0.832889
0.0127343
1.2495
0.598469
1.25092
1.25148
1.48963
-0.0353555
0.510856
-0.440574
1.31906
-1.45111
1.23791
1.45407
1.25933
0.33156
0.319836
0.565825
-1.228
1.35041
-0.195599
-0.42939
0.639635
1.26564
1.27476
-1.53189
1.34326
0.0471558
1.30236
-1.64708
-1.0122
-1.39474
0.968193
1.48788
-0.0642532
-0.71583
0.196461
0.856868
-0.444144
1.51919
-0.228247
-1.65182
0.867614
-1.23592
1.23293
0.1446
-1.22886
1.47376
-1.25037
1.06853
1.65846
1.54703
0.69349
1.0618
-0.470799
-1.56975
1.29364
-0.149683
-0.212428
-0.594507
0.796215
0.300481
-0.760632
1.1075
1.2448
1.28164
0.0649035
-1.07456
1.0357
-1.43158
-1.35522
1.00533
1.26745
1.50445
1.39392
0.959211
1.47219
0.423345
0.32415
0.864915
-0.554977
-0.726064
1.16627
1.34609
0.201503
0.142954
-0.398335
-0.469449
0.107464
0.375339
0.268046
1.3552
1.27189
1.44767
0.333941
-0.171037
-0.985284
1.16277
-1.33374
0.887607
-0.454435
1.26308
-1.42296
0.490783
0.456818
-0.963518
-0.834344
1.23621
-0.275188
-0.715203
-0.881659
1.47426
0.189535
1.33255
-0.509526
-1.33374
-0.1102
1.38053
1.15043
-1.38812
-0.817187
-0.799191
0.545194
1.29219
-0.450957
-1.22923
-0.468576
0.836869
1.11349
0.331019
0.959789
0.665069
1.47538
0.832434
0.954511
1.31955
1.30671
1.25237
1.27662
1.20967
0.870571
-0.773002
-1.50951
-0.061961
0.64666
-1.34813
-1.18299
1.11056
1.4349
-0.528922
-0.404611
-0.883214
0.815188
1.07236
1.1639
1.27806
1.45816
-1.26914
1.26762
-0.702348
-1.3475
-0.735487
1.06044
0.708493
1.26317
1.43146
1.21081
1.17985
-0.824427
1.21543
1.27787
-0.852691
1.04199
0.767831
-1.0051
-0.516286
-0.377996
1.26427
1.25683
-0.743145
-0.215194
0.298865
1.3239
-1.15097
0.751975
1.17083
1.21061
-0.466064
-1.41738
1.25215
0.641612
0.171793
-0.199904
1.53659
-1.24689
-0.801992
1.19332
1.50892
1.25537
-1.14142
0.265273
-0.0962586
0.997454
-0.831944
0.973492
1.24396
1.36931
0.318888
0.262582
1.13449
-0.423123
1.30025
1.51824
1.25481
1.25258
0.176499
-1.59716
-0.506214
0.665038
0.821625
0.424371
0.818683
-0.0386781
0.556586
1.49697
1.33796
0.990757
-0.012892
1.32293
-0.493549
0.212403
-0.788077
-0.534174
-0.703576
0.805751
-1.37883
-1.39057
-0.00203854
1.03012
0.0594875
0.273538
-1.44813
0.622596
-0.719089
-1.34155
1.44781
-0.225385
0.021532
-1.45786
1.18621
0.561554
-0.204876
0.989588
-0.697997
-0.731898
0.62275
1.28018
1.16192
-1.02065
1.38202
1.26964
0.275702
1.55443
1.21661
1.23836
0.865885
0.682534
-0.593978
0.908766
-1.5013
-0.499012
-0.609684
-0.806647
-0.457877
1.55501
0.165276
-1.4006
-0.909442
1.21718
-0.945821
0.613353
-1.64949
1.16226
0.598672
-1.00419
1.44911
1.52325
1.46419
-0.76461
0.000988424
1.57207
1.22738
-0.93942
0.384119
-0.729869
0.632901
1.35022
1.06262
1.22424
1.5863
0.0893672
0.744078
0.104722
0.229208
-0.411003
-1.29119
-0.00489791
1.47774
-1.48122
-0.25197
1.20165
1.00782
-0.581973
-1.19652
-0.623022
-1.4019
-0.799494
-0.499369
-1.53551
-1.19582
1.46977
0.100787
-0.769786
1.26345
-0.595552
1.56748
-1.24039
-1.84732
-1.69199
1.2501
-0.455603
1.25594
1.2369
0.287751
1.37371
-1.73446
-0.444359
-0.864331
1.37207
1.24229
-0.605253
-0.772021
-0.784282
1.05701
-0.811213
-0.810202
0.434746
1.06547
1.21103
1.11483
-0.709775
0.151441
0.915444
0.101219
1.17593
-1.61846
1.2684
-0.223185
1.46535
-0.439861
1.24054
0.72482
1.26216
-0.545755
1.20095
0.300437
-0.435409
1.25293
-1.1599
0.0839141
-0.773448
-0.0999835
1.23082
0.661093
0.761976
1.20782
0.105939
0.482211
0.506948
-1.39943
0.770199
-0.75048
0.710411
-0.876273
1.1588
1.47149
-0.880209
-0.492015
0.603285
-1.3539
0.379738
-0.733824
0.849861
0.556843
-0.744902
1.24945
0.418731
0.261701
0.746833
0.633209
0.801918
0.228523
0.787941
-0.886262
-0.29065
-1.347
1.25298
-1.27361
1.41231
1.5414
1.52886
0.627666
1.28686
-1.17378
-1.47498
1.21903
0.679373
1.20321
-1.16734
-0.722332
-1.47454
1.18445
-0.452418
-1.81631
-1.443
-1.50217
0.0782798
-0.108264
0.737772
0.752131
-0.123101
0.101028
1.15439
0.539838
1.24418
-1.05855
-0.390043
-0.456315
0.75424
0.141012
1.50158
1.59363
-1.56955
-1.19795
-0.365443
0.278444
-1.1667
1.39324
0.128374
1.35838
0.821907
-0.538792
0.956734
0.919371
-1.77825
1.21352
0.498217
-1.41586
0.476967
-0.409891
0.407639
-1.17498
-0.0630019
1.2557
0.0901485
-1.2923
1.01475
1.39433
1.53212
0.179579
1.15311
-0.295283
1.17776
0.231273
0.496611
-1.40194
0.430878
0.843369
1.17046
-0.726207
-0.794551
-0.409171
-0.455837
0.360409
1.13992
-1.03662
0.0452449
-0.86006
1.00308
-0.808026
1.13189
0.785186
0.350261
1.24119
1.08253
-1.37066
-0.362968
1.15455
1.5912
1.26945
-0.522468
-1.49076
1.20231
0.777027
1.18822
-0.595222
0.363901
1.14991
-0.703046
-1.40116
1.1183
-0.325877
1.39377
0.515455
1.26292
-0.698104
1.05126
-0.338425
1.50891
-1.41369
0.126367
1.01703
0.461691
0.461941
-0.798389
-1.43805
0.111782
0.850903
0.206869
0.0503793
-0.485136
1.25505
0.325471
-1.53985
0.773222
0.94038
1.18039
-1.01312
-1.22578
-1.4581
1.2611
1.30452
0.925659
1.25907
-1.03055
1.39525
-0.886575
-0.0186075
0.216024
1.23827
1.25414
-1.08592
0.87493
-1.41152
0.85426
-1.03384
1.07086
1.30969
1.25332
-1.51825
0.989649
-0.240594
-0.224203
1.4389
-1.79481
-0.785408
1.26461
-0.289805
1.21222
-1.62532
-1.40759
1.12586
1.1831
1.64093
1.24874
-1.31517
1.43113
1.21586
0.598868
0.600598
-1.03635
-0.220586
1.73945
-0.633235
1.26333
-1.33834
0.773744
1.24969
-0.866423
1.18854
-0.356428
0.971826
1.25958
1.2711
-0.0154914
-0.719373
-0.107937
1.0254
1.08853
1.39841
0.168961
0.848691
-1.57611
-0.245118
-1.34376
1.22958
1.48173
-1.01744
-0.260476
-0.363692
1.44272
-0.450753
0.729053
-0.743306
-0.251522
-0.766664
-1.34064
-0.167801
0.875352
-1.71629
0.12864
-0.512751
0.0893944
-1.4698
-0.725481
0.14477
1.165
1.26125
-0.804784
0.296168
1.19066
1.24612
1.26591
0.134752
1.18296
1.375
1.26565
1.41254
-0.903643
0.332899
-1.40366
0.582703
1.26968
1.12151
0.616572
0.390753
-1.87142
-0.50523
1.56686
0.26756
-0.598291
-0.011283
0.280722
-0.767659
0.807241
-0.480667
-0.486877
-0.457232
1.22085
1.25389
1.23409
0.127538
0.285546
1.55358
0.495746
1.25969
0.255866
0.30022
0.770946
1.25563
1.19101
-0.297435
1.16526
1.17397
0.211731
0.34956
1.23594
1.25312
1.25621
-0.47738
-0.491357
1.25879
1.0377
1.25148
0.065041
-0.361838
-0.507275
-0.792654
0.211152
-1.52655
-0.516982
-0.41358
1.26007
1.26393
0.811406
-0.453417
1.21999
0.606724
0.147472
0.00794847
1.25666
1.26789
1.25956
1.26406
1.23712
1.22638
1.21111
0.595659
0.542124
0.088701
-0.00915775
-0.0662888
0.0126636
0.00801869
0.741182
0.733607
0.51308
0.282979
1.25458
1.2653
1.26145
1.27836
1.27344
1.26086
1.25932
1.25887
1.23294
0.743497
0.0972825
1.25774
1.26155
0.051983
1.26479
1.25877
-0.0681854
-0.355338
0.31998
-0.9595
-1.17
1.23774
-0.862115
1.24731
1.06953
1.42455
-0.575561
1.25041
1.1191
1.23405
-1.40287
-0.701862
-0.761694
0.39618
-0.22946
-1.39127
1.24478
-0.341016
1.32862
1.23801
-0.408741
1.3092
1.5065
0.0987184
0.982068
1.08638
1.22881
1.24903
1.2559
-0.673675
0.417921
-0.0667693
1.23948
1.26032
-0.751346
-0.29164
1.23833
0.0827254
-0.592244
1.24281
0.183673
1.19576
1.25115
-0.0870552
1.25873
-0.453521
1.24753
1.25237
-2.03733
1.26834
1.27392
-0.0371348
0.710567
1.25461
1.24266
0.0713884
-1.2116
1.12847
1.63859
1.24733
1.25409
1.24807
-0.275255
1.25016
1.25756
1.2456
1.24596
1.24416
1.25274
1.30896
0.169954
-1.47341
1.25251
1.23428
0.223975
0.143604
0.676216
-0.0274505
1.01103
-0.494613
-0.247066
0.0596336
1.24427
1.14388
0.0571229
-0.341332
-0.164561
0.0494211
-1.68257
-0.241248
-0.446623
-1.67316
-0.630404
1.25493
-0.117426
1.24175
1.08369
-0.574737
1.40762
0.175576
-1.79056
1.14651
1.25606
0.382669
-0.434383
1.22148
-0.374662
1.25023
-0.0946719
1.25262
-0.34592
1.23951
-0.121986
0.783823
1.25149
1.27208
1.08388
-0.573103
-0.445046
-0.88311
-0.715737
1.27283
1.05893
-0.698613
1.23149
1.28249
1.21216
-0.926086
-1.85186
-0.138171
-1.35218
0.826902
1.2369
0.395856
1.25145
-1.15791
1.23463
1.27382
1.25574
-0.0619247
0.129844
1.28464
-0.934726
1.25839
1.25917
0.511627
-0.750722
1.01154
1.28598
1.2381
1.21519
-0.748588
-0.733845
1.24734
0.859582
1.25442
1.24037
-0.919598
-0.754165
0.978455
1.5313
1.22867
0.803717
-0.114817
-0.909641
-0.215309
-0.333338
1.25579
0.560876
1.20053
-1.14048
-0.521972
-1.17441
0.435946
-0.482397
-0.0497883
-0.574807
1.23632
-0.440549
0.974615
-0.64401
0.310343
-0.780735
0.0666312
-0.507779
1.17872
-0.958151
-0.345324
-0.697661
-0.460192
1.2561
-0.41477
0.139825
-0.0658164
1.22151
0.0818541
-0.657915
1.30388
1.25275
1.2529
0.946074
-0.424721
1.22837
1.24181
-0.328677
-1.33755
1.23709
1.19845
1.42523
1.24962
0.802505
-0.441948
-1.41033
-0.912901
-0.96459
-0.446755
-0.679094
-0.196557
1.20301
0.453919
1.26245
1.39945
1.2221
-0.449858
-0.700424
1.2359
-0.136044
-0.507648
1.25171
0.39572
-0.857917
-1.45402
-0.437275
1.11877
1.08206
-0.0526509
1.19977
0.688064
-0.444024
1.25841
-0.776996
0.916474
-1.52073
1.33259
-0.164071
0.885156
1.23883
1.21065
0.262073
-1.51906
0.951457
1.61001
1.25738
1.11734
-0.498197
1.56073
-0.225345
-0.660577
-0.324358
0.912971
0.375246
1.34152
1.48908
-0.689198
-0.227386
1.22396
-0.162423
1.24412
1.26517
1.13731
0.486961
1.23566
0.108862
1.27569
0.204552
-0.471177
-0.359312
1.2411
0.0825028
-0.751477
-0.144177
1.31426
-0.431017
1.34417
0.723114
1.51506
1.07593
-0.375129
1.26265
-1.41904
1.16208
1.18191
-0.709813
-0.262431
1.25921
1.20377
1.38429
1.14666
0.583349
1.13559
1.2696
0.974339
1.23914
-0.178882
-1.12877
-0.405441
1.39597
-0.201036
-0.509271
-1.42266
-0.389502
-0.211826
0.35205
0.928516
-0.484178
1.24976
1.31185
-1.32766
-0.213078
-0.213486
-0.353293
-0.862982
-1.39163
1.22121
0.0903246
1.25117
1.54476
1.30224
-0.282628
1.25758
1.1129
-0.2625
1.26549
1.18985
-0.877585
1.19603
1.02397
-0.0589446
0.093017
1.71144
0.455742
-1.02916
-0.819447
0.698582
1.24915
-1.09653
0.270321
-1.38579
1.33978
-0.295238
0.91439
1.22548
1.27408
-0.17932
1.28859
0.0831325
1.24432
1.26103
-0.559864
1.2542
0.473012
1.27727
1.12891
-0.876598
-0.0711221
0.0300356
-0.676059
1.42367
0.630972
1.23187
1.61101
0.140361
-0.0174238
1.31593
0.0410622
1.31277
0.252009
0.549824
1.29749
1.30225
0.869986
-0.575018
0.802028
-1.38764
-1.48541
-1.06291
1.251
1.29305
1.69323
-0.436288
-0.236677
1.15328
-0.74997
1.26822
1.11066
1.29613
1.21249
1.24762
-1.93509
-0.473634
-0.897684
0.897348
1.08285
-0.184169
-1.37513
-0.75287
1.26367
1.31734
0.0491678
-1.46718
1.26744
0.118828
0.201227
0.816817
1.00264
0.220445
-0.800553
-0.244761
-0.712019
-1.15764
-1.28807
0.23006
1.65851
1.56851
-0.926194
-0.745032
1.26018
1.24027
-1.04047
0.467767
0.132112
0.668427
1.31357
-0.409433
1.24006
0.545163
-0.840049
-0.411236
-1.02133
-1.55243
1.28046
-0.734324
-0.562649
1.57024
-0.734348
1.24208
1.40378
-1.36119
1.40501
1.5673
-1.10403
1.41356
-0.741798
-0.882432
1.15566
-0.50728
1.38257
1.24886
-0.749213
1.3499
0.636923
-2.12596
1.26567
1.39589
-0.389512
-0.973695
1.10977
1.23309
-0.746382
-0.435737
1.46454
-0.753958
1.06587
-0.0939957
1.25981
-0.453812
-2.01498
-0.649064
-1.04535
1.2206
1.32576
1.59553
1.36647
1.07483
1.28681
1.18249
-0.603432
1.27258
1.48531
-1.25378
-0.757678
-0.90068
1.51658
0.470017
-0.902776
-1.01212
1.0238
-1.20779
-0.860966
1.12849
1.38723
-0.690815
-1.34802
-0.918228
0.00416218
-0.939919
-1.15925
-0.557682
0.966138
1.28439
-1.39429
-0.660665
-0.35648
0.905322
-0.752869
-0.981949
-0.517544
1.32861
-0.907543
-1.3227
1.62606
1.22366
0.889067
1.52589
-1.02956
1.35561
1.23341
1.40545
1.53727
0.146613
0.708714
1.11787
0.729727
-0.483123
1.66489
1.2944
1.27367
1.36443
-1.2915
-1.02863
1.22867
0.880562
1.25174
-1.6956
-1.91006
1.25166
-0.639357
1.21487
-0.183946
1.63347
-0.460379
0.776712
1.15293
-1.40577
-0.441628
-1.18522
1.41267
-1.40486
-0.447345
1.12338
0.631085
-0.953744
1.28456
1.231
-1.40112
-0.815557
1.11398
-1.69693
-0.435178
-0.929165
-1.38265
-0.0122008
1.14311
1.29684
-2.0644
1.04992
1.25622
1.56123
0.756009
0.227272
-0.0697127
1.27801
0.0549631
-1.40448
0.669866
-0.731095
-1.40246
1.19789
-1.44372
0.0897949
-0.433003
0.547007
1.00952
-1.39884
1.07141
-1.32018
0.944569
-1.39716
0.454676
-1.40619
0.845172
-0.437679
0.350689
-1.39935
1.22709
-1.1016
-1.40954
-1.4312
-0.489609
1.25628
0.568568
-1.47569
-0.451932
-0.0789083
0.116532
-1.45126
-0.534075
-1.52951
0.36635
-0.46541
-0.287784
-0.496158
-0.559113
-1.62312
0.206459
1.0243
0.0262605
-1.53032
1.16373
-0.0207359
0.0519987
0.914374
1.25437
-1.12431
-2.0572
-0.446465
-1.20905
1.25756
1.64214
0.233949
-0.00396694
0.523565
-0.720172
-0.318576
0.156181
1.1391
-0.863998
1.25675
0.200264
1.71594
0.940744
1.69567
-1.36826
1.52265
-0.789273
1.37491
-0.0519776
-0.441048
1.43063
1.27539
-0.731971
-0.437229
-1.42353
1.10374
-1.65952
1.20208
-0.196156
-0.892521
-0.676759
1.53494
1.21021
1.46169
1.19103
1.26728
-0.140836
0.166155
1.36608
-1.39437
-0.740801
1.63473
-1.4293
1.06985
1.3049
1.62205
1.6935
-1.48952
-0.51704
1.3052
0.717587
0.0398585
-1.37506
0.126012
-1.98804
-1.35937
1.01769
-1.11277
1.53264
-0.0628647
1.16442
1.30578
1.19286
-0.266556
-0.500636
-0.769691
1.34372
-0.755068
1.3237
-0.988812
-0.85931
1.4078
1.60832
-0.472248
-0.0178282
1.2447
-0.906396
-0.989612
1.09812
1.45242
1.52215
-1.32591
1.02298
0.91637
-0.450341
1.53666
0.228287
-1.38324
0.65639
0.423586
0.0527161
1.25705
-0.770121
0.192946
-0.0119994
-0.90432
-0.812845
-0.465026
1.18401
-0.839077
1.18144
-0.205963
0.568933
1.12447
0.77269
-0.452597
-0.983425
-0.652323
0.236781
0.0349166
-0.121413
1.02349
-1.31495
-0.958464
1.1519
-0.791416
-1.2506
1.25889
-0.0605879
1.07017
0.323331
-0.666247
0.221346
1.1947
-0.201598
-0.648431
1.26571
-0.87246
1.35463
-0.0745147
-0.79976
-0.738336
-0.44093
1.74893
-1.4826
1.45085
-0.0609118
1.24824
1.39628
1.14178
1.34003
1.30625
-0.106456
0.7787
1.27045
1.43593
1.64001
-0.736035
1.24376
0.698528
-0.738858
1.19849
1.53512
-0.910184
1.54181
0.0724474
-0.887246
1.23528
-0.748117
-1.41338
1.26284
-0.765017
1.33167
1.41395
1.11122
-0.948387
1.00698
1.43872
-1.13976
-0.438491
-1.19992
-1.83398
-0.771238
-0.44118
1.64382
1.16463
-1.07474
1.29688
-0.755819
-0.768242
1.58238
1.39087
-0.841777
-1.07359
-0.432624
-0.805697
1.30236
-1.13348
0.592349
-1.30639
-0.5142
1.32835
-0.756915
1.60108
1.25275
1.25426
1.21014
1.49022
-0.873909
-0.756024
1.34148
1.47578
-0.83165
1.28587
-1.75606
-0.630349
-0.737786
1.20626
1.24658
-0.675205
-1.13386
0.997248
0.468672
-1.07671
1.17961
1.05175
-1.14365
1.10264
1.15636
-0.256664
-1.23219
-1.01406
-0.580822
-0.719774
1.61154
-0.363841
0.99415
-1.18368
1.61084
1.0146
0.933597
1.05964
-1.99006
0.132553
-0.535073
0.515848
-1.33656
1.30437
0.7522
-0.677675
0.958481
1.37363
1.27696
1.20477
0.00998922
1.29149
0.391297
0.885388
0.895169
-0.784129
-1.27428
-1.53985
-1.0276
1.25741
1.34518
1.25887
-0.754404
-0.297135
-0.496658
-1.33309
1.24179
1.46868
1.25734
-1.30831
-0.798711
-0.939589
-0.858177
-0.433772
-0.438365
-0.405462
1.19308
-0.834107
-1.39846
0.146142
0.398875
0.747968
-1.92294
-0.468642
-0.041347
1.05564
1.6779
-0.0922816
1.37649
1.72415
0.671716
1.38925
-1.23937
-0.179626
1.67757
-0.449235
0.793725
-1.3595
-0.729968
-1.41551
-1.40608
1.31592
1.14737
1.34499
1.29651
0.0235626
1.18587
-0.0499663
0.0976637
-0.434582
1.37174
0.750703
1.25473
1.27056
0.685145
0.0761815
1.2836
0.0568745
-0.450128
-1.40383
-1.42792
1.03773
-1.40583
1.24507
1.09092
-0.460903
1.55145
-1.30253
-0.593606
1.25181
-0.794271
-0.742657
-1.14014
0.591636
-1.38992
-1.66532
0.989877
1.26277
-0.244537
0.576469
-1.51609
-0.430145
-0.347372
-1.55006
0.357953
1.03279
-0.839063
-1.40438
1.43818
0.165206
0.293029
-1.40065
-0.735095
1.24819
1.40561
0.503199
0.975574
-1.39719
-0.722095
-0.189744
0.406862
0.890806
-1.39695
0.961429
0.0158618
-1.40111
1.66769
-1.41579
-0.766286
-0.71621
-1.34009
1.23889
-1.44823
-1.08481
-0.456446
0.483297
-1.50093
-0.170538
-0.902861
0.505998
1.33429
-1.56878
0.308101
-0.480351
-0.404525
1.537
1.67332
1.3939
1.24959
1.36336
-1.21958
1.22456
-1.27639
1.40369
-0.448574
-0.229134
1.57512
-0.156871
0.953589
-1.20269
1.66684
-0.123802
1.6152
0.589966
0.84741
-1.37678
-1.33856
-0.439829
-1.60432
1.55868
1.36029
1.212
1.0701
1.24593
1.25966
0.860356
-1.37432
-0.760714
0.214496
-0.127527
0.828076
1.24551
0.448552
-1.39836
-1.39841
-0.389965
-0.443428
0.707308
1.63553
1.26586
1.24024
0.665632
0.0719764
1.27967
0.0908353
-0.439092
-1.75526
-0.725442
0.811719
-1.39847
-1.39683
0.190047
1.19009
-0.892506
-0.715313
1.24199
1.03961
1.13037
1.22563
-0.430705
0.925817
1.49113
1.23867
-0.434152
1.25575
0.808997
0.406932
-0.796942
-1.40493
1.67707
0.766088
-0.690093
0.569401
0.976378
1.10065
-0.724083
-0.99618
0.411685
-1.49533
-0.387112
-1.06708
0.199388
1.21599
-1.21364
1.16424
1.56605
1.44212
1.13492
1.21056
1.29038
1.23341
-1.05822
-0.163376
-0.732049
-0.519671
-0.118697
-1.39581
1.31129
1.16285
-0.74646
1.29898
-0.822286
-0.856519
-1.40501
0.162221
0.998685
-0.207345
1.20741
0.967926
-1.55603
0.091103
1.57292
-0.698568
-0.156308
-0.0503083
-1.04155
-1.40253
1.31864
0.803641
1.42993
-0.825152
0.209919
-0.419988
-0.616482
-0.744011
-0.269724
-1.1255
-1.29724
0.977922
-0.122283
1.72005
-1.73416
-0.0282067
-0.47744
-1.39131
1.27845
-0.513601
-0.809555
-0.0847234
0.284412
1.34053
1.52904
-1.7964
-0.0673595
0.866665
-0.464363
-0.187367
1.42736
-0.617415
0.498279
-1.31111
0.77347
0.122864
-0.739542
1.21627
0.0187722
-1.21344
1.20835
-0.815827
-1.15661
-1.22318
-1.53692
0.47101
-0.726892
1.50037
-0.47184
0.676413
-0.449411
0.824015
-1.29178
-0.780088
0.641075
1.17214
1.31325
1.26603
1.3457
-1.45943
1.21293
1.00283
-1.07968
1.05603
-0.671189
-1.50398
-1.0592
1.49663
1.48065
-1.16474
-0.794924
-0.848126
1.10419
-0.835182
0.105637
-0.217996
-1.39811
1.45608
1.11335
-1.36076
-0.959605
-1.37947
-1.39062
1.04348
-1.27069
1.06812
0.126964
0.715381
0.879173
-1.36284
-0.821102
1.0189
-1.393
0.185347
1.52318
-0.544605
-1.3996
0.855653
-1.15869
-1.02335
0.371061
-0.726586
1.60902
-0.0656733
0.677836
-1.35225
1.60488
-1.31121
-0.936806
0.63477
-0.183884
-0.447962
1.60719
0.672222
1.37345
-1.05721
1.38844
0.225105
-0.0887691
-1.11629
-1.11055
-1.29538
1.43047
0.550312
-0.744701
-1.32752
-0.731485
1.27509
-0.848454
1.58738
-0.446749
0.765962
-1.40374
0.295843
0.504251
0.461508
0.360598
0.660451
-0.88363
1.11167
-1.1386
-1.09924
-0.128624
0.767078
1.61824
0.280132
-1.01017
-1.29773
-1.40247
0.16237
-1.68301
-1.40501
1.24159
0.692198
-1.37751
1.66741
-0.735162
-1.26974
1.62127
-1.39557
0.0186113
-0.845705
-1.39759
-1.40573
1.64851
-1.43151
1.55812
-1.40497
-0.839287
1.33248
0.367165
-0.896033
0.537803
-0.710962
-0.153628
0.16434
-1.40874
1.20528
-0.716364
-1.40495
-1.39564
-1.40035
-0.454818
1.22837
-0.376239
0.189556
-1.37086
1.57625
-0.367588
-0.997635
-1.30709
0.326052
-1.58422
-1.37857
-1.3861
0.461288
1.40746
-1.2851
-0.446038
-1.34527
-0.0612898
-0.475972
-0.459665
1.65158
1.57853
0.350295
-0.838007
-0.453193
0.243828
-0.45195
1.65391
0.0922226
1.42665
0.704341
1.59136
-0.0561903
-1.59072
-0.823061
-0.254711
-1.12871
-0.252119
0.385887
-1.4057
1.56318
0.344587
0.107689
0.266543
-0.45756
-0.877076
)
;

boundaryField
{
    frontback
    {
        type            empty;
    }
    Top
    {
        type            zeroGradient;
    }
    outlet
    {
        type            fixedValue;
        value           uniform 0;
    }
    bottom
    {
        type            zeroGradient;
    }
    Inlet
    {
        type            zeroGradient;
    }
    rectangle
    {
        type            zeroGradient;
    }
}


// ************************************************************************* //
