/*--------------------------------*- C++ -*----------------------------------*\
| =========                 |                                                 |
| \\      /  F ield         | OpenFOAM: The Open Source CFD Toolbox           |
|  \\    /   O peration     | Version:  2306                                  |
|   \\  /    A nd           | Website:  www.openfoam.com                      |
|    \\/     M anipulation  |                                                 |
\*---------------------------------------------------------------------------*/
FoamFile
{
    version     2.0;
    format      ascii;
    arch        "LSB;label=32;scalar=64";
    class       surfaceScalarField;
    location    "48";
    object      phi;
}
// * * * * * * * * * * * * * * * * * * * * * * * * * * * * * * * * * * * * * //

dimensions      [0 3 -1 0 0 0 0];

oriented        oriented;

internalField   nonuniform List<scalar> 
3181
(
-1.05071
0.410601
0.640112
-0.392826
0.369808
0.0230185
0.527632
-0.36272
-0.164912
0.12321
-0.203234
0.0800238
-0.042717
0.0263333
0.0163837
0.707914
0.792814
-1.50073
0.147934
-0.141731
-0.00620206
-0.0284348
-0.0268087
0.0552435
0.578241
-0.750943
0.172702
-0.0748548
0.137608
-0.0627536
-0.01092
-0.0524281
0.0633481
0.122697
0.0519426
-0.17464
0.0553131
0.0125748
-0.067888
-1.10041
0.14891
0.951497
-0.332855
0.708978
-0.376124
-1.12408
0.637184
0.486899
0.0835483
-0.929153
0.845605
-0.0444667
-0.15557
0.200037
-0.818876
0.138234
-0.00622324
0.0658885
-0.0596652
0.0370431
-0.0865578
0.0495146
0.0229372
-0.0222251
-0.000712064
1.06799
-1.04113
-0.0268574
0.0278674
0.0396413
-0.0675088
-0.955495
0.323253
0.632242
-0.108915
0.232125
0.308699
-0.245487
-0.0632114
0.0292408
0.0614119
-0.0906527
-0.415445
0.337881
0.0775644
-0.0324212
-0.0115499
0.0109853
0.000564618
-0.0339255
-0.92157
0.125796
-0.0896802
-0.036116
-0.103868
1.34352
-1.23965
-0.0809146
0.0362121
0.0447025
0.195148
0.266013
-0.461161
1.05905
-1.16292
0.0726565
-0.0356134
1.46109
-0.900723
-0.560368
-0.0709742
0.778888
0.0546177
0.000695486
0.0279736
-0.00503645
-0.413649
0.0807946
-0.100149
0.128123
-0.636048
0.133588
0.50246
-0.14928
0.0744249
-0.168829
0.172874
-0.00404532
-0.272927
-0.0781414
0.351068
0.324612
0.357762
-0.682374
0.0776649
-0.0130803
-0.0645846
-0.0177731
-0.103718
0.1101
-0.00638177
0.522969
0.18601
-0.0969629
0.14159
-0.0446273
0.0342607
0.0915355
-0.172286
0.198439
-0.0261533
0.165726
0.0556774
-0.221404
0.107809
-0.113692
0.00588253
0.892049
0.569043
-0.863692
-0.187021
-0.220448
-0.95414
1.17459
0.555758
0.22254
-0.778299
-0.455333
-0.196417
0.651749
-0.659814
0.58884
-0.25993
0.815689
-0.326191
-0.104421
0.430612
-0.212661
-0.202785
-0.191895
0.167217
0.0246777
0.132899
0.286065
-0.418964
-0.239386
0.817628
0.0614693
-0.0899041
-1.30885
1.0884
0.188486
0.120213
-0.180156
-0.112089
0.292245
-0.270592
0.356901
-0.0863091
-0.0802682
0.088231
-0.00796275
-0.984233
-0.920681
0.0115771
0.909104
0.0192938
-0.100208
-1.15967
0.719393
0.44028
0.257393
-0.64307
0.385676
-0.828838
0.169024
1.09882
-0.949914
-0.715263
1.15161
-0.200111
1.0649
0.168285
-0.176002
0.00771646
1.05337
-0.260557
1.58459
-1.58459
-0.00858738
-0.000800324
0.00938771
-0.2145
-0.0532771
0.267777
0.0877035
-0.0805069
-0.00719657
-0.452059
0.835418
-0.383359
-0.0176248
-0.237563
0.255188
-1.08495
0.0438195
0.338285
0.0678154
-0.406101
0.134806
-0.855397
1.07794
0.0727543
-0.0433521
-0.0294021
-0.0176247
-0.154661
-0.144902
0.531385
-0.386482
-0.621415
0.476512
0.107929
-0.963327
0.329452
-0.781511
0.924057
-0.840509
0.0538763
0.0311703
-0.0850467
0.082835
0.0528391
-0.135674
-1.36617
-0.152927
1.5191
-0.247065
0.412531
-0.165466
0.493581
0.469349
-0.96293
-0.453699
-0.705973
0.0856936
-0.00802877
-0.152789
0.147108
0.00568102
-0.07865
-0.0130783
0.0917283
-0.564913
-0.18603
-0.0340163
-0.00496442
0.0389807
-0.734671
0.362993
0.371679
0.527526
-0.169764
-0.0149195
0.00633213
0.0385679
0.149918
-0.19802
0.393168
0.0986355
-0.132022
0.0333868
0.139419
0.0702339
-0.209653
0.375464
-0.692648
0.317184
-0.597217
-0.526866
-0.241613
-0.493058
0.00865099
0.0641033
-0.107102
0.185217
-0.0781146
0.330997
0.0246057
0.123328
-0.0567833
0.0706111
-0.0138278
-0.0957888
-0.0217289
0.117518
0.0740987
-0.0740987
-0.186389
0.210994
-0.364021
0.0855552
0.105525
0.0929148
-1.2744
1.03501
-1.20258
-0.0701999
1.27278
-0.053674
0.0407124
0.0129615
-0.0277448
-0.0538128
0.0815576
0.543532
-0.0207406
-0.522791
0.0688841
-0.0638735
-0.00501056
-0.201152
0.0147637
0.161352
0.674066
-0.367868
0.52922
-0.122522
-1.24365
0.00155143
-0.0442684
0.489765
-0.30647
-0.183295
0.0615503
-0.0619046
0.000354231
0.0488582
-0.321785
0.0223632
-0.943044
0.0491296
-0.156232
-0.289071
-0.404332
0.0713222
1.32694
-0.893727
-0.433217
1.00246
0.324486
0.0675549
0.283513
-0.0591134
0.00543944
-0.411657
0.335903
0.0757534
-0.25733
-0.584865
0.842195
-0.359154
0.234495
0.976887
-0.838653
0.150564
0.0363053
-0.0662722
0.0299669
-1.93801
-0.0235161
1.96153
0.0298491
-1.96786
-0.322062
0.660348
-0.90679
-0.0180172
-0.000850053
-0.268937
0.269787
1.21045
-1.38553
0.175079
-0.0388764
0.0404278
0.569385
-0.826715
-0.480576
0.0589881
0.421588
-0.299307
-0.115447
0.414754
0.18687
-1.00905
-0.0759
-0.0237607
-0.0359046
-0.558519
0.362103
-0.251938
0.0208414
0.231096
-0.0920927
0.0532163
0.0183316
-0.0183316
-0.121256
0.13296
-0.0117043
-0.056159
-1.14642
0.00789493
-0.0323065
0.0244116
-0.234004
0.208913
0.0250913
-0.222853
0.0309585
0.930556
0.0332967
-0.963853
-0.193392
0.451057
-0.257664
-0.0321715
0.0284871
0.0036845
1.12899
-0.635407
-0.197002
-0.00298003
0.199982
-0.176468
0.309367
-0.105046
0.103258
0.00178817
0.0680783
0.0579445
-0.126023
-0.182823
0.201314
-0.0184907
-1.04142
-0.288766
1.33019
-0.221077
-0.050922
0.271999
-0.69535
0.661202
0.0341486
-0.00818131
0.0478226
0.015339
-0.016886
0.00154695
-0.00537716
-0.0621316
0.671322
-0.143796
0.175711
-0.881329
0.705618
-0.0771177
1.16302
-1.08591
0.385344
0.979278
0.605317
0.0629401
0.207226
-0.0678071
-0.0740958
-0.0296226
0.238968
0.158108
-0.0752733
0.735683
-0.41243
0.0611963
0.206581
0.0480178
-0.165094
0.117076
-0.784389
-0.131036
0.915426
0.00532089
-0.00532089
-0.0358039
-0.289872
0.555885
0.01232
-0.233397
-0.270196
0.114625
0.0253025
-0.0166515
0.137063
-0.147983
-0.346567
0.328942
0.0822506
-0.0175704
-0.0646802
0.394511
-0.342569
0.253778
-0.631502
0.377724
-0.207604
0.275159
0.188264
-0.494734
-0.208061
0.618662
0.166721
-0.0319347
0.0319347
-0.831825
0.198684
0.633141
0.386229
0.0263021
0.0589678
-0.0645665
0.00559871
-0.107937
-0.0715131
0.0374968
-0.0503171
0.18738
-0.182217
0.245764
-0.0635472
0.129448
0.0286598
-0.393108
0.147621
0.192095
-0.0626469
-0.0471053
-0.0579408
0.0473535
-0.0679747
0.0206212
0.14672
-0.104574
-0.0421455
-0.0151569
0.395967
-0.38081
0.0716272
-0.0101579
0.107889
-0.112479
0.00459056
0.0250094
0.250631
0.0031472
-0.0629042
0.0833691
-0.0204649
-0.09691
0.185354
-0.0884435
-0.0925958
0.0967239
-0.720421
0.623697
0.0625126
-1.52896
-0.349566
1.87852
-0.997096
1.53772
-0.540625
0.081656
-0.267266
-0.425382
0.271849
0.260403
-0.532251
-0.209388
0.257406
0.140282
-0.892623
0.752341
-0.159793
0.062883
-0.0353191
0.0115584
-0.993409
0.444029
0.54938
0.893727
-0.785798
-1.62917
1.47624
-1.21045
1.14025
0.0405258
-0.0851531
-0.000441365
0.0157804
-0.0425506
0.80514
-0.664858
0.122645
-0.0735153
0.416488
0.73512
-0.0736705
-1.0395
0.962377
-0.692935
-0.581465
-0.24276
-0.393288
0.0723227
-0.166486
0.215344
-0.576921
-0.376506
0.183114
0.782151
-0.238619
-0.866457
-0.762713
0.745096
0.00762344
-0.167416
0.28559
0.0363283
-0.0363283
0.669422
0.150457
-0.819879
-0.226923
0.896345
1.19758
-0.550303
-0.647273
0.0592468
0.0263084
0.00863759
0.00344293
-0.0120805
-0.95414
-0.0209628
-0.148801
0.483396
0.447161
-0.0349727
-0.133856
-0.247423
0.770392
-0.199741
-0.0521963
-0.00302976
-0.0772385
-0.0540023
0.106841
0.379221
-0.245633
-0.815456
-0.285749
-0.285958
0.0346176
0.25134
-0.741909
1.72119
-0.215778
0.308118
-0.0923398
-0.025709
-0.0334044
-0.0728815
0.103108
-0.0302264
0.00972127
0.420891
0.0298694
0.031681
0.00564376
0.0170574
-0.0227011
-0.0217247
-0.175277
-0.725658
0.369688
0.355969
0.516207
-0.999403
0.483196
0.141734
-0.164797
0.023063
0.0328492
0.0528444
0.107982
-1.69258
-0.0263463
-0.0465352
-0.0441957
0.036167
0.158225
-0.356245
-0.210455
0.198319
0.0121361
0.0518996
0.0923202
0.0543996
-0.784389
-1.73247
0.69105
0.0250055
0.0781024
0.0460227
-0.63901
-0.0563402
0.062128
0.129967
0.840222
0.0434701
-0.462434
0.122156
0.360848
-0.293032
-0.117761
0.0219718
0.226595
0.835758
-1.06235
0.103098
-0.718978
0.61588
-0.950546
0.81951
-1.40289
-0.259834
1.66273
0.0412089
-0.0435667
0.00235776
0.166759
-0.466066
0.255993
-0.154678
-0.101315
0.102483
0.0828707
-0.00163391
-0.284324
0.0236525
0.0240357
-0.0294128
0.021493
0.0781443
-0.0996373
0.20048
0.00813785
-0.00833081
0.000192954
-0.0531721
0.0430142
0.86378
0.0160875
0.0243403
0.293586
-0.314549
0.0310772
0.0281697
0.00735367
0.0849666
-1.66273
1.69258
0.344387
0.0656964
-0.410083
-0.254016
0.0780146
0.120766
-0.11305
-0.00136385
0.0895948
0.0420754
-0.413196
0.20274
-0.0437983
0.0652913
0.741087
-0.254188
-0.0815099
-0.152495
0.329687
0.00143623
0.0575316
-0.00785842
0.0819571
0.147411
0.20949
0.158828
-0.332375
0.173547
0.111352
0.562715
-0.0403026
-0.108977
0.927054
-0.249844
-0.67721
-1.40289
-0.101625
0.617832
1.05905
-0.0837519
0.379833
-0.296081
0.435148
-0.039973
-0.395175
0.167915
-0.996753
-0.074592
0.0754065
-0.000814563
0.39548
-0.101471
-0.294008
0.452507
-1.0022
0.549695
0.0421256
0.656042
-0.698168
-0.0445082
-0.108281
-0.106591
0.0436873
-0.486882
-0.344943
0.0403321
0.000876809
-0.158671
0.138972
0.0196994
-0.094083
-0.317574
0.0114567
-0.0371658
0.136549
-0.105378
-0.0153071
-0.00157889
0.196514
-0.434077
0.484933
1.05279
-0.00714371
0.00182282
-0.990723
-0.0183248
0.334269
-0.0725709
-0.0451897
-0.448834
-0.0317416
-0.0516303
0.231761
-0.180131
-0.06546
0.0965371
-0.933582
-0.0163321
0.0159784
-0.650029
0.746753
-0.0175813
0.184302
-0.917352
0.367049
0.184108
-0.444067
0.259959
0.0134406
-0.145463
-0.0113867
0.0097291
0.0016576
-0.0237946
-0.159028
-0.0210029
-0.133658
0.750787
-0.647689
-0.0437085
-0.0665385
-0.309861
0.313582
-0.154754
0.42014
1.4199
-0.198749
-1.22115
-0.123565
0.144406
-0.509456
-0.216202
-0.563171
0.616517
-0.597079
-0.0194378
-0.0946121
0.0509036
-1.0395
0.532514
-0.532514
-1.58399
1.58399
0.80514
1.08336
-1.186
0.10264
-0.898686
-0.0920377
0.646378
-0.352611
-0.293766
0.164141
-0.242255
-0.013809
-0.00111049
-0.887735
-0.0755923
-0.933846
0.213425
0.116837
-0.0822198
0.699189
-0.112662
-0.586527
0.552884
0.506169
-0.0112914
-9.53364e-05
-0.960439
-0.701111
0.0696086
-0.147131
-0.554802
0.701933
-0.0478606
-0.791589
-0.593941
0.217153
-0.81437
-0.915426
1.3483
-0.432873
-0.139842
0.281497
-0.141655
-0.0237806
0.72297
-0.100314
-0.986471
0.986471
-1.07417
-0.0953609
1.16953
0.00144971
0.00668814
0.0875181
-0.443414
0.904528
-0.185135
-0.0858546
-0.0332986
-0.0325509
-0.0202118
-0.0119598
1.48293
-1.74276
-0.398776
0.466854
-0.64472
1.00519
-0.36047
0.096826
-0.123172
0.127784
-0.0575505
0.361827
-0.0176494
0.0302242
0.356037
0.0399301
0.0467509
-0.255247
0.208496
0.138927
0.0339471
0.10004
0.188485
1.38987
-0.301472
0.49426
1.28885
-1.78311
-1.67663
1.65311
0.440394
-0.312271
0.0744099
-0.765588
0.691179
1.57762
0.129768
-0.476335
-0.0741837
0.13426
-0.0600762
0.132514
-0.206698
-0.454885
-0.103634
-0.074407
0.0776947
-0.00328765
-0.00671233
-0.00859474
0.26747
-0.175934
0.664858
-0.61588
-0.0489781
-0.293234
0.305554
0.877884
0.76597
-0.330822
0.00329524
-0.0356018
-0.422317
0.481305
0.174006
-0.582318
0.408311
0.00636494
0.00336415
0.440121
0.309378
-0.749499
0.0136389
-0.0205835
0.00694456
-0.0325199
0.0250732
0.00744674
-1.53566
1.2751
-0.202687
-1.32627
-0.194482
-0.785798
1.14025
1.47624
-0.193799
-0.172831
0.121909
-0.0659903
0.0721808
-0.00619042
-0.00513661
1.47573
-1.47059
0.523579
0.122799
-0.0108629
0.0172279
0.125049
-0.0432936
0.0332986
-0.0488435
0.00504528
0.0424202
-0.464737
-0.00669253
0.031995
-0.239652
0.634163
1.00246
-0.754148
-0.0598602
0.00120122
0.058659
1.78668
-0.310435
-0.0605088
-0.0531831
-0.954322
0.168524
0.417401
-0.230531
-0.480858
-0.126928
0.607787
0.811144
-0.357914
-0.45323
-0.105898
0.0542678
-0.962377
0.00823734
-0.00526975
-0.0428938
0.0481635
0.187027
0.975996
-0.169288
0.177926
0.515868
1.4629
-0.322654
-0.681801
0.0569301
0.624871
0.370475
0.0199075
-0.349638
0.534728
0.814118
-0.62384
0.0751581
-0.0207585
-0.181081
-0.0844862
0.265568
0.670422
0.0500904
-0.0444466
-0.0439983
-0.365493
0.104378
-0.313765
1.28411
0.135786
-0.0260972
-0.0685149
0.315716
-0.399468
-0.0255578
0.0173765
0.110769
-0.147453
0.0366837
-0.300719
0.314618
-0.0138994
0.750623
-0.949372
-0.431897
-0.703913
1.13581
0.280897
-0.201012
-0.0798851
0.271787
0.0417947
-0.790263
-0.942212
-0.652566
0.652566
1.17459
0.552884
-0.718978
0.327466
0.486652
0.15623
0.476911
0.940258
-0.416679
0.00608354
-0.869465
0.863382
0.132647
0.00496131
0.0253713
-1.82133
1.03106
0.125284
-0.169239
-0.121761
0.291
-0.228305
-0.514525
0.345285
-0.956883
-0.293882
-0.646483
-0.00581486
-0.00734339
-0.00098742
-0.227997
0.0181252
0.233215
0.0349391
-0.146921
0.111982
-0.118701
-0.955466
-0.00538883
0.0668007
-1.34897
1.6028
-0.253835
-0.56815
0.384855
-0.141518
0.123948
0.235082
-0.00727652
-0.0280426
-0.612592
0.645889
0.0351289
0.0727598
-0.212813
-0.0970482
0.239719
0.0162743
-0.421808
2.06951
0.42341
-0.532476
0.866181
-0.791771
0.784906
-0.455219
-0.610801
0.167387
0.15634
-0.795705
0.765773
0.0299316
1.50556
-0.221448
-0.261192
-0.137584
-0.0582311
-0.0222758
0.950181
-0.837499
-0.112682
-0.183979
0.108705
0.0272327
0.119876
0.874281
0.970405
-0.62706
-0.343345
-0.326313
-0.0501931
-0.0544468
-1.29452
0.190958
1.32814
0.282706
0.270178
0.169598
0.553295
-0.722893
0.487284
0.0525497
-0.0180265
0.01075
-0.515675
-0.0951255
-0.0255139
-0.0665788
-0.188602
0.138285
-0.533715
0.276051
-0.992512
-1.19114
-0.292519
-0.976614
1.14364
0.129132
-0.286456
-0.403227
0.445647
-0.307385
0.300636
0.055401
1.36991
-0.917407
-0.191025
0.128378
0.37165
-0.667371
0.295721
-0.0192524
0.0139826
0.0508299
-0.0607347
-0.239984
-0.119537
0.697786
-0.417157
-0.280629
-0.526854
0.133945
-0.0966649
-0.0372801
0.244276
0.0563601
0.5812
-1.12182
-0.0983425
0.144365
1.23026
-0.259859
-0.0132418
-0.0752017
-0.0220055
0.018263
0.00374244
-0.0229773
0.0636897
-0.243659
0.0785652
-0.0257376
-0.558954
0.419113
0.0159852
-0.0197654
0.300663
-0.697527
1.5569
-1.42112
0.016767
-0.194852
0.178085
-0.138638
-0.538211
0.676849
0.0786232
-0.717633
-1.30106
0.869165
0.0187426
-0.000495142
-0.0182475
-0.247923
-0.616517
-0.167872
-0.142205
-0.181081
-0.233725
0.165918
-0.751016
-0.971339
0.0127859
0.389716
-0.402502
0.264468
0.114682
0.194743
0.666586
-0.86133
-0.103195
0.110819
0.993596
0.644552
-1.63815
-0.223058
0.0959551
1.55716
-0.244811
0.181264
-1.20744
1.30339
-0.14717
0.678555
0.0295131
-0.0720637
-0.0621981
0.991206
-1.52368
0.71921
0.0919334
-0.209494
-0.203702
0.314476
0.625782
0.930469
-0.00341493
-0.018881
-0.282706
-0.646483
-0.711348
0.722925
-0.232579
-0.866457
0.656042
0.612149
-0.929537
0.259407
-0.00872397
-0.786981
-0.314299
0.636223
-0.773087
0.136865
0.0803104
0.0536346
0.909831
0.0131743
0.272643
-0.285817
-0.000501828
-0.00684156
-0.267719
0.215523
0.714846
0.223235
-0.208471
-0.18069
0.491425
-0.128432
-0.519543
0.622183
-0.189558
1.81339
-1.62383
-0.574005
0.489519
1.22119
0.381609
0.115013
0.278742
-0.265568
-0.0126445
0.220272
0.0378026
0.238753
0.0955164
0.0250718
-0.0164451
-0.00862667
-1.02523
-0.0371286
0.318526
-0.808072
0.378266
1.20274
-1.58101
0.378626
0.626564
-0.0484241
0.0516309
-0.00320682
0.202809
0.288615
-0.716157
0.229349
1.25542
-0.877157
0.316295
-0.0960227
-0.583112
-0.4094
-1.9548
1.76524
-0.0609411
-0.878189
-1.22808
0.142176
0.278742
0.0491614
-0.857234
0.831696
-0.646651
-0.185045
-0.982018
0.398906
-0.00875505
0.113611
-0.00104299
-0.112568
-0.971505
0.562105
-0.216069
0.909587
-0.925919
0.19392
-0.215644
-0.0949609
0.253186
1.55955
0.0349683
-0.056877
-1.58233
0.361181
0.752111
-1.37595
-0.552155
-0.518847
1.071
0.447845
0.0147622
-0.0113193
-0.735297
0.698168
0.582469
-0.379659
-0.605317
0.203208
0.402109
-0.353718
1.55646
0.777031
-0.809453
-0.494115
-0.448929
-0.47237
-0.499135
0.804174
-0.804174
0.686135
-0.686135
-0.735297
-0.372231
0.372231
-0.203208
-0.438645
0.291169
-1.20625
-1.03843
1.03843
0.582469
-0.379659
0.777031
0.765633
-0.765633
0.809453
0.758587
-0.758587
0.505885
0.52763
0.481153
-0.455958
-0.500865
-0.551071
1.0787
0.315188
-2.24021
0.285411
-0.483414
1.70461
0.100917
0.0136699
0.00241758
-0.887738
0.0969491
0.790789
0.00130808
0.0710146
-0.995754
0.583324
0.92669
-0.599224
-0.12493
-0.0306052
-0.0119831
-0.80244
-0.0788889
-0.54938
-0.0139686
0.0255271
-0.455328
-0.123875
0.201977
0.203274
-0.00282781
-0.0124844
0.0153122
-0.812366
0.0670058
0.74536
1.86828
-0.308724
-0.53437
0.414205
0.120165
0.9187
-0.743032
-0.175667
0.0987056
0.294463
-0.0142455
-0.0601615
-0.0597463
-0.0148456
1.24661
-1.98852
-0.838772
0.0985497
-0.739804
0.797489
-0.0576845
0.121279
-0.900295
0.779017
-0.802699
0.903824
-0.101125
0.048589
-0.0715663
0.0241505
-0.293088
-0.0791418
1.84438
-0.0964829
-0.791255
0.915381
-0.0902095
-0.825171
0.213257
-0.116431
1.38486
0.822217
-1.57987
0.501179
-0.37838
0.103145
-0.8944
1.16292
0.421071
-0.793628
0.00664674
1.01849
-0.89721
1.22597
0.873573
0.376759
-1.25033
-0.876769
-0.118985
-0.412468
0.0316582
0.0702656
-0.250396
-0.783958
0.783958
-0.610912
-0.0861583
-0.864685
0.121652
-0.95105
0.803918
0.0621029
-0.216781
-0.0567649
0.0596697
0.0109414
0.188059
0.83043
0.817666
0.772748
0.13815
-0.910898
0.519734
1.18487
-0.780855
-0.107897
0.888752
0.174443
-0.8906
-0.676626
0.887646
-0.784501
-0.108253
0.462216
-0.0244556
-0.437761
0.307369
0.573904
-0.881272
0.221841
-0.706068
0.484227
-0.889108
-0.832181
0.0923767
0.499516
0.28539
-1.16157
1.29857
-0.567774
0.567774
-1.02035
-0.561978
-0.51019
1.54126
-1.36536
0.661447
0.779748
-0.203733
1.33283
-0.0577307
-0.0430628
-0.264602
0.307665
0.0336681
-1.03307
0.0710888
1.39331
-0.685968
1.37702
-0.280568
0.325227
-0.226522
0.780155
-0.88128
-0.455949
1.64082
-0.154601
0.737925
0.573677
-0.573677
0.0156477
-0.0490521
0.111459
-0.0765199
0.576543
-0.00263927
-0.0489258
-0.00704218
0.00486844
0.00217374
-0.666936
0.695502
-0.0285662
0.899021
-0.522262
0.108953
-0.893454
-0.804119
0.804671
-0.000552857
0.256878
0.876698
0.173258
0.725763
-0.755304
0.603492
-0.659832
-0.658081
0.148626
-0.565325
0.0303678
0.34416
-0.566801
0.00147588
0.00590302
-0.868723
0.073144
0.724345
0.69623
-0.0927381
0.0794066
0.784373
-0.58024
0.921694
-0.341454
-0.0315772
0.53074
0.144733
-0.952745
0.729476
0.223269
-0.686473
-0.127897
1.16006
0.380601
-0.725544
-0.0413918
0.486001
0.513999
-0.770403
-0.110877
-0.340243
-0.313069
-1.47525
-0.166348
0.400905
0.599095
-0.0134017
0.0564159
-0.860612
-0.0701695
-0.589662
-0.159398
-0.248984
0.408382
0.0427458
-0.000670386
0.113595
0.0737846
-0.129723
-0.113936
0.757712
-0.641513
0.720919
0.0249883
-0.591789
0.555252
0.588547
-1.1438
-0.746668
-0.195765
0.942433
-0.242577
0.231867
-0.025286
0.00179067
0.0514256
-0.0343605
0.694809
-0.127035
0.123943
0.111139
-0.737749
0.0708126
0.788384
-0.867248
-0.0704901
0.448214
0.855287
-0.290412
1.02553
-0.00925474
0.168099
0.347769
0.0339265
-0.0134049
-0.050579
-0.252337
1.04072
-1.33211
0.546421
0.785693
0.850089
-0.0360758
0.0205945
0.0154813
0.130362
0.0409652
-0.000633081
0.217856
-0.107087
-0.494176
-0.871184
-0.594461
-0.737653
0.00955992
0.275883
1.13497
-1.03805
0.983176
0.0548771
-0.774487
0.834655
-0.0601689
0.782557
-0.537157
0.389987
-0.0694898
0.324206
-0.45751
-0.0768603
0.278864
0.456907
0.191728
-0.648635
0.403632
0.0433797
0.652123
-0.574292
0.561394
0.0128981
1.2521
-1.55948
-0.0244842
0.027328
-0.00284382
0.695488
-0.00949649
-0.0839811
0.0193305
0.369849
-0.409163
1.19172
0.0627186
-0.351825
0.150812
-0.0773364
0.164718
-0.0873818
0.00545376
0.019618
1.68809
-1.04354
0.130019
0.222371
-0.0255436
-0.0927625
0.225426
0.0995745
0.00480997
0.119094
0.768632
-1.09591
0.47755
0.618359
0.632219
-1.26143
0.629214
0.63889
0.120014
-0.0196066
0.0310917
-0.011485
-0.28677
0.16091
-0.425512
-0.00074356
0.74584
0.711521
-0.271584
0.73495
0.174881
0.813333
0.261097
0.159044
-0.875037
0.162091
-0.273757
0.664459
-0.17361
0.690035
0.078597
0.0142399
-0.15709
-0.380067
-0.451951
0.162295
0.0261715
-0.112729
0.420973
-0.0586345
0.921028
-0.070153
0.110706
1.08239
-0.450168
-0.156559
0.136495
-0.0482286
-0.109741
-0.0465639
-0.00222767
0.0487916
-1.45575
-0.103732
-0.0134041
0.820991
-0.228934
-0.619645
0.639508
-0.0198624
-0.12066
0.760847
-0.603005
-0.540793
0.0865697
-0.181531
0.630301
0.130546
0.594643
1.12654
-0.245495
0.746674
0.485372
0.555349
-0.603952
0.350974
0.252978
-1.34066
-0.0719965
0.0417625
0.065066
-0.0491312
1.02118
0.733834
0.0794984
0.620389
0.221806
-0.868629
-0.0823195
-0.674345
0.680992
-0.0242151
-0.587218
0.42782
0.870699
0.673681
0.0356171
-0.0991844
-0.159421
-0.316914
1.42078
0.136122
-0.47574
0.020121
0.971672
-0.416323
0.876395
-0.504717
-0.0792908
0.430879
-0.739246
0.927538
-0.188291
-0.413712
-0.19024
-0.0241299
-0.184575
0.0168719
0.763786
0.0207538
-0.00369644
0.628342
0.312057
0.136157
0.603511
-0.132273
0.23872
0.661453
0.30924
-0.970693
0.276598
-0.92325
-0.062155
-1.35896
-0.177616
0.767276
-0.58966
-0.667595
-0.0790094
0.0808
-0.0565677
-1.41195
0.0205525
-0.0425579
0.163256
-0.300007
-0.0751996
0.375207
0.0888262
-0.576921
0.381517
-0.213418
-0.847604
-0.00930168
0.00647387
0.71598
-0.0556393
-0.590559
0.0162674
0.565704
0.304995
0.880739
0.997783
-0.245607
-0.383917
0.629524
0.272652
-0.61913
0.61913
-0.0960341
-0.935022
1.03106
0.0318672
-0.155432
0.68219
-0.116486
-0.222864
-0.348033
-0.377511
0.952616
-0.0704393
0.0642566
0.177212
-0.105889
-0.574659
0.485549
0.0758447
0.0591115
0.013545
-0.762893
-0.453154
-0.194849
0.693376
0.306624
-0.453154
0.693376
-1.15725
-0.884358
-1.15725
-0.696526
0.696526
0.303474
-0.0139806
0.356613
-0.0788934
0.26446
0.0791528
-0.506687
0.641294
-0.0377831
0.659319
-0.504573
-0.154746
-0.0564753
0.0556205
0.000854839
-0.0147569
0.00771474
1.19353
0.0183932
0.0893822
-0.436924
-0.354483
0.126486
0.0465737
0.83598
-0.282686
0.29703
0.148617
-0.0536109
-0.0169107
-0.0132156
0.681619
0.0642206
0.275799
-0.0235166
0.000815442
-0.0179494
0.0839324
0.564782
-0.477763
-0.0870191
1.47964
0.548556
-0.298993
0.878141
0.012056
-0.0658689
0.108913
0.0438265
0.104929
1.0823
-0.420848
-0.0083705
0.00255564
0.972464
0.365467
0.0207592
-0.0207592
0.0219539
-0.0219539
-0.000259563
0.000259563
-0.00714371
0.367353
0.457296
-0.143915
-0.720828
0.482209
0.189003
0.0288533
-0.0864556
-0.485989
0.865412
0.111874
-0.798347
-0.384927
0.751975
0.193755
0.0203295
0.00474366
0.00491199
-0.00491199
0.303434
0.00540713
-0.00540713
0.702533
0.0932305
-0.0190498
-0.00446679
0.00639905
-0.0662592
-0.0211402
0.0211402
-0.00738619
0.00738619
-0.0240183
0.0240183
0.0059346
-0.0059346
0.101416
-0.298123
-0.0815116
0.219719
0.00883981
-0.00883981
-0.374541
0.512093
-0.137552
0.503566
-0.222069
0.0519887
0.245041
0.561454
-0.426994
0.0725636
0.566944
0.568029
0.018966
-0.018966
0.665786
0.0266843
-0.0266843
0.013285
-0.013285
0.754183
-0.319801
0.0521905
0.790024
-0.480646
-0.0212946
0.0212946
0.00629574
-0.00629574
0.0196628
-0.0196628
0.0218594
-0.0218594
-0.02524
0.02524
0.0373896
-0.0373896
0.484594
-0.0339027
0.0339027
0.0219277
-0.0219277
0.0258532
-0.0258532
-0.00833847
0.00833847
-0.0139554
0.0139554
0.0857088
-0.0274989
0.0274989
0.528723
-0.0576129
-0.0419801
0.0419801
0.00679152
-0.00679152
-0.0056042
0.0056042
0.0356909
-0.0356909
0.0243892
-0.0243892
-0.0190669
0.0190669
-0.00718189
0.00718189
-1.32713
0.317754
-0.00837041
0.00837041
0.0195699
-0.0195699
-0.0406442
0.0406442
-0.026751
0.026751
0.0050119
-0.0050119
-0.373002
0.687478
0.25872
-0.0342624
0.0342624
0.0301013
-0.00393458
0.00393458
0.0162486
-0.0162486
0.0357476
-0.0357476
-0.262343
0.421387
0.00800444
-0.00800444
-0.0216509
0.0216509
-0.495837
0.0440024
-0.684799
-0.0298651
0.0298651
-0.445877
0.033236
0.0183949
0.314888
-0.524383
-0.0393076
0.0393076
-0.201017
0.142383
-0.0401516
0.0125641
-0.0125641
0.0010499
0.0484647
0.261656
-0.3242
-0.281166
0.605365
0.195179
-0.00837548
0.00837548
-0.273924
0.61933
-0.345406
0.77228
-0.396586
-0.375694
-0.460618
-0.659748
0.384205
-0.235588
0.198408
-0.229985
-0.572073
-0.0559186
0.189963
-0.222772
0.0169086
-0.0169086
0.00729598
-0.00729598
0.0329992
-0.0329992
0.0252588
-0.0252588
-0.00301686
0.00301686
0.00393183
-0.00393183
-0.700125
0.0570555
0.17604
-0.30097
0.00382953
-0.00382953
-0.0436521
0.0436521
-0.0431985
0.0431985
0.274415
-0.294478
0.0200634
-0.00139531
0.316174
-0.545108
-0.00448434
0.00448434
0.0142414
-0.0142414
-0.0911369
-0.116672
0.500876
0.00227423
-0.00227423
0.0379253
0.00594883
1.0177
-0.486816
-0.0777297
0.564546
-0.632508
-0.270481
0.340747
-0.03745
0.03745
-0.682425
0.279235
0.0537278
-0.0537278
-0.655866
0.362099
0.26527
0.121885
-0.00241639
0.00241639
-0.802007
-0.00142897
0.00142897
0.311453
0.411516
0.0720206
-0.0584061
0.0584061
0.000195833
-0.000195833
-0.0454625
0.0454625
-0.0524966
0.0524966
-0.00162192
0.00162192
-0.0581776
0.0581776
-0.00225914
0.00225914
-0.0491144
0.0491144
-0.0144705
-0.0441969
0.0441969
0.00356212
-0.00356212
0.0519906
-0.0519906
-0.00350261
0.00350261
0.0460173
-0.0460173
0.224941
-0.00574041
0.00574041
-0.00735246
0.00735246
-0.034317
0.0819571
-0.014297
0.014297
0.0051232
-0.0051232
-0.0652578
0.0652578
0.32334
-0.0217438
0.0217438
-0.0564135
0.0564135
-0.00722192
0.00722192
-0.0745145
0.0745145
-0.0131235
0.0131235
-0.0901522
0.0901522
-0.0245007
0.0245007
-0.0930972
0.0930972
-0.690147
0.245717
-0.527987
0.508125
-0.791589
0.0809921
-0.566671
0.393061
-0.0234081
-0.503445
0.00403848
-0.00403848
-0.0591182
-0.720786
0.0445669
-0.0310219
-0.489659
0.995827
0.639095
0.254583
0.0103721
0.110962
-0.396864
-0.577953
0.031819
0.389326
-0.821677
-0.0211853
0.0211853
-0.758818
0.0191179
-0.0191179
-0.00633415
0.00633415
0.373673
-0.308564
-0.0027618
0.0027618
0.0179901
0.0139446
0.59836
0.301043
0.0058376
-0.0114648
-0.00741627
-0.0939127
0.493063
-0.39915
0.42075
-0.349661
0.0133969
0.982623
0.0118281
0.0541671
-0.408573
0.440231
-0.486302
-0.995087
-0.248562
-0.0725678
0.0185656
-0.425525
-0.280543
-0.0031416
-0.00427666
0.00448745
0.775742
-0.554923
-0.0375956
0.0637671
-0.0359229
0.159813
0.196801
0.424862
0.236339
-0.168105
0.212021
0.0782837
-0.0203392
-1.11919
0.00827819
0.346978
-0.422178
-0.0179334
-1.30181
-0.0726394
0.264891
-0.352105
0.392036
-0.160947
-0.815667
0.0624058
-0.174664
0.0582332
-0.346919
0.467084
0.0395459
-0.125221
0.0856755
-0.0291408
0.0291408
0.11453
-0.445352
0.145385
0.0635281
-0.080074
0.055859
-0.064631
-0.00649661
0.0711277
-0.0321647
-0.162325
-0.0774103
-0.239876
-0.289547
-0.357315
0.646862
0.0146452
0.0607613
0.152213
-0.0282699
0.0310348
0.0640359
-0.156184
0.312524
-0.0200258
0.0355071
-0.0273093
0.179522
0.00714835
0.262639
0.00576372
-0.00576372
0.286043
0.590352
0.088758
-0.171077
0.0297803
-0.077641
-0.509356
1.23512
-0.0417133
0.0233817
-0.533259
0.00527238
-0.453104
0.0881252
-0.685439
0.26876
-0.0571661
0.38103
-0.670577
0.212017
0.517459
-0.103234
0.103234
-0.00104299
-0.883952
1.22371
-0.339761
-0.213055
0.156487
0.470658
-0.193805
-0.755567
-0.143196
-0.0193945
0.0189531
0.929458
0.160712
-0.125095
-0.0706724
0.365114
-1.24227
-0.0122313
-0.27315
0.807877
0.58018
-0.264006
-0.29835
0.574233
-0.0723006
0.452133
-0.269057
-0.0207229
-0.465983
0.328431
0.12195
-0.12195
0.135119
0.016145
-0.151264
-0.00223173
-0.00609429
0.018263
-0.462487
0.175717
0.229464
-0.186738
-0.0427268
0.546154
-1.01479
0.011952
-0.326501
0.694321
-0.121699
-0.179271
-0.0401705
-0.0793664
-0.484153
0.0472297
-0.28924
0.000527467
-0.0179334
0.38733
-0.00554495
-0.00586376
0.00290521
0.0221955
-0.0126854
-0.00951011
-0.104662
-0.0266641
-0.17675
0.203415
-0.12814
-0.337843
0.0179901
0.348343
-0.00367502
-0.373916
0.0813972
0.002666
-0.0661749
-0.0777402
-0.0114475
0.0114475
-0.000891689
-0.00109044
-0.00899667
0.00444521
-0.095441
0.000719182
-0.00122172
0.276182
-0.307923
-0.00110722
0.00110722
-0.0386723
0.514634
-0.000984225
-0.293008
0.70474
1.14202
-0.475059
0.336309
-0.439072
-0.0807287
0.226114
0.231855
-0.23144
-0.0274719
-0.0407258
0.00636536
0.00968175
-0.181817
-0.385454
0.867662
-0.00299578
-0.697129
0.28786
-0.00169871
0.136268
0.12061
-0.00236116
-0.00646635
-0.0342595
-1.17547
0.00133595
-0.000208514
0.712743
-0.648707
-0.24743
-0.235604
0.989986
-0.00332133
0.000822547
-0.0401516
-0.00547591
0.817473
-0.433056
0.508901
-0.507918
0.905719
-1.05071
0.581315
-0.188254
0.69972
-3.70145e-05
0.00275695
0.0175726
-0.0716793
0.137687
-0.346224
0.0093826
0.0160856
0.0654288
-0.0502204
-0.0152085
0.000371037
0.0542593
-0.0677353
0.013476
-0.119357
0.00356538
0.00130306
0.0024549
0.497737
-0.427784
-0.0086372
0.000527557
0.711844
0.511868
0.389389
-0.00630835
-0.00526813
0.108571
0.021449
-0.041508
-0.117446
-0.0174429
-0.00389088
0.119536
0.0126006
-0.00164134
0.41321
0.000847742
0.0126006
-0.0126006
-0.00262681
-0.00883795
0.000812669
-0.323068
-0.00390081
0.0752492
-0.107648
-0.118822
-0.0809224
-0.0652104
0.000654814
0.00161205
0.465045
0.000600464
0.00159367
-0.0257236
-0.00226401
0.000751815
-0.390207
0.341281
-0.709824
0.475476
-0.86093
-0.397215
-0.0020784
-0.546257
0.117769
-0.398337
0.594513
-0.0150466
0.242259
-0.00467833
-0.00173718
-0.551879
-0.00365192
-0.000637224
0.00814041
0.955902
-0.55227
-0.0028762
-0.00124346
-0.00685165
-0.0022378
0.102135
-0.0213621
0.0213621
-0.00915965
0.00806921
-0.00209872
-0.00925675
-0.0120425
0.00617878
-0.164509
0.0925122
-0.00590159
-0.0156377
0.0417926
-0.0167089
0.0640623
-0.0454968
-0.626212
0.568527
0.0157434
-0.00108472
0.311126
-0.20042
-0.0694338
-0.684092
-0.0760933
-0.119669
-0.0980648
0.0958008
0.686504
0.000570428
0.0156868
-0.0148643
0.030543
0.0585622
-0.144891
0.0863286
-0.0712782
-0.615093