/*--------------------------------*- C++ -*----------------------------------*\
| =========                 |                                                 |
| \\      /  F ield         | OpenFOAM: The Open Source CFD Toolbox           |
|  \\    /   O peration     | Version:  2306                                  |
|   \\  /    A nd           | Website:  www.openfoam.com                      |
|    \\/     M anipulation  |                                                 |
\*---------------------------------------------------------------------------*/
FoamFile
{
    version     2.0;
    format      ascii;
    arch        "LSB;label=32;scalar=64";
    class       volVectorField;
    location    "48";
    object      U;
}
// * * * * * * * * * * * * * * * * * * * * * * * * * * * * * * * * * * * * * //

dimensions      [0 1 -1 0 0 0 0];

internalField   nonuniform List<vector> 
2186
(
(1.33121 -0.0658231 2.73416e-19)
(1.63358 -0.960232 2.35962e-20)
(1.47821 -0.933259 1.10232e-20)
(0.757627 -0.599552 -1.68783e-19)
(-0.19612 -0.0451268 -2.29137e-19)
(1.31369 -0.0999495 0)
(0.728244 -0.671169 0)
(0.435349 0.240843 9.38225e-20)
(1.43093 -0.176337 8.62847e-21)
(0.563702 -0.331996 -1.70932e-21)
(0.685709 0.614249 0)
(0.816289 -0.305315 -6.75e-20)
(0.416753 0.180327 -3.61921e-20)
(1.21524 0.0198799 -4.00696e-19)
(1.82756 -0.71607 1.4673e-20)
(1.01623 -0.00838053 1.83311e-19)
(0.975552 0.0144684 0)
(-0.557287 -0.843387 0)
(0.703049 -0.0403533 0)
(-0.0408934 0.245061 -1.13363e-19)
(0.489444 0.0742144 -1.17701e-19)
(0.0928395 0.0523253 1.52721e-19)
(1.19964 0.0243068 3.29057e-19)
(-0.26145 -0.0427318 4.02818e-21)
(1.03263 0.00165008 -2.59337e-19)
(0.809872 -0.577128 0)
(0.767477 -0.0413407 1.54348e-19)
(0.614144 -0.591665 -2.04002e-19)
(1.22601 0.701083 0)
(0.958417 0.0215163 -3.53316e-19)
(-0.0254305 0.0699085 0)
(1.02567 -0.0159623 1.22424e-20)
(-0.14137 0.343991 0)
(2.13034 0.364361 -1.08739e-20)
(-0.325641 0.00770302 -5.68058e-22)
(1.58583 0.73016 8.72041e-21)
(1.31322 0.208558 -3.65368e-20)
(0.514322 0.122389 -3.4885e-19)
(1.90145 -0.254758 -3.32013e-19)
(0.874387 -0.0116153 -1.59399e-21)
(0.390419 0.0359403 0)
(0.149854 0.0711994 0)
(1.91005 -0.908552 4.20381e-20)
(-0.208125 0.262239 0)
(1.11478 0.268757 1.43684e-19)
(0.6078 -0.312235 3.03257e-19)
(0.93219 -0.793873 0)
(1.21273 -0.803913 1.55693e-19)
(0.920547 0.168818 0)
(-0.313249 0.158936 2.86309e-19)
(0.0149322 0.130921 1.67564e-19)
(0.648998 0.595484 7.08023e-20)
(2.12201 -0.782352 1.98961e-20)
(0.593191 0.25508 -2.77407e-19)
(-0.276491 0.282516 6.11735e-20)
(0.777697 -0.664104 0)
(1.67877 -0.990964 1.75166e-20)
(0.582791 -0.542647 0)
(2.00179 -0.128116 8.26202e-20)
(1.1545 -0.17679 -4.41465e-19)
(1.26376 0.0259474 -1.19285e-19)
(1.34301 0.279222 -1.51624e-19)
(1.34511 0.520048 0)
(0.699002 0.306285 1.74637e-21)
(1.35101 0.375114 -8.48757e-20)
(1.27617 -0.74936 -2.29162e-19)
(1.1802 0.644544 4.36955e-20)
(0.677055 0.0546891 -5.74959e-19)
(0.825868 0.0423132 0)
(2.32633 -0.162503 -7.83106e-21)
(0.449324 0.283612 -1.12732e-19)
(1.38584 0.328276 1.28186e-19)
(0.729252 -0.0563426 -2.56104e-19)
(0.894392 -0.534055 0)
(0.825206 0.166746 -9.1897e-20)
(0.554745 -0.517421 -3.33124e-19)
(1.28714 0.158329 0)
(1.00703 0.0102874 3.82848e-19)
(-0.367104 0.0663299 0)
(2.22772 -0.000627681 0)
(0.884661 -0.906865 8.36381e-20)
(0.822542 0.0290842 4.84108e-22)
(1.02149 0.00307374 4.30891e-20)
(1.32658 0.375599 2.21824e-20)
(0.967012 0.0215127 4.53465e-19)
(1.03971 0.0237453 -1.06954e-20)
(0.669065 0.15759 -3.37337e-19)
(1.02836 -0.327397 2.50532e-21)
(1.62672 -0.446975 0)
(-0.074368 -0.0499935 4.66755e-20)
(0.881837 -0.640213 -1.96507e-19)
(-0.227163 0.245966 -3.15272e-23)
(1.12314 -0.0810957 2.82085e-19)
(0.828399 -0.19566 0)
(0.96797 0.0226587 4.29445e-20)
(1.38053 0.612008 0)
(1.65638 -0.969813 0)
(1.30033 0.217062 0)
(-0.302352 0.0748703 0)
(0.811654 -0.68346 3.40682e-19)
(0.316592 -1.23081 -8.55083e-21)
(0.471746 -0.911908 8.96713e-20)
(1.52337 0.160595 0)
(1.15447 -0.109661 -2.57872e-19)
(1.1236 0.022965 1.89836e-19)
(-0.158091 0.140421 2.30041e-19)
(0.633826 0.493687 0)
(2.17753 -0.119926 -5.1853e-21)
(0.979842 -0.491637 9.60122e-20)
(0.918908 1.07998 2.49216e-19)
(1.88944 0.133607 1.77262e-19)
(-0.272772 0.184846 -4.19683e-19)
(0.825078 -0.748287 0)
(0.561611 0.328129 1.66455e-19)
(1.71404 -0.187117 -4.07954e-20)
(0.043329 -0.35145 -3.61315e-19)
(0.565673 -0.383098 -5.46682e-20)
(0.586843 0.083484 0)
(-0.101637 -0.0563597 -1.39581e-19)
(0.712654 -0.0861166 8.18445e-20)
(1.61851 0.864253 0)
(-0.237681 -0.119062 -4.26152e-19)
(0.894045 0.762905 -2.427e-19)
(-0.619856 -1.26304 3.61845e-19)
(1.03051 -0.0257739 0)
(0.407871 -0.451754 6.88628e-20)
(-0.275718 0.0902087 0)
(0.716697 -0.5162 -1.20346e-19)
(-0.600156 -1.13063 -2.08792e-19)
(0.798881 -0.725201 0)
(0.448218 -0.304328 4.36922e-19)
(0.553501 -0.474712 3.062e-19)
(0.413188 -0.373135 0)
(1.00236 -0.79808 -1.71371e-19)
(0.813179 -1.06441 0)
(-0.24323 -0.0165149 -2.24245e-19)
(0.827112 -0.711666 1.67521e-19)
(2.30998 -0.240913 3.79419e-20)
(1.84314 -0.13429 0)
(0.162107 0.356911 0)
(0.704618 0.65322 -2.9184e-19)
(1.83809 -0.643919 -3.82532e-20)
(0.360756 0.299039 0)
(1.00707 -0.823241 -1.80851e-20)
(1.1594 -0.105778 0)
(1.09609 -0.130108 4.49038e-19)
(2.15307 -0.135316 1.0221e-20)
(-0.210923 -0.043884 0)
(1.24442 -0.567579 -7.35766e-20)
(0.0689488 0.303562 -7.64596e-20)
(-0.216897 0.203655 0)
(1.11385 -0.830876 1.06232e-20)
(1.00732 0.00656474 -6.39484e-19)
(0.666333 -0.499624 -1.16834e-20)
(0.833509 -0.532722 0)
(1.22484 -0.745556 -1.2942e-19)
(0.656893 0.220855 2.59892e-19)
(1.19131 0.151313 0)
(1.40436 -0.000712738 -1.68092e-19)
(1.21893 -0.873495 -3.14978e-19)
(0.0618789 0.328294 -6.22945e-20)
(0.125354 -1.17583 -1.04801e-19)
(1.06442 0.00650405 2.31655e-19)
(0.937089 -0.480042 -1.20735e-19)
(0.8766 -0.514557 -2.31901e-21)
(1.03784 -0.821474 -3.71298e-20)
(0.761515 -0.140958 6.16938e-20)
(-0.247961 -0.0392283 -1.38795e-19)
(2.22594 -0.354097 0)
(2.21357 0.092264 -6.33749e-20)
(1.4608 0.622154 8.61292e-20)
(0.829162 -0.633357 -2.4851e-19)
(0.996196 0.00889978 1.31092e-20)
(0.737986 -0.55238 3.30934e-19)
(1.32946 0.778528 8.24022e-20)
(1.57587 -0.044801 1.13027e-20)
(-0.185675 -0.181121 0)
(1.08093 0.0422378 -2.37181e-19)
(0.0869653 -1.39646 -2.42899e-19)
(1.06912 0.472705 7.13144e-20)
(0.028463 -0.131367 8.38513e-20)
(1.16481 0.0257524 -4.56638e-20)
(-0.0882834 0.243811 -2.79527e-19)
(1.30894 0.554245 -5.49526e-20)
(1.1571 0.887003 0)
(-0.221219 -0.289971 -1.0089e-19)
(0.0362912 -0.198959 0)
(0.656268 0.556773 -2.62466e-19)
(1.71831 -0.149033 -1.77942e-20)
(0.240062 0.00882476 1.1557e-19)
(-0.356566 -0.928185 -5.45678e-19)
(0.729562 0.0600924 2.52358e-19)
(1.34455 -0.291569 1.18221e-20)
(0.996766 -0.359877 -3.47748e-20)
(0.129458 0.228816 0)
(0.541318 1.43251 2.86847e-19)
(1.39093 0.982115 3.31345e-20)
(0.84525 0.0629312 -1.36859e-19)
(0.568357 0.530751 1.81013e-19)
(0.819907 0.172762 0)
(-0.197796 -0.696009 -1.81384e-19)
(0.514271 1.74209 1.3614e-19)
(1.31893 -0.973003 9.30337e-22)
(0.989002 -0.0424665 -2.01059e-19)
(-0.183979 -0.172728 8.02772e-21)
(-0.101454 0.109119 2.12589e-19)
(-0.329911 -0.157601 -9.94575e-20)
(0.553455 0.385496 0)
(1.12059 0.0369459 -3.15359e-19)
(1.31038 -0.1919 -7.98947e-20)
(1.30212 -0.634247 1.45903e-19)
(0.985252 -0.227394 -2.65173e-20)
(0.592075 0.311736 0)
(0.948493 0.744752 -1.41125e-20)
(0.69955 0.639853 1.6437e-19)
(0.916811 -0.581127 1.77223e-19)
(0.680271 0.48679 0)
(1.02197 -0.00355949 8.60258e-21)
(0.902518 -0.681761 2.5298e-19)
(0.833541 0.409386 -4.35232e-19)
(1.23223 -0.124028 0)
(0.0606344 0.0177154 -2.83229e-19)
(-0.190018 0.211569 -1.81559e-19)
(1.62508 0.680661 0)
(1.3781 -0.956396 -7.96267e-22)
(-0.460114 -0.738632 0)
(-0.192168 0.0895054 1.52093e-19)
(0.736506 0.649141 -9.02165e-20)
(0.865371 -0.235735 0)
(-0.347571 0.101504 0)
(1.65475 -0.474712 0)
(-0.0969021 1.01187 3.3987e-19)
(1.23892 -0.900101 2.053e-19)
(1.20083 -0.617956 8.17009e-20)
(1.08899 -0.177104 -2.06721e-19)
(0.901448 -0.713371 -2.0161e-19)
(0.179554 -0.184169 0)
(-0.737123 -1.35472 0)
(1.0235 -0.529411 2.16531e-19)
(0.322802 0.406787 0)
(-0.421 -0.0250998 0)
(0.0765203 -0.42206 3.1276e-19)
(0.790993 0.664415 7.82731e-20)
(1.02059 0.789261 0)
(0.690778 0.540602 -8.05317e-20)
(0.83472 -0.0586138 -2.32723e-19)
(0.74164 0.551068 -2.14245e-19)
(0.601075 0.556794 -1.55829e-19)
(0.320735 0.304442 8.55447e-21)
(0.727662 -0.652648 0)
(0.898348 0.160815 -3.17555e-19)
(0.390968 0.111139 5.46725e-20)
(0.619585 0.571375 3.43671e-19)
(0.963305 0.795197 0)
(-0.351925 0.0348072 3.08572e-19)
(-0.371327 0.169096 1.95733e-19)
(-0.405222 0.153618 -7.84819e-20)
(0.661488 0.56101 -1.40061e-20)
(0.97067 -0.00732269 6.13439e-20)
(0.318975 -0.0107263 0)
(2.31207 0.193756 -4.35869e-20)
(1.30377 0.86579 1.11923e-19)
(0.656452 -0.606991 -8.9088e-20)
(-0.507559 -1.09425 1.08317e-20)
(1.19715 0.439792 1.52148e-19)
(0.881603 0.396887 0)
(1.06695 -0.186185 2.22942e-19)
(-0.54496 -0.203509 -2.56414e-20)
(-0.0927387 0.189091 6.47687e-19)
(0.928043 0.0146514 -5.66778e-20)
(1.10605 0.151986 0)
(1.88691 0.014432 8.06278e-20)
(1.49442 -0.0637344 0)
(0.542215 0.239104 -4.5866e-19)
(-0.104672 0.108973 0)
(0.392376 0.323778 2.18147e-19)
(0.707924 0.120249 0)
(0.637666 -0.53486 -2.01585e-19)
(1.14814 0.0137627 2.23943e-19)
(-0.311483 -0.082688 5.04361e-20)
(1.21772 0.00938928 -2.27838e-20)
(2.19993 -0.200111 -1.49285e-20)
(1.11183 0.216421 -2.04988e-19)
(0.386552 0.0329578 -1.00539e-19)
(1.09872 -0.867535 0)
(0.813795 0.0188009 -1.62736e-19)
(0.945662 -0.389872 -3.26735e-19)
(1.73245 -0.584779 7.06571e-21)
(1.66897 -0.0111296 -1.25797e-19)
(1.07617 -0.00667039 3.80873e-19)
(-0.404221 -0.263247 -7.49264e-20)
(1.01586 -0.452262 -1.50254e-19)
(0.189947 -0.1826 2.82565e-19)
(1.00841 -0.00617415 0)
(1.00479 -0.00456525 0)
(0.625666 1.23083 6.92606e-22)
(-0.270056 0.17557 -1.65329e-19)
(0.153085 -0.122211 -7.31614e-20)
(1.0798 0.0730825 2.08857e-20)
(-0.11045 0.157117 0)
(1.18301 -0.336234 6.36679e-20)
(0.954865 -0.829858 -1.23653e-19)
(1.83232 -0.581873 -1.5028e-20)
(1.11918 0.83093 0)
(0.474448 -0.457424 0)
(0.603095 0.509084 -1.69966e-19)
(1.09171 0.260582 -3.69302e-19)
(2.20274 -0.218162 -9.43763e-24)
(0.858372 0.146644 1.37392e-19)
(-0.263888 -0.904079 -2.12309e-19)
(1.61972 -0.956773 4.11284e-20)
(0.0728382 -1.14949 0)
(-0.0111348 0.297093 0)
(0.136606 -0.431791 0)
(1.36542 -0.742049 -1.49712e-19)
(-0.212508 0.227626 -3.54731e-19)
(-0.120004 0.153733 0)
(1.33949 0.983586 -7.04916e-21)
(1.1164 0.134926 -3.95266e-19)
(1.15249 0.230991 1.31413e-20)
(1.11282 0.939573 4.37334e-20)
(-0.282164 0.269051 2.1945e-19)
(1.44184 -0.317395 0)
(0.0905823 -0.583422 -2.49682e-19)
(-0.238056 0.223604 3.979e-19)
(0.776516 0.0177393 1.887e-19)
(1.60308 0.918073 7.19537e-20)
(0.214031 -0.021342 -1.59444e-20)
(-0.229775 0.286291 4.39834e-21)
(0.75065 -0.68485 -4.61029e-20)
(1.03436 -0.064377 0)
(1.39078 -0.00663171 0)
(1.07621 0.0638643 0)
(1.22897 1.65807 -1.58324e-19)
(0.149955 -0.538358 8.59145e-20)
(1.05775 0.842104 0)
(1.00196 -0.00624167 5.40295e-19)
(0.764295 0.59333 -2.12823e-19)
(0.73591 1.53265 -1.79297e-19)
(0.860618 0.00561792 -4.2565e-20)
(0.724745 -0.6592 -2.61907e-19)
(1.40918 0.669744 -1.43732e-20)
(0.577077 -0.471751 -3.14855e-19)
(1.13072 -0.00510067 -4.72114e-19)
(0.818887 0.0499648 4.96336e-20)
(1.5642 -0.149543 1.21557e-19)
(1.70833 -0.0421642 1.03301e-19)
(0.242885 0.305585 4.03649e-21)
(1.08086 0.455816 -2.40406e-19)
(1.58546 0.626902 1.3775e-19)
(-0.576799 0.18167 0)
(-0.073839 -1.04096 8.63216e-20)
(0.0617453 -0.0720043 1.21161e-19)
(-0.215708 -0.108459 -6.59238e-20)
(0.475129 0.296404 0)
(0.802706 1.13295 0)
(-0.0422627 0.0469395 -2.3317e-19)
(0.252407 0.0696779 -6.13743e-20)
(1.04638 -0.031636 1.87116e-19)
(-0.0972217 -0.174334 -5.03379e-20)
(0.180542 -0.350072 1.81514e-19)
(-0.0618861 0.151157 0)
(0.845979 -0.748316 -3.77094e-19)
(1.73885 -0.19916 -1.82152e-19)
(0.161798 -1.29243 1.43866e-19)
(0.721257 0.145988 3.28332e-19)
(0.624631 0.121203 1.06836e-19)
(0.503386 -0.477866 2.25323e-19)
(0.393575 0.291646 -1.11485e-19)
(0.202868 0.362437 0)
(0.391521 0.333469 -1.93052e-19)
(1.02708 -0.0178874 -2.99158e-19)
(-0.401302 -0.948025 2.12748e-19)
(1.43324 0.421531 -7.36864e-20)
(0.34546 0.39151 -4.16098e-20)
(0.692456 -0.631088 -1.11288e-19)
(0.816831 0.169322 -2.02512e-19)
(0.972926 0.410883 2.09503e-20)
(1.15794 -0.141347 4.05508e-20)
(0.615597 -0.249866 -3.18444e-19)
(2.07873 -0.340512 2.39634e-20)
(1.61776 0.166924 0)
(1.09189 0.00890081 1.74634e-20)
(1.2554 0.254389 -3.67615e-21)
(0.976502 -0.380004 3.95412e-20)
(1.52104 0.221324 -2.9094e-19)
(1.00057 -0.199229 2.14752e-21)
(0.422937 0.386233 -2.47322e-19)
(-0.342814 -0.764996 3.08151e-19)
(2.17508 -0.134738 0)
(0.925889 0.0017341 0)
(0.884433 -0.779571 7.82242e-20)
(-0.402299 0.147214 -2.14164e-19)
(-0.676837 -1.45157 -2.05297e-19)
(0.289432 0.348076 -1.50083e-19)
(-0.463709 -0.272015 -2.06541e-19)
(0.00727795 -1.23847 0)
(-0.0241226 0.244441 2.14648e-20)
(0.357197 -0.0378414 -1.74796e-19)
(-0.112234 0.0929602 -4.79069e-19)
(0.805511 -0.128088 0)
(1.45054 0.678559 -2.94536e-20)
(0.053801 0.0479145 0)
(0.990789 0.0250806 3.86889e-19)
(-0.0126262 -1.08233 3.05051e-20)
(0.551307 -0.442143 4.22126e-19)
(-0.136161 -1.3894 4.004e-19)
(0.208271 0.220513 0)
(0.139917 0.00999165 2.07982e-19)
(1.00256 0.0198071 -1.16747e-20)
(-0.235403 -0.0387079 0)
(1.0061 -0.00790027 -5.94232e-20)
(0.879856 -0.740536 -3.49246e-19)
(0.607771 1.05349 0)
(0.945615 -0.281319 2.33393e-19)
(-0.113579 -0.347364 3.54876e-19)
(0.0230498 0.0812688 0)
(-0.0855435 -0.86579 -4.74779e-21)
(0.741202 -0.646606 -4.84344e-19)
(0.97612 -0.0375546 -2.95123e-19)
(-0.49166 0.0372172 2.75687e-19)
(0.245048 0.384233 1.36102e-19)
(0.00511733 -1.23766 0)
(0.953383 0.458823 0)
(0.130805 -1.18621 1.44731e-19)
(2.40259 0.396028 -6.49791e-20)
(1.09665 0.903417 1.29904e-20)
(1.06264 0.201388 -1.19194e-19)
(1.15693 0.0143479 -2.55904e-19)
(1.05716 -0.0846331 -9.87752e-20)
(-0.338546 -0.0706781 -2.98406e-19)
(1.15495 -0.078104 -6.62565e-20)
(0.653655 0.0206787 1.93878e-19)
(1.82153 0.0559492 -2.24532e-20)
(1.07028 -0.163307 0)
(1.63438 1.20402 4.54877e-19)
(1.14389 0.0246074 -5.24114e-19)
(1.77276 0.545841 -3.82286e-20)
(0.755122 -0.472687 -1.77393e-19)
(-0.0944186 -0.0379899 1.04546e-19)
(0.809579 -0.709817 4.54318e-19)
(1.23651 0.195328 6.49085e-20)
(1.0072 -0.00694589 2.63071e-19)
(-0.285101 -0.664373 -1.07113e-19)
(1.02207 0.0131468 0)
(0.965285 0.0937652 8.56056e-20)
(-0.020128 0.0737828 0)
(1.01051 0.0118304 -1.57747e-19)
(0.177204 0.749162 -4.46818e-19)
(1.63054 0.169848 1.0772e-20)
(0.0239221 -0.454202 1.5083e-19)
(1.42697 0.0114877 -1.32839e-20)
(1.01473 -0.0205293 5.41391e-20)
(1.319 -0.103906 0)
(1.47231 -0.625296 -2.31226e-19)
(1.01771 0.0261002 -1.5735e-19)
(1.4748 0.769162 4.83459e-21)
(1.34542 -0.00520255 0)
(1.09374 -0.761908 1.00594e-19)
(-0.0515611 0.0535533 0)
(1.3797 0.0564962 0)
(0.250309 -0.343168 0)
(1.23425 0.434054 0)
(1.99411 -0.0102539 6.63921e-20)
(0.739337 0.607633 3.7258e-19)
(0.28465 -0.28557 -2.66725e-19)
(0.208529 0.202315 -3.50054e-19)
(0.0881501 0.226262 0)
(1.89541 0.416476 -1.05859e-19)
(1.7292 0.440576 0)
(1.44658 0.256049 0)
(0.0824975 -0.810524 1.08561e-19)
(0.821017 0.719183 1.09887e-19)
(1.69067 -0.00374763 0)
(0.337527 0.137401 7.03816e-20)
(0.907743 0.207422 1.86253e-19)
(2.08708 0.103054 5.9333e-20)
(1.27159 0.925744 2.65446e-20)
(0.93075 -0.836115 -5.89601e-20)
(1.87881 0.0852745 8.7028e-20)
(0.810677 0.728269 1.1068e-19)
(1.21359 0.932248 0)
(1.44826 0.275565 -1.42236e-19)
(2.05999 1.55992 0)
(1.78139 0.144449 6.3563e-20)
(1.3382 0.060279 3.27556e-19)
(1.00478 -0.00401636 0)
(1.12853 1.47772 3.2673e-19)
(0.893176 -0.183001 5.24423e-20)
(0.645506 -0.429309 0)
(0.680855 -0.399055 2.28744e-19)
(1.24758 0.541432 -2.71062e-20)
(0.486656 0.456927 2.64561e-19)
(-0.109399 0.0774315 5.4653e-20)
(0.849107 -0.0167491 1.91389e-19)
(0.766525 0.0798049 0)
(1.34585 -0.917133 -1.54276e-19)
(1.02754 -0.0440624 4.13898e-19)
(1.72972 0.215431 2.29805e-19)
(0.240786 0.1069 5.75358e-20)
(0.178924 -1.04077 0)
(1.24772 -0.243018 -1.39851e-19)
(0.0509893 0.104113 -9.10978e-20)
(1.30166 0.278328 -5.57273e-20)
(-0.182926 0.106532 -1.95238e-21)
(-0.244963 0.15675 5.26672e-19)
(1.37747 -0.793847 -8.17423e-21)
(2.30249 0.0353253 5.83729e-20)
(1.19434 0.427562 -2.45363e-19)
(0.796857 -0.0521357 0)
(1.29705 0.00284062 3.05827e-20)
(1.67089 0.139785 -2.3615e-20)
(0.929361 -0.778538 1.75862e-19)
(1.17126 -0.986227 -8.56717e-20)
(0.492371 0.455012 1.75085e-19)
(2.27387 1.27024 0)
(1.80373 0.463835 7.61467e-20)
(0.047509 0.142386 -1.89721e-19)
(0.897924 0.777052 0)
(0.335965 0.00161676 0)
(0.285342 -0.285892 -3.02892e-21)
(0.327741 0.298015 0)
(-0.0151061 -1.10358 -4.1289e-19)
(-0.161753 0.0884373 -1.69885e-19)
(1.7883 -0.452911 0)
(1.17514 0.113331 1.26106e-19)
(-0.703124 -1.41011 1.72475e-19)
(0.534963 -0.50636 -5.27306e-19)
(1.85581 -0.0320951 7.10867e-21)
(0.613594 -0.557533 0)
(1.01819 0.116174 0)
(1.42861 -0.251713 0)
(1.11665 0.221426 -2.17883e-19)
(1.31384 0.0891489 3.0668e-19)
(0.149211 -0.0364711 0)
(0.903455 -0.0762855 0)
(1.18348 0.0314107 2.12602e-20)
(-0.153024 0.182294 1.78613e-19)
(1.30627 -0.0839767 1.07361e-19)
(1.05654 -0.527906 8.82124e-20)
(1.06329 0.000978978 1.27872e-19)
(-0.578595 -1.24987 -1.53465e-19)
(1.34414 -0.117609 -2.33847e-20)
(1.01844 -0.0277391 4.38017e-19)
(1.54555 0.541964 0)
(-0.277261 0.177239 4.6217e-20)
(1.02184 -0.842165 2.30031e-19)
(0.86379 -0.0264544 4.97533e-20)
(0.648201 -0.452547 0)
(1.97304 -0.547828 -7.54754e-21)
(1.22765 -0.204725 1.88675e-19)
(1.88912 0.298713 0)
(0.61047 -0.564927 5.49969e-19)
(0.294963 -0.0937143 4.40485e-20)
(1.3285 -0.0817793 -1.80424e-19)
(-0.161505 0.185999 -3.61632e-19)
(1.34956 0.597686 1.05441e-19)
(1.15231 0.391012 3.23902e-21)
(0.906008 0.36126 2.13964e-19)
(2.2745 0.467105 -9.07139e-20)
(-0.392083 -0.174693 -6.65179e-22)
(0.84937 -0.295092 0)
(-0.150305 -0.127168 1.76182e-19)
(1.10286 -0.959171 0)
(1.08325 -0.668838 2.70354e-20)
(1.72464 0.103464 -4.1181e-19)
(0.960249 -0.888016 -4.20529e-21)
(-0.01112 -1.24686 -3.02063e-19)
(0.991069 0.468753 1.5911e-19)
(0.960998 1.72098 1.74966e-19)
(0.686467 -0.0390981 0)
(1.31251 0.163862 0)
(0.642467 0.176434 -6.74639e-21)
(0.786274 -0.0194609 0)
(1.38245 -0.200908 -1.94146e-19)
(-0.609179 -1.51387 4.96932e-19)
(1.92059 0.377154 7.58884e-20)
(1.03418 -0.0352476 0)
(0.562066 -0.370942 1.14506e-19)
(1.00699 0.0281294 2.07366e-19)
(1.65254 1.68398 -1.02044e-19)
(-0.406543 -0.867335 0)
(1.1399 -0.496555 6.00814e-19)
(1.49112 -0.00242515 4.91672e-22)
(1.11806 -0.506707 -2.61042e-19)
(2.02867 -0.0104494 1.67802e-19)
(1.30718 0.78231 0)
(0.855371 0.0170339 0)
(0.176344 -0.0356279 -1.43212e-19)
(-0.0418108 0.0531946 2.6243e-19)
(0.9475 0.354316 -1.94929e-19)
(-0.088915 -0.72259 -1.6342e-20)
(0.64443 0.395661 2.36424e-19)
(1.00133 -0.698425 0)
(0.536534 -0.497812 0)
(1.20593 -1.03889 -1.6969e-20)
(1.25106 -0.516709 -1.27849e-19)
(0.729857 0.091517 4.67921e-21)
(0.742741 -0.167719 1.24936e-19)
(-0.116297 0.177742 -4.72219e-19)
(0.955866 -0.617543 -2.3805e-20)
(0.67717 0.629323 0)
(1.28784 0.672836 0)
(1.57862 0.224172 0)
(0.067438 -1.16241 -1.27531e-19)
(1.50904 0.58494 3.69214e-19)
(1.77972 0.179227 -6.9375e-21)
(0.901797 -0.00707711 0)
(2.43662 -0.469226 0)
(1.32759 -0.033336 3.6834e-20)
(1.31852 1.47619 1.17214e-19)
(1.00517 0.00634527 -2.06082e-19)
(1.48094 0.457142 0)
(-0.535065 -0.453427 0)
(1.24356 0.291747 2.53141e-19)
(1.02458 0.513684 -1.15604e-19)
(1.07085 0.016009 0)
(2.39837 0.830957 0)
(2.19257 0.543395 -5.17678e-19)
(-0.22094 0.281175 -3.37159e-21)
(0.996608 0.0130971 0)
(0.705761 0.461139 -3.18866e-20)
(0.946118 -0.83126 0)
(0.99726 0.0159876 4.82835e-20)
(1.03929 0.186886 -3.62169e-19)
(0.914647 -0.334522 3.46266e-19)
(1.46231 -1.00412 3.06247e-19)
(2.20495 -0.051329 1.05087e-21)
(0.540706 0.116161 -4.38716e-20)
(0.799287 -0.041756 0)
(1.02107 0.00777596 0)
(0.194622 -1.16197 0)
(0.686555 0.655632 -1.65174e-19)
(-0.0909702 0.139758 3.17414e-19)
(1.16452 0.335581 -4.08604e-19)
(-0.304081 -0.303674 0)
(0.82772 0.633531 1.54642e-19)
(1.02059 -0.343199 0)
(1.00612 0.000343568 1.20353e-19)
(1.50721 0.910264 5.60885e-20)
(1.03347 0.39132 2.31031e-19)
(1.18981 -0.610305 0)
(1.68463 -0.14432 -2.16752e-20)
(0.835459 -0.120118 -3.85269e-19)
(0.0340857 -0.854753 -6.10899e-19)
(1.6761 1.30244 0)
(0.876573 0.226384 1.70904e-19)
(2.24724 -0.0234657 0)
(0.773604 0.510115 3.41644e-19)
(-0.48536 -1.12635 2.39192e-19)
(-0.112623 0.150402 0)
(0.60513 0.574739 -6.52934e-20)
(1.04642 -0.655691 -1.89019e-19)
(0.485643 -0.267932 -1.27332e-19)
(1.02305 -0.019972 0)
(-0.353641 -1.26183 -1.8919e-19)
(0.647637 -0.578594 9.09207e-20)
(0.906651 0.274291 0)
(0.947177 0.748449 -7.57514e-20)
(1.00082 0.843826 1.97295e-20)
(1.44866 -0.381759 3.4929e-19)
(-0.136457 0.170963 -6.84423e-20)
(0.23424 -0.0548533 -5.65874e-19)
(0.173818 0.370845 6.8524e-21)
(0.818361 0.342657 2.35411e-19)
(-0.229103 0.200602 -8.29967e-21)
(1.43866 -0.659198 3.00668e-21)
(1.02414 0.0024597 -3.61799e-19)
(-0.0279547 -1.28659 0)
(1.03556 0.0256857 -4.09595e-19)
(2.25923 0.681928 7.54215e-20)
(0.886893 0.681842 2.52063e-19)
(1.14285 -0.0806642 1.77135e-19)
(1.00576 -0.0368051 1.67452e-19)
(1.08786 -1.17308 2.93582e-21)
(0.112396 0.0933885 -1.591e-21)
(1.75195 -0.894691 1.47808e-20)
(1.14633 -0.148023 -1.0064e-19)
(0.828214 0.0679474 1.16835e-19)
(0.926686 -0.307262 9.89393e-20)
(0.165911 0.020689 0)
(0.965375 0.727329 0)
(1.70688 0.717943 -6.68086e-20)
(1.85538 0.0797989 -1.71787e-20)
(-0.36194 -1.50114 1.79773e-19)
(1.04292 -0.549545 -6.18527e-19)
(0.627891 -0.54723 4.2916e-19)
(1.64139 -0.38604 -1.08041e-19)
(-0.302533 -0.232832 4.06925e-21)
(2.00095 -0.921277 0)
(0.756157 0.102873 -6.82404e-21)
(2.09639 -0.428569 -1.29929e-19)
(1.04709 0.753396 0)
(1.56687 -0.0810265 0)
(-0.0277143 -0.808765 0)
(0.437256 0.375965 -5.34234e-20)
(0.359968 0.0226031 0)
(1.5185 1.27241 3.08308e-20)
(1.21135 0.181371 5.86805e-21)
(0.321446 1.16536 2.13876e-19)
(0.257724 0.341833 -1.61236e-20)
(1.8593 0.315568 -1.34048e-19)
(2.09941 -0.275147 -3.33763e-21)
(-0.218255 0.0619319 -3.7417e-19)
(-0.150121 -1.09383 3.53175e-21)
(0.313627 0.0149322 0)
(0.675246 -0.0339087 0)
(1.00003 0.00209452 1.43222e-22)
(0.0521082 -1.23773 0)
(1.46846 0.0820724 7.12613e-20)
(0.680221 -0.0305207 0)
(1.06437 0.0152528 1.41468e-19)
(0.98491 0.0167468 -4.71441e-20)
(0.683586 -0.47984 3.84531e-21)
(1.06187 -0.0207735 -9.38868e-22)
(0.959102 -0.198446 -5.92462e-20)
(1.029 -0.0331554 3.93549e-19)
(0.682124 -0.619574 2.07968e-19)
(0.186351 1.38816 -1.78337e-19)
(0.370106 0.013816 -4.22564e-20)
(-0.0496284 0.0744069 0)
(1.13994 0.787337 0)
(1.02948 -0.0120374 0)
(1.02383 -0.789737 -1.35296e-19)
(1.05109 -0.898826 9.22592e-20)
(0.240578 -0.447581 7.89227e-20)
(1.34218 1.11349 -8.84128e-19)
(1.57672 -1.18293 -5.48382e-20)
(0.593816 -0.401004 -6.75611e-19)
(0.73722 -0.0584785 5.02693e-20)
(1.39658 -1.39922 2.22414e-19)
(2.14557 -0.28531 -7.30821e-21)
(0.332527 -0.023746 4.59586e-20)
(0.407332 0.227425 -1.07508e-19)
(1.11633 0.540316 1.68099e-19)
(-0.557255 0.0234856 0)
(0.155883 -0.950304 1.54784e-19)
(-0.137797 0.128125 2.20503e-21)
(1.0258 -0.0439848 3.40709e-19)
(1.02416 -0.003129 -8.97475e-21)
(1.11132 -0.0135314 -9.45414e-20)
(1.12105 -1.04037 3.48502e-20)
(1.59625 0.279314 3.427e-20)
(0.397993 -0.374405 -3.40533e-19)
(0.456925 -0.273364 -1.5756e-19)
(1.03443 -0.0041794 -2.59214e-19)
(0.151251 0.0432692 4.34644e-20)
(0.959811 -1.09181 0)
(1.11593 0.578637 -3.12771e-19)
(1.00228 -0.00252976 9.83412e-20)
(0.679164 0.603295 2.43841e-19)
(1.86672 -1.37843 3.39291e-21)
(1.06638 -0.0119493 -3.02692e-20)
(1.12546 0.00782166 8.6726e-22)
(1.46054 -0.219213 -3.25684e-21)
(0.282339 -0.0559871 0)
(1.04436 -0.0397232 0)
(1.04963 -0.0338146 6.00896e-19)
(1.00278 -0.000976998 0)
(0.0295789 0.215148 0)
(0.944811 -0.587273 0)
(1.00133 0.00159018 -5.71943e-19)
(1.17899 -0.696206 1.14341e-19)
(1.02255 -0.00650903 1.21324e-20)
(1.38836 0.946875 -2.48831e-21)
(1.59482 0.998748 -1.87644e-19)
(1.57116 -1.42197 9.56945e-20)
(2.03217 0.879407 8.74544e-20)
(0.212484 0.121326 0)
(-0.114354 0.20687 0)
(2.30554 0.072963 2.15267e-19)
(1.14787 0.681249 0)
(1.00029 -0.00361447 -1.76232e-19)
(1.0103 -0.000177131 3.42707e-19)
(1.40656 0.118011 -6.08687e-20)
(-0.0177318 -0.11875 1.36453e-19)
(0.968039 -0.00332732 1.84815e-19)
(0.614215 -0.188568 -1.00015e-19)
(0.553739 -0.0241144 1.96071e-20)
(1.03515 -1.33848 3.17796e-22)
(0.929434 0.0171485 -1.91151e-19)
(1.00365 0.00489873 2.23025e-19)
(1.00009 0.000931402 1.31255e-20)
(0.790804 -0.0120054 0)
(0.730302 -0.0262706 0)
(0.72675 -0.0267347 1.05242e-21)
(0.702796 -0.0283444 0)
(1.8924 -0.0942186 0)
(0.611826 -0.216395 0)
(0.311344 -0.107836 -1.94974e-20)
(0.47224 0.302162 6.52095e-21)
(0.702218 0.125078 0)
(0.697577 -0.276382 2.40577e-20)
(0.853558 -0.782558 0)
(1.03492 -0.125708 0)
(0.61328 -0.113308 0)
(0.3552 0.0384308 1.72526e-20)
(0.284768 0.00479571 -8.7697e-20)
(0.781592 0.0216811 0)
(0.784544 0.0201138 0)
(0.968058 0.0195588 -2.35077e-19)
(0.813242 0.00904845 4.35923e-19)
(1.00919 -0.00119792 0)
(1.00035 -1.2743e-05 4.1117e-19)
(1.00002 -0.000441253 -1.84013e-22)
(0.785398 0.0216103 3.73661e-19)
(0.991566 -0.0087084 -2.12511e-19)
(0.966156 -0.211236 0)
(0.0513079 -0.163336 -1.96181e-20)
(1.00065 -0.000120364 -2.07067e-19)
(0.999383 0.00242281 -3.56641e-19)
(1.24386 -0.989008 0)
(0.999009 0.00255432 0)
(0.99972 0.000824744 0)
(2.03758 -1.04372 -1.9389e-22)
(1.04252 -1.385 -6.0859e-20)
(0.32643 -0.0821839 0)
(-0.0913392 -0.140296 2.3826e-19)
(1.42097 1.54739 -3.17259e-19)
(1.02019 -0.020353 -2.75887e-19)
(0.305769 -0.25943 -9.76805e-20)
(1.01756 -0.00281097 -2.2381e-19)
(1.18395 -0.227929 -1.46659e-19)
(0.813346 -0.486616 3.39768e-19)
(0.220266 0.318229 -5.53666e-20)
(1.03051 0.00962372 0)
(1.04542 -0.0153909 -5.76711e-20)
(0.861586 0.0250816 0)
(-0.0661124 0.124928 4.62921e-19)
(1.27279 0.435854 0)
(0.157745 -0.847021 -2.23723e-19)
(0.465135 -0.127906 7.44964e-20)
(1.70642 0.607706 1.16914e-19)
(-0.0987779 -0.00214542 0)
(1.05353 -0.0373705 1.85639e-19)
(1.43291 -1.47485 -9.27194e-21)
(0.928718 -0.0189813 2.91505e-19)
(1.01284 -0.00837835 -1.87247e-19)
(1.75432 0.804305 1.12025e-19)
(0.5313 0.496499 0)
(0.447659 0.394816 2.01041e-19)
(2.37897 -0.829309 1.75829e-21)
(1.15007 0.120633 1.81005e-19)
(1.10582 -0.725947 0)
(1.02122 0.0015832 0)
(1.00036 -0.0175728 -4.31357e-19)
(1.01832 0.0152605 -4.25481e-19)
(0.068697 0.385367 0)
(1.24347 0.811878 -8.41119e-20)
(1.74127 -1.23876 -3.61364e-21)
(1.01742 0.00446839 1.62424e-19)
(1.01154 0.0142233 -2.0512e-19)
(0.0572021 -0.906716 -2.21444e-20)
(1.38137 -1.53088 1.25343e-19)
(1.01888 -0.0193038 6.90729e-19)
(1.25351 -0.6452 0)
(1.94698 0.54532 -1.20777e-19)
(1.01578 -0.0135744 -2.15948e-19)
(1.61213 0.238588 2.29998e-20)
(1.06359 0.00127351 -4.89269e-22)
(1.0115 -0.0087045 4.30477e-20)
(2.18922 -0.139003 -3.13447e-20)
(1.01529 0.00776324 2.11073e-19)
(0.91022 -1.10616 -2.92093e-20)
(1.01936 -0.00146567 0)
(0.933061 0.137879 4.87804e-20)
(0.544447 0.1967 6.82992e-21)
(1.00055 0.0209511 2.1015e-19)
(1.0418 0.019822 -4.64023e-22)
(1.48568 -1.23603 -1.29005e-21)
(1.25401 0.306952 3.4818e-19)
(0.996377 0.0144876 1.44905e-19)
(1.0179 -0.0150086 6.4634e-22)
(1.67126 0.154844 -7.12388e-21)
(2.00525 0.954534 -1.75916e-19)
(0.780758 -0.699308 7.32052e-20)
(0.457658 -0.344188 -3.22795e-19)
(1.00829 -0.011244 0)
(1.01945 0.00235139 5.24153e-20)
(1.01074 -0.00859991 1.09596e-19)
(1.33277 -1.46402 -1.55541e-20)
(1.0136 0.0035677 -2.19589e-19)
(1.03047 -0.0275137 2.54839e-19)
(1.00892 -0.0064438 -2.04786e-19)
(1.01384 0.00410706 -5.20495e-22)
(1.01447 0.00317703 -4.68711e-22)
(1.02494 0.01281 2.1068e-19)
(0.904478 0.0794373 5.14054e-19)
(0.765394 0.462443 0)
(1.27469 -0.0305655 2.41465e-19)
(1.011 -0.00563876 0)
(1.02235 -0.0251996 -6.04946e-20)
(1.53934 0.378312 -4.47081e-20)
(1.53801 0.098205 0)
(1.74611 0.309752 1.10587e-19)
(1.08012 1.05183 -5.39263e-21)
(0.736463 -0.0155868 0)
(2.30034 0.114707 0)
(1.01677 1.32268 -5.03799e-20)
(0.997025 -1.04558 -1.20442e-20)
(1.01689 -0.00621629 -2.20502e-19)
(1.1364 -0.576155 -7.49031e-20)
(1.23852 -0.734561 2.37483e-21)
(0.323701 -0.304738 0)
(1.9756 -1.13836 0)
(1.14606 0.329311 0)
(0.354167 -0.159315 1.97603e-19)
(0.768721 -1.26155 -7.64034e-20)
(0.699645 1.46776 0)
(0.137644 -0.912293 -3.596e-19)
(1.78421 0.94699 -1.64534e-19)
(1.00738 -0.00264194 -4.31881e-19)
(1.04351 -1.31965 -4.55277e-21)
(1.02212 0.00223365 2.86382e-19)
(0.672681 -0.0411151 0)
(-0.115761 0.320062 -1.70217e-20)
(0.609645 0.419745 -3.32357e-19)
(0.761609 0.499135 -2.72237e-20)
(0.279526 -0.310353 0)
(0.802966 0.0683519 9.68516e-20)
(0.532146 0.506992 4.90423e-20)
(1.21001 0.881865 -2.06814e-20)
(-0.0475613 0.0164677 6.55108e-20)
(1.01755 0.00934471 0)
(0.505996 -0.801964 -7.80015e-20)
(1.01146 -0.00314065 1.61711e-19)
(1.708 -0.289697 0)
(1.01053 0.00743092 2.71891e-19)
(0.0672089 -0.784721 -6.36163e-20)
(1.01936 0.00742903 -1.67939e-19)
(0.536457 -0.837016 0)
(1.62224 0.446015 -5.31817e-22)
(1.00851 0.00478501 -1.12803e-19)
(0.994522 -0.0350259 2.97499e-19)
(1.09685 0.0858674 -4.61581e-21)
(0.571896 -0.423851 1.22682e-19)
(-0.157155 -0.0933981 1.7674e-19)
(2.0987 -0.16573 1.92636e-19)
(0.653803 -0.316161 -1.37891e-19)
(0.797445 0.0154731 -4.09461e-19)
(0.794914 0.0228906 0)
(0.836015 -0.97306 -1.25454e-19)
(1.02276 -0.0227039 -3.24546e-20)
(0.977995 0.018248 0)
(1.05333 -0.00565238 -2.03982e-19)
(0.895424 0.116304 1.80003e-19)
(-0.208969 -0.983215 2.83563e-19)
(2.22737 -0.59051 0)
(-0.351805 -0.302096 -5.20914e-19)
(1.52666 -0.351203 0)
(1.04127 -0.018623 6.02272e-20)
(1.27509 -0.849512 -7.14108e-21)
(1.01313 -0.00597437 1.75613e-19)
(-0.72079 -1.23288 3.62175e-19)
(1.01942 0.00233774 0)
(0.99338 0.00397172 -4.18153e-19)
(1.00722 0.00923554 2.22968e-19)
(0.678398 0.14699 0)
(1.65068 -0.865974 4.73279e-20)
(0.956725 -0.000587703 -1.90862e-19)
(0.156446 -0.235873 3.82232e-19)
(1.00318 0.000468671 -2.17363e-19)
(1.00296 0.0184703 -5.11523e-19)
(1.69671 -0.620122 -3.24811e-20)
(0.313515 0.238598 -8.09765e-20)
(0.813643 0.694555 -1.58064e-19)
(0.797516 0.342399 0)