/*--------------------------------*- C++ -*----------------------------------*\
| =========                 |                                                 |
| \\      /  F ield         | OpenFOAM: The Open Source CFD Toolbox           |
|  \\    /   O peration     | Version:  2306                                  |
|   \\  /    A nd           | Website:  www.openfoam.com                      |
|    \\/     M anipulation  |                                                 |
\*---------------------------------------------------------------------------*/
FoamFile
{
    version     2.0;
    format      ascii;
    arch        "LSB;label=32;scalar=64";
    class       surfaceScalarField;
    location    "45.5";
    object      phi;
}
// * * * * * * * * * * * * * * * * * * * * * * * * * * * * * * * * * * * * * //

dimensions      [0 3 -1 0 0 0 0];

oriented        oriented;

internalField   nonuniform List<scalar> 
3181
(
-1.10522
0.433823
0.671398
-0.438098
0.408201
0.0298962
0.580826
-0.40066
-0.180166
0.142819
-0.23208
0.0892614
0.0442644
-0.082439
0.0381746
0.0227165
0.452322
-0.475038
0.168226
-0.16113
-0.00709693
0.0439035
0.00816941
-0.0520729
0.572148
-0.965477
0.393329
-0.0730834
0.160046
-0.0869623
-0.0100476
-0.043974
0.0540216
0.18779
0.0332784
-0.221068
-0.0208884
-0.0341126
0.055001
-1.11051
0.14445
0.966062
-0.359103
0.785475
-0.426372
-1.11667
0.62682
0.489852
0.0867228
-0.931721
0.844998
-0.15354
0.0215717
0.131968
0.556951
-0.921417
0.0343477
-0.00530275
-0.029045
0.00250633
-0.0650298
0.0625235
-0.0308754
0.0378488
-0.00697344
1.07994
-1.04727
-0.0326737
0.0494758
0.0398648
-0.0893405
-0.959168
0.317361
0.641806
-0.117118
0.259936
0.322026
-0.220071
-0.101955
0.0337
0.071257
-0.104957
-0.373851
0.304603
0.0692476
-0.0305686
-0.0354267
0.0276872
0.00773945
-0.0257686
-0.933399
-0.00765437
-0.0698303
0.0774847
-0.178862
0.96701
-0.788148
-0.0447939
0.0444791
0.000314811
0.168466
0.246787
-0.415253
0.679132
-0.857994
0.0593329
-0.0568265
1.3376
-0.754401
-0.583202
-0.23043
0.253147
-0.14584
0.124951
-0.0227262
-0.00814915
-0.465641
0.106538
-0.0928307
0.0701045
-0.597301
0.136155
0.461146
-0.173623
0.10054
-0.191705
0.196697
-0.004992
-0.300389
-0.0858813
0.38627
0.420266
0.91065
-1.33092
0.0292329
-0.0633876
0.0341547
-0.00107895
-0.0882633
0.0934915
-0.00522823
0.555102
0.230373
-0.0995146
0.113118
-0.0136034
0.0981335
-0.105788
-0.193502
0.223644
-0.030142
0.183537
0.0687385
-0.252276
0.124409
-0.131132
0.00672297
1.00259
0.335008
-0.898042
-0.207179
-0.0672963
-1.60499
1.67229
0.515457
0.203777
-0.719234
-0.416541
-0.178897
0.595439
-0.521816
0.291386
-0.23977
0.755227
-0.358404
-0.113423
0.471828
-0.192842
-0.181008
-0.21013
0.155375
0.0547548
0.0874871
0.304029
-0.391516
-0.476515
1.04866
-0.0384656
0.0823691
-2.0782
2.01091
0.224994
0.0970318
-0.20731
-0.116374
0.323684
-0.275918
0.330824
-0.0549064
-0.0948634
0.102989
-0.00812519
-1.65794
-0.918979
0.00695981
0.912019
-0.0572495
0.0124556
-1.01144
0.688761
0.322682
0.0859514
-0.0926376
0.00668622
-0.622916
0.1011
1.10403
-0.959575
-0.656312
1.16632
-0.20026
1.07826
0.140156
-0.183327
0.043171
0.39087
0.0614513
0.209772
-0.209772
-0.00792363
-0.00257134
0.010495
-0.242306
-0.0553394
0.297646
-0.0223412
-0.0246864
0.0470276
-0.450189
0.868712
-0.418523
0.0147207
-0.280506
0.265785
-1.09383
0.0465571
0.310485
0.0565164
-0.367001
0.142728
-0.802611
1.00639
-0.0274025
-0.0628598
0.0902624
-0.0176303
-0.175872
-0.0500059
-0.233589
0.283595
0.0100536
-0.0600595
0.103299
-0.90591
0.355771
-0.805961
0.927262
-0.840539
0.135381
-0.0797872
-0.0555935
0.0641813
0.0464808
-0.110662
-1.3534
-0.254002
1.6074
-0.280645
0.45101
-0.170365
0.0427048
1.00125
-1.04395
-0.424076
-0.587368
-0.0258079
0.0550408
-0.17305
0.166501
0.00654919
-0.0736164
-0.000929056
0.0745455
-0.767204
-0.198273
-0.174797
0.0271024
0.147695
-1.57325
0.694305
0.878946
1.65922
-0.748569
-0.0239453
0.0160216
0.0757928
0.149202
-0.181026
0.349492
0.109024
-0.0814567
-0.0275671
0.122098
0.0613407
-0.183439
0.293988
-0.191573
-0.102415
-0.598473
-0.5182
-0.456374
-1.11688
0.0544282
-0.0818307
-0.128366
0.20891
-0.0805432
0.140449
0.0277297
0.140497
-0.0600005
0.0881949
-0.0281944
-0.111671
-0.0274674
0.139139
0.0866671
-0.0866671
-0.207185
0.234915
0.0960049
0.0456362
0.119093
0.104551
-1.35932
0.882807
-1.356
0.0692879
1.28672
0.036371
-0.0344972
-0.00187378
-0.0238739
-0.0453002
0.069174
0.576068
-0.00723518
-0.568833
-0.0212423
0.0196797
0.00156259
-0.224224
0.0170389
0.153524
0.715188
-0.393173
0.546697
-0.019652
-1.33375
0.118868
-0.0746039
0.53347
-0.33661
-0.19686
-0.0846976
0.0720974
0.0126002
0.054039
-0.354428
0.0250163
-0.943995
0.0534857
-0.181852
-0.324428
-0.444286
0.0406416
1.25573
-0.841858
-0.413874
0.977858
0.277874
0.0753924
0.310877
0.0324859
0.00388513
-0.23759
0.0932586
0.144331
-0.267132
-0.560733
0.827864
-0.397018
0.947822
-0.295316
-0.626101
0.237265
0.00394015
-0.0263226
0.0223824
-1.96129
0.82936
1.13193
-0.620876
-1.34042
-0.288138
0.598623
-0.906705
-0.0231707
0.000901199
-0.24166
0.240759
1.24461
-1.37883
0.134219
0.0555608
0.0633075
0.546089
-0.81322
-0.115082
0.0848861
0.0301962
-0.277911
-0.0975421
0.375453
0.241206
-1.01283
-0.0810014
0.0408623
-0.0699073
-0.504944
0.326047
-0.223468
0.0178922
0.205576
-0.094609
0.15017
0.0733954
-0.0733954
-0.103292
0.1122
-0.00890881
-0.213086
-1.14292
0.11382
0.0257169
-0.139537
-0.186151
0.181109
0.00504154
-0.202074
-0.00805506
1.05795
-0.337219
-0.720731
-0.226195
0.491485
-0.26529
0.0142756
-0.0145121
0.000236544
0.932938
-0.890234
-0.170521
-0.00364682
0.174167
-0.201695
0.289182
-0.0881487
0.086553
0.00159573
0.0691018
0.0182867
-0.0873885
-0.150303
0.190632
-0.0403288
-0.868632
0.20472
0.663911
-0.246192
-0.056161
0.302353
-0.720408
0.661913
0.0584947
-0.0144546
0.0543194
-0.0566886
0.0595493
-0.00286076
-0.0308488
-0.0584917
1.16819
0.491026
0.183422
-0.864677
0.681255
0.0502446
1.70186
-1.75211
0.420047
0.0669307
0.142841
0.0395016
0.182973
-0.0608749
-0.0625785
-0.0256848
0.268344
0.134766
-0.0705843
0.740771
-0.423409
0.0668767
0.230769
0.0298309
-0.140676
0.110845
-0.837122
-0.134453
0.971574
-0.0180104
0.0180104
0.0655505
-0.251995
0.498782
0.0117025
-0.257894
-0.0670971
0.0886688
-0.0385707
0.0929988
0.117591
-0.127638
-0.346697
0.361418
0.0210337
0.113967
-0.135
0.436015
-0.402737
0.450113
-1.16146
0.711344
-0.229887
0.305279
0.204621
-0.541231
-0.218811
0.652634
0.185969
-0.0384957
0.0384957
-0.250957
0.328067
-0.0771099
0.426785
0.0242247
-0.0344429
0.0350734
-0.000630437
-0.0287051
-0.200229
0.025432
-0.0457416
0.163332
-0.160817
0.217751
-0.0569338
0.107304
0.0274619
-0.4146
0.194529
0.166105
-0.0588017
-0.040446
-0.0477027
-0.058278
0.0732105
-0.0149325
0.166668
-0.11798
-0.0486884
0.0184832
0.358179
-0.376662
-0.149266
0.1108
0.0912061
-0.095095
0.00388894
0.0221565
-0.348623
0.798737
-0.0893118
-0.00106252
0.0903743
-0.088817
0.0321704
0.0566465
-0.0758296
0.100399
-0.721346
0.620947
-0.03202
-1.47492
-0.0886681
1.56358
0.628138
1.35617
-1.98431
0.0942666
-0.329696
0.138123
0.243662
0.239496
-0.483158
-0.198487
0.228318
0.163357
-0.936727
0.77337
0.0175092
-0.106326
0.0133104
0.027552
-1.01092
0.45204
0.558884
0.841858
-0.738559
-1.61195
1.35795
-1.24461
1.3139
0.0469367
-0.0605401
-0.00787787
-0.0488107
0.0240911
0.860217
-0.69686
0.141613
-0.0881274
0.424753
0.741569
0.0156585
-1.5008
1.55105
-0.800497
-0.558825
-0.236744
-0.360557
-0.0243147
-0.184985
0.239025
-0.586171
-0.417341
0.191146
0.853332
-0.277265
-0.868041
-0.743906
0.729511
0.130586
-0.113077
0.321119
0.0440659
-0.0440659
0.674114
0.144884
-0.818998
-0.221834
0.895948
0.80787
-1.58632
0.778454
-0.0282417
0.0738778
0.00614777
0.00864078
-0.0147886
-1.60499
-0.907397
0.158828
0.917703
0.140247
-0.0395403
-0.152164
-0.297323
0.852424
-0.17736
-0.0461077
-0.00373788
-0.0911256
-0.0422246
0.0887053
0.355255
-0.2191
-0.820149
-0.257435
-0.0788832
-0.103024
0.181907
-0.676808
0.743739
-0.16109
0.192631
-0.0315409
0.0456941
-0.0132082
-0.240319
0.19152
0.0487991
0.012783
0.459045
-0.0588248
-0.0258728
-0.025906
-0.0238475
0.0497535
-0.0165815
-0.153939
-0.685458
0.341789
0.343669
0.486628
-0.708253
0.221626
0.1248
-0.144245
0.0194452
0.0353644
-0.0611723
0.347982
-0.557754
-0.15484
-0.0854789
0.0737034
-0.0186626
0.134845
-0.315871
-0.686171
1.18062
-0.494446
0.0432092
0.104484
0.0621843
-0.837122
-0.826543
-0.0420882
0.215586
-0.0240659
0.0403901
-0.635235
-0.0851728
0.055884
0.110221
1.13766
0.0853274
-0.476844
0.138251
0.321066
-0.26455
-0.141487
0.0298153
0.229487
0.824382
-1.05387
0.100561
-0.740256
0.639695
-1.01166
0.877204
-1.49798
0.319355
1.17863
-0.0129158
0.0126831
0.000232767
0.143153
-0.421063
0.197516
-0.117703
-0.0798129
0.0720801
-0.0399097
0.113461
-0.192344
0.0553851
0.01383
-0.0446788
0.0234126
0.0517471
-0.0751597
1.43601
0.0019487
-0.00298295
0.00103424
0.125402
-0.0146014
0.856307
-0.0513101
0.114618
-0.635572
-0.271825
-0.140714
0.112472
0.0085021
0.0959816
-1.17863
0.557754
0.0680657
0.1417
-0.209766
-0.22622
0.0428931
0.117367
-0.0741956
-0.00183232
0.104821
-0.0130729
0.151529
-0.8377
-0.0224479
0.0458605
0.736398
-0.246546
-0.0705258
-0.115625
0.307301
-0.00345111
-0.0309918
-0.00930088
0.095968
0.157344
0.17348
0.153704
-0.299805
0.146102
0.124672
0.590516
-0.0658047
-0.107818
0.9605
-0.226533
-0.733967
-1.49798
0.0608574
0.42577
0.679132
-0.591781
0.763861
-0.17208
0.355649
-0.0732889
-0.28236
-0.194133
-0.428783
-0.0566929
0.0562557
0.000437146
0.162847
-0.221116
0.0582698
0.185304
-1.13389
0.948588
0.0441729
0.645471
-0.689643
-0.0499296
-0.123121
-0.0143695
-0.0749423
0.205695
-0.456652
-0.0101187
-0.00279717
-0.0681824
0.0747138
-0.00653141
-0.0589771
-0.178613
0.0094894
0.0362047
-0.139977
0.0601898
0.0521024
0.00744696
0.17907
-0.459576
-0.675729
2.0319
-0.00587953
0.0238899
-0.996662
-0.0161636
0.20672
-0.0840466
-0.0574399
-0.116649
0.00156637
0.810435
0.05094
-0.861375
-0.0270768
-0.113637
-0.936266
-0.0233094
-0.00528889
-0.647178
0.747577
-0.0202717
0.206241
-0.65681
-0.929514
0.176918
-0.478021
0.301104
-0.130736
0.049279
0.00824465
-0.00899032
0.000745666
-0.000286158
-0.150017
-0.0244829
-0.151389
0.766361
-0.665801
-0.120696
0.0697594
-0.220067
0.284117
-0.130413
0.212397
1.06455
0.313696
-1.37824
-0.10839
0.126283
-0.496357
-0.1891
-0.580955
0.6626
-0.641406
-0.0211939
-0.097504
-0.0231916
-1.5008
0.501225
-0.501225
-1.29069
1.29069
0.860217
0.550697
-1.29418
0.743483
-0.900153
-0.0965087
0.583528
-0.331576
-0.251953
0.193533
-0.274076
-0.0171142
-0.00683106
-0.840048
-0.0658619
-0.933099
0.211753
0.00875221
-0.111776
0.69888
-0.128826
-0.570053
0.33641
0.342722
-0.00340204
0.0116467
-0.96894
-1.05219
-0.109269
-0.0927903
-0.543574
0.636364
-0.144844
-0.775741
-0.603091
0.210878
-0.809351
-0.971574
1.4184
-0.446828
-0.156462
0.308997
-0.152535
-0.00625072
0.70513
-0.0941871
-1.01158
1.01158
-2.15433
1.3554
0.798938
-0.0045633
0.006512
0.183566
-0.41265
0.770842
-0.0820808
-0.0717544
-0.0403281
0.110469
0.00635346
0.00792209
2.01615
-1.69679
-0.31548
0.384582
-0.592514
0.930017
-0.337503
0.0637433
-0.218583
0.110579
-0.049238
0.406826
0.00679779
-0.0409104
0.34527
0.0129082
0.0400018
-0.225882
0.185881
0.15733
0.0393672
0.0867048
0.164802
1.78652
0.224385
0.607553
0.399837
-1.00739
-1.23213
2.06149
0.255199
-0.185095
0.0821878
-0.769538
0.68735
1.15825
0.164858
-0.511556
-0.0751054
0.152037
-0.0769313
0.160944
-0.236049
-0.413405
-0.091539
-0.0609954
0.0634144
-0.00241898
0.00896638
0.043136
-0.053532
-0.0522559
0.69686
-0.639695
-0.0571653
-0.32366
0.335363
0.868555
0.60917
-0.253521
-0.0156037
0.0413207
0.0767029
0.00818323
0.192926
-0.622371
0.429444
-0.00882905
-0.000161267
-0.216821
0.930101
-0.71328
0.0101726
-0.0148517
0.00467908
-0.02281
0.0163941
0.00641589
-0.468107
0.529558
-0.28337
-1.19155
-0.173909
-0.738559
1.3139
1.35795
-0.215722
-0.195414
0.139253
-0.0545056
0.0592558
-0.00475017
0.420374
0.708654
-1.12903
0.500641
0.0828872
-0.000532942
-0.00829611
0.108861
0.724243
0.0403281
-0.0278439
0.005396
-0.0538702
0.130573
0.0617304
-0.100301
-0.299042
0.735057
0.977858
-0.124
-0.0703339
0.00192091
0.068413
1.57406
-0.216117
-0.0691529
-0.0619787
-0.896911
0.158352
0.53876
-0.297554
-0.458835
-0.105045
0.56388
0.774937
-0.335395
-0.439543
0.812586
-0.00215068
-1.55105
-0.0539412
0.0291371
0.00773026
-0.0368674
-0.0100117
1.71188
-0.203727
0.209875
0.225652
1.86906
-0.555159
-0.693879
0.0742296
0.61965
0.346627
-0.00812733
-0.329273
0.55601
0.864325
0.799766
0.0866517
-0.0244673
-0.607686
-0.182844
0.790531
0.907691
-0.0547579
0.0288519
-0.0409544
-0.340005
0.080797
-0.279284
1.23658
-0.172032
-0.122973
0.0254691
0.110529
-0.702309
-0.0289573
0.0145027
0.125188
-0.168518
0.0433297
-0.330517
0.34726
-0.0167428
1.2394
-0.925708
-1.16685
0.366574
0.800276
0.194451
-0.165143
-0.0293082
0.241803
0.0423134
-0.558528
-0.268016
-0.635171
0.635171
1.67229
0.33641
-0.740256
0.351789
0.512536
-0.271008
0.193898
0.855098
-0.354457
0.00206436
-0.852351
0.850286
0.160978
-0.000932168
0.0271089
-0.709277
0.15075
0.0957495
-0.177642
-0.137099
0.314741
0.174302
-0.560321
0.382679
-0.967487
-0.263649
-0.633106
-0.0907376
-0.00454174
0.0015588
-0.219009
0.177507
0.00440033
0.0388241
-0.123813
0.0849886
-1.36695
-0.787389
-0.00652049
0.0777774
-0.994717
1.36929
-0.374572
-0.618802
0.421942
-0.211503
0.32547
0.254863
0.0272296
-0.0139192
-0.476879
0.13966
0.0296687
0.0615374
-0.207864
-0.012203
0.187069
0.0104473
-0.395686
1.47991
0.368255
-0.30944
0.869923
-0.787735
0.725025
-0.417724
-0.562225
0.149574
0.144261
-0.784392
0.744884
0.0395084
0.981016
0.255561
-0.196823
-0.118657
0.0448976
-0.0695839
0.956593
-0.837478
-0.119115
-0.156851
0.0862669
0.0304026
0.136099
0.875592
0.396845
-1.35454
0.957697
-0.347868
-0.0694729
0.550893
-1.54561
0.343676
1.26373
0.546829
-0.210419
0.181372
0.560246
-0.741618
0.171896
0.0442535
0.0246881
0.00254147
-0.482746
-0.0794785
-0.09113
-0.00347893
-0.164947
0.119205
-0.578254
0.312964
-0.991372
-0.873806
-0.274961
-0.380874
1.30889
-0.0221772
-0.265047
0.276817
-0.330688
-0.298736
0.268576
0.0766944
1.26785
-1.08255
-0.16543
0.106628
-0.375804
0.0806827
0.295121
0.0364342
-0.00729703
0.0425789
-0.0631971
-0.26732
-0.146963
0.697313
-0.406579
-0.290734
-0.0829937
0.153842
-0.110317
-0.0435251
0.234414
0.0341616
-0.264031
-1.72027
-0.0858361
0.126226
1.31975
-0.922907
-0.10938
0.166026
-0.00955675
0.0327516
-0.0231949
-0.00222104
-0.0322762
-0.219515
0.0788391
0.0534348
-0.610546
0.454084
0.00343367
0.0237459
0.170705
-0.689559
1.08538
-1.25741
0.0161228
-0.171828
0.155705
-0.128241
-0.559382
0.687623
0.0982462
-0.733481
-0.921691
-0.245158
-0.0246574
0.0012114
0.023446
-0.282104
-0.6626
-0.174522
-0.17095
-0.607686
-0.207057
0.146182
-1.09063
-1.0087
-0.154687
0.184083
-0.0293967
0.289687
0.133488
0.297574
0.31275
-0.610324
0.14473
-0.0141437
0.781934
0.62407
-1.406
-0.234275
0.893369
1.16812
-0.217895
0.160961
-0.784817
1.67819
-0.167516
-0.0660729
-0.012633
0.0367242
-0.0354401
0.413744
-0.723184
0.681696
0.0932413
-0.35691
0.508439
0.24275
0.612348
1.00771
-0.0472122
-0.0126373
-0.546829
-0.633106
-0.714258
0.721218
-0.184118
-0.868041
0.645471
0.638121
-0.933986
0.423256
-0.014873
-0.769519
-0.313163
0.634701
-0.790582
0.155882
0.0917149
0.0621275
1.02839
0.331039
0.617096
-0.948134
-0.00918311
0.00464136
-0.238827
0.192719
0.732947
0.246833
-0.229794
-0.204714
1.66368
-0.96937
-0.190721
0.934204
0.0482915
1.1052
-1.15349
-0.62254
0.439695
0.812176
0.557114
0.187563
1.12157
-0.790531
0.00292804
0.201544
-0.0629202
-0.0233387
0.230059
0.00867405
-0.0446557
0.0359817
-1.01468
-0.0391865
0.334192
-0.803805
-0.995455
1.75148
-0.756023
0.350619
0.579398
-0.0581987
0.0623255
-0.00412679
0.196054
1.46762
-0.716353
1.34134
0.571627
-1.56708
0.284381
-0.0828374
-0.586852
-0.40452
-0.708543
0.756835
-0.0683366
-0.867224
-1.53224
-0.21987
1.12157
0.0472357
-0.85104
0.830172
-0.64368
-0.186492
-0.98196
0.395108
0.0158429
0.134988
3.98291e-05
-0.135028
-0.971509
0.566989
-0.239665
0.910138
-0.933448
0.17419
-0.190772
-0.085963
0.220808
0.730627
-0.148011
0.0568784
-1.42752
0.0492788
1.9663
-1.16654
-0.553588
-0.517479
1.07107
0.446412
0.0175416
-0.00890083
-0.72883
0.689643
1.68959
-1.49354
-0.142841
0.380124
-0.237283
1.67572
0.075758
0.786432
-0.817
-0.493258
-0.450737
-0.470949
-0.50056
0.802807
-0.802807
0.681594
-0.681594
-0.72883
-0.481224
0.481224
-0.380124
0.482318
-0.9337
0.261086
-1.8348
1.8348
1.68959
-1.49354
0.786432
0.770443
-0.770443
0.817
0.759498
-0.759498
0.506742
0.529051
0.482521
-0.145211
-0.49944
-0.549263
1.07831
-1.78317
-1.34716
0.638614
-0.438259
1.25043
0.371969
0.040246
-0.0915561
-0.888679
0.105389
0.78329
-0.194033
0.169718
-1.0004
0.576995
0.983229
-0.63144
-0.130895
0.0108093
-0.0232604
-0.78195
-0.0827275
-0.558884
0.0155355
0.0120165
1.18149
-0.236577
0.212511
0.167207
-0.00883297
-0.005719
0.014552
-0.80814
0.0652795
0.74286
1.06647
-0.335844
-0.545133
0.389736
0.155397
0.919157
-0.735866
-0.183291
0.0789214
0.270571
-0.0128757
-0.0481197
-0.0403126
-0.0163803
0.565223
-1.24203
-0.79423
0.107595
-0.731299
0.798076
-0.0667777
0.126489
-0.899526
0.773037
-0.800769
0.909798
-0.109029
-0.0752318
0.0730108
0.0203065
-0.261966
-0.047116
0.803951
-0.104204
-0.784475
0.919884
-0.0968536
-0.823031
0.256527
-0.192784
0.628211
0.814953
-0.522154
0.430474
-0.347587
0.111559
-0.896034
0.857994
0.432698
-0.784214
0.0146951
1.01895
-0.892461
1.22648
0.967687
0.616522
-1.58421
-0.872315
-0.128089
-0.38055
0.00388817
-0.731874
-0.129501
-0.786607
0.786607
-0.569659
-0.0933483
-0.865087
0.129221
-0.857272
0.764482
0.06412
-0.181823
-0.0651479
0.0780774
0.0101176
0.194998
0.823952
0.81645
0.766813
0.146396
-0.913209
0.469327
0.781108
-0.778216
-0.11736
0.895576
0.188981
-0.905333
-0.670089
0.89131
-0.779751
-0.116998
0.459129
-0.0563655
-0.402764
0.161946
0.144562
-0.306508
-0.404338
-0.594001
0.998338
-0.895213
-0.832921
0.101623
0.474582
0.250443
-1.96082
0.57569
-0.53964
0.53964
-1.17918
-0.248337
-0.367073
0.517823
-0.47818
0.844754
0.77395
-0.22649
0.511294
0.0182641
-0.483485
-0.748462
1.23195
-0.0863937
-0.621859
-0.167054
1.43701
-0.402839
0.360751
-0.072466
0.281713
-0.202792
0.777379
-0.886408
-0.0534884
0.834597
-0.164952
0.741947
0.552443
-0.552443
-0.0799713
0.0667631
0.0949588
-0.0561347
0.104929
0.0396327
-0.0643577
0.00183367
0.00924699
-0.0110807
-0.653707
0.697765
-0.0440575
1.5507
-0.934176
0.117835
-0.897586
-0.886465
1.16398
-0.27752
0.154168
0.879339
0.379375
1.17132
-0.751189
0.586574
-0.671746
-0.623215
0.126857
-1.41766
0.0298516
0.18764
-0.882303
-0.535359
0.0128034
-1.0271
0.0847409
0.713336
0.70598
-0.119406
0.0857881
0.770519
0.696449
1.01156
-1.70801
-0.0989862
0.553383
0.463963
-1.01639
0.77353
0.242859
-0.686889
-0.122461
1.92702
-0.383405
-0.0732472
-0.0496315
0.486687
0.513313
-0.767675
-0.118734
-0.735465
0.129285
-0.143857
-1.41371
0.399963
0.600037
-0.178001
0.1634
-0.864528
-0.0915764
-0.58017
-0.183404
-0.266196
0.4496
-0.0143514
0.00127852
0.0987661
0.0645662
-0.129752
-0.089763
0.75125
-0.630709
0.716497
-1.42883
0.546526
0.73238
-1.17394
0.441558
-0.75058
-0.206361
0.956941
-0.269427
0.256018
-0.0252488
0.060242
0.0899278
0.00704672
0.658851
-0.119212
0.15075
0.104113
-0.738054
0.0843465
0.208617
-1.56245
0.0519402
0.659404
0.114984
-0.298589
1.04016
-0.0136955
0.172204
0.0534476
-0.010627
0.0706968
-0.104325
0.0974434
0.111173
0.0603849
0.806682
-0.867067
0.852872
-0.0362965
0.000772823
0.0355237
0.114889
-0.0107086
0.000589944
0.247376
-0.122187
0.114807
-0.592987
-0.401585
0.46197
0.0123644
0.327257
-0.367255
-0.847687
1.027
-0.179316
-0.779669
0.850333
-0.0706644
-0.0408338
0.348368
-0.515884
-0.0448691
0.202372
-0.436902
-0.108231
0.289578
0.487589
0.20295
-0.690538
0.437503
0.0611457
0.636619
-0.576547
0.537494
0.0390528
0.687287
-0.986023
0.0504759
-0.0610018
0.0105259
0.68792
-0.00948113
-0.0843112
0.0220323
1.39258
-0.305002
0.264168
-0.0234604
-0.239589
0.0744459
-0.111455
0.163297
-0.0518423
0.023984
-0.0153099
1.37935
-0.755279
0.14913
0.246537
-0.0292655
-0.113832
0.200237
0.10569
0.000894337
0.078856
0.772661
-0.66367
0.845597
-0.181926
1.29062
0.0970298
-1.38765
0.643972
0.143535
0.0336661
0.0672024
-0.100869
-0.302723
-1.12616
0.377696
0.0138772
0.715634
0.694059
-0.0358976
0.723629
0.304761
0.832952
-0.064096
0.276493
-0.835229
0.00665785
-0.277151
0.775569
-0.190499
0.680674
0.0919869
0.0115531
0.21682
0.131548
-0.0241134
0.157627
0.0539404
-0.11897
0.423889
-0.0547255
0.358909
-0.0856661
0.21609
0.173056
1.11757
-0.172364
-0.418752
-0.0871075
-0.113132
0.011339
0.000796326
-0.0121354
-0.93749
-0.0485327
-0.0247184
0.753734
-0.239202
-0.606746
0.60835
-0.00160408
0.554803
0.765021
-0.422525
0.864083
0.0731219
-0.159085
0.617653
0.147368
0.666066
0.0776732
-0.239202
0.669676
-0.154429
0.265602
-0.63346
0.34912
0.28434
0.0394446
-0.0718626
0.0473849
0.0508181
-0.0410734
0.980417
0.737714
0.0952383
0.592869
0.234996
-0.854859
-0.0791627
-0.660929
0.675624
-0.0157033
-0.641935
0.458531
0.893596
0.678798
0.151883
-0.0754715
-0.203898
-0.307657
1.0855
-0.000121592
-0.770037
-0.0507866
-0.284451
0.550053
1.30756
-0.428614
-0.0685502
0.579632
-0.763186
0.946625
-0.18344
-0.412029
-0.221431
0.0630761
-0.0852295
-0.13273
0.632582
-0.0347301
0.0108825
0.630369
0.670525
-0.011121
0.587222
-0.13551
0.269078
0.660048
0.248604
-0.908652
0.278579
-0.922259
-0.221832
-1.03558
-0.200743
0.796498
-0.595756
-0.650051
-0.046481
0.106723
-0.0526228
-0.716287
0.0492255
-0.0587823
0.829353
-0.144368
-0.112213
0.256582
-0.0104671
-0.586171
0.214894
-0.0426898
-0.392901
-0.0130468
0.00421379
-0.505869
-0.0513515
-0.569986
-0.00656066
0.566745
0.32685
0.577282
0.986302
-0.273243
-0.377975
0.651218
-0.429873
-0.616315
0.616315
-0.173759
-0.860952
1.03471
0.0274449
-0.135835
0.705067
-0.138322
-0.236123
-0.492579
0.419331
-0.0889465
1.06136
0.225859
0.151157
-0.110515
-1.51216
0.486968
0.0505259
0.0282231
0.0311098
-0.832278
-0.482477
-0.419417
0.693519
0.306481
-0.482477
0.693519
-1.18085
-0.0391784
-1.18085
-0.696249
0.696249
0.303751
-0.0160659
0.165963
-0.0717132
0.202943
0.0127055
-0.436024
0.647604
-0.0603825
0.685272
-0.504325
-0.180947
-0.0772677
0.0828287
-0.00556097
-0.0213548
0.0231884
0.339728
0.0215038
0.0199503
-0.436916
-0.320483
0.101474
0.0555673
0.84924
-0.288994
0.127194
-0.457882
-0.00845104
-0.00790766
-0.0216001
0.662039
0.0535947
0.368864
0.0493184
0.000435138
-0.0054724
0.0889882
0.588207
-0.472173
-0.116034
0.966888
0.528198
-0.838737
0.825202
0.00989544
-0.0551956
0.0942349
-0.19677
0.200308
1.02356
-0.363508
0.00131169
-0.0920493
0.835066
-0.063168
0.0272155
-0.0272155
0.0139516
-0.0139516
0.0429744
-0.0429744
-0.00587953
0.364057
0.451213
-0.114934
-0.784024
0.506759
0.212626
0.0347493
-0.0778652
-0.489871
1.05912
0.10818
-0.795069
-1.25721
0.327697
0.189841
0.0158931
0.000500993
0.00806633
-0.00806633
0.81078
0.00685493
-0.00685493
0.701491
0.0668456
0.0365855
0.0127328
0.00769731
-0.0780312
-0.0259816
0.0259816
0.0250026
-0.0250026
-0.0184102
0.0184102
0.00598019
-0.00598019
0.1583
-0.286321
-0.0936358
0.225859
0.00467962
-0.00467962
-0.366776
0.538912
-0.172136
0.55021
-0.241213
0.708997
-0.581803
0.567251
-0.217673
0.0544944
0.553855
0.568408
0.000386895
-0.000386895
-0.14702
0.0199367
-0.0199367
0.003228
-0.003228
0.716533
-0.737502
0.0391902
1.03234
-0.102243
0.00105311
-0.00105311
-0.0295589
0.0295589
0.0158243
-0.0158243
0.0271663
-0.0271663
-0.019665
0.019665
0.0304786
-0.0304786
0.45902
-0.0273774
0.0273774
-0.00164305
0.00164305
0.0205745
-0.0205745
0.0190703
-0.0190703
-0.00194948
0.00194948
0.116816
-0.0194996
0.0194996
0.766185
0.00828281
-0.0343676
0.0343676
-0.0162095
0.0162095
-0.055859
0.055859
0.0289731
-0.0289731
0.0294576
-0.0294576
0.000256785
-0.000256785
0.0164696
-0.0164696
-0.646476
-0.639599
0.0236565
-0.0236565
-0.00187581
0.00187581
-0.0333265
0.0333265
-0.0319246
0.0319246
-0.0107408
0.0107408
-0.370467
0.613217
0.316413
-0.0280982
0.0280982
-0.0114234
0.0338508
-0.0338508
-0.00205813
0.00205813
0.0426149
-0.0426149
0.119661
0.156832
-0.0181986
0.0181986
-0.0273597
0.0273597
-0.5288
0.0510112
-0.750313
-0.0358919
0.0358919
-0.468945
0.0401144
0.0222111
-0.292421
-0.0644885
-0.0322695
0.0322695
-0.175955
0.12123
-0.0472999
-0.00229468
0.00229468
0.0340389
0.0284846
0.258045
-0.331458
-0.316008
0.647465
0.231255
0.0190881
-0.0190881
-0.570125
0.573797
-0.00367241
0.815013
-0.431677
-0.383336
-0.419484
-0.667947
-0.213265
-0.244616
-0.579496
0.48051
-0.571142
-0.0069605
0.192643
-0.460004
0.0085556
-0.0085556
-0.00192066
0.00192066
0.0270516
-0.0270516
0.0300258
-0.0300258
0.00312258
-0.00312258
-0.00175939
0.00175939
-0.177518
0.0848809
0.205872
-0.336767
-0.00585129
0.00585129
-0.0515296
0.0515296
-0.0355475
0.0355475
0.202825
-0.171316
-0.0315085
-0.0308517
0.351355
-0.590557
0.00852743
-0.00852743
0.0780693
-0.0780693
-0.0693593
-0.612253
0.398987
-0.00250506
0.00250506
0.123071
0.0195381
1.04761
-0.477801
-0.052669
0.53047
-0.65312
-0.841624
0.109749
-0.0444327
0.0444327
-0.694002
0.30651
0.0440883
-0.0440883
-0.59707
0.345117
0.292569
0.126097
0.000469642
-0.000469642
-0.761126
-0.00108916
0.00108916
0.292508
0.412623
-0.00757738
-0.0477445
0.0477445
-0.0030711
0.0030711
-0.0374186
0.0374186
-0.0618087
0.0618087
-0.0021234
0.0021234
-0.0683578
0.0683578
-0.00297166
0.00297166
-0.0404537
0.0404537
0.00635236
-0.0522919
0.0522919
0.00548703
-0.00548703
0.0427706
-0.0427706
-0.00360267
0.00360267
0.0544932
-0.0544932
0.291558
-0.00440823
0.00440823
-0.00487565
0.00487565
-0.0657006
0.095968
-0.00955473
0.00955473
0.00434152
-0.00434152
-0.0530695
0.0530695
0.281627
-0.0159706
0.0159706
-0.0667025
0.0667025
-0.00750401
0.00750401
-0.0604086
0.0604086
-0.0147487
0.0147487
-0.0727042
0.0727042
-0.0189772
0.0189772
-0.110032
0.110032
-0.667373
-0.236433
-0.502366
0.500762
-0.775741
0.237883
-0.618068
0.427568
-0.169199
0.0862051
0.00343491
-0.00343491
0.0674345
-0.763135
0.0310384
7.14443e-05
-0.455323
0.798045
-0.0900487
0.284013
-0.0233457
0.0148574
-0.433607
-0.54716
0.123594
0.387243
-0.940601
-0.00536116
0.00536116
-0.808707
0.0271906
-0.0271906
0.0147156
-0.0147156
0.299209
-0.143936
-0.00291569
0.00291569
0.0217603
0.0167354
0.594625
0.353259
-0.0205819
-0.0111263
-0.00151103
-0.0700822
0.456816
-0.386734
-0.0574554
-0.109598
0.0255738
0.749484
9.76159e-05
0.0811791
-0.401859
0.405747
-0.454528
-1.01402
-0.319732
-0.0580216
0.015797
-0.829025
0.235024
0.0509923
0.00319444
0.0214372
0.747653
-0.593159
-0.0190694
0.0730098
-0.0280422
-0.179401
0.345364
0.444165
0.217748
-0.187851
0.242522
0.03098
-0.0126933
-0.428799
-0.0244163
0.105735
-0.217949
-0.0218548
-1.00998
-0.0693274
0.250175
-0.343495
0.356403
0.191117
-0.571991
0.0504646
-0.212644
0.01986
-0.328951
0.484347
0.0263783
-0.219529
0.193151
-0.0229935
0.0229935
0.147909
-0.40143
0.122292
0.0588176
-0.0617565
0.0460532
-0.0771452
-0.0104646
0.0876098
-0.0361093
-0.141681
-0.0367637
-0.167467
-0.306062
-0.391238
0.6973
0.0089079
0.0473478
0.158489
-0.0077384
0.0460086
0.0491608
-0.136555
0.280816
-0.0030809
0.0386046
-0.0478787
0.206367
0.00489099
0.235868
-0.0130536
0.0130536
0.0445363
1.26302
0.0701718
-0.149334
0.0481211
-0.192965
-0.356033
1.52736
-0.146334
0.0729387
-0.527504
0.0251375
0.229258
0.0622521
-0.626745
0.272288
-0.0652971
0.409892
-0.715954
0.214885
0.558645
-0.0820054
0.0820054
3.98291e-05
-1.08098
0.993886
0.0870945
-0.188098
0.135475
0.0551245
0.255228
-1.18094
-0.164168
0.0508174
-0.0586953
0.931046
0.442393
-0.29051
-0.0668676
-0.475636
-1.09145
-0.0819028
-0.317624
0.873633
0.627361
-0.276006
-0.383207
0.710464
0.393706
0.370155
-0.277593
0.110567
-0.486006
0.313871
0.144782
-0.144782
0.186266
0.00282263
-0.189088
0.0021868
0.00607421
0.0327516
0.175636
-0.478359
0.258386
-0.190468
-0.0679178
0.580374
-0.966599
0.423225
-0.69505
0.714094
-0.147854
-0.188913
-0.0685302
-0.0784327
-0.456116
0.0192008
-0.258874
-0.000874735
-0.0218548
0.345833
-0.00554796
-0.0128846
-0.00130057
0.0153191
-0.00581124
-0.0095079
-0.118338
-0.0180157
-0.151984
0.17
-0.157876
-0.328131
0.0217603
0.34137
-0.00912359
-0.33919
0.0642291
0.00152656
-0.0526745
-0.0622593
-0.00963093
0.00963093
-0.000144191
-0.00455628
-0.0106903
-0.00145162
-0.171408
0.00118474
-0.00125488
0.143227
-0.141661
-0.00286405
0.00286405
0.105094
0.542385
-0.00134608
-0.325493
0.525626
1.04957
-0.486826
0.369872
-0.435327
-0.0852651
0.207557
0.267211
-0.260986
-0.0682648
0.00712375
-7.70291e-05
0.0105599
-0.196125
-0.426424
0.933183
0.118725
-0.296243
0.17317
-0.00150552
0.351482
-0.197314
-0.00429196
0.000720712
0.00640304
0.269473
0.00104111
0.000193385
0.677602
-0.628442
-0.237716
-0.684046
0.511565
-0.000182319
-0.00172895
-0.0472999
-0.0064343
0.817064
-0.431199
0.481725
-0.290133
0.906518
-1.45289
0.631832
-0.204264
0.657121
1.78226e-05
0.00300661
0.0128865
-0.102222
0.14331
-0.176419
0.00975343
-0.00446007
0.0528486
-0.0344378
-0.0184108
-0.000889573
0.120026
-0.173846
0.0538194
-0.0901911
0.00945404
-0.000207048
0.00262298
0.437778
-0.406062
-0.0222103
-0.00221338
1.00118
-0.00729493
0.426742
-0.00521789
0.000374015
0.374945
-0.225814
-0.0247434
-0.155075
-0.028556
-0.00327809
0.0897222
-0.0494837
-2.48934e-05
0.443981
-0.00175402
0.000463925
-0.000463925
-0.00874073
-0.00238555
-0.00272871
-0.325947
-0.00332844
0.0639562
-0.106558
0.653955
-0.00125316
-0.0659787
-0.00267614
0.000467415
0.501174
-0.00265294
0.000204584
0.0628715
-0.00187102
-0.00231277
0.0409484
-0.105306
-0.710506
0.493569
-0.919992
-0.377229
-0.000566037
-1.11818
-0.0928913
0.0204253
0.615559
-0.017376
0.21038
-0.00365622
-0.00131771
-0.546633
-0.00303513
-0.000848257
-0.0211589
1.0839
-0.6464
-0.00231686
-0.000631014
-0.00532497
-0.000805561
0.0684118
-0.0254041
0.0254041
0.0543027
-0.058859
-0.00316249
-0.00733918
-0.0919393
0.0790547
-0.142358
0.0704953
-0.00724471
-0.0122955
0.0546343
-0.0119684
0.0514481
-0.0356511
-0.624466
0.557688
-0.0487929
-0.000906609
0.488783
-0.272693
-0.0844814
-0.733064
-0.0965723
-0.144237
-0.0837033
0.0818323
0.635521
-0.00166203
-0.0406809
0.038952
-0.0165069
0.0377911
-0.151787
0.113995
-0.0755124
-0.614111
0.922428
-0.5432
0.0171561
0.0109421