/*--------------------------------*- C++ -*----------------------------------*\
| =========                 |                                                 |
| \\      /  F ield         | OpenFOAM: The Open Source CFD Toolbox           |
|  \\    /   O peration     | Version:  2306                                  |
|   \\  /    A nd           | Website:  www.openfoam.com                      |
|    \\/     M anipulation  |                                                 |
\*---------------------------------------------------------------------------*/
FoamFile
{
    version     2.0;
    format      ascii;
    arch        "LSB;label=32;scalar=64";
    class       volVectorField;
    location    "9.5";
    object      U;
}
// * * * * * * * * * * * * * * * * * * * * * * * * * * * * * * * * * * * * * //

dimensions      [0 1 -1 0 0 0 0];

internalField   nonuniform List<vector> 
2186
(
(1.30045 -0.0546467 1.72943e-19)
(1.60385 -0.934714 -1.09508e-19)
(1.45003 -0.910633 -6.99001e-22)
(0.730743 -0.575163 -1.17187e-19)
(-0.543119 0.620086 -2.32076e-19)
(1.04734 0.018668 0)
(0.717866 -0.662612 0)
(-0.270292 -0.492744 1.26529e-19)
(1.50317 -0.262575 1.98799e-19)
(0.548723 -0.306541 -2.28544e-21)
(0.678566 0.610645 0)
(0.841634 -0.274298 -1.4816e-19)
(-0.351113 -0.619121 -5.15231e-20)
(1.15311 0.0216997 -2.90901e-19)
(1.79085 -0.682168 -1.15117e-19)
(1.01531 -0.000676138 1.36917e-19)
(0.987272 0.0126635 0)
(-0.762432 0.436029 0)
(1.05746 0.00444245 0)
(-0.0443568 0.271978 -8.60721e-20)
(0.485111 0.102704 -9.47664e-20)
(-0.23866 0.171147 1.16812e-19)
(1.14254 0.0216258 2.40463e-19)
(-0.22059 0.00476563 4.11076e-21)
(1.03178 0.00483232 -1.89018e-19)
(0.781385 -0.551483 0)
(0.763514 -0.0280797 1.17409e-19)
(0.60673 -0.586203 -1.31871e-19)
(1.22043 0.719909 0)
(0.989735 0.0173222 -2.58227e-19)
(0.00166872 0.0413542 0)
(1.02306 -0.0101681 8.92521e-21)
(0.00421445 0.327066 0)
(2.11714 0.318208 1.56073e-19)
(-0.119538 -0.13286 3.34799e-21)
(1.54914 0.781572 2.61783e-21)
(1.57619 0.162868 8.88288e-20)
(0.510947 0.151425 -2.81182e-19)
(1.97632 0.234213 -4.46348e-19)
(1.05245 0.0101411 -3.96313e-22)
(-0.417253 -0.696753 0)
(-0.203741 0.159799 0)
(1.86447 -0.875221 9.75325e-20)
(-0.462666 0.224251 0)
(1.10085 0.276674 1.15296e-19)
(0.593453 -0.289029 2.32955e-19)
(0.915477 -0.779948 0)
(1.17926 -0.780313 7.50645e-20)
(1.95935 -0.652784 0)
(-0.376785 0.687929 2.59927e-19)
(0.021596 0.111188 1.27271e-19)
(0.631793 0.582011 5.82444e-20)
(2.05266 -0.75615 1.2377e-19)
(0.593413 0.283163 -2.2399e-19)
(-0.273215 0.173133 4.37042e-20)
(0.756144 -0.643668 0)
(1.65135 -0.960515 1.80451e-20)
(0.576651 -0.537261 0)
(2.38268 0.185876 1.39515e-19)
(1.11375 -0.165527 -2.79659e-19)
(1.26239 -0.12587 7.63882e-20)
(1.35359 0.293332 -1.19387e-19)
(1.34254 0.54263 0)
(1.07716 0.0193531 4.342e-22)
(1.363 0.383511 -6.41133e-20)
(1.24675 -0.724269 -9.84979e-20)
(1.18047 0.668754 3.56626e-20)
(0.682171 0.0781315 -4.54657e-19)
(0.826701 0.0570705 0)
(2.11939 -0.200214 -7.13824e-20)
(-0.250242 -0.560755 -1.47265e-19)
(1.59179 -0.510663 -7.33562e-20)
(0.728025 -0.0348898 -2.00539e-19)
(0.868317 -0.517133 0)
(0.823733 0.189191 -7.27777e-20)
(0.543534 -0.505006 -2.40838e-19)
(1.92984 -0.393192 0)
(1.004 0.00635354 2.84408e-19)
(-0.102656 -0.210514 0)
(2.0376 0.419648 0)
(1.05435 0.298036 1.77518e-19)
(0.974705 0.025838 2.75235e-22)
(1.03299 0.0148364 3.14036e-20)
(1.32214 0.418846 1.72912e-20)
(0.980293 0.0256382 3.29051e-19)
(1.03901 0.0363806 -7.79739e-21)
(0.666229 0.186767 -2.70259e-19)
(1.06492 0.00968638 1.4492e-22)
(0.556036 0.0225478 0)
(-0.0652451 -0.02216 1.0579e-19)
(0.852403 -0.615162 -1.27294e-19)
(-0.0788104 0.52352 -1.65396e-21)
(1.09039 -0.0839499 1.91208e-19)
(0.815868 -0.181079 0)
(0.99974 0.0280969 3.14346e-20)
(1.37614 0.651819 0)
(1.61393 -0.947286 0)
(1.30515 0.217792 0)
(-0.526587 0.699288 0)
(0.783387 -0.658387 2.29102e-19)
(0.819218 -0.250879 -4.61811e-19)
(0.984588 0.0324246 3.33996e-19)
(1.49549 0.178329 0)
(1.09458 -0.128398 -1.7481e-19)
(1.08328 0.0269267 1.4093e-19)
(0.0125652 0.614574 1.63044e-19)
(0.6369 0.507903 0)
(2.17258 -0.160424 -1.44386e-19)
(0.96266 -0.483567 6.37095e-20)
(-0.667548 0.515122 9.76226e-20)
(1.78003 0.278281 1.52766e-19)
(-0.270134 0.768302 -3.6647e-19)
(0.811521 -0.737061 0)
(0.565162 0.35568 1.35171e-19)
(1.66183 -0.26512 -5.69749e-19)
(-0.574517 -0.464416 -4.9144e-19)
(1.04531 -0.0597007 1.72726e-21)
(1.73713 -0.68224 0)
(-0.0904113 -0.0150674 -3.17234e-19)
(0.71022 -0.0688383 6.36875e-20)
(1.57117 0.886726 0)
(-0.281124 0.73913 -4.1252e-19)
(0.88939 0.762278 -1.99364e-19)
(-0.999199 0.344099 5.80235e-19)
(1.02972 -0.0219202 0)
(1.07009 -0.0782843 -2.17609e-21)
(-0.440305 0.735708 0)
(0.689501 -0.490471 -8.59087e-20)
(-0.952491 0.382913 -3.16385e-19)
(0.784193 -0.714898 0)
(0.432265 -0.270434 3.42528e-19)
(0.536948 -0.452678 2.27477e-19)
(0.41028 -0.37129 0)
(0.977278 -0.775238 -8.90253e-20)
(1.04268 0.100438 0)
(-0.0864351 0.773686 -2.03895e-19)
(0.803907 -0.690679 1.07847e-19)
(2.35967 -0.245711 3.20885e-19)
(2.18803 0.104622 0)
(-0.0273991 -0.107614 0)
(0.687819 0.638239 -2.39885e-19)
(1.77493 -0.625014 2.3369e-20)
(-0.158191 -0.233249 0)
(0.977499 -0.799239 -9.90801e-21)
(1.10875 -0.124388 0)
(1.07611 -0.138347 3.04496e-19)
(2.0993 -0.159521 -1.40031e-19)
(-0.582048 0.600067 0)
(1.21829 -0.549227 -3.85928e-20)
(-0.211034 0.397245 -5.45529e-20)
(-0.278732 0.668331 0)
(1.08753 -0.805321 1.20461e-20)
(1.0031 0.0111381 -4.74972e-19)
(0.644822 -0.476399 -8.49856e-21)
(0.80909 -0.513505 0)
(1.19523 -0.721739 -6.38537e-20)
(0.655618 0.24685 2.0986e-19)
(1.24249 0.0904311 0)
(1.52842 0.0909003 -8.13434e-20)
(1.19178 -0.848143 -1.19006e-19)
(-0.0190069 -0.0909192 -1.17873e-19)
(-0.0467284 -0.631425 -2.6259e-19)
(1.06124 0.0139972 1.75743e-19)
(0.91703 -0.470902 -8.01178e-20)
(1.06043 0.010217 -1.34168e-22)
(1.06619 0.00530952 -1.67047e-21)
(0.736596 -0.110141 1.32373e-19)
(-0.221404 0.00385461 -2.85381e-19)
(1.01651 -0.0084592 0)
(1.12023 -0.0886751 2.61121e-20)
(1.44486 0.657136 6.45919e-20)
(0.799958 -0.607375 -1.67103e-19)
(0.993572 8.9262e-05 9.73585e-21)
(0.712914 -0.526716 2.36211e-19)
(1.31187 0.805939 6.59992e-20)
(1.87166 -0.00132846 2.8642e-20)
(-0.645383 0.472739 0)
(1.05203 0.0597367 -1.81624e-19)
(-1.03775 -0.133765 -3.83092e-19)
(1.08115 0.493488 5.81911e-20)
(0.0753796 -0.0805712 1.72381e-19)
(1.11538 0.0340229 -3.34786e-20)
(-0.142518 0.250455 -2.07256e-19)
(1.3069 0.588899 -4.37506e-20)
(1.14317 0.889802 0)
(-0.697599 0.458837 -1.18601e-19)
(-0.250818 -0.149294 0)
(0.652874 0.560765 -2.14863e-19)
(2.04754 0.186325 -3.03705e-20)
(-0.497669 -0.663508 1.76141e-19)
(-1.06181 0.0895424 -8.03193e-19)
(0.729867 0.0811032 1.99501e-19)
(2.15093 -0.354736 -5.82395e-20)
(0.974131 -0.351714 -2.36565e-20)
(0.0115364 -0.00651322 0)
(-0.338143 0.153683 6.39021e-20)
(1.33486 0.976112 2.75475e-20)
(0.84153 0.076688 -1.0785e-19)
(0.554645 0.519687 1.48359e-19)
(0.45311 0.185814 0)
(-0.0448481 -0.775222 -2.62239e-19)
(0.121392 0.111642 -3.28556e-20)
(1.29004 -0.952297 9.63316e-23)
(0.976611 -0.042015 -1.47583e-19)
(-0.160242 -0.132174 7.33121e-21)
(-0.254131 0.327444 1.89845e-19)
(-0.349875 -0.0940605 -2.08454e-19)
(1.6755 -0.697049 0)
(1.10631 0.0493279 -2.42362e-19)
(2.06215 -0.237121 1.84535e-19)
(1.27353 -0.614347 6.43088e-20)
(0.803967 0.0326377 1.74025e-21)
(0.591867 0.336463 0)
(0.947304 0.7509 -1.15985e-20)
(0.684789 0.628695 1.3511e-19)
(0.890812 -0.560669 1.15041e-19)
(0.685343 0.503122 0)
(1.01666 -0.00721909 6.29382e-21)
(0.873912 -0.655851 1.63851e-19)
(0.842304 0.427749 -3.54302e-19)
(1.24334 -0.119144 0)
(-0.245469 -0.249739 -3.19971e-19)
(0.0257691 0.487495 -1.2731e-19)
(1.59175 0.728454 0)
(1.34288 -0.933031 -8.24409e-23)
(-0.782551 0.483012 0)
(-0.51175 0.721237 1.4763e-19)
(0.735975 0.650745 -7.40454e-20)
(0.849873 -0.21376 0)
(-0.235032 -0.147258 0)
(1.60485 -0.449407 0)
(-0.364598 -0.295059 2.56873e-19)
(1.20608 -0.878025 7.83328e-20)
(1.17658 -0.600962 4.28604e-20)
(1.05773 -0.138143 -1.21719e-19)
(0.870546 -0.685584 -1.28595e-19)
(0.184872 -0.188743 0)
(-1.24844 0.103756 0)
(1.00048 -0.513877 1.31788e-19)
(-0.0813783 -0.194966 0)
(-0.367459 0.701632 0)
(-0.558773 -0.440813 4.1824e-19)
(0.793519 0.668993 6.4245e-20)
(1.0169 0.795598 0)
(0.696274 0.553649 -6.58589e-20)
(0.834394 -0.0426825 -1.78953e-19)
(0.746814 0.562373 -1.75274e-19)
(0.589878 0.547765 -1.2775e-19)
(-0.193135 -0.534029 2.56543e-21)
(0.71414 -0.640033 0)
(0.890541 0.176654 -2.51844e-19)
(-0.317504 -0.688897 6.79444e-20)
(0.602927 0.558122 2.82312e-19)
(0.960026 0.797959 0)
(-0.754852 -0.168746 3.42987e-19)
(-0.0691179 -0.414383 3.53823e-19)
(-0.0142113 -0.35106 -1.77293e-19)
(0.662901 0.568586 -1.14528e-20)
(0.979425 -0.0131622 4.61705e-20)
(-0.445159 -0.733537 0)
(2.25706 0.121497 -3.2062e-19)
(1.26921 -0.425177 -4.63849e-20)
(0.646863 -0.59855 -5.84032e-20)
(-0.679984 0.227337 2.11797e-20)
(1.19386 0.462143 1.23373e-19)
(0.891448 0.416946 0)
(1.07486 -0.210414 1.46055e-19)
(0.129512 -0.566175 -1.10764e-20)
(-0.0421277 0.12943 4.80589e-19)
(0.928433 0.0228645 -4.04024e-20)
(1.13807 0.115177 0)
(1.87529 -0.0140651 -3.07842e-19)
(1.91121 0.0340673 0)
(0.544655 0.2631 -3.70565e-19)
(-0.26084 0.381967 0)
(-0.221721 -0.482944 2.88867e-19)
(0.765657 0.0773863 0)
(0.614671 -0.509714 -1.46043e-19)
(1.09684 0.0250434 1.60733e-19)
(-0.583662 0.606409 5.58747e-20)
(1.84354 -0.098933 -1.15565e-20)
(2.09924 -0.247054 -1.45838e-19)
(1.10749 0.224867 -1.62938e-19)
(-0.346956 -0.752658 -1.36429e-19)
(1.06903 -0.844322 0)
(0.797643 0.0171749 -1.17066e-19)
(0.929734 -0.387302 -2.27488e-19)
(1.70476 -0.564693 -9.85787e-21)
(1.70128 0.0194716 2.87303e-19)
(1.05897 0.0030225 2.91745e-19)
(0.148345 -0.615533 -1.80459e-19)
(0.992523 -0.445857 -9.62689e-20)
(0.194807 -0.187617 2.06968e-19)
(1.00385 -0.0101707 0)
(1.00638 -0.0111773 0)
(1.1913 -0.636942 -3.62526e-21)
(0.012164 0.751303 -1.37216e-19)
(0.185403 -0.118439 -1.53609e-19)
(1.32345 -0.185388 2.09175e-20)
(1.40265 -0.742242 0)
(2.16196 -0.359311 -1.20469e-19)
(0.938078 -0.815578 -4.79172e-20)
(1.79056 -0.54911 -9.34702e-20)
(1.10962 0.83907 0)
(0.468003 -0.450171 0)
(0.60379 0.518026 -1.38574e-19)
(1.09153 0.273366 -2.96497e-19)
(2.21565 -0.238988 4.75504e-22)
(0.858179 0.163675 1.08584e-19)
(0.111064 -0.707906 -5.85194e-19)
(0.96333 0.0775259 -3.36809e-21)
(-0.203189 -0.693453 0)
(-0.0333588 -0.114677 0)
(-0.613082 -0.656961 0)
(1.33455 -0.716865 -4.2686e-20)
(-0.294251 0.679894 -2.85933e-19)
(-0.102213 0.25019 0)
(1.29412 0.977903 -5.29171e-21)
(1.11106 0.154024 -3.12045e-19)
(1.26078 0.307209 -2.34778e-20)
(1.08351 0.924792 3.52665e-20)
(-0.222229 0.786631 1.8903e-19)
(0.780583 0.0637827 0)
(-0.621446 -0.580002 -3.73335e-19)
(-0.354771 0.789484 3.52284e-19)
(0.783844 0.0347152 1.46651e-19)
(1.54034 0.948761 6.0671e-20)
(1.10243 -0.0731987 -7.96355e-22)
(-0.138379 0.498385 -2.68335e-21)
(0.739739 -0.674495 -2.74276e-20)
(1.22139 0.00956564 0)
(1.71258 0.0370246 0)
(1.09537 0.0225492 0)
(0.0868414 0.350128 1.34541e-21)
(-0.52447 -0.705128 1.42124e-19)
(1.05001 0.845032 0)
(0.993047 -0.00676797 3.96747e-19)
(0.76844 0.603976 -1.74448e-19)
(-0.509076 0.046966 -4.07529e-20)
(0.866269 0.0164396 -3.25265e-20)
(0.708809 -0.645974 -1.66587e-19)
(1.39273 0.713688 -1.08447e-20)
(0.558054 -0.446707 -2.37377e-19)
(1.09925 -0.00477291 -3.53717e-19)
(0.838882 0.0403273 3.43233e-20)
(1.51487 -0.193645 3.49355e-20)
(0.761269 -0.00626408 -3.75753e-20)
(-0.015927 -0.0377869 -1.93203e-22)
(1.0839 0.47067 -1.95238e-19)
(1.34452 0.62033 1.0808e-19)
(-0.128446 -0.369944 0)
(0.0979397 -0.715796 2.20083e-19)
(-0.34344 -0.339699 1.34124e-19)
(-0.223026 -0.0532574 -1.47026e-19)
(0.477569 0.32343 0)
(1.2104 -0.467391 0)
(0.0322604 -0.0183633 -1.75334e-19)
(-0.248187 -0.74422 -7.9027e-20)
(1.0561 -0.0192376 1.40135e-19)
(-0.580283 0.494073 -5.39443e-20)
(1.68869 -0.768197 -4.03814e-19)
(0.0174559 0.761785 0)
(0.827212 -0.732302 -2.20673e-19)
(0.730971 0.0565116 6.24271e-20)
(-0.483477 -0.383729 2.42184e-19)
(0.718727 0.170864 2.63004e-19)
(0.624399 0.147608 8.5896e-20)
(0.496661 -0.470229 1.61611e-19)
(-0.178743 -0.305563 -1.53706e-19)
(1.10227 -0.0665149 0)
(0.3944 0.351253 -1.56423e-19)
(1.03048 -0.00522085 -2.23464e-19)
(-1.15951 0.0639286 3.12086e-19)
(1.42501 0.485441 -5.52647e-20)
(-0.104751 -0.270915 -5.79147e-20)
(0.682833 -0.623139 -1.27443e-20)
(0.813272 0.196685 -1.62079e-19)
(0.98522 0.426984 1.70233e-20)
(1.10479 -0.153511 2.64684e-20)
(0.605166 -0.22639 -2.44401e-19)
(1.99602 -0.352623 -1.9567e-19)
(0.59182 -0.1009 0)
(1.05082 0.167971 -2.49749e-20)
(1.3391 0.240251 -1.64955e-20)
(1.1845 -0.345659 1.7511e-19)
(0.977628 0.354027 -2.35232e-19)
(1.04839 0.0404544 -3.6435e-22)
(0.418815 0.390468 -2.00822e-19)
(-0.206879 0.281895 3.76592e-19)
(2.01395 -0.158664 0)
(0.941014 0.00149878 0)
(0.867313 -0.766546 4.04024e-20)
(-0.0575335 -0.513305 -3.87035e-19)
(-1.15639 -0.00717768 -3.9421e-19)
(-0.0310664 -0.0728909 -2.49927e-19)
(-0.506347 0.669245 -2.38849e-19)
(-0.343492 -0.63787 0)
(-0.0163979 -0.0724092 4.46276e-20)
(0.30961 0.563823 -1.24134e-19)
(-0.287127 0.374615 -4.34243e-19)
(0.802462 -0.1073 0)
(1.21972 -0.302115 1.58475e-20)
(-0.311115 -0.362234 0)
(1.02 0.0187582 2.84776e-19)
(-0.018825 -0.695436 3.08195e-20)
(0.534565 -0.418968 3.18144e-19)
(-1.04608 -0.204451 6.35222e-19)
(-1.42682 -0.115349 0)
(0.343912 0.694777 1.55687e-19)
(1.01556 0.0250722 -8.54974e-21)
(-0.229006 -0.0947171 0)
(1.00646 -0.014469 -4.43738e-20)
(0.852627 -0.718446 -2.15434e-19)
(1.24822 -0.621782 0)
(0.925959 -0.264584 1.61717e-19)
(0.218801 0.66764 3.44619e-19)
(0.0179859 0.0211487 0)
(-0.115249 -0.727814 -7.88927e-21)
(0.718232 -0.626813 -3.32324e-19)
(0.980329 -0.0388687 -2.0378e-19)
(-0.0703311 -0.626595 4.7705e-19)
(-0.15029 -0.420137 1.7709e-19)
(-0.284525 -0.704329 0)
(0.966901 0.477163 0)
(-0.347798 -0.645197 3.09079e-19)
(2.16982 0.306204 -2.34334e-19)
(1.07818 0.898769 1.062e-20)
(1.06431 0.215276 -9.36323e-20)
(1.14664 0.00126167 -1.67662e-19)
(1.05998 -0.0412937 -5.7015e-20)
(-0.0232709 -0.670981 -4.42436e-19)
(1.77652 -0.0361731 4.24625e-19)
(0.739182 0.0335163 1.51513e-19)
(1.80864 -0.00489736 1.25992e-19)
(1.04648 -0.183555 0)
(0.110019 0.597402 3.27732e-19)
(1.09689 0.0263287 -3.86314e-19)
(1.74503 0.622065 -3.64289e-20)
(0.731382 -0.45157 -1.28558e-19)
(-0.0657646 -0.00456552 2.37338e-19)
(0.790626 -0.692519 2.8507e-19)
(1.23144 0.196586 5.14748e-20)
(1.00685 -0.0129989 1.96616e-19)
(0.176715 -0.747163 -2.01754e-19)
(1.0457 0.0151653 0)
(1.24348 0.121604 -1.21024e-19)
(0.0109873 0.019618 0)
(1.03244 0.008121 -1.15563e-19)
(-0.967079 -0.251648 -2.63921e-19)
(1.69865 0.31948 -4.80985e-21)
(-0.506975 -0.3473 1.75064e-19)
(1.61881 0.0477195 -3.96438e-20)
(1.00845 -0.0219463 4.05191e-20)
(1.32636 -0.0773848 0)
(1.43593 -0.602209 -7.21073e-20)
(1.03126 0.0366962 -1.1958e-19)
(1.44837 0.794723 8.15834e-21)
(1.37567 -0.0180428 0)
(1.04723 -0.0328507 1.48788e-21)
(0.0398861 -0.0213298 0)
(1.41782 0.0384971 0)
(-0.491178 -0.733176 0)
(1.23488 0.445067 0)
(1.9192 0.266177 7.27563e-20)
(0.741491 0.614414 3.0539e-19)
(0.288853 -0.290506 -1.91323e-19)
(-0.207744 -0.656939 -4.27227e-19)
(0.0140469 -0.00568131 0)
(1.26202 -0.281517 4.28051e-20)
(1.36641 0.516435 0)
(1.46808 0.292941 0)
(-0.683315 -0.56275 1.6651e-19)
(0.810201 0.714044 9.02989e-20)
(1.71335 -0.00773964 0)
(-0.377745 -0.554788 9.84148e-20)
(0.903697 0.225775 1.47819e-19)
(1.15149 -0.161294 -2.38282e-20)
(1.24698 0.930519 2.15005e-20)
(0.915066 -0.822994 -1.72606e-20)
(0.414954 -0.0333748 -2.77314e-20)
(0.796648 0.718416 9.0995e-20)
(1.18349 0.929174 0)
(1.62496 -0.430887 8.14752e-20)
(1.48498 0.990809 0)
(1.15385 -0.101694 5.98153e-21)
(0.987211 0.0932219 2.42526e-19)
(1.01018 -0.00780595 0)
(0.264323 0.617964 1.5781e-19)
(0.888914 -0.160902 3.76732e-20)
(0.622876 -0.403867 0)
(0.662367 -0.377558 1.71096e-19)
(1.24286 0.561956 -2.20205e-20)
(0.473714 0.446932 2.15947e-19)
(-0.332438 0.472933 5.12696e-20)
(0.135955 0.0223527 1.26987e-19)
(0.801795 0.0678866 0)
(1.31644 -0.89327 -2.20456e-20)
(1.05256 -0.0422098 3.10427e-19)
(1.52302 0.317289 1.86341e-19)
(-0.421637 -0.610554 8.53925e-20)
(-1.12118 -0.190589 0)
(1.19726 -0.229266 -8.35371e-20)
(0.0210926 0.0187468 -2.04956e-19)
(0.407189 0.469096 -5.35475e-20)
(-0.134871 0.0312336 -5.48949e-22)
(-0.214144 0.0927085 3.88967e-19)
(1.06656 0.0181725 -6.92125e-22)
(2.3186 0.00124714 4.29388e-19)
(1.20176 0.464018 -1.98952e-19)
(0.995237 -0.0305629 0)
(1.80842 0.00485448 2.88004e-19)
(1.79498 0.14007 1.26556e-19)
(0.903511 -0.757203 1.03339e-19)
(1.14868 -0.967296 -7.42424e-21)
(0.478103 0.443509 1.43397e-19)
(1.76391 0.851621 0)
(1.77394 0.572185 6.81792e-20)
(0.0204475 0.0120539 -4.17937e-19)
(0.887437 0.772885 0)
(1.06003 -0.0895245 0)
(0.289853 -0.289554 -3.71217e-21)
(0.327858 0.311107 0)
(-1.42171 0.0176435 -5.44123e-19)
(-0.414255 0.653116 -1.55241e-19)
(1.73411 -0.405554 0)
(1.31159 0.0270772 5.19365e-20)
(-0.756499 0.0935096 3.3338e-19)
(0.528313 -0.501533 -3.6407e-19)
(1.87396 -0.0687931 -4.98935e-20)
(0.605324 -0.549084 0)
(1.05323 0.118887 0)
(1.36839 -0.216125 0)
(1.11365 0.233425 -1.71634e-19)
(1.30368 0.10934 2.40311e-19)
(-1.04443 -0.0715138 0)
(0.850012 -0.0625342 0)
(1.62509 -0.100237 1.93602e-20)
(-0.095138 0.256113 1.32583e-19)
(2.16524 -0.330039 -2.45092e-19)
(1.05935 -0.505774 2.14792e-19)
(1.62777 -0.105071 -2.4149e-19)
(-1.28791 0.153801 -2.60181e-19)
(1.91403 0.0306661 -2.44027e-19)
(1.0086 -0.0151634 3.20734e-19)
(1.52963 0.605398 0)
(-0.416994 0.726378 4.12291e-20)
(0.996219 -0.821326 1.20395e-19)
(0.858547 -0.0117861 3.80189e-20)
(0.626827 -0.426707 0)
(1.89336 -0.537508 1.05283e-20)
(1.20601 -0.167519 1.05701e-19)
(1.14128 -0.199591 0)
(0.60225 -0.558736 3.26953e-19)
(0.621611 -0.0662066 -3.05862e-20)
(2.14457 -0.456665 4.92114e-19)
(-0.145913 0.40215 -2.74301e-19)
(1.33796 0.625883 8.39434e-20)
(1.15177 0.406788 2.62876e-21)
(0.911818 0.379341 1.73311e-19)
(2.00516 0.405041 -2.27649e-19)
(-0.0401287 -0.714471 -7.75445e-21)
(1.14228 -0.183972 0)
(-0.156028 -0.0963291 3.9293e-19)
(1.08347 -0.942069 0)
(1.05553 -0.643356 1.58093e-20)
(1.57522 0.243522 -7.75406e-19)
(1.06744 -0.00229597 -1.39723e-21)
(-0.799976 -0.37985 -5.5e-19)
(0.999477 0.487739 1.30059e-19)
(0.311072 0.510478 -1.22467e-21)
(0.737292 -0.0372214 0)
(0.953794 -0.214549 0)
(0.843855 0.166806 1.00106e-20)
(0.752507 -0.01511 0)
(1.35601 -0.213935 -1.0876e-19)
(-1.8553 0.104628 7.19593e-19)
(1.91654 0.486517 7.52087e-20)
(1.05541 -0.0181525 0)
(0.546764 -0.343354 8.3999e-20)
(1.02659 0.0273165 1.53371e-19)
(1.08204 1.00359 -5.21403e-20)
(-0.48125 0.610767 0)
(1.1084 -0.478171 3.59238e-19)
(0.927684 -0.0938135 -1.93165e-22)
(1.09576 -0.497978 -1.5663e-19)
(2.33869 0.150447 2.49807e-19)
(1.29592 0.798338 0)
(0.8868 0.0289908 0)
(-0.515154 -0.652954 -2.17277e-19)
(0.0275144 -0.0152985 1.97229e-19)
(0.957874 0.36968 -1.57823e-19)
(0.381684 -0.643363 -1.81381e-19)
(0.647461 0.415877 1.92293e-19)
(0.989529 -0.0303393 0)
(0.532625 -0.49501 0)
(1.10899 0.00545831 1.12622e-21)
(1.22821 -0.505252 -6.95157e-20)
(0.628276 0.0158437 1.41561e-20)
(0.732263 -0.149118 9.54655e-20)
(-0.042729 0.129811 -3.51934e-19)
(1.62301 -0.101165 3.60155e-19)
(0.662192 0.616026 0)
(1.28104 0.702861 0)
(1.573 0.24411 0)
(-0.466923 -0.613607 -2.21454e-19)
(1.27965 0.569559 2.73261e-19)
(1.89842 0.140817 4.8683e-20)
(1.00082 -0.00254311 0)
(1.05596 0.040566 0)
(1.98529 -0.0825172 -3.35986e-19)
(1.09818 0.84463 5.52696e-20)
(0.998964 0.00107243 -1.53171e-19)
(1.49222 0.481382 0)
(-0.35475 0.621953 0)
(1.2417 0.314542 2.02087e-19)
(1.03491 0.532159 -9.43179e-20)
(1.04813 0.0266267 0)
(2.03344 0.615545 0)
(2.01644 0.672034 -4.11252e-19)
(-0.101487 0.636371 -5.41338e-21)
(0.999205 0.0128623 0)
(0.709926 0.47868 -2.60198e-20)
(0.928184 -0.817487 0)
(1.01448 0.0222053 3.53991e-20)
(1.12872 -0.0373025 2.99381e-20)
(0.900775 -0.325071 2.3867e-19)
(1.10234 0.0119858 -2.19415e-20)
(2.16027 -0.08808 4.07475e-19)
(0.886258 0.108642 4.88723e-20)
(0.757687 -0.0345192 0)
(1.00195 0.00211877 0)
(-0.814419 -0.417892 0)
(0.66784 0.638464 -1.3582e-19)
(-0.012755 0.0656015 2.37248e-19)
(1.16041 0.341412 -3.2623e-19)
(-0.756277 0.417362 0)
(0.832728 0.643793 1.26867e-19)
(0.992149 -0.331606 0)
(1.00345 -0.00160271 8.96331e-20)
(0.942573 0.762726 5.80203e-20)
(1.04276 0.406465 1.87615e-19)
(1.77713 -0.0866578 0)
(2.14403 0.13558 -1.03818e-19)
(0.823046 -0.107693 -2.88215e-19)
(-1.31152 -0.0410491 -6.85421e-19)
(1.32439 0.803936 0)
(0.874377 0.249083 1.37026e-19)
(2.14734 -0.0619744 0)
(0.779527 0.525391 2.79477e-19)
(-1.74785 0.000983172 2.71743e-19)
(-0.0479569 0.141057 0)
(0.590932 0.561072 -5.35669e-20)
(1.0184 -0.631599 -1.10909e-19)
(0.474455 -0.238049 -1.00831e-19)
(1.00712 -0.0200325 0)
(-0.514472 0.311871 -3.54106e-19)
(0.630381 -0.561748 6.44484e-20)
(0.907676 0.296518 0)
(1.35567 -0.477437 2.72051e-20)
(0.987426 0.840037 1.62155e-20)
(1.12643 0.00326154 -2.35659e-20)
(0.174176 -0.213387 -2.69013e-19)
(0.226729 -0.0195737 -4.57369e-19)
(-0.0533006 -0.175329 1.07978e-20)
(0.82059 0.366023 1.91475e-19)
(-0.316259 0.715875 -7.0876e-21)
(1.4055 -0.642369 3.30705e-21)
(1.00922 0.00825853 -2.64962e-19)
(-0.604886 -0.564217 0)
(1.03361 0.0359828 -3.10483e-19)
(2.10726 0.521924 1.89273e-19)
(0.892352 0.69095 2.07133e-19)
(1.08032 -0.074472 1.22072e-19)
(1.00485 -0.0271477 1.22353e-19)
(1.06678 -0.00736994 1.28308e-21)
(-0.391425 -0.480083 -3.83331e-22)
(1.72009 -0.86519 1.50502e-20)
(1.11593 -0.146247 -5.18447e-20)
(0.851778 0.0461557 5.9317e-20)
(0.909289 -0.292839 7.07327e-20)
(0.324232 0.0322945 0)
(0.967866 0.736489 0)
(0.886639 0.527751 -6.91656e-20)
(2.02849 0.200698 -4.35348e-20)
(-1.38469 -0.025133 2.65415e-19)
(1.02484 -0.538429 -3.86266e-19)
(0.609261 -0.527396 3.12142e-19)
(1.48172 0.18783 -2.06479e-19)
(0.355474 -0.615363 2.0618e-20)
(1.10088 0.0517468 0)
(0.753636 0.125224 -5.40121e-21)
(1.09972 -0.00842057 -1.04627e-20)
(1.04669 0.764663 0)
(1.14908 -0.0375775 0)
(0.677694 -0.32153 0)
(-0.154788 -0.321822 -6.99945e-20)
(-0.163806 0.145445 0)
(1.38681 0.7621 8.41683e-20)
(1.21395 0.184819 4.60405e-21)
(-0.59358 0.416768 9.48306e-20)
(1.11687 -0.0169521 8.13376e-21)
(1.83777 0.45844 -1.2439e-19)
(2.08953 -0.301696 -4.21705e-20)
(-0.181165 -0.00860392 -2.76443e-19)
(-0.150638 -0.764766 5.87717e-21)
(0.677078 0.0546584 0)
(0.699521 -0.0334282 0)
(1.00467 0.000272392 3.02656e-22)
(-0.514969 -0.606502 0)
(1.48184 0.0498122 -1.32292e-19)
(0.689587 -0.0275199 0)
(1.04213 -0.00272989 9.77964e-20)
(0.995786 0.00764878 -3.48468e-20)
(1.6396 -0.334862 2.1717e-19)
(1.05432 -0.0150836 -7.08654e-22)
(0.940866 -0.178986 -4.25614e-20)
(1.02943 -0.0200587 2.84603e-19)
(0.663466 -0.602193 1.4451e-19)
(0.0171246 -0.287921 -4.41262e-20)
(0.975874 -0.078957 9.8248e-21)
(0.0273725 -0.0027279 0)
(1.1337 0.799081 0)
(1.02368 -0.00848303 0)
(0.993465 -0.76334 -7.48558e-20)
(1.03113 -0.883485 7.99403e-21)
(0.968215 -0.0683685 -2.12125e-21)
(0.31971 1.0473 -6.35738e-19)
(1.09582 0.0169153 3.51368e-21)
(0.578674 -0.376257 -5.13222e-19)
(0.962872 0.00440214 -3.93536e-20)
(1.10045 -0.000748175 -1.47196e-20)
(2.0591 -0.310742 1.3492e-19)
(0.707898 -0.067473 -2.13694e-20)
(-0.311684 -0.542063 -1.47238e-19)
(1.12081 0.557122 1.37045e-19)
(-0.135212 -0.336853 0)
(0.326084 -0.668341 5.2546e-19)
(-0.0362219 -0.0587235 1.46315e-22)
(1.03321 -0.0353164 2.55223e-19)
(1.01372 -0.000974051 -6.56613e-21)
(1.08911 -0.00727624 -7.05842e-20)
(1.06533 -0.0182558 2.36898e-21)
(1.62179 0.310259 1.79358e-20)
(0.394076 -0.369211 -2.53641e-19)
(1.01654 -0.0349723 2.85414e-21)
(1.03311 0.0131068 -1.87751e-19)
(0.942464 -0.0955137 -1.01106e-20)
(1.07032 -0.0287377 0)
(1.11929 0.596556 -2.55046e-19)
(1.00425 0.00632396 7.31427e-20)
(0.675173 0.603147 1.99596e-19)
(1.08373 0.0433682 -2.03759e-22)
(1.04927 -0.00801881 -2.30383e-20)
(1.10112 0.0247405 6.54605e-22)
(2.25269 -0.231813 2.10948e-20)
(0.450401 -0.016757 0)
(1.05719 -0.0350958 0)
(1.07043 -0.0295886 4.50049e-19)
(1.00004 -0.00484894 0)
(0.00360869 -0.0252757 0)
(0.948935 -0.572856 0)
(1.00092 -0.000808351 -4.25557e-19)
(1.15016 -0.673 5.64133e-20)
(1.01886 0.00246502 8.8849e-21)
(1.35045 0.959495 -1.38565e-21)
(1.5349 1.00818 -1.57454e-19)
(1.09139 0.016334 -5.92328e-21)
(1.63512 0.699001 1.65727e-19)
(0.573154 0.11712 0)
(0.101121 0.661746 0)
(2.16192 0.0902894 5.38072e-19)
(1.15581 -0.218403 0)
(0.997358 -0.00602394 -1.31873e-19)
(1.00295 0.00226989 2.56256e-19)
(1.39055 0.140115 -4.82691e-20)
(0.00938404 -0.12567 3.0302e-19)
(0.983451 -0.000567739 1.3851e-19)
(0.802794 -0.0271318 2.94971e-21)
(0.820396 0.028865 -1.65719e-21)
(1.06681 -0.0124259 2.14602e-23)
(0.905609 0.00834394 -1.39541e-19)
(1.00491 0.00293671 1.65591e-19)
(1.00142 0.0025201 9.75038e-21)
(0.783735 -0.00883119 0)
(0.730138 -0.022193 0)
(0.730474 -0.019675 6.18371e-22)
(0.714205 -0.0376967 0)
(0.405849 -0.00302184 0)
(0.588082 0.0163419 0)
(0.661492 0.00457872 -4.97028e-22)
(0.825408 0.0106064 2.48874e-22)
(1.05633 0.00810596 0)
(1.0649 0.00143334 1.01948e-21)
(1.05942 -0.0067093 0)
(0.694377 -0.00967987 0)
(0.594661 -0.00338727 0)
(0.549118 -0.0105367 2.41128e-21)
(0.339172 -0.00812479 5.05201e-20)
(0.820041 0.0276158 0)
(0.811817 0.0223683 0)
(0.948302 0.0209269 -1.71916e-19)
(0.833921 0.014647 3.23573e-19)
(1.00437 -0.00134625 0)
(0.999049 -0.00204002 3.05221e-19)
(0.99993 0.000620153 -4.2807e-22)
(0.813901 0.0310825 2.72988e-19)
(0.999608 -0.0129588 -1.59085e-19)
(0.827166 -0.0170276 0)
(0.62431 -0.000792079 1.65865e-21)
(1.00319 -0.00230516 -1.54421e-19)
(1.00331 0.00744508 -2.64743e-19)
(1.06783 -0.00805429 0)
(0.994223 0.00111918 0)
(0.999632 -0.000626193 0)
(1.06797 0.0425225 5.43208e-22)
(1.09428 -0.00131107 4.69843e-21)
(0.990722 -0.08343 0)
(-0.540348 0.518073 2.53655e-19)
(-0.13644 0.470934 -1.48429e-19)
(1.017 -0.0131461 -2.0456e-19)
(-0.357062 -0.77408 -1.45539e-19)
(1.01225 0.0153265 -1.64961e-19)
(1.18006 -0.210938 -6.53426e-20)
(0.790256 -0.47049 2.38745e-19)
(-0.0128915 -0.0433588 -1.01221e-19)
(1.02432 0.0203942 0)
(1.05834 0.000261637 -4.41632e-20)
(0.862168 0.0185274 0)
(-0.00739478 0.0551033 3.48146e-19)
(1.13604 -0.136074 0)
(-0.594307 -0.649441 -3.78116e-19)
(0.771385 -0.0447853 -5.22616e-21)
(1.67056 0.6845 1.07515e-19)
(-0.038611 -0.0777396 0)
(1.07347 -0.0287613 1.38324e-19)
(1.0888 0.0118377 6.26767e-22)
(0.923434 -0.0102169 2.20351e-19)
(1.01677 -0.00432835 -1.39415e-19)
(1.68529 0.865232 9.33899e-20)
(0.521905 0.490208 0)
(0.447468 0.406729 1.63023e-19)
(1.05256 0.0845219 -9.00092e-22)
(1.14534 0.134592 1.42588e-19)
(1.07715 -0.700044 0)
(1.01638 0.00468344 0)
(1.00685 -0.0169357 -3.22264e-19)
(1.01423 0.0115874 -3.13386e-19)
(-0.0946582 -0.319099 0)
(1.22986 0.827037 -6.73724e-20)
(1.06853 0.0314081 2.16928e-22)
(1.02257 0.00541574 1.20438e-19)
(1.00706 0.0239605 -1.51854e-19)
(-0.757638 -0.551834 -3.74288e-20)
(1.08332 0.00949481 -1.00305e-20)
(1.02657 -0.00555324 5.13996e-19)
(1.05762 0.0326054 0)
(1.87887 0.6525 -1.08133e-19)
(1.01766 -0.0152751 -1.60004e-19)
(1.81756 0.185575 -1.14988e-19)
(1.05127 0.013443 -3.6768e-22)
(1.00616 0.00318907 3.2162e-20)
(2.10324 -0.199659 -3.34793e-19)
(1.01897 0.00575713 1.55484e-19)
(1.09776 -0.0315398 1.23234e-21)
(1.02989 0.0113132 0)
(0.926066 0.151335 3.84112e-20)
(-0.784969 0.127129 5.43757e-21)
(0.986508 0.0253367 1.54998e-19)
(1.0236 0.0217233 -6.90949e-22)
(1.07676 0.0236349 -1.08195e-21)
(1.25388 0.307715 2.75584e-19)
(1.00662 0.00838798 1.06054e-19)
(1.03014 -0.0139143 3.02726e-22)
(1.74882 0.233513 3.18184e-21)
(1.79694 0.94949 -1.34046e-19)
(0.767313 -0.687802 4.2501e-20)
(0.443904 -0.314307 -2.50438e-19)
(1.00887 -0.0307669 0)
(1.02772 0.000249581 3.86842e-20)
(1.01697 -0.00529695 8.11727e-20)
(1.08253 -0.0137116 7.71709e-22)
(1.01889 0.00793168 -1.62003e-19)
(1.03869 -0.0219451 1.8484e-19)
(1.01073 -0.00209992 -1.5206e-19)
(1.00721 0.00578099 -5.1678e-22)
(1.01628 0.00666109 -2.94638e-22)
(1.01522 0.0127448 1.54972e-19)
(0.902784 0.0825032 3.99548e-19)
(1.38466 0.508701 0)
(0.883788 0.299978 3.00319e-19)
(1.00354 -0.000151336 0)
(1.01517 -0.0241987 -4.48843e-20)
(1.54666 0.448887 -2.38476e-20)
(1.57401 0.0973402 0)
(1.354 -0.333833 -4.47111e-20)
(1.27563 0.739553 -1.05155e-20)
(0.838038 -0.018812 0)
(2.14915 0.0743636 0)
(0.994609 0.755498 2.24603e-21)
(1.06946 0.000223019 -1.44937e-21)
(1.01584 -0.00324524 -1.62989e-19)
(1.11265 -0.559643 -4.39727e-20)
(1.07193 0.00517279 -2.11145e-21)
(1.13525 -0.0283496 0)
(1.0929 0.0613607 0)
(1.2597 0.351524 0)
(0.276055 0.556057 1.37091e-19)
(1.09213 -0.0215704 8.43898e-21)
(0.462283 0.305038 0)
(-0.00350362 0.619986 -4.41341e-19)
(1.70984 0.971116 -1.37209e-19)
(1.00936 -0.00711379 -3.19036e-19)
(1.07573 -0.00772282 1.93022e-21)
(1.01607 0.0166559 2.11077e-19)
(0.755847 -0.0407238 0)
(-0.0754739 -0.264186 -3.10504e-20)
(0.614852 0.440392 -2.70381e-19)
(1.31246 0.430772 1.5246e-20)
(0.230059 0.643937 0)
(0.83792 0.120703 5.5911e-20)
(0.519544 0.496505 4.01275e-20)
(1.19337 0.889499 -1.67525e-20)
(-0.00925157 0.0149619 1.51038e-19)
(1.02115 0.015128 0)
(1.11045 -0.0331782 6.39192e-21)
(1.00656 0.00249207 1.19656e-19)
(2.34604 -0.102169 0)
(1.01462 0.0138759 2.00867e-19)
(0.428008 -0.651286 -2.45664e-19)
(1.01683 0.0087863 -1.24026e-19)
(1.08064 -0.0570244 0)
(1.40367 -0.441495 2.08943e-22)
(0.99769 0.00874914 -8.35948e-20)
(0.991751 -0.0266827 2.20741e-19)
(1.09503 0.108807 -2.8412e-21)
(1.11228 -0.0355795 -1.04664e-20)
(-0.173759 -0.0439831 3.95268e-19)
(2.07234 0.30242 2.67042e-19)
(1.1263 -0.0158551 1.21808e-20)
(0.823036 0.0109704 -3.02465e-19)
(0.838461 0.0340793 0)
(1.10953 -0.00735781 7.83211e-21)
(1.0212 -0.00576278 -2.41099e-20)
(0.966186 0.0311234 0)
(1.04467 -0.000601391 -1.52767e-19)
(1.11324 -0.00157687 -2.11769e-20)
(-1.61146 -0.0665011 3.08021e-19)
(2.13102 -0.575087 0)
(-0.805209 -0.391428 -5.82579e-19)
(1.4927 -0.343441 0)
(1.03752 -0.0186398 4.48553e-20)
(1.04846 -0.0117375 -5.47979e-23)
(1.00409 -0.00294515 1.2956e-19)
(-1.02255 -0.170394 5.8133e-19)
(1.01529 -0.00143248 0)
(0.982334 0.0037781 -3.13994e-19)
(1.02115 0.00812678 1.64723e-19)
(1.04597 0.00805211 0)
(1.03525 -0.00246822 3.50274e-22)
(0.966542 -0.00176514 -1.41646e-19)