/*--------------------------------*- C++ -*----------------------------------*\
| =========                 |                                                 |
| \\      /  F ield         | OpenFOAM: The Open Source CFD Toolbox           |
|  \\    /   O peration     | Version:  2306                                  |
|   \\  /    A nd           | Website:  www.openfoam.com                      |
|    \\/     M anipulation  |                                                 |
\*---------------------------------------------------------------------------*/
FoamFile
{
    version     2.0;
    format      ascii;
    arch        "LSB;label=32;scalar=64";
    class       surfaceScalarField;
    location    "36.6";
    object      phi;
}
// * * * * * * * * * * * * * * * * * * * * * * * * * * * * * * * * * * * * * //

dimensions      [0 3 -1 0 0 0 0];

oriented        oriented;

internalField   nonuniform List<scalar> 
3181
(
-1.03701
0.404072
0.632934
-0.384447
0.36221
0.0222372
0.51728
-0.355272
-0.162009
0.119125
-0.197502
0.0783773
-0.0247329
0.0221258
0.00260712
0.559
1.57218
-2.13118
0.145936
-0.139744
-0.00619217
0.0152154
0.000237134
-0.0154525
0.557424
-0.740434
0.18301
-0.0753361
0.134004
-0.0586677
-0.0106231
-0.0526528
0.0632759
0.114928
0.0516735
-0.166602
-0.000884153
-0.0135138
0.0143979
-1.10017
0.151557
0.948616
-0.325118
0.691177
-0.366059
-1.12326
0.639193
0.484065
0.0840572
-0.929749
0.845691
-0.110078
0.00919113
0.100886
-1.88527
0.253853
0.0128218
0.0441717
-0.0569935
0.042295
-0.0893664
0.0470714
-0.0380183
0.0432898
-0.00527143
1.06639
-1.04149
-0.0249022
0.0269589
0.0343674
-0.0613263
-0.956685
0.327113
0.629572
-0.107387
0.226512
0.305626
-0.248927
-0.0566995
0.0289982
0.0608722
-0.0898704
-0.417662
0.343207
0.0744552
-0.033785
-0.0309356
0.031601
-0.000665345
-0.0377947
-0.91889
0.0363442
-0.055685
0.0193409
0.224809
1.48789
-1.7127
-0.0565194
0.047549
0.00897037
0.186026
0.276773
-0.462799
1.76144
-1.53663
0.0738269
-0.0315319
1.56288
-0.874897
-0.687987
-1.093
1.652
-0.0475782
0.046694
-0.0235777
-0.0144406
-0.403677
0.0785593
-0.124693
0.101115
-0.640015
0.129171
0.510844
-0.145268
0.0699315
-0.165783
0.169867
-0.00408421
-0.267868
-0.0761578
0.344026
0.195798
0.935269
-1.13107
0.0400515
0.0260781
-0.0661296
-0.0181139
-0.103072
0.109398
-0.00632599
0.512488
0.178688
-0.0956852
0.145258
-0.0495723
0.0805212
-0.044177
-0.168556
0.194286
-0.0257293
0.161643
0.0548134
-0.216457
0.106567
-0.112375
0.00580803
1.15504
0.407844
-0.852463
-0.184544
-0.101389
-1.32712
1.42851
0.558612
0.23261
-0.791221
-0.453116
-0.207026
0.660142
-1.70089
0.607897
-0.272158
0.830769
-0.319899
-0.102031
0.42193
-0.210872
-0.20679
-0.188098
0.168581
0.0195167
0.140626
0.28186
-0.422486
-0.176062
0.733486
-0.0101757
0.0253911
-1.7459
1.64451
0.182053
0.123573
-0.175192
-0.110956
0.286147
-0.268812
0.36019
-0.0913775
-0.0788374
0.0869963
-0.00815887
-1.55011
-0.920299
0.0107781
0.909521
-0.0311844
-0.025335
-1.12383
0.790785
0.333041
0.0955624
-0.221567
0.126004
-1.36099
-0.3399
1.10039
-0.948834
-0.725274
1.1496
-0.200981
1.0626
0.172062
-0.173268
0.00120613
1.83286
-0.260687
2.25393
-2.25393
-0.00753833
-0.00145817
0.0089965
-0.208912
-0.0528681
0.26178
0.0514416
-0.0484518
-0.00298975
-0.452502
0.828643
-0.37614
-0.023256
-0.230166
0.253422
-1.08461
0.0431215
0.349122
0.0594017
-0.408523
0.132833
-0.865736
1.09835
0.0352053
0.00125988
-0.0364652
-0.0176004
-0.150956
0.0227415
-0.00859608
-0.0141454
-0.068974
0.0917155
0.11681
-0.982546
0.326185
-0.778688
0.924926
-0.840869
0.0382616
0.0503472
-0.0886089
0.0859099
0.0531884
-0.139098
-1.36952
-0.092382
1.4619
-0.241133
0.405216
-0.164082
-0.186353
-0.0191757
0.205528
-0.474753
-0.649073
0.0539745
-0.013923
-0.150313
0.144803
0.00550944
-0.0785979
-0.0153456
0.0939435
-0.535719
-0.204715
-0.0515082
0.0124269
0.0390813
-1.15008
0.298601
0.851475
1.19514
-0.259872
-0.0169919
0.00945353
0.0323672
0.149686
-0.202787
0.388813
0.0518759
0.00863882
-0.0605148
0.141327
0.0700055
-0.211332
0.244565
-0.284595
0.0400302
-0.595145
-0.528114
-0.795925
-0.354151
-0.00550555
0.0407109
-0.102827
0.180718
-0.0778908
0.134487
0.0243687
0.121567
-0.0565371
0.067792
-0.0112549
-0.0932741
-0.0207837
0.114058
0.0729257
-0.0729257
-0.182468
0.206837
0.0265884
0.077954
0.10307
0.0912159
-1.23882
1.06276
-1.43267
0.033846
1.39883
0.0129652
-0.0135333
0.000568092
-0.0274069
-0.0531383
0.0805452
0.533586
-0.0231189
-0.510467
-0.00335352
0.0034501
-9.65749e-05
-0.197144
0.0146757
0.162684
0.665958
-0.362895
0.525579
-0.159716
-1.20981
-0.0160864
-0.00864651
0.480778
-0.30058
-0.180199
0.0383699
-0.0362453
-0.00212452
0.0475503
-0.315418
0.0228936
-0.943193
0.0486395
-0.151467
-0.282579
-0.396057
0.0763765
1.37627
-0.929756
-0.446516
1.05809
0.318186
0.0657921
0.278234
0.0100822
0.00288301
-0.141891
0.138595
0.00329553
-0.253669
-0.590165
0.843834
-0.352089
-0.052409
0.876142
-0.622288
0.141887
0.0399597
-0.0482026
0.00824295
-1.76122
-0.286315
2.04753
0.177017
-1.93823
-0.314506
0.663628
-0.906855
-0.0167846
0.00367445
-0.271752
0.268077
1.39001
-1.52981
0.1398
-0.0332369
0.0171505
0.573635
-0.827304
-0.250924
-0.0382448
0.289169
-0.299125
-0.120717
0.419842
0.181847
-1.00981
-0.0747989
0.00263741
-0.0596309
-0.565396
0.35837
-0.251874
0.0193577
0.232517
-0.0403556
0.00711873
0.0164031
-0.0164031
-0.122652
0.134653
-0.0120009
-0.194249
-1.23842
0.0399978
0.00428688
-0.0442847
-0.125754
0.088283
0.0374713
-0.225161
0.0370631
1.37872
-0.241293
-1.13742
-0.187413
0.443371
-0.255958
0.00532379
-0.00573195
0.000408158
-0.158876
-0.0274765
-0.191644
-0.00442593
0.19607
-0.170708
0.311334
-0.104952
0.103213
0.00173945
0.078116
0.0224987
-0.100615
-0.0995529
0.105064
-0.00551125
-0.744095
0.556463
0.187633
-0.216323
-0.0502287
0.266551
-0.690748
0.661696
0.0290514
-0.0060815
0.0404489
0.0123605
-0.0131541
0.000793603
-0.0147388
-0.0465874
0.819699
0.375441
0.173769
-0.888503
0.714735
-0.0357402
1.74055
-1.70481
0.378748
0.631139
1.62279
0.0666596
0.208502
-0.0671758
-0.0736672
-0.0294047
0.233279
0.161094
-0.075184
0.734977
-0.407864
0.0599744
0.201805
0.0519584
-0.168918
0.116959
-0.77164
-0.137549
0.909189
-0.00900434
0.00900434
-0.0174234
-0.27725
0.554023
0.0125816
-0.228904
-0.0538558
0.063047
0.0142259
-0.0197314
0.139122
-0.149745
-0.346323
0.323067
0.0387598
0.0377997
-0.0765595
0.380743
-0.329069
0.659309
-0.078969
-0.58034
-0.203744
0.269536
0.184358
-0.484938
-0.204609
0.608681
0.163044
-0.0322748
0.0322748
-0.438441
0.243356
0.195085
0.378544
0.0266719
-0.00991687
0.00952491
0.000391958
-0.0648697
-0.0475919
-0.00391634
-0.0502261
0.189348
-0.184138
0.246616
-0.0624781
0.132749
0.0283446
-0.388261
0.139334
0.195209
-0.0624598
-0.0471715
-0.0577807
-0.0193482
0.0263551
-0.00700697
0.144675
-0.102849
-0.0418264
-0.0215599
0.401648
-0.380088
-0.0525997
0.0424239
0.107706
-0.112193
0.00448743
0.0243642
0.918744
-0.259434
-0.06286
0.0183144
0.0445456
-0.0538368
0.0573489
-0.00351204
-0.0943076
0.0969748
-0.720253
0.623278
-0.00758037
-1.4624
-0.480046
1.94245
-0.493311
1.35812
-0.864807
0.0808374
-0.248141
-0.0364543
0.28117
0.256341
-0.537511
-0.209276
0.261234
0.138864
-0.882807
0.743943
-0.0229992
-0.0308376
-0.0209135
0.0235509
-0.988439
0.443219
0.54522
0.929756
-0.812946
-1.66909
1.57671
-1.39001
1.42385
0.0389678
-0.0885401
0.00118586
0.0111746
0.00604294
0.793307
-0.654443
0.119441
-0.0708018
0.414543
0.735055
-0.0451117
-1.41415
1.37841
-0.661222
-0.577602
-0.242036
-0.397979
-0.00590565
-0.163316
0.210866
-0.573896
-0.368783
0.18137
0.764753
-0.231167
-0.879158
-0.78993
0.747404
0.0696258
-0.0926251
0.279288
0.0365383
-0.0365383
0.669805
0.149868
-0.819673
-0.226353
0.896157
0.563683
0.0227932
-0.586476
0.0651009
0.0128531
0.00747093
0.00494078
-0.0124117
-1.32712
-0.666016
0.406145
0.829966
0.548751
-0.0340897
-0.131694
-0.234861
0.74735
-0.201575
-0.0502997
-0.00291535
-0.0759221
-0.0552556
0.108444
0.380992
-0.251821
-0.820938
-0.290372
-0.101532
-0.00360014
0.105132
-1.38291
2.01405
-0.112643
0.113918
-0.00127533
0.0241109
-0.0140287
-0.0760227
0.0602794
0.0157434
0.0090463
0.412883
0.0214205
0.0169494
0.00374864
0.0102043
-0.013953
-0.0178694
-0.173775
-0.731628
0.375868
0.355761
0.609579
-1.8408
1.23122
0.141607
-0.163655
0.022048
0.0138378
0.0401367
-0.303243
-1.95069
-0.0567325
-0.0192903
-0.0321058
0.0181828
0.149962
-0.352749
-1.20572
0.69398
0.511738
0.0340182
0.0910237
0.0536517
-0.77164
-0.507324
-0.236772
0.0750437
-0.0147643
0.0450416
-0.639445
-0.0513024
0.0622636
0.132946
0.397587
0.0363256
-0.458812
0.120214
0.35613
-0.296729
-0.113635
0.0203607
0.222801
0.838902
-1.0617
0.104774
-0.712481
0.607707
-0.938636
0.801087
-1.52819
-0.245479
1.77367
-0.0029059
0.00263778
0.000268122
0.17264
-0.471765
0.225125
-0.132743
-0.0923816
0.0559039
0.00144499
-0.0161225
-0.0854095
0.00739872
0.0180292
-0.032768
0.0206147
0.0820375
-0.102652
0.0703717
0.00990103
-0.0103862
0.000485213
0.0502657
-0.0078418
0.861994
0.0158223
0.00132818
-0.00771103
-0.658305
0.0145018
0.0505991
0.00743446
0.0835893
-1.77367
1.95069
0.176938
-0.00896726
-0.167971
-0.257019
0.0837515
0.120072
-0.118866
-0.00134824
0.0883445
-0.00311639
-1.13204
-0.0736746
-0.0463816
0.0669963
0.741035
-0.25697
-0.0836139
-0.0421404
0.345636
-0.00220621
-0.00771066
-0.00757344
0.0804992
0.144922
0.215268
0.157276
-0.336635
0.179359
0.10852
0.557439
-0.0360441
-0.109224
0.922294
-0.254087
-0.668208
-1.52819
-0.611214
1.22079
1.76144
-0.0450739
0.20824
-0.163166
0.402807
-0.0769873
-0.325819
0.1384
-1.49939
-0.0758941
0.076898
-0.00100384
0.126265
-0.145945
0.0196802
0.473297
-0.90532
0.432024
0.0404759
0.660657
-0.701133
-0.043521
-0.106792
-0.0332523
-0.0296077
-0.0087052
-0.429736
-0.00159778
-0.00130812
-0.0118944
0.0419162
-0.0300218
0.00116776
-0.143058
0.00756167
0.0165493
-0.0355861
0.0859333
-0.0117393
-0.00141485
0.198752
-0.428918
0.36795
0.990169
0.00291423
0.00609012
-0.991328
-0.0184804
0.122473
-0.0707709
-0.0428638
-0.280612
0.0296874
0.109542
-0.566129
0.456586
0.0460459
-0.0315441
-0.935654
-0.0131804
-0.00944281
-0.649507
0.746482
-0.017365
0.180409
0.0955394
-0.0727462
0.18499
-0.438584
0.253593
-0.0697141
0.0783529
0.00463509
-0.00519726
0.000562167
-0.0285084
-0.0710445
-0.0204491
-0.130507
0.744486
-0.639712
-0.0640899
0.0241489
-0.111475
0.316575
-0.159299
0.180234
1.11298
-0.376352
-0.736632
-0.123621
0.142978
-0.509266
-0.222362
-0.556621
0.6059
-0.588698
-0.0172017
-0.0646228
0.000532814
-1.41415
0.547084
-0.547084
-1.84437
1.84437
0.793307
0.65442
-0.182507
-0.471913
-0.899383
-0.0919452
0.645232
-0.36939
-0.275841
0.158714
-0.236604
-0.0124685
-0.00452331
-0.899558
-0.0829876
-0.933358
0.213105
0.0416181
-0.0452183
0.697704
-0.106845
-0.590859
1.32711
0.434323
-0.00313165
0.00776674
-0.960556
0.585304
-0.664273
-0.106102
-0.600208
0.70631
-0.0401931
-0.8491
-0.680707
0.219196
-0.814341
-0.909189
1.35074
-0.44155
-0.136555
0.275881
-0.139326
-0.0287023
0.726406
-0.106668
-1.0008
1.0008
-1.62037
0.617516
1.00285
0.000785006
0.00911603
0.0674633
-0.444103
0.884563
-0.0937781
-0.0874816
-0.033623
0.0432587
0.0015227
0.00380109
1.57028
-1.81576
-0.358347
0.436463
-0.651829
1.0293
-0.377474
0.00603208
-0.0627646
0.127518
-0.0575122
0.349943
0.000124131
-0.0136379
0.356616
0.0450314
0.0444293
-0.253639
0.20921
0.136574
0.0332931
0.100111
0.186036
1.60625
0.0382657
-0.235606
0.970829
-0.735224
-1.56784
1.28153
0.313162
-0.212047
0.0749116
-0.766018
0.691106
0.418814
0.124355
-0.470678
-0.074245
0.131106
-0.0568608
0.127381
-0.201626
-0.456822
-0.108574
-0.0744801
0.0777546
-0.00327443
-0.00302934
-0.00870991
0.0195763
-0.0637532
0.654443
-0.607707
-0.0467357
-0.28728
0.299862
0.879378
0.6868
-0.283994
-0.00797915
0.012266
-0.383534
0.345289
0.169144
-0.573371
0.404226
-0.00533619
0.000138928
0.663281
-0.191026
-0.472255
0.0114404
-0.0174191
0.00597867
-0.0284791
0.0209393
0.00753976
-1.45094
1.19025
-0.117306
-1.3451
-0.200481
-0.812946
1.42385
1.57671
-0.189709
-0.169633
0.119404
-0.0657537
0.0717798
-0.00602607
-0.582538
1.15413
-0.571589
0.552681
0.0925504
-0.0017002
-0.00363599
0.124475
-0.101944
0.033623
-0.0510368
0.00465511
-0.160338
-0.223195
-0.0115294
0.0257553
-0.225087
0.60583
1.05809
-0.256846
-0.0594668
0.00119236
0.0582744
1.96167
-0.384968
-0.05959
-0.0527847
-0.976941
0.163995
0.385285
-0.203439
-0.482445
-0.133831
0.616276
0.82436
-0.367359
-0.457001
-0.397746
0.507288
-1.37841
0.0512878
-0.00201385
-0.0255306
0.0275445
0.24173
1.49882
-0.165617
0.173088
0.283386
1.90731
-0.483453
-0.676804
0.051541
0.625263
0.386377
0.00860501
-0.351935
0.529891
0.802079
-0.577672
0.0743559
-0.0207043
-0.678167
0.221644
0.456523
1.0717
0.0285204
-0.0247717
-0.050153
-0.364871
0.109117
-0.318393
0.571866
0.541118
-0.0557838
-0.00883894
0.248385
-0.293458
-0.0234303
0.0173488
0.108716
-0.144553
0.0358363
-0.294899
0.308342
-0.0134425
0.25828
-0.634632
0.670833
-0.758809
0.0879754
0.124405
-0.133333
0.00892743
0.276454
0.0401209
-0.115986
-0.391338
-0.661425
0.661425
1.42851
1.32711
-0.712481
0.324177
0.477901
-0.116615
0.3117
0.939754
-0.387073
0.00817021
-0.875933
0.867763
0.127632
0.00637212
0.025543
-0.854099
0.738113
0.0724092
-0.166379
-0.118589
0.284968
-0.0996802
-0.505801
0.339422
-1.06915
-0.293054
-0.653255
-0.0285413
-0.00984818
-0.000538067
-0.227518
0.0377305
0.0674017
0.0336577
-0.149826
0.116168
-0.77183
-0.848537
-0.00546435
0.0663365
-0.321753
0.295507
0.0262464
-0.559028
0.378829
-0.104818
0.142617
0.231119
0.000359106
-0.0212726
-0.866166
0.624873
0.0354155
0.0722905
-0.116121
0.00464645
0.21492
0.0102051
-0.429857
1.74429
0.493157
0.116731
0.866053
-0.791142
0.798931
-0.453295
-0.620672
0.176569
0.155737
-0.795445
0.769625
0.0258206
1.1496
-0.577733
-0.220972
-0.137375
-0.0334718
-0.0149801
0.950458
-0.838048
-0.11241
-0.187513
0.112329
0.0269675
0.117836
0.875659
0.451599
0.0771625
-0.528761
-0.321885
-0.0468979
-0.0538082
-0.267945
0.115383
1.34652
1.28938
0.0377317
0.167261
0.551833
-0.719094
0.280202
0.0518856
-0.00991876
0.0102779
-0.518277
-0.102395
0.0182945
-0.0586501
-0.191252
0.141026
-0.526034
0.270076
-0.992371
-0.765045
-0.292406
-0.839578
1.39216
0.00666372
-0.289584
-0.42586
0.265522
0.418904
0.305416
0.0512009
1.2679
-0.794599
-0.194345
0.131886
0.0991027
-0.577204
0.478101
-0.0112097
0.00919582
0.0505599
-0.0599849
-0.234914
-0.115205
0.697478
-0.421135
-0.276343
-0.1824
0.130976
-0.0944979
-0.0364785
0.244183
0.0612327
0.309195
-1.174
-0.0984883
0.14353
0.355793
0.0958057
-0.00291149
-0.000600543
-0.0236168
0.0165186
0.0070982
-0.00531655
-0.00821679
-0.246677
0.0777596
-0.0180625
-0.548725
0.41217
0.0206743
0.0335743
0.0908309
-0.69701
1.68138
-1.14026
0.015973
-0.197015
0.181042
-0.141129
-0.534485
0.675614
0.072861
-0.712306
0.244383
0.42645
-0.0116233
-0.000448737
0.0120721
-0.242034
-0.6059
-0.165741
-0.136894
-0.678167
-0.235818
0.168642
-0.101764
-1.09862
-0.138291
0.297134
-0.158843
0.259955
0.111282
0.413734
0.371755
-0.785489
0.00709636
0.0625295
1.23779
-0.0148737
-1.22291
-0.219956
-0.256132
1.53766
-0.246474
0.183996
-0.917871
0.661739
-0.191351
0.182755
-0.00285929
0.00890222
-0.0336975
1.40004
-1.28331
0.735563
0.0887967
-1.23196
0.0999195
0.269207
0.670548
0.905667
0.0166271
-0.0170386
-1.28938
-0.653255
-0.712121
0.722899
-0.0825469
-0.879158
0.660657
0.603357
-0.929993
0.610727
-0.00495015
-0.790495
-0.314229
0.63722
-0.769502
0.132282
0.0788468
0.0521295
-0.266687
0.0872249
1.26702
-1.35425
-0.00426285
-0.00558533
-0.268719
0.218419
0.710081
0.218775
-0.2041
-0.177206
1.23036
-0.931755
-0.320148
-0.151765
0.319794
0.510725
-0.830519
-1.03268
1.25433
0.245519
0.0499879
0.0847291
0.543748
-0.456523
-0.00105456
0.219361
-0.0206556
0.0880177
0.034455
0.00924721
-0.0313411
0.0220939
-1.02605
-0.0356486
0.313842
-0.806859
-0.166253
0.652223
-0.485969
0.379578
0.649725
-0.0477791
0.0510279
-0.00324878
0.230106
1.00025
-0.717961
1.16508
0.763511
-0.929765
0.319446
-0.100085
-0.583892
-0.408478
-1.04112
1.36092
-0.0576797
-0.880883
-1.69958
-0.00522523
0.543748
0.0501812
-0.85704
0.831243
-0.646317
-0.184927
-0.981966
0.398073
0.00908437
0.110804
-0.000577191
-0.110226
-0.971426
0.562948
-0.211699
0.911479
-0.924659
0.1955
-0.21337
-0.0970587
0.247021
0.536971
0.578011
-0.0380097
-1.3394
0.60277
0.358945
-0.936617
-0.552632
-0.518474
1.07111
0.447368
0.0161272
-0.0111864
-0.736782
0.701133
1.00718
-0.77707
-1.62279
1.2582
0.364594
0.280453
0.37177
0.774877
-0.808662
-0.493798
-0.449395
-0.471866
-0.49956
0.803992
-0.803992
0.6866
-0.6866
-0.736782
-0.918297
0.918297
-1.2582
-1.55224
0.0818968
-0.030811
-1.36799
1.36799
1.00718
-0.77707
0.774877
0.765541
-0.765541
0.808662
0.758478
-0.758478
0.506202
0.528134
0.481526
-0.360809
-0.50044
-0.550605
1.07874
-0.752729
-1.91391
0.872781
0.292479
-0.0469599
0.233323
0.00314756
0.0126747
-0.885889
0.093127
0.792762
-0.0736976
0.067792
-0.994843
0.586979
0.915656
-0.591479
-0.123865
0.00320587
-0.00741133
-0.810083
-0.07842
-0.54522
-0.00712282
0.0306737
-0.558926
-0.0986912
0.0839269
0.184633
-0.00980006
-0.00609379
0.0158938
-0.812274
0.0675347
0.744739
0.206207
0.330764
-0.530879
0.417429
0.11345
0.917073
-0.743797
-0.173276
0.0866514
0.302162
-0.0141363
-0.0603438
-0.0617006
-0.0141935
0.676121
-2.05903
-0.849804
0.0966431
-0.742975
0.796116
-0.0531414
0.121202
-0.900084
0.778882
-0.803378
0.903641
-0.100263
-0.0321855
0.026869
0.0211224
-0.292874
0.240742
1.12018
-0.0937601
-0.792129
0.915788
-0.0905688
-0.82522
0.0904799
-0.0844479
0.498686
0.823313
-1.89043
0.479486
-0.386936
0.100997
-0.893126
1.53663
0.30774
-0.793051
0.00255582
1.01755
-0.89635
1.17814
-0.0708649
0.155197
-0.0843321
-0.880154
-0.114689
-0.417312
0.0372237
0.168937
0.287649
-0.784021
0.784021
-0.614653
-0.0848968
-0.864002
0.120205
-0.967911
0.861809
0.0739013
-0.206645
-0.0561545
0.0564
0.011392
0.187372
0.83018
0.818744
0.772921
0.137713
-0.910633
0.341996
-0.388956
-0.782428
-0.105137
0.887565
0.169721
-0.887682
-0.67663
0.886912
-0.785915
-0.105915
0.46108
-0.0184527
-0.442627
0.137831
1.3763
-1.51413
0.421217
-0.478062
0.0568446
-0.888343
-0.830231
0.0872562
0.52612
0.27281
-1.50657
1.53787
-0.579262
0.579262
-0.78785
-0.551552
-0.383281
1.12139
-0.633405
-0.125404
0.781775
-0.19997
1.26509
-0.074834
0.642807
-0.611341
-0.0314665
-0.110902
-1.7299
0.0104598
0.271131
-0.776686
0.539914
-0.0500339
0.313781
-0.227129
0.781036
-0.881299
-0.433246
0.0442904
-0.149468
0.736447
0.583005
-0.583005
-0.0416905
0.0276618
0.113374
-0.0797159
1.38831
-0.0120131
0.0468088
0.000910853
0.00639306
-0.00730392
-0.670439
0.69405
-0.023611
0.43281
-0.277613
0.107307
-0.893222
-1.01511
1.20643
-0.191317
0.125748
0.874902
-0.12612
0.558931
-0.755509
0.605266
-0.656569
-0.664513
0.155247
0.365194
0.0274827
0.196576
0.158446
0.206748
0.00374305
-0.0343441
0.0684141
0.727702
0.6924
-0.0871337
0.0748397
0.787155
-0.588925
-0.118596
0.70752
-0.326757
0.522263
0.520998
-0.942553
0.723604
0.218949
-0.685551
-0.12879
1.38103
-0.0380459
-0.39169
-0.0374691
0.485991
0.514009
-0.770754
-0.110544
-0.0997579
-1.05818
-0.628298
-1.02686
0.400653
0.599347
-0.0778112
0.0699694
-0.861323
-0.0647573
-0.591811
-0.152607
-0.244608
0.397215
-0.00293767
-0.00017872
0.115292
0.0740559
-0.128794
-0.117884
0.760212
-0.644859
0.719699
0.859383
-0.700937
-0.270458
0.839529
-0.569071
-0.745436
-0.190769
0.936205
-0.237834
0.226842
-0.0250369
-0.0151294
0.0222482
0.000590813
0.711963
-0.1327
0.118984
0.112135
-0.736207
0.0657678
1.15459
0.172404
-0.779671
0.199331
0.344707
-0.286257
1.02131
-0.00589614
0.151311
0.132075
-0.00284894
-0.0145587
-0.0510069
-0.241498
1.39609
-0.708384
-0.381425
1.08981
0.847469
-0.0310642
0.00204028
0.029024
0.131265
-0.00181596
0.000218173
0.213259
-0.104543
-0.642799
0.00939438
0.399558
-1.10794
0.00740191
0.280467
0.458104
-1.05531
1.22786
-0.172554
-0.77634
0.832071
-0.0557312
0.939472
-0.312937
0.121585
-0.0742102
1.14681
-0.45983
-0.0710486
0.275875
0.45036
0.18872
-0.63908
0.402391
0.037754
0.656296
-0.573526
0.566144
0.00738207
1.48612
-1.06722
-0.0151128
0.0175132
-0.00240037
0.698001
-0.00930011
-0.0831662
0.0189699
0.857965
0.394327
0.545145
0.0352583
-0.16482
0.0314875
-0.00357559
0.0694279
-0.0658523
0.0166314
-0.00738417
0.742671
-0.757545
0.0744981
0.217542
-0.0251487
-0.0870432
0.228673
0.096176
0.00405237
0.0598459
0.766415
-0.0226123
-0.337332
0.359944
-0.1551
-0.744671
0.89977
0.641302
0.121639
-0.0200685
0.0140822
0.00598624
-0.61525
0.425146
-1.03649
-0.00540345
0.752808
0.718478
0.202811
0.292661
-0.559348
0.811023
0.123653
0.0565804
-0.886858
0.10551
-0.272441
-0.48701
-0.169977
0.693617
0.0727976
0.013999
0.128866
-0.441802
-0.361486
0.164879
0.0217651
-0.111131
0.421599
-0.0583065
0.58196
-0.0685628
0.139706
0.481763
-0.636863
-0.150381
0.121155
-0.0413832
-0.109224
0.001424
0.00019542
-0.00161942
-1.54014
0.472927
-0.00850485
0.908711
-0.226513
-0.620736
0.645757
-0.0250213
0.168925
0.759385
0.0427685
-0.611839
0.0820903
-0.179149
0.634106
0.125279
1.1348
0.879252
-0.266569
0.746055
0.720466
0.675623
-0.596944
0.350574
0.24637
-1.06517
-0.0713449
0.0406317
0.0666919
-0.0489175
1.1617
0.734385
0.0766371
0.626139
0.217695
-0.873482
-0.0820164
-0.677156
0.679712
-0.0257246
-0.575537
0.42293
0.866668
0.67186
0.0619289
-0.0268172
-0.152435
-0.318243
0.962134
0.719245
0.345138
0.00627186
0.88763
-0.212007
1.05624
-0.204765
-0.0800667
0.275791
-0.735408
0.924963
-0.189555
-0.413011
-0.183933
-0.0172373
-0.171834
-0.106398
0.821578
0.0123264
-0.00212208
0.627594
-0.361277
0.560608
0.607103
-0.131694
0.23257
0.73761
0.270464
-1.00807
0.276805
-0.923122
0.277409
-1.41767
-0.174298
0.761927
-0.587629
-0.671189
-0.0505335
0.035404
-0.0559895
-1.75203
0.0162656
-0.0398824
0.044868
-0.116107
-0.103214
0.219321
-0.00623431
-0.573896
0.199721
-0.0484097
-1.62503
-0.013992
0.00419198
0.890283
-0.0547752
-0.595183
0.0216563
0.566444
0.300224
1.12755
0.8149
-0.240616
-0.385787
0.626403
0.681763
-0.619066
0.619066
-0.192839
-0.941011
1.13385
0.0311958
-0.154817
0.678847
-0.112403
-0.219606
-0.470649
0.0789598
-0.0435071
0.0571644
-0.0878479
0.180628
-0.104252
-1.13264
0.484182
0.0819628
0.0636844
0.0101425
-1.69217
-0.496472
0.0284616
0.69316
0.30684
-0.496472
0.69316
-1.00029
-0.343687
-1.00029
-0.696422
0.696422
0.303578
-0.0138578
0.158108
-0.0778325
0.249409
0.0529898
-0.487541
0.639514
-0.0324111
0.653628
-0.504548
-0.149079
-0.0534241
0.0514522
0.00197196
-0.01554
0.0164509
0.552951
0.0182014
-0.00821126
-0.435764
-0.359218
0.1317
0.042543
0.829268
-0.277435
-0.0368711
0.302393
-0.0147918
-0.0522276
-0.00743256
0.684961
0.0678466
0.422328
-0.0144173
0.000464317
-0.00803658
0.0843017
0.559439
-0.47765
-0.0817886
2.20714
0.55238
0.455484
0.905699
0.0117675
-0.0649058
0.109471
0.18811
0.0885733
1.1277
-0.390089
0.000101122
-0.0286424
0.679497
-0.0315265
0.0205576
-0.0205576
0.0218549
-0.0218549
-0.0040671
0.0040671
0.00291423
0.366618
0.460104
-0.0622257
-0.708949
0.477782
0.185077
0.028182
-0.0847225
-0.48401
0.680408
0.112301
-0.797852
-0.388783
0.316036
0.082339
0.0209691
-2.98133e-05
-0.00105764
0.00105764
0.128856
-0.000608898
0.000608898
0.70139
0.097462
-0.0114773
-0.00293994
0.00639254
-0.0658593
-0.0214254
0.0214254
-0.00529189
0.00529189
-0.0234252
0.0234252
-2.08709e-05
2.08708e-05
0.0810637
-0.297986
-0.0800392
0.219527
0.000289754
-0.000289754
-0.375505
0.507479
-0.131974
0.494029
-0.218148
-0.447192
0.410321
0.559763
-0.220199
0.0779511
0.567806
0.566343
0.000813428
-0.000813428
0.543914
0.0261468
-0.0261468
0.000538136
-0.000538136
0.762912
-0.480271
0.0381062
0.0974474
-0.288473
-0.000455062
0.000455062
0.00549549
-0.00549549
0.0191462
-0.0191462
0.0220804
-0.0220804
-0.0246153
0.0246153
0.0365271
-0.0365271
0.488714
-0.0331452
0.0331452
0.000236892
-0.000236892
0.0251722
-0.0251722
-0.00472471
0.00472471
-0.000716859
0.000716859
0.0188944
-0.0271506
0.0271506
0.0133416
0.0100192
-0.0410145
0.0410145
0.00393111
-0.00393111
0.00208921
-0.00208921
0.0348846
-0.0348846
0.024674
-0.024674
-0.000650478
0.000650478
-0.00396031
0.00396031
-0.423852
0.0732641
-0.00534596
0.00534596
-3.12246e-05
3.12246e-05
-0.0396378
0.0396378
-0.0269387
0.0269387
0.00299763
-0.00299763
-0.409723
0.678929
0.251647
-0.0333118
0.0333118
-0.00399222
-0.00495857
0.00495857
-0.00038815
0.00038815
0.0359718
-0.0359718
-0.177762
0.234343
0.00440266
-0.00440266
-0.0217353
0.0217353
-0.492193
0.0432559
0.178759
-0.0301638
0.0301638
-0.442019
0.0326661
0.0183617
0.175356
-1.40732
-0.0381602
0.0381602
-0.203925
0.145618
-0.0396326
-0.000796309
0.000796309
-0.00392453
0.0509959
0.263508
-0.322909
-0.275004
0.597912
0.189236
-0.00465299
0.00465299
-0.109398
0.362707
-0.253309
0.763581
-0.390686
-0.372895
-0.467267
-0.65877
0.387074
-0.0846809
0.159543
-0.4863
-0.57384
-0.0148215
0.19021
-1.11016
0.0171998
-0.0171998
-0.000961405
0.000961405
0.0320591
-0.0320591
0.0252803
-0.0252803
-0.00261022
0.00261022
-0.00110034
0.00110034
-0.20133
-0.0202364
0.170719
-0.294584
0.00275854
-0.00275854
-0.0434817
0.0434817
-0.0418812
0.0418812
0.167548
-0.128332
-0.0392165
0.00470379
0.310354
-0.536867
-0.00285789
0.00285789
0.00201309
-0.00201309
-0.0967074
0.0935101
0.293563
-0.0016625
0.0016625
0.0644581
0.0171603
0.961553
-0.486777
-0.0835145
0.570291
-0.626729
0.222701
-0.0537635
-0.0372896
0.0372896
-0.678855
0.273558
0.0515563
-0.0515563
-0.659188
0.383346
0.259951
0.120176
-0.00284824
0.00284824
-0.841912
-0.00231017
0.00231017
0.316435
0.409971
0.04029
-0.0557772
0.0557772
-0.00212533
0.00212533
-0.0439997
0.0439997
-0.0520651
0.0520651
-0.00279538
0.00279538
-0.0575746
0.0575746
-0.00315339
0.00315339
-0.0474435
0.0474435
-0.0113857
-0.0437168
0.0437168
0.00399508
-0.00399508
0.0500872
-0.0500872
-0.00355339
0.00355339
0.0459846
-0.0459846
0.102439
-0.00473408
0.00473408
-0.0057698
0.0057698
-0.0459762
0.0804992
-0.0117485
0.0117485
0.00483847
-0.00483847
-0.0619322
0.0619322
0.305491
-0.0192882
0.0192882
-0.0553505
0.0553505
-0.00721931
0.00721931
-0.0702452
0.0702452
-0.0129889
0.0129889
-0.0842378
0.0842378
-0.0226148
0.0226148
-0.0911868
0.0911868
-0.694557
0.260608
-0.533554
0.508533
-0.8491
-0.314746
-0.557163
0.387186
-0.0965846
-0.0858149
0.00361982
-0.00361982
0.0165219
-0.713595
0.045678
-0.0355356
-1.21466
1.64898
1.32217
0.24942
-0.0115222
0.0290746
-0.389178
-0.583484
0.00217971
0.390478
-1.14265
-0.0225585
0.0225585
-0.749916
0.0184905
-0.0184905
-0.00355934
0.00355934
0.336332
-0.383545
-0.00253692
0.00253692
0.0182815
0.0139933
0.597678
0.261715
-0.0134997
-0.0136464
-0.00339219
-0.0993623
0.498802
-0.39944
0.109507
-0.0990469
0.00852265
1.03654
0.00867429
0.049715
-0.408821
0.446045
-0.492336
-0.994272
-0.215534
-0.0737832
0.0185276
-0.145756
-0.332306
0.018517
-0.00535873
0.00178654
0.786324
-0.547445
-0.0403528
0.0621179
-0.0371585
0.0734109
0.0846974
0.421788
0.239908
-0.163367
0.207314
0.034053
-0.0115544
-1.42222
0.00603582
0.181718
-0.284933
-0.0181766
-1.43529
-0.0720391
0.266469
-0.352317
0.397348
0.106106
-0.945684
0.0459906
-0.0669778
-0.01747
-0.349451
0.462902
-0.0151006
-0.0515803
0.0666809
-0.0284467
0.0284467
0.162983
-0.446976
0.0347974
0.0534856
-0.0822948
0.0565702
-0.0627721
-0.00565649
0.0684286
-0.0383445
-0.157249
0.00272799
-0.107993
-0.286725
-0.352656
0.639381
0.0155689
0.0613291
0.150934
-0.0319497
-0.0229535
0.0683554
-0.159213
0.31495
0.000238285
0.0287857
-0.0238214
0.174755
0.00416004
0.263917
0.00331921
-0.00331921
0.132389
0.92385
0.0918632
-0.17388
-0.00589103
-0.0343021
-0.252487
0.811417
-0.0170167
0.000613627
-0.53413
0.000575809
0.00486914
0.0937282
-0.688837
0.301764
-0.0554099
0.376925
-0.663651
0.216721
0.506883
-0.0946368
0.0946368
-0.00057719
-0.0186444
0.307318
-0.288673
-0.215568
0.159579
0.363047
-0.216952
-0.41768
-0.0907581
-0.0135083
0.0146942
0.929566
0.171791
-0.109863
-0.0699503
-0.0753133
-0.854451
-0.0444293
-0.2621
0.791991
0.572262
-0.261907
-0.269207
0.549674
-0.0805842
0.288824
-0.266791
0.051933
-0.463026
0.331052
0.119369
-0.119369
0.0820785
-0.029214
-0.0528644
0.00185659
0.00398232
0.0165186
-0.594262
-0.0209882
0.224509
-0.186172
-0.038337
0.53981
-1.0708
0.0593709
-0.717676
0.690702
-0.116973
-0.177611
-0.0357496
-0.0794552
-0.488885
0.053121
-0.291513
0.00058803
-0.0181766
0.387682
-0.00529571
-0.00197789
0.000310622
0.0184548
-0.00839803
-0.0100568
-0.103073
-0.0198916
-0.172082
0.191973
-0.123026
-0.34
0.0182815
0.347929
-0.000891477
-0.378681
0.0862751
0.00272153
0.0167454
-0.0789712
-0.012416
0.012416
-0.00117772
0.000203598
-0.00903304
0.000248386
-0.0574713
0.000655015
-0.00119008
0.188711
-0.159024
-0.00201116
0.00201116
0.0438965
0.509878
-5.40724e-05
-0.286019
0.58245
1.16292
-0.472478
0.331122
-0.439214
-0.0909893
0.125787
0.225582
-0.226196
-0.0150036
0.000374037
0.000216776
0.00239441
-0.178334
-0.374228
0.852011
0.296659
-0.497989
0.19824
-0.00164245
0.0897552
0.035993
-0.00053692
-5.38214e-05
0.000427859
-0.866245
0.00137668
-0.000345095
0.721979
-0.653624
-0.246981
0.121847
0.992475
-0.000356929
0.000442364
-0.0396326
-0.00548975
0.817588
-0.432203
0.514166
-1.02972
0.906187
-1.37055
0.571787
-0.184601
0.705073
7.17255e-05
0.00332653
0.0176426
-0.110644
0.138424
-0.189982
0.0091424
0.000355523
0.066726
-0.0524984
-0.0142276
0.000250321
0.0336885
-0.0225204
-0.0111681
-0.0998591
0.00650724
-0.000114171
0.00198392
0.486795
-0.431627
-0.00410229
0.000139732
0.0595193
0.247798
0.382254
-0.00610107
-0.000165098
0.0945793
-0.0200813
-0.043807
-0.110966
-0.0154603
-0.00372103
0.124422
0.0122469
-0.00206702
0.40842
0.000400962
0.000596656
-0.000596656
-0.00749581
-0.00615063
0.000148328
-0.321863
-0.00383135
0.0744442
-0.10757
0.367698
0.421825
-0.0653178
9.93449e-05
0.00103572
0.461047
-0.000238025
0.000246321
-0.0174836
-0.00211847
0.000321584
0.0167277
0.0300811
-0.710017
0.474004
-0.848233
-0.238796
-0.000462826
0.0335251
-0.0401893
-0.00984467
0.58991
-0.0147756
0.0965727
-0.00422088
-0.00146913
-0.553576
-0.00344386
-0.000358009
-0.00966564
0.922996
-0.520605
-0.00264364
-0.000399995
-0.00615508
-0.00118069
0.0775445
-0.0214744
0.0214744
-0.0103379
0.0105415
-0.00238084
-0.00831291
0.00372374
-0.00570163
-0.167465
0.09612
-0.0057696
-0.0139927
0.0401973
-0.017213
0.0641752
-0.0456475