/*--------------------------------*- C++ -*----------------------------------*\
| =========                 |                                                 |
| \\      /  F ield         | OpenFOAM: The Open Source CFD Toolbox           |
|  \\    /   O peration     | Version:  2306                                  |
|   \\  /    A nd           | Website:  www.openfoam.com                      |
|    \\/     M anipulation  |                                                 |
\*---------------------------------------------------------------------------*/
FoamFile
{
    version     2.0;
    format      ascii;
    arch        "LSB;label=32;scalar=64";
    class       volScalarField;
    location    "47.4";
    object      p;
}
// * * * * * * * * * * * * * * * * * * * * * * * * * * * * * * * * * * * * * //

dimensions      [0 2 -2 0 0 0 0];

internalField   nonuniform List<scalar> 
2186
(
1.22375
0.0962016
0.413085
1.47748
-0.710595
0.238059
1.117
-1.05078
-0.223389
1.6856
1.30998
-0.55315
-1.07108
1.37812
-0.11972
1.35973
1.39745
-0.8919
-0.003746
-1.01967
1.75754
-0.930166
1.38351
-0.643825
1.37502
1.45667
1.58825
1.32403
0.773444
1.3767
-0.967022
1.37498
-1.12556
0.1298
-0.550395
0.224906
0.289359
1.74358
-0.405164
0.172511
-1.09043
-0.913323
-0.25324
-1.07173
1.14742
1.67206
0.79557
0.973761
1.04281
-0.91567
-0.984812
1.12793
-0.230588
1.66268
-1.16386
1.36963
-0.31407
1.3937
-0.318631
1.25306
0.825773
0.834751
0.735875
0.106299
0.76304
0.918967
0.859821
1.6453
1.53775
-0.341487
-1.06728
0.822682
1.62565
1.41982
1.50305
1.54955
0.849699
1.3906
-0.570604
-0.70861
-0.345495
0.0762027
1.37184
0.815474
1.37033
1.3733
1.63753
0.124904
0.626352
-0.558123
1.37448
-1.01805
1.33341
1.55332
1.38261
0.575877
0.287211
0.779327
-0.791368
1.40681
0.114953
-0.0850233
0.845616
1.36578
1.40011
-1.13007
1.5251
-0.0483096
1.36358
-1.26439
-0.694345
-0.908307
0.989873
1.65681
-0.259176
-1.00593
0.432977
1.02191
-0.562055
1.63311
0.0651971
-1.07738
1.08108
-0.982647
1.36557
0.369879
-0.790961
1.544
-0.936288
1.09916
1.74573
1.61999
0.690931
1.09198
0.00378617
-1.03594
1.34453
-0.312004
0.0164364
-0.746216
1.01503
0.266632
-1.01225
1.14216
1.3348
1.37635
-0.0308124
-0.720348
1.06966
-1.06831
-0.89137
1.03188
1.39374
1.57652
1.45866
0.982494
1.62921
0.642255
0.553546
0.878848
-0.707106
-0.919032
1.31027
1.41049
0.215768
0.183828
-0.481184
-0.528023
0.215695
0.349871
0.51398
1.41333
1.3978
1.51411
0.581769
0.0770464
-0.711957
1.30734
-1.49934
1.08984
-0.510251
1.38716
-1.0198
0.722687
0.699307
-0.714484
-1.21971
1.42598
-0.0390102
-1.02521
-0.893061
1.61016
0.48468
1.40374
-0.664463
-0.986945
0.179336
1.52068
1.34562
-0.963146
-0.875858
-0.497147
0.531392
1.41066
-0.556975
-0.791302
-0.572072
0.928031
1.26413
0.550399
0.985658
0.511802
1.64168
1.04785
1.1625
1.37716
1.48995
1.37666
1.32725
1.39002
0.8923
-1.08964
-1.11463
0.213853
0.641294
-0.904329
-0.764075
1.30773
1.53108
-0.601076
-0.48661
-0.624152
0.824279
1.10854
1.23744
1.32779
1.52292
-1.22611
1.32365
-0.880394
-0.86422
-1.0283
1.26049
0.93205
1.44947
1.55017
1.39971
1.37321
-1.01966
1.25922
1.43259
-1.11759
1.24424
0.987621
-0.697775
-0.603456
-0.465633
1.45174
1.38722
-1.07186
-0.227675
0.0935176
1.37693
-0.840013
0.961043
1.3532
1.29752
-0.52458
-1.00082
1.36735
0.84343
0.136808
0.0428697
1.69192
-0.803851
-1.02835
1.28108
1.57976
1.37424
-0.749962
0.455835
-0.227546
1.1763
-1.13437
0.996122
1.36081
1.44314
0.284774
0.221907
1.28277
-0.480829
1.36539
1.58873
1.38438
1.38189
0.0108111
-1.09245
-0.624304
0.779436
0.880958
0.706594
0.826774
-0.097313
0.791196
1.56589
1.52127
1.17488
-0.107597
1.47222
-0.577722
0.0700905
-0.938474
-0.676622
-1.02626
0.815845
-0.917444
-0.935118
0.276698
1.20284
0.207279
0.529765
-0.973925
0.833439
-1.03943
-0.86096
1.57831
0.0700066
0.255009
-1.03943
1.22694
0.770009
0.0436078
1.02738
-0.411624
-1.05883
0.852972
1.40126
1.35488
-0.677635
1.51242
1.31824
0.525454
1.62929
1.35183
1.34411
0.886395
0.649397
-0.76132
1.10757
-1.06753
-0.571912
-0.723663
-1.1171
-0.566842
1.72065
-0.079692
-0.9832
-1.13383
1.35188
-0.70322
0.812207
-1.17273
1.20096
0.651668
-1.2358
1.59696
1.66861
1.52977
-1.02365
0.193793
1.73971
1.36022
-0.897134
0.619881
-0.914389
0.625293
1.50691
1.24953
1.30989
1.68174
0.0287239
0.699683
0.300999
0.29237
-0.72596
-0.899086
-0.00517082
1.65341
-0.982074
-0.449335
1.33889
1.0331
-0.659694
-1.10008
-0.793286
-0.895761
-0.99096
-0.641523
-1.17473
-0.772917
1.57605
-0.115655
-1.08944
1.3878
-0.764613
1.64382
-1.41891
-1.68412
-1.18006
1.37366
-0.511495
1.38609
1.28324
0.197826
1.46031
-1.16166
-0.587923
-0.943518
1.43069
1.34882
-0.65531
-0.945972
-0.961936
1.24692
-1.04242
-0.797059
0.679475
1.23335
1.30322
1.18018
-0.769126
0.34968
1.09062
0.0779811
1.25488
-1.19952
1.39328
0.060295
1.53766
-0.560988
1.28677
0.922716
1.39263
-0.619203
1.33983
0.340169
-0.576679
1.37661
-0.857603
0.329478
-1.078
0.148323
1.36338
0.658384
0.768367
1.34682
0.371011
0.455718
0.557288
-0.982787
0.780071
-1.08694
0.918746
-0.559757
1.35299
1.53725
-1.0572
-0.64574
0.478533
-0.936784
0.612161
-1.04232
1.0652
0.54028
-1.04495
1.41104
0.266601
0.518884
0.748082
0.613539
1.02034
0.488077
0.78761
-0.544987
-0.203633
-1.01528
1.38148
-0.849744
1.51079
1.61884
1.60849
0.84836
1.4742
-0.758722
-1.12853
1.31735
0.67705
1.34001
-0.836418
-1.02581
-1.67451
1.25195
-0.598943
-1.75653
-1.01025
-1.0564
0.295631
-0.152414
0.948573
0.943451
0.106594
0.0927871
1.19299
0.524489
1.43429
-0.760471
-0.0958048
-0.605912
0.97558
0.391719
1.57035
1.75973
-1.76566
-0.772393
-0.436638
0.517144
-0.972128
1.45264
0.136217
1.41469
1.00831
-0.614495
1.13567
1.0975
-1.63426
1.3071
0.668304
-0.977485
0.690679
-0.517284
0.595982
-1.05706
0.170281
1.37822
0.349485
-0.836591
1.04078
1.51752
1.60709
0.133628
1.21757
-0.43236
1.21776
0.405763
0.744474
-0.951817
0.669122
1.0443
1.34972
-0.589627
-0.851182
-0.728329
-0.565593
0.329739
1.17919
-1.12524
0.120455
-1.08986
1.19884
-0.415483
1.27928
0.80672
0.358037
1.34964
1.13731
-1.43684
-0.0790259
1.29847
1.67306
1.39447
-0.2112
-0.955303
1.25332
0.795931
1.2399
-0.31305
0.608347
1.29455
-1.01626
-0.981002
1.29967
-0.473548
1.56716
0.659966
1.30996
-0.315236
1.08894
-0.41729
1.61663
-0.990295
0.382383
1.22103
0.698653
0.685801
-1.02572
-0.999206
0.117298
1.03018
0.429197
0.261781
-0.171934
1.38299
0.562489
-0.968814
0.973644
1.14045
1.32161
-0.829268
-0.829335
-1.0125
1.38624
1.48582
0.943557
1.38361
-0.899065
1.47525
-0.565952
-0.131862
0.239629
1.34105
1.36599
-1.34533
1.08889
-0.984359
1.04838
-0.736958
1.26944
1.38332
1.38206
-1.20077
1.18106
0.0938877
0.0239933
1.55127
-1.93863
-0.499367
1.42908
-0.467664
1.39923
-1.72398
-0.964609
1.32257
1.2272
1.73025
1.37348
-0.87858
1.49442
1.38606
0.366266
0.833169
-0.810254
-0.31596
1.85317
-0.789624
1.43952
-0.871249
0.781994
1.37418
-1.08531
1.32875
-0.211173
1.17674
1.36483
1.39179
0.0675809
-1.01914
-0.179002
1.07244
1.15009
1.48412
0.363557
1.06207
-1.43988
-0.00546077
-1.48404
1.28243
1.54981
-0.647291
-0.38348
-0.184731
1.58488
-0.28832
0.950187
-0.617304
-0.0524109
-0.986257
-0.939729
-0.0163682
1.05771
-1.40435
0.288601
-0.222707
0.0225711
-1.03175
-0.841841
0.293808
1.30758
1.38812
-1.04645
0.258873
1.32948
1.35008
1.39114
0.38081
1.32337
1.46883
1.38366
1.47408
-0.604185
0.518291
-0.981788
0.814068
1.38823
1.15804
0.607754
0.661301
-1.61706
-0.138211
1.64552
0.4696
-0.226495
-0.0964493
0.51889
-1.05496
1.01529
-0.583752
-0.692814
-0.591147
1.35535
1.3776
1.36751
0.132661
0.528202
1.62588
0.770926
1.37974
0.503218
0.351708
0.984137
1.38425
1.38349
0.0600703
1.30881
1.3153
0.448031
0.600023
1.36896
1.38447
1.38518
-0.626892
-0.601108
1.38692
1.06836
1.37597
0.337382
-0.0522223
-0.157896
-0.572112
0.290053
-1.10071
-0.526787
-0.617058
1.38988
1.39407
0.9998
-0.564312
1.35484
0.891763
-0.00377843
-0.0141249
1.37809
1.3944
1.38771
1.39525
1.3699
1.36048
1.34726
0.785043
0.301211
0.13062
0.0856955
-0.0466692
-0.00499193
-0.00221575
0.916796
1.04702
0.800657
0.481027
1.37501
1.38881
1.38441
1.40342
1.39972
1.38852
1.38869
1.38111
1.36625
1.00906
0.0728922
1.38669
1.38884
0.0315021
1.39176
1.38734
0.117112
-0.0487407
0.591515
-0.696292
-0.75974
1.36743
-1.14836
1.37352
1.12368
1.4939
-0.738684
1.37507
1.26845
1.34629
-0.987835
-0.731019
-1.07216
0.673396
0.0590242
-0.973567
1.37678
-0.00401744
1.45664
1.36883
-0.101155
1.49513
1.67942
0.0893901
1.15534
1.12082
1.36041
1.38012
1.3818
-0.809793
0.660815
0.229215
1.36933
1.3865
-1.04332
0.0508644
1.36907
0.244817
-0.272036
1.37201
0.232119
1.33405
1.38168
-0.203469
1.38446
-0.0956734
1.37439
1.40556
-1.95639
1.3924
1.39875
0.23504
0.91532
1.37904
1.37283
0.334713
-0.816223
1.16472
1.72227
1.37786
1.37934
1.37685
0.0112462
1.37688
1.37728
1.37579
1.37427
1.3736
1.37811
1.45222
0.304027
-1.5606
1.37875
1.36457
0.466855
0.222744
0.544526
0.113733
1.17327
-0.599296
-0.0302624
0.0756249
1.37232
1.18772
0.134731
-0.105827
0.0505104
0.182685
-1.28131
0.0455145
-0.336034
-1.12762
-0.299621
1.38149
0.0348514
1.36885
1.23718
-0.697936
1.58238
0.217002
-1.28325
1.21865
1.4454
0.63032
-0.565964
1.35582
-0.0537263
1.37788
0.182623
1.37942
-0.560137
1.36828
0.153014
0.725074
1.3794
1.39806
1.24785
-0.261469
-0.558059
-0.586821
-0.506131
1.39725
1.21579
-0.304228
1.36291
1.41108
1.34745
-0.799068
-1.94966
-0.203382
-1.07706
0.843873
1.36876
0.435453
1.37747
-1.15402
1.36524
1.40428
1.38275
-0.0397459
0.154814
1.41024
-1.11499
1.38511
1.38692
0.496243
-1.02218
1.2153
1.45759
1.36644
1.34986
-0.594451
-0.770925
1.36383
0.87216
1.38204
1.28809
-0.746404
-0.98916
1.14434
1.63425
1.36125
0.812366
0.0504091
-0.564749
-0.0459206
-0.17743
1.37401
0.74221
1.3378
-1.11374
-0.678935
-0.76021
0.66281
-0.549364
0.0772921
-0.717136
1.36538
-0.567758
1.1802
-0.821837
0.276409
-0.727751
0.142389
-0.483606
1.31905
-0.723373
-0.415845
-0.773768
-0.160172
1.37602
-0.38549
0.166657
0.0761029
1.39444
0.185363
-0.829708
1.43394
1.37272
1.36927
0.97739
-0.496094
1.36229
1.38102
-0.121275
-0.878687
1.36544
1.24132
1.59377
1.38118
0.805025
-0.418801
-0.945991
-1.12211
-0.793627
-0.589228
-0.440459
-0.365003
1.24683
0.431154
1.38547
1.55413
1.3555
-0.561945
-0.751672
1.36556
-0.20608
-0.768834
1.36957
0.36694
-0.726134
-1.52785
-0.267919
1.27107
1.23717
0.0632593
1.28263
0.90731
-0.244357
1.37613
-1.01566
1.09254
-1.15097
1.41374
-0.0802673
0.904372
1.36778
1.4023
0.433173
-1.68524
1.12249
1.74005
1.38722
1.31243
-0.355845
1.6338
-0.37063
-0.914681
-0.405959
0.93012
0.53329
1.47421
1.56639
-0.884607
-0.0212974
1.35702
0.0925269
1.30418
1.39555
1.2898
0.65524
1.36605
0.141157
1.40159
0.162777
-0.449842
-0.0491058
1.37067
0.0524068
-0.419356
-0.0801449
1.41377
-0.440888
1.5207
0.724216
1.68316
1.27577
-0.0849078
1.37812
-0.974708
1.30842
1.3218
-0.744626
-0.179802
1.44212
1.34067
1.56295
1.29212
0.573863
1.286
1.38499
1.15215
1.37078
-0.326997
-0.755463
-0.36443
1.50035
-0.0385674
-0.581223
-0.997073
-0.189916
-0.124643
0.538668
1.13736
-0.448788
1.3596
1.416
-0.868582
-0.444776
0.0653089
-0.469928
-0.543693
-0.940428
1.35757
0.241404
1.38191
1.62998
1.42934
-0.00749514
1.38861
1.26304
-0.156222
1.37019
1.32921
-0.770114
1.33411
1.22495
0.0566088
0.332888
1.8225
0.589466
-1.09662
-1.13062
0.696843
1.36681
-1.04234
0.361622
-0.972018
1.48311
-0.421848
1.1227
1.36511
1.38661
-0.149504
1.3903
0.200483
1.37657
1.39249
-0.274299
1.38426
0.715061
1.38998
1.17611
-0.803976
-0.0508313
0.0285927
-0.344022
1.58562
0.89002
1.3746
1.76247
0.215689
-0.0181417
1.44144
0.0618205
1.43808
0.233408
0.587052
1.42845
1.43308
0.883206
-0.80829
1.01776
-1.06487
-1.00375
-0.695838
1.38415
1.4018
1.78216
-0.565955
-0.390868
1.19122
-1.04494
1.41552
1.28993
1.40089
1.34773
1.36025
-2.04292
-0.609319
-1.10329
1.08666
1.23974
-0.185672
-0.92172
-0.895623
1.38975
1.43025
0.138788
-1.59628
1.39957
0.0140748
0.441471
1.03431
1.20753
0.380109
-1.08303
0.0200742
-1.01708
-0.847783
-1.37394
0.230391
1.73753
1.74014
-0.699021
-1.05163
1.38744
1.36667
-0.772548
0.446627
0.0817749
0.893047
1.45178
-0.676125
1.37202
0.549489
-1.12018
-0.120147
-1.00968
-1.10105
1.38975
-1.03803
-0.76862
1.72846
-1.03408
1.37329
1.57068
-0.902496
1.46544
1.64002
-0.725749
1.59451
-1.0374
-1.09191
1.3293
-0.429428
1.44118
1.37838
-1.0362
1.45888
0.632519
-2.14528
1.40089
1.4555
-0.491667
-1.19655
1.26688
1.36477
-0.982904
-0.260461
1.64275
-1.0287
1.22593
0.198879
1.35997
-0.556025
-1.96031
-0.831488
-0.705824
1.4126
1.43427
1.6702
1.54966
1.27516
1.4213
1.37566
-0.775996
1.46117
1.55256
-0.808506
-1.01404
-0.797109
1.69164
0.512196
-1.07647
-0.65507
1.22738
-0.776992
-0.734385
1.32542
1.44601
-0.887754
-0.887768
-1.13652
0.133095
-0.771385
-0.752802
-0.723527
1.17351
1.33356
-0.944604
-0.358511
-0.454322
1.11714
-1.03193
-0.694564
-0.678479
1.38197
-1.1745
-0.863207
1.7028
1.32201
0.913031
1.59741
-0.931821
1.4114
1.36987
1.51628
1.60865
0.2731
0.933697
1.31149
0.729323
-0.639551
1.79795
1.39297
1.35213
1.46874
-0.840476
-1.25765
1.3066
1.07484
1.36436
-1.87446
-2.0124
1.37329
-0.754853
1.28752
-0.0541158
1.79866
-0.61168
0.996773
1.19043
-0.975892
-0.588408
-0.719309
1.48455
-0.96854
-0.579666
1.15886
0.861784
-1.12517
1.42307
1.29366
-0.958139
-0.843164
1.27318
-1.83144
-0.575271
-1.03977
-0.970642
-0.0969339
1.30207
1.40913
-1.97254
1.07865
1.38171
1.70834
0.762099
0.488731
0.199865
1.33236
-0.00126751
-0.98002
0.716558
-0.440978
-0.981787
1.33995
-1.02645
0.362321
-0.565946
0.783968
1.03421
-0.981549
1.10417
-1.23121
0.963446
-0.981223
0.698526
-0.986523
0.855563
-0.559711
0.602567
-0.982434
1.27194
-1.36122
-0.988576
-1.00337
-0.612786
1.38579
0.555017
-1.03848
-0.564975
0.207756
0.361207
-1.04601
-0.647849
-1.08586
0.335974
-0.577792
0.0170612
-0.610717
-0.229654
-1.17341
0.16221
1.19178
-0.0423676
-1.73824
1.31386
0.233376
0.122162
0.937455
1.36868
-0.6524
-2.09963
-0.561284
-1.38457
1.3394
1.79454
0.275505
0.0997708
0.508716
-1.01889
-0.0632372
0.111042
1.29601
-0.744733
1.36511
0.457389
1.86986
0.972797
1.77833
-0.909473
1.59318
-0.462561
1.44445
-0.138
-0.558837
1.49306
1.39135
-0.498099
-0.569948
-0.987219
1.27726
-1.24621
1.33938
0.0715905
-0.988015
-0.864328
1.67324
1.36769
1.52808
1.34704
1.39293
-0.0657969
0.0934909
1.54815
-1.5344
-1.04874
1.79697
-0.973691
1.22775
1.38741
1.74441
1.79347
-1.03766
-0.80096
1.42483
0.721079
-0.0187678
-0.943886
0.234456
-1.88485
-0.901365
1.06268
-1.20583
1.60349
0.0116356
1.35381
1.46864
1.35747
0.077178
-0.575749
-1.02824
1.46672
-1.00384
1.50898
-0.657453
-0.945909
1.58642
1.6869
-0.571801
0.259456
1.35496
-1.10438
-0.840008
1.14522
1.62945
1.62039
-0.853161
1.18805
1.12024
-0.565046
1.63128
0.484921
-0.92851
0.529406
0.631632
0.104647
1.43771
-1.01143
0.454849
0.22055
-0.68959
-1.08335
-0.559092
1.32981
-0.606001
1.34385
0.072533
0.557421
1.17804
0.782074
-0.556429
-0.613691
-0.776996
0.411664
0.170969
0.160719
1.22331
-1.54697
-1.16246
1.32247
-1.05693
-0.806308
1.38654
-0.295553
1.26625
0.423157
-0.760749
0.177665
1.25431
-0.293345
-0.949462
1.33549
-1.00417
1.46817
-0.14563
-0.996544
-1.04442
-0.562344
1.83857
-1.5205
1.53803
0.164781
1.36155
1.54023
1.19298
1.43943
1.49171
0.149825
0.933912
1.38005
1.51268
1.73557
-1.0377
1.39062
0.919375
-1.0368
1.24611
1.60548
-0.554215
1.71545
0.331094
-0.70805
1.28395
-1.03968
-0.989682
1.36729
-0.421161
1.44893
1.47445
1.27514
-0.69136
1.19402
1.61844
-0.820674
-0.156842
-1.07932
-1.37658
-1.00756
-0.578165
1.72163
1.20522
-0.71358
1.34753
-1.03605
-0.985587
1.65599
1.57293
-0.504031
-1.2775
-0.560502
-0.912563
1.39896
-0.737872
0.583487
-0.967954
-0.242561
1.44936
-1.00122
1.76984
1.39566
1.32708
1.36126
1.66721
-1.02596
-1.02268
1.43539
1.55592
-0.989929
1.40168
-1.80668
-0.807155
-0.960816
1.39849
1.43685
-0.864581
-0.74422
1.03018
0.447528
-0.644783
1.32464
1.25367
-1.31139
1.30125
1.35143
-0.523349
-0.792268
-0.696824
-0.749265
-0.932622
1.69305
-0.590407
1.19971
-0.762968
1.68653
1.17954
1.14334
1.24148
-1.98298
0.226961
-0.698638
0.751135
-0.875165
1.35566
0.753811
-0.391944
1.14635
1.43098
1.40774
1.35069
0.0693202
1.41692
0.298081
0.906253
1.08003
-0.477268
-0.821951
-1.09424
-0.674143
1.38499
1.39978
1.3859
-1.03417
-0.386571
-0.655536
-0.911221
1.37419
1.64153
1.3891
-0.848728
-0.913286
-1.06987
-0.512733
-0.563008
-0.562514
-0.100606
1.33782
-0.768809
-0.951752
0.24325
0.372141
0.970158
-1.6682
-0.623201
-0.307583
1.2352
1.79914
0.0255053
1.49192
1.85901
0.899491
1.55019
-0.802569
0.0911675
1.75828
-0.598574
0.804861
-0.898583
-0.944845
-0.983641
-0.972899
1.40541
1.18416
1.52928
1.48361
0.018695
1.22728
0.215242
0.149388
-0.578579
1.49215
0.972524
1.38556
1.40157
0.759947
0.0983841
1.40884
0.0976791
-0.567172
-0.963643
-1.00061
1.07696
-0.978694
1.35943
1.12377
-0.608298
1.623
-0.847081
-0.264124
1.37113
-0.999112
-1.0301
-1.34473
0.825259
-0.93669
-1.17866
1.19552
1.39362
-0.0576061
0.565896
-1.68688
-0.567367
-0.71786
-0.988411
0.325968
1.05923
-1.03074
-0.981522
1.61485
0.431597
0.549318
-0.981848
-0.961043
1.3752
1.46561
0.74345
0.997191
-0.981031
-1.01956
-0.278858
0.654362
0.905402
-0.981452
1.13173
0.294456
-0.98331
1.82717
-0.992629
-1.02088
-0.921564
-0.913449
1.28395
-1.01604
-0.721248
-0.568772
0.463276
-1.05962
0.123995
-0.71564
0.752025
1.50863
-1.12234
0.272205
-0.593646
-0.089134
1.7085
1.76075
1.57441
1.37849
1.54608
-0.817233
1.35723
-0.828953
1.4649
-0.562375
-0.365592
1.64944
-0.297165
0.984442
-0.709052
1.76938
0.142324
1.71439
0.823538
1.03925
-0.919173
-0.88219
-0.559648
-1.11848
1.68181
1.53004
1.34832
1.11772
1.37208
1.30674
1.07525
-0.959102
-0.848324
0.466246
0.100956
1.04566
1.37715
0.426771
-0.94544
-0.973927
-0.679209
-0.559543
0.913078
1.71454
1.39673
1.37138
0.680322
0.147588
1.40504
0.22986
-0.573077
-1.77246
-1.02605
1.02995
-0.954987
-0.981435
0.146175
1.34009
-1.16596
-0.920669
1.36953
1.06716
1.19689
1.35828
-0.561875
1.13222
1.5871
1.28364
-0.557973
1.37706
0.815897
0.654005
-0.945947
-0.974334
1.8195
0.775871
-0.347021
0.555125
1.17706
1.2716
-1.0243
-1.20463
0.582245
-1.1268
-0.493429
-0.712838
0.382857
1.35026
-0.802686
1.31687
1.66369
1.50573
1.30037
1.39307
1.46693
1.36477
-1.23172
-0.241525
-0.386617
-0.634821
-0.276793
-0.979959
1.47707
1.35019
-1.03289
1.39076
-0.861022
-0.915866
-0.985032
0.272534
1.03432
-0.48464
1.34373
1.17462
-1.15209
0.0357785
1.70405
-0.967503
-0.427439
-0.339983
-0.70758
-0.963073
1.43485
1.01605
1.51132
-1.07744
0.244272
-0.527654
-0.292947
-1.03628
-0.231263
-0.958001
-1.52289
1.18011
-0.220766
1.80719
-1.27655
-0.0912787
-0.58957
-0.9773
1.36642
-0.62286
-1.05478
-0.285975
0.239242
1.52461
1.61747
-1.86405
0.0976006
1.07512
-0.577453
-0.30684
1.51679
-0.215087
0.741723
-0.905792
0.988815
0.0712905
-1.03319
1.35064
0.274599
-0.825414
1.35013
-0.862125
-1.19931
-0.833836
-1.08142
0.442942
-1.02818
1.67189
-0.624329
0.676878
-0.562727
1.03698
-0.974066
-0.940437
0.870765
1.23397
1.43661
1.37226
1.5107
-1.01238
1.29293
1.04075
-0.86859
1.22859
-0.334978
-1.17468
-1.31714
1.58294
1.57008
-0.824623
-0.897391
-1.06417
1.30239
-0.787875
0.350131
-0.535822
-0.987406
1.62796
1.30336
-0.902888
-0.694923
-0.922634
-0.939972
1.20455
-0.822802
1.26247
0.391263
0.939688
1.08803
-0.948145
-0.853315
1.21573
-0.981751
0.32278
1.64901
-0.705792
-0.955694
1.07103
-0.860573
-0.70368
0.337139
-1.0251
1.72572
-0.139111
0.676435
-0.893896
1.68099
-0.85702
-0.704214
0.864968
-0.48126
-0.562126
1.71243
0.899704
1.43119
-0.712043
1.56998
0.353494
-0.232631
-0.735016
-0.730263
-0.841774
1.60951
0.786818
-0.951869
-0.870313
-1.02917
1.4448
-0.765438
1.66273
-0.562491
0.964319
-0.96589
0.551392
0.744103
0.704388
0.611065
0.657671
-0.734585
1.29919
-0.743478
-0.719603
-0.409157
0.776192
1.69634
0.237449
-0.707484
-0.841795
-0.961421
0.428531
-1.2402
-0.971423
1.28714
0.694291
-0.923744
1.74985
-1.03116
-1.33548
1.7319
-0.949165
0.296678
-0.799027
-0.981474
-0.978532
1.72994
-0.987734
1.66089
-0.979855
-0.792692
1.50114
0.321934
-0.722487
0.775213
-1.01537
0.138835
0.111972
-0.976862
1.27008
-0.753353
-0.965708
-0.980627
-0.982855
-0.566989
1.29884
-0.0644161
0.129538
-0.915129
1.68346
-0.463252
-0.699194
-0.908201
0.293234
-1.13503
-0.956708
-0.932855
0.428686
1.58765
-0.831453
-0.55722
-0.883643
-0.17499
-0.156978
-0.572047
1.76091
1.69623
0.601252
-0.865294
-0.565531
0.503205
-0.563287
1.77161
0.36405
1.48865
0.929559
1.66828
0.228166
-1.14741
-0.915218
0.0462159
-0.73864
0.0492259
0.359561
-0.98179
1.67634
0.294053
0.377551
0.207077
-0.558796
-0.854246
)
;

boundaryField
{
    frontback
    {
        type            empty;
    }
    Top
    {
        type            zeroGradient;
    }
    outlet
    {
        type            fixedValue;
        value           uniform 0;
    }
    bottom
    {
        type            zeroGradient;
    }
    Inlet
    {
        type            zeroGradient;
    }
    rectangle
    {
        type            zeroGradient;
    }
}


// ************************************************************************* //
