/*--------------------------------*- C++ -*----------------------------------*\
| =========                 |                                                 |
| \\      /  F ield         | OpenFOAM: The Open Source CFD Toolbox           |
|  \\    /   O peration     | Version:  2306                                  |
|   \\  /    A nd           | Website:  www.openfoam.com                      |
|    \\/     M anipulation  |                                                 |
\*---------------------------------------------------------------------------*/
FoamFile
{
    version     2.0;
    format      ascii;
    arch        "LSB;label=32;scalar=64";
    class       volScalarField;
    location    "15.8";
    object      p;
}
// * * * * * * * * * * * * * * * * * * * * * * * * * * * * * * * * * * * * * //

dimensions      [0 2 -2 0 0 0 0];

internalField   nonuniform List<scalar> 
2186
(
0.77732
-0.368569
-0.0613162
1.06636
-0.876856
-0.0551524
0.665173
-1.04519
-1.09691
1.32018
1.06245
-0.962273
-1.04622
1.02195
-0.598643
1.02915
1.05236
-1.33681
0.00024246
-0.805399
1.42472
-0.78156
1.03203
-1.0499
1.02298
1.04111
1.24498
0.892195
0.604697
1.02356
-0.794192
1.0228
-0.734037
-1.14953
-0.969903
0.127123
-1.05248
1.41459
-0.781665
-0.0893756
-1.05918
-0.774075
-0.710427
-0.871788
0.911353
1.30388
0.332555
0.503882
-1.64768
-0.971025
-0.798349
0.909129
-0.707397
1.34866
-0.738108
0.94265
-0.75995
0.970347
-0.895526
0.815869
-0.952348
0.639285
0.563435
-0.091635
0.575205
0.444562
0.680123
1.31277
1.20811
-1.13521
-1.05201
-1.02745
1.27949
0.996989
1.19763
1.15342
-1.30257
1.04596
-0.975001
-0.71744
-1.70819
-0.145414
1.01774
0.62663
1.0103
1.01867
1.32085
-0.0322374
-0.179356
-0.985268
0.945256
-0.802091
0.932133
1.17721
1.03192
0.431265
-0.186875
0.591049
-0.947052
0.984651
-2.08967
-2.00184
0.648842
0.956242
1.05386
-0.786999
1.23865
-0.843947
0.930778
-1.65698
-0.683749
-0.905088
0.529466
1.34722
-1.04001
-0.931783
-0.19367
-1.7004
-0.986775
1.2807
-0.00422805
-1.17458
0.869038
-1.58655
1.03363
-0.176965
-0.895949
1.14559
-1.39763
0.64578
1.39378
1.24011
0.22189
0.637636
-1.79485
-0.995005
0.913396
-1.11986
-0.718565
-1.00325
0.813303
-0.236995
-1.0267
0.690168
0.921758
0.961869
-0.76631
-0.897666
0.599467
-0.83632
-0.842055
0.567111
1.04941
1.18508
1.04328
0.51436
1.31804
0.43475
0.335515
0.407383
-1.00436
-1.36333
1.00426
0.987173
-0.0120966
-0.00485137
-0.888478
-0.932468
-0.242436
-0.258919
0.371775
0.990784
1.05292
1.10983
0.440643
-0.371497
-0.885879
1.00475
-1.65144
0.873029
-0.926419
1.03717
-0.796673
0.558604
0.545133
-0.923473
-0.794172
1.15797
-0.622257
-1.0297
-1.05752
1.28148
-1.75248
0.980642
-0.999527
-1.54002
0.104291
1.20104
1.0921
-0.78981
-1.16367
-1.03769
0.0625544
1.05248
-0.983703
-0.853833
-0.97921
-1.43255
0.971484
-1.33634
0.507206
-0.237248
1.33354
0.841167
0.937824
0.947384
1.21012
1.02633
0.892175
1.12412
0.356638
-0.869157
-0.763905
0.113434
0.17101
-1.35087
-0.886742
1.06017
1.14794
-0.945851
-0.911368
-2.0638
0.355896
0.64482
0.786765
0.893168
1.12027
-1.76498
0.883013
-1.01519
-0.98812
-0.918556
1.02014
0.743301
1.17738
1.1997
1.13601
1.11415
-1.0429
0.819064
1.13794
-1.0682
1.00701
0.790644
-2.16142
-0.99682
-0.9719
1.17911
1.0505
-1.05571
-1.31028
-0.573909
0.951372
-1.71372
0.763709
1.09275
0.870308
-1.04501
-0.797061
0.99916
0.632698
-0.762369
-0.625481
1.37346
-0.854593
-1.04115
0.849716
1.18843
1.01168
-0.937901
-1.12544
-0.956931
0.93211
-1.0771
0.534645
0.996587
1.02664
-0.23342
-0.604127
0.988329
-1.11299
0.931373
1.19854
1.04603
1.04359
-0.76124
-0.941892
-1.0523
-1.08392
-1.9539
-1.80234
0.364824
-0.598735
0.623255
1.17378
1.23548
0.935931
-0.799902
1.16851
-1.22943
-0.297835
-1.22126
-1.00311
-1.0357
0.336855
-0.840748
-0.823967
0.184749
0.947338
-0.36512
0.399808
-0.889304
-0.165666
-1.00906
-0.884701
1.24325
0.00526356
-0.106651
-0.787315
0.783154
0.558407
-0.493448
0.516172
-0.874153
-1.07356
0.676117
1.04885
1.09883
-1.41453
1.17578
0.885266
0.390834
1.2515
1.02477
0.954192
0.346784
-0.342971
-1.01026
0.887063
-0.887792
-0.969272
-1.26267
-0.831317
-0.989626
1.3988
-0.60631
-0.797493
-1.07944
1.02462
-0.867655
-2.10243
-0.925378
0.754121
-0.184006
-1.49249
1.28319
1.34511
1.12935
-1.03239
-0.129656
1.41449
1.02862
-1.10888
0.463234
-1.0228
0.156392
1.206
1.0069
0.887552
1.31843
-0.570327
-0.43969
-0.327711
-0.897353
-1.57458
-0.775265
-0.185899
1.34316
-1.44635
-1.37881
1.01594
0.574487
-1.00474
-1.8556
-1.0145
-1.20116
-1.32549
-0.994756
-0.764372
-0.848524
1.21066
-0.437301
-0.89302
1.03951
-1.3408
1.27039
-1.57025
-1.93475
-0.937117
1.02264
-0.934753
1.04905
0.844239
-1.01822
1.05543
-1.22399
-0.994561
-1.17603
1.01299
0.9592
-1.05648
-1.03065
-1.24311
1.00595
-1.5035
-1.7969
0.528421
0.969863
0.889681
0.703916
-1.07184
-1.10061
0.843539
-1.05673
0.815116
-1.7074
1.04487
-0.0237729
1.13803
-0.988191
0.849169
0.714091
1.0563
-1.19974
1.02274
-0.784122
-0.993253
1.02562
-1.78383
0.127602
-0.872934
-0.194289
1.03146
0.0605955
0.274863
1.03059
0.257896
-0.206045
-0.112443
-0.79787
0.213855
-1.07964
0.717457
-0.668206
1.0976
1.13784
-1.06329
-1.00063
-0.436895
-0.782712
0.431944
-1.01693
0.855289
-0.0986366
-1.03764
1.12612
-0.37215
0.391704
0.282807
-0.218268
0.817585
0.364246
-0.93816
-1.5673
-0.197694
-0.69358
1.04147
-1.74363
1.12577
1.23725
1.22492
0.667803
1.19691
-0.855509
-0.68741
0.912068
0.202337
1.01669
-0.766339
-1.01966
-1.79143
0.79922
-0.994809
-1.93461
-0.802995
-0.84318
0.00283483
-1.16457
0.753104
0.719277
-0.7696
-0.945902
0.745443
0.0581153
1.16569
-1.72682
-0.163332
-0.996611
0.780512
-0.184671
1.17804
1.42959
-1.82609
-0.867701
-0.882455
0.286569
-1.87762
1.03982
-0.981211
0.994962
0.773148
-0.992346
0.890987
0.851482
-1.95668
0.889254
-1.13326
-0.805098
-1.44015
-0.95145
-1.13371
-1.60965
-0.921737
1.02492
0.229378
-0.878866
0.58282
1.17204
1.22263
-0.389434
0.756812
-0.291824
0.772938
-0.194969
-1.65321
-0.814895
0.512861
0.833197
1.08816
-1.71601
-1.08832
-1.51208
-0.994592
-0.134025
0.726988
-1.96
0.0179992
-1.24951
0.965997
-1.17386
0.979039
-0.772734
-0.662307
0.967451
0.656968
-1.71989
-0.158214
0.98979
1.30528
1.04747
-1.00161
-1.41646
0.799484
-0.636248
0.786713
-0.63323
0.462543
0.986573
-1.01778
-0.797896
1.04666
-1.25938
1.27333
-0.17198
0.875183
0.172822
0.61868
-0.812484
1.25712
-0.801438
-1.81779
0.987148
0.539325
0.506852
-1.20874
-0.795155
-1.03736
0.79193
-0.226468
-1.05129
-1.16507
1.04183
0.402583
-1.23982
0.761223
0.916953
1.00983
-1.81522
-0.71917
-0.801637
1.03825
1.20631
0.482244
1.03454
0.0961625
1.06663
0.181695
-0.949162
-0.50165
0.94003
0.988718
-1.64841
0.875622
-0.806608
0.826286
-0.961133
1.02774
0.961508
1.04219
-1.71568
0.948428
-1.69636
-0.875744
1.18999
-1.92938
-1.58459
1.14513
-1.34592
1.13518
-1.8607
-0.814148
1.07262
0.778709
1.3759
1.0241
-1.68165
1.08807
1.11423
-0.773356
0.659513
0.0808435
-0.929233
1.51746
-1.01389
1.165
-0.850044
0.288554
1.02439
-1.29195
1.01556
-1.55508
0.950432
0.969111
1.03799
0.0139063
-0.989144
-0.636524
0.573174
0.65709
1.08064
-0.229057
0.853248
-1.84287
-0.437855
-1.61782
0.834719
1.15311
-0.971588
-1.1308
-0.110225
1.26563
-0.113489
0.758734
-0.0724942
-2.13368
-1.03443
-0.802844
-0.987534
0.821792
-1.79131
-0.194089
-0.291775
-0.618345
-0.820889
-1.23709
-0.293354
0.99543
1.04518
-1.22416
-0.506138
1.00938
0.954466
1.04373
-2.0034
1.00829
1.0731
1.01951
1.064
-1.48959
-0.257928
-0.799328
0.642339
1.02509
0.703855
0.140734
-0.229433
-1.77823
0.0524029
1.27192
-0.217373
0.228759
-0.743993
-0.209118
-1.03995
0.809717
-0.954239
-1.39927
-0.989147
1.02648
1.02649
1.03739
-0.0425329
0.353952
1.24613
-0.2379
1.02081
-0.24635
-0.0804737
0.785856
1.04405
1.12288
-0.0345308
1.00357
1.00178
-1.37281
-0.237027
1.03731
1.04937
1.04639
-0.999937
-1.03246
1.04608
0.605522
1.02716
0.236228
-0.0953642
0.0993012
-1.65794
-0.436955
-0.80949
-1.62856
-0.271373
1.05164
1.05667
0.773265
-1.00081
1.02693
-0.257567
-0.273364
-0.0209298
1.02405
1.0504
1.04693
1.05975
1.03748
1.03098
1.02143
-0.147889
-0.281595
-0.0925688
-0.178125
-0.0180149
0.0102597
-0.00779361
-0.120474
-0.207123
-0.255793
-0.181908
1.0184
1.03899
1.03297
1.05666
1.05465
1.04646
1.04993
1.02861
1.03501
-0.182031
-0.224158
1.04754
1.04594
-0.0286162
1.0484
1.04701
-0.0965757
0.109805
-0.268065
-0.853906
-1.51837
1.03016
-1.10537
1.02637
0.627244
1.08589
-1.01049
1.02631
0.972369
0.969926
-0.794438
-0.111284
-1.11109
-0.268119
-0.0197322
-0.79115
1.0433
0.0604558
1.118
1.03443
-0.146742
1.21401
1.36515
-0.221394
0.901064
0.662945
1.02601
1.04428
1.03593
-1.01485
0.510026
-0.0290507
1.03311
1.04159
-1.06826
0.0757828
1.03395
-0.0770676
-0.314157
1.03376
-1.11264
1.01471
1.04577
-1.08121
1.03805
0.130748
1.02968
1.11092
-2.01179
1.04374
1.05143
0.0104994
0.711117
1.03004
1.03648
0.177331
-0.706408
0.715856
1.36658
1.04156
1.0321
1.0377
0.138261
1.03321
1.01682
1.03878
1.03322
1.03546
1.03092
1.1391
-0.652795
-2.1264
1.03412
1.0286
0.304345
-1.08454
-0.649701
-0.72675
0.903023
-1.57724
-0.620207
0.00130371
1.02996
0.729344
0.0258431
0.0432357
-0.13433
-0.539726
-0.832822
0.10096
-0.562928
-1.46241
-0.301393
1.03713
0.0619217
1.02412
0.951118
-0.998606
1.28632
-0.461723
-1.1044
0.761452
1.17366
0.486075
-0.989973
1.02945
0.0921914
1.03621
-1.17876
1.0356
-1.34676
1.02777
0.015505
-0.731441
1.03836
1.05221
0.979406
0.132979
-0.984416
-0.714952
0.240586
1.04876
0.934829
0.165018
1.02779
1.07117
1.02203
0.374723
-1.92055
-0.701546
-1.98183
0.308469
1.0352
-0.101972
1.03197
-1.9779
1.02983
1.0681
1.03959
-0.0285771
-0.0369999
1.06474
-1.1114
1.04148
1.04484
-0.00642389
-1.03863
0.982237
1.17849
1.02568
1.02307
0.294196
0.27604
0.997677
0.407079
1.03992
0.847643
-0.906619
-1.03113
0.879207
1.2703
1.03044
0.336637
-0.571786
0.366688
-2.05564
-0.405362
1.01177
-1.28338
1.01615
-1.44963
-1.00307
-0.865315
0.479016
-1.13842
-0.382212
-0.0741295
1.02629
-0.988867
0.9535
-1.0175
-0.187861
0.147831
0.0135878
-0.223336
1.00237
0.209616
-0.819827
-0.0390199
-1.12029
1.01651
-0.337835
0.0178275
-2.15747
1.12342
-0.335984
-1.01475
1.09845
1.01397
1.00384
0.476098
-0.939362
1.03478
1.06284
-1.27789
-0.831363
1.02494
0.797648
1.29429
1.04688
-1.14484
-0.580764
-0.847626
-1.29477
-1.01737
-0.994706
-0.00487523
-1.2019
0.802291
-0.0338223
1.03568
1.24863
1.02622
-0.989386
-1.17205
1.02796
-1.04355
-0.241667
1.00652
-0.353745
-0.829173
-1.96304
0.0278289
0.981525
0.955894
-1.06607
0.854919
0.720878
-1.54762
1.01128
-1.57702
0.846594
-0.70939
1.00098
-1.66889
0.417899
1.0292
1.13877
-2.21517
-1.71651
0.865467
1.40442
1.04945
1.06335
-0.873505
1.25707
-0.928156
-0.0737246
-0.849752
0.467374
-2.23528
1.14166
1.17357
-1.02318
-1.27839
1.02607
-0.96399
0.860794
1.05934
1.00038
-2.0832
1.02996
-0.0240825
1.05648
-0.0449719
-0.100804
-0.0919379
1.03291
-0.247232
-0.438204
-0.229238
1.0233
0.00725322
1.23463
0.255477
1.36818
1.0334
-0.95951
1.00724
-0.811584
1.00636
1.00398
-0.00523562
-0.276993
1.17031
1.01932
1.26989
0.988255
0.0710183
0.991742
1.01462
0.90655
1.03743
-1.068
-0.980555
-1.13105
1.1227
-1.42543
-0.293839
-0.804478
-1.47496
-0.106202
-0.153728
0.916302
0.0777732
0.980536
1.03262
-0.837483
-1.3079
-1.05809
-1.42712
-1.03443
-0.81427
1.03493
-2.13019
1.04671
1.25245
1.08626
-0.170138
1.05352
0.968043
-1.44122
0.984032
1.01446
-0.916135
1.01334
0.99061
-0.146145
-1.22539
1.48527
-1.95633
-1.27457
-1.11101
0.229813
1.00421
-1.31226
-0.675342
-0.790289
1.17059
-0.458622
0.904512
1.04772
1.00943
-1.34429
0.992341
-2.32106
1.04345
1.05723
-0.394135
1.04734
0.558883
1.01522
0.714597
-2.10124
0.00220389
0.00388272
0.0638333
1.28204
-0.204601
1.06333
1.43413
-0.620582
-0.0268231
1.09419
-0.0401251
1.09137
-0.028545
-0.0469751
1.09269
1.09732
0.421764
-1.50546
0.815969
-0.683013
-0.897521
-0.63173
1.05404
1.022
1.44305
-0.990598
-0.653927
0.744071
-1.11506
1.11207
1.03638
1.01408
1.02195
0.982945
-2.03697
-0.995417
-1.33222
0.857276
0.958409
-2.23366
-0.822158
-1.02708
1.04449
1.05932
-1.20673
-1.76016
1.06791
-1.15773
0.252639
0.829305
0.975734
-0.240533
-1.1555
-0.198873
-0.991661
-0.719382
-2.01798
-1.63582
1.38993
1.41258
-0.834891
-0.921988
1.04485
1.02122
-1.01778
-0.0843841
-0.375754
0.709929
1.12972
-1.52306
1.03839
-1.17245
-1.14564
-1.03041
-1.22951
-0.880939
1.00894
-0.967348
-1.62916
1.40532
-0.995863
1.03897
1.27306
-0.823019
1.05498
1.26618
-0.862569
1.29442
-1.01854
-1.17372
1.06675
0.0947537
1.02432
1.04031
-1.03046
1.08455
0.137439
-1.9621
1.07598
1.04262
-0.928038
-1.43595
0.984816
1.03164
-1.03394
-2.13237
1.33381
-1.0361
0.949788
-0.0527156
0.964147
-0.959573
-1.90544
-1.02233
-0.859911
1.14622
1.05796
1.30478
1.25836
1.033
1.09445
1.11741
-1.017
1.18627
1.15671
-0.851715
-1.04016
-0.968512
1.37395
-1.71912
-1.15696
0.125289
0.993583
-0.860095
-0.80856
1.07537
1.03161
-1.02778
-0.831379
-1.1256
0.0539342
-2.11966
-0.860923
-1.01125
0.947873
0.902611
-0.816228
-0.398695
-0.897014
0.900387
-1.03702
-0.853194
-1.00688
0.955458
-1.74287
-0.837425
1.34604
0.918599
0.388292
1.21141
0.22738
0.991289
1.04614
1.14909
1.22422
-0.239092
0.745804
1.06203
0.262959
-1.00195
1.46113
0.98658
0.929743
1.08753
-0.845227
-2.03811
0.872434
0.854176
0.992318
-2.0959
-1.92253
1.01707
-1.00706
0.842346
-0.053075
1.46259
-0.998398
0.798601
0.745795
-0.804104
-0.995469
-1.44011
1.07662
-0.807759
-0.991612
0.707618
0.684718
-1.2824
1.1033
0.852456
-0.811488
-0.749995
0.99554
-2.17925
-0.99254
-1.1206
-0.794372
-1.01276
1.02177
1.03793
-1.88292
0.625186
1.03633
1.38416
0.275886
0.366496
0.0964975
0.895626
-0.468257
-0.801276
-1.49555
-0.525362
-0.798322
1.0287
-0.798072
0.259306
-0.989976
0.618687
0.575241
-0.794558
0.643963
-1.92545
0.501366
-0.791044
0.545904
-0.804059
0.393389
-0.986406
0.464299
-0.787358
0.828734
-1.77627
-0.787979
-0.79454
-0.985543
1.04756
0.0867403
-0.824431
-0.993351
0.129403
0.164757
-0.791429
-0.996297
-0.868297
-0.12539
-1.00893
-0.029928
-1.04137
-0.231578
-0.946105
-0.29856
0.931214
-0.283917
-1.97369
1.01979
-0.0446634
-0.222316
0.452632
0.998421
-1.7938
-1.92255
-0.987942
-1.5419
0.911841
1.46092
-0.883558
-0.186757
0.0126392
-0.981142
-0.352377
-0.383287
1.01336
-0.847563
0.981399
-1.58303
1.5283
0.45331
1.44044
-0.825477
1.20584
-0.480574
1.02832
-1.07877
-0.984804
1.08848
1.0237
-2.10926
-0.990627
-0.795067
1.01905
-0.836945
1.01957
-1.23918
-1.09256
-1.02311
1.34359
1.07988
1.12606
1.05705
1.04695
-0.104083
-0.635125
1.25737
-2.18071
-0.916313
1.4617
-0.819357
0.951521
0.975105
1.40438
1.45283
-0.82351
-1.55518
1.06648
0.222314
-0.473077
-0.747398
-0.88633
-1.91918
-0.827681
0.551398
-1.39127
1.21701
-1.27516
1.0971
1.17753
1.08197
-1.54153
-0.979472
-1.07289
1.11956
-0.961311
1.22618
-0.647605
-1.06549
1.28895
1.32349
-0.978736
0.166945
0.97206
-1.25684
-1.1
0.670381
1.32396
1.24811
-1.06207
0.92072
0.900702
-0.984969
1.25889
0.357435
-0.820378
-0.975872
-0.21642
-0.172556
1.16592
-0.867428
0.336454
-0.0243943
0.00913017
-0.779505
-0.979523
1.02781
-1.97842
1.06595
-0.0258729
0.0796347
0.699831
0.24364
-0.973684
-0.539641
-1.20634
-0.225872
-0.00435577
-1.43084
0.988589
-1.98872
-1.91813
1.05696
-1.16838
-0.853118
1.045
-1.06546
1.02389
-0.104161
-1.01897
-0.364833
0.802467
-0.844039
-1.75076
0.904694
-1.06692
1.10168
-0.596847
-1.0237
-0.947994
-0.987363
1.5098
-2.02121
1.14602
0.0256506
0.989892
1.22477
0.73108
1.04989
1.21127
-0.118897
-2.02839
0.997755
1.11103
1.38337
-0.982165
1.08691
0.731729
-1.00988
0.79566
1.22382
-0.510865
1.39343
0.207332
-0.823029
0.842188
-1.02522
-0.79197
0.969152
-0.401397
1.08729
1.06705
1.00352
-0.84644
0.956707
1.31369
-1.11122
-0.28032
-2.06765
-1.12518
-1.01538
-0.991823
1.36948
0.755085
-0.863896
0.918702
-1.03454
-0.915255
1.28648
1.27721
-1.95868
-1.45908
-0.987579
-1.04856
0.998938
-0.86321
0.0595357
-0.74738
-0.419485
1.09509
-1.0389
1.438
1.08431
0.896426
1.06351
1.35374
-1.11612
-1.04134
1.03873
1.16227
-0.761601
1.03642
-1.96355
-1.02101
-1.0277
1.13647
1.166
-1.02677
-0.876674
0.551507
-0.100827
-1.28984
1.01909
1.01557
-1.43901
1.05503
1.09706
-1.3831
-0.856207
-0.857696
-1.01576
-1.02945
1.33022
-0.355959
0.969844
-0.864929
1.32528
0.917356
0.922213
0.994828
-2.016
-1.04467
-1.0104
0.587562
-0.836196
0.927117
0.290431
-0.565194
0.914047
1.0139
1.07175
1.04635
-0.0362319
1.0707
-0.0528359
0.411645
0.846925
-0.519193
-0.849851
-0.88656
-0.630957
1.04334
0.976332
1.04306
-1.82395
-0.829178
-1.00577
-0.730028
1.04097
1.33509
1.0546
-0.842879
-0.839554
-1.21604
-0.487875
-0.989089
-0.988019
-0.153639
1.03256
-0.787286
-0.814097
-0.0305415
-0.110752
0.776547
-1.56587
-1.0019
-1.2109
0.986476
1.46128
0.0235201
1.13063
1.52288
0.71688
1.24973
-0.857849
-0.0562233
1.41493
-0.997779
0.303407
-0.830433
-1.0341
-0.790268
-0.805926
1.00059
0.735905
1.24252
1.20468
0.00529929
0.783562
0.0936608
-0.0261761
-0.993705
1.141
0.778166
1.04954
1.0659
-0.105508
-0.088873
1.06243
-1.20614
-0.991158
-0.809932
-0.799229
0.591342
-0.802758
0.988764
0.671552
-0.996348
1.24549
-0.837907
-0.270912
1.01234
-0.820312
-0.961874
-2.07505
0.653832
-0.819301
-1.15378
0.96549
1.05785
-0.130545
0.0125777
-2.22287
-0.990841
-0.422847
-1.53601
-0.231193
0.602681
-1.10983
-0.799727
1.31211
0.318023
0.418373
-0.79674
-1.03908
1.03271
1.05454
0.584236
0.536601
-0.792776
-0.961724
-0.799647
0.508442
0.44337
-0.788715
0.878977
0.202063
-0.784131
1.48884
-0.787327
-1.81938
-1.02929
-0.74414
0.848286
-0.804691
-0.858411
-0.998472
-0.00280768
-0.843014
0.0592412
-0.831338
-0.217437
1.22368
-0.900505
-0.18946
-1.02545
-0.117639
1.38829
1.41515
1.27898
1.03964
1.2559
-0.649605
1.02582
-0.844531
1.05213
-0.989192
-0.993484
1.27759
-1.1845
0.473429
-1.71485
1.42387
-0.0188372
1.3593
0.651922
0.815722
-0.824574
-0.829987
-0.985434
-1.01672
1.34193
1.23943
1.02487
0.631614
1.02724
0.873221
0.862884
-0.791898
-1.04485
0.300996
0.0525215
0.838013
1.04278
-0.0424616
-0.818807
-0.786825
-1.50962
-0.985528
-1.79485
1.35999
1.0607
1.03767
-0.0855015
-0.0603997
1.05882
-0.924871
-0.991482
-2.14424
-1.00447
0.826727
-0.811617
-0.794405
-0.336834
1.04269
-1.83183
-1.02811
1.02728
0.610985
0.720827
1.02735
-0.988736
0.912441
1.20922
0.843649
-0.985706
1.02053
0.352517
0.507528
-0.979485
-0.805007
1.48249
0.228219
-1.16271
-0.00803307
0.948652
1.00962
-0.947576
-1.4
-0.161405
-0.758808
-0.929659
-0.865244
-0.0955333
1.02281
-1.0536
1.02636
1.29901
1.10128
1.02981
1.12845
1.18908
1.03135
-1.38423
-0.687319
-0.360185
-1.06705
-0.957314
-0.794005
1.18898
1.09336
-1.03262
0.983839
-0.800084
0.0929663
-0.790262
-0.412331
0.533493
-1.34036
1.01975
0.948259
-1.37337
-0.421248
1.36928
-1.71158
-0.684024
-1.18015
-0.871351
-0.764023
1.0692
0.813566
1.11095
-1.17981
-0.819859
-0.967451
-0.318042
-1.03015
-1.47183
-1.30432
-2.1218
0.95215
-0.79056
1.47305
-1.03318
-0.617969
-1.02553
-0.793396
0.947959
-1.04883
-1.13055
-1.01262
-0.407796
1.23837
1.23904
-2.19359
-1.10068
0.863014
-1.0083
-0.931874
1.12348
-1.33271
-2.04623
-1.03899
0.790944
-0.476691
-1.02477
1.02323
0.0445071
-0.863952
1.03772
-0.828247
-1.46815
-1.12967
-0.864382
-0.128185
-1.02479
1.35939
-0.998151
0.134207
-0.990513
0.83218
-0.633632
-0.920573
0.691666
0.769077
1.08518
0.986212
1.21844
-0.805737
0.861445
0.547239
-1.18869
0.971129
-0.326469
-0.656561
-2.01681
1.1971
1.18433
-0.729376
-0.885213
-1.16258
1.05557
-0.857767
0.0828424
-1.36821
-0.800735
1.32372
1.0537
-0.826856
-0.84815
-0.827559
-0.816863
0.936496
-0.86224
1.0199
0.276808
0.750333
0.875015
-0.774117
-0.910728
0.980652
-0.796462
-0.0721061
1.31024
-1.00644
-0.814359
0.86098
-1.19875
-0.854295
-0.244032
-0.970984
1.38199
-0.673507
0.106637
-0.830354
1.31895
-0.835988
-0.844345
0.687012
-1.30068
-0.988787
1.3604
0.716461
1.015
-0.858663
1.27492
-0.294206
-0.903583
-0.859925
-0.864932
-0.841393
1.30722
0.620446
-1.0267
-0.836639
-1.01127
1.16573
-0.803417
1.2946
-0.989147
0.753802
-0.809175
0.419362
0.584094
0.550214
0.470461
0.17224
-0.821948
1.04911
-0.859043
-0.637624
-1.21401
0.259236
1.33641
-0.37103
-0.861104
-0.856122
-0.812028
0.314707
-1.03007
-0.80708
0.848714
0.165004
-0.819661
1.40372
-1.01843
-1.59253
1.38503
-0.814362
0.202423
-0.812923
-0.791367
-0.804084
1.37771
-0.785509
1.30042
-0.802345
-0.893875
1.21349
-0.301406
-0.84239
0.610568
-0.972454
0.0706806
-0.472694
-0.807603
0.815671
-1.1245
-0.80604
-0.793343
-0.792212
-0.997067
0.856087
-0.0992924
-0.549388
-0.823373
1.32942
-0.90409
-0.851275
-0.778733
-0.193379
-0.920171
-0.776533
-0.820549
-0.157088
1.28968
-0.843672
-0.986955
-1.21531
-0.81116
-0.179292
-1.00305
1.41694
1.35214
0.461721
-0.959142
-0.993711
0.378215
-0.995354
1.43102
0.259721
1.0817
0.742161
1.29991
0.143775
-0.930988
-0.997434
-0.0067837
-0.859704
-0.00662918
-0.138172
-0.800113
1.3265
-0.377344
0.270578
-0.517166
-0.985675
-0.991599
)
;

boundaryField
{
    frontback
    {
        type            empty;
    }
    Top
    {
        type            zeroGradient;
    }
    outlet
    {
        type            fixedValue;
        value           uniform 0;
    }
    bottom
    {
        type            zeroGradient;
    }
    Inlet
    {
        type            zeroGradient;
    }
    rectangle
    {
        type            zeroGradient;
    }
}


// ************************************************************************* //
