/*--------------------------------*- C++ -*----------------------------------*\
| =========                 |                                                 |
| \\      /  F ield         | OpenFOAM: The Open Source CFD Toolbox           |
|  \\    /   O peration     | Version:  2306                                  |
|   \\  /    A nd           | Website:  www.openfoam.com                      |
|    \\/     M anipulation  |                                                 |
\*---------------------------------------------------------------------------*/
FoamFile
{
    version     2.0;
    format      ascii;
    arch        "LSB;label=32;scalar=64";
    class       volVectorField;
    location    "15.8";
    object      U;
}
// * * * * * * * * * * * * * * * * * * * * * * * * * * * * * * * * * * * * * //

dimensions      [0 1 -1 0 0 0 0];

internalField   nonuniform List<vector> 
2186
(
(1.32824 -0.0675524 1.87646e-19)
(1.63196 -0.953383 -1.0116e-19)
(1.47652 -0.928438 3.34819e-22)
(0.75329 -0.59997 -1.26766e-19)
(-0.380999 0.533226 -1.81499e-19)
(1.2239 0.0214292 0)
(0.73477 -0.678716 0)
(-0.313174 -0.439239 1.25179e-19)
(1.46696 -0.286703 2.07776e-19)
(0.566115 -0.338003 -2.42752e-21)
(0.659987 0.594318 0)
(0.806236 -0.277403 -1.43416e-19)
(-0.353685 -0.467218 -5.02298e-20)
(1.19212 0.0220363 -3.24728e-19)
(1.82206 -0.699547 -1.08129e-19)
(1.01102 -0.00360533 1.53717e-19)
(0.987346 0.0129413 0)
(-0.682243 0.52938 0)
(1.23723 0.0432485 0)
(-0.07752 0.209187 -6.48369e-20)
(0.48278 0.0613283 -1.03766e-19)
(-0.230242 0.146631 8.83068e-20)
(1.17729 0.023882 2.6883e-19)
(-0.208885 0.00802887 5.4578e-21)
(1.03122 0.00558516 -2.11257e-19)
(0.803332 -0.57497 0)
(0.766205 -0.042529 1.28828e-19)
(0.622445 -0.602092 -1.43661e-19)
(1.19059 0.698386 0)
(0.964607 0.0223489 -2.88685e-19)
(-0.026618 0.0324826 0)
(1.0258 -0.0151984 9.98396e-21)
(-0.0706723 0.237758 0)
(2.54468 0.163207 2.3824e-19)
(-0.092803 -0.194429 3.62157e-21)
(1.5135 0.763746 5.38599e-20)
(1.85066 0.144114 1.47068e-19)
(0.506612 0.110795 -3.09256e-19)
(1.87528 0.332837 -3.30699e-19)
(1.08372 0.0625034 1.20819e-20)
(-0.385554 -0.472951 0)
(-0.195334 0.114287 0)
(1.89841 -0.898083 9.59047e-20)
(-0.40681 0.148046 0)
(1.10033 0.274415 1.35854e-19)
(0.607412 -0.318623 2.51004e-19)
(0.935828 -0.797546 0)
(1.20356 -0.800109 8.53029e-20)
(2.41453 -0.31976 0)
(-0.336785 0.68773 1.87789e-19)
(-0.0156962 0.0857453 9.58418e-20)
(0.613902 0.566293 7.12672e-20)
(2.09241 -0.78465 1.19447e-19)
(0.586822 0.251262 -2.48623e-19)
(-0.270491 0.0793505 3.28903e-20)
(0.777275 -0.664586 0)
(1.68193 -0.983699 1.86496e-20)
(0.592661 -0.553146 0)
(2.30634 0.293645 1.06434e-19)
(1.14691 -0.17167 -3.03874e-19)
(1.90341 -0.109013 1.71503e-19)
(1.34038 0.30005 -1.53543e-19)
(1.32774 0.522532 0)
(0.821912 0.12028 -1.32352e-20)
(1.35024 0.381376 -9.09593e-20)
(1.26936 -0.743586 -1.14379e-19)
(1.15044 0.64953 4.61398e-20)
(0.681124 0.0564357 -4.9937e-19)
(0.820214 0.0450812 0)
(2.13892 -0.245434 -7.51167e-20)
(-0.310523 -0.479781 -1.46491e-19)
(2.01811 -0.337756 -1.60572e-19)
(0.730631 -0.0541996 -2.19339e-19)
(0.886278 -0.53475 0)
(0.822651 0.165981 -8.09804e-20)
(0.561689 -0.525011 -2.59244e-19)
(2.55915 -0.284905 0)
(1.00588 0.00698926 3.1688e-19)
(-0.0765449 -0.290723 0)
(1.938 0.420274 0)
(0.852109 0.476399 1.37636e-19)
(0.825414 0.0842047 -2.48722e-20)
(1.03276 0.00359324 3.50631e-20)
(1.30818 0.417512 2.33331e-20)
(0.97025 0.0244479 3.67303e-19)
(1.04079 0.0263833 -8.72235e-21)
(0.665742 0.159599 -2.98936e-19)
(1.22468 0.00733 -7.19856e-22)
(0.479386 -0.139052 0)
(-0.0650903 -0.0339532 1.04115e-19)
(0.87442 -0.637939 -1.38883e-19)
(-0.0924441 0.369012 -1.30197e-21)
(1.1237 -0.0860766 2.12754e-19)
(0.824171 -0.199647 0)
(0.975647 0.0231596 3.51773e-20)
(1.34917 0.636557 0)
(1.64416 -0.968185 0)
(1.29055 0.220888 0)
(-0.412091 0.648422 0)
(0.806309 -0.681986 2.48683e-19)
(0.529859 0.27937 -4.35015e-19)
(0.785365 0.350028 2.71436e-19)
(1.5354 0.199194 0)
(1.15123 -0.114289 -1.94492e-19)
(1.11123 0.0249252 1.57018e-19)
(-0.0617926 0.523255 1.16251e-19)
(0.61904 0.484327 0)
(2.23488 -0.195582 -1.49456e-19)
(0.977525 -0.496292 6.96318e-20)
(-1.57442 0.176224 2.18934e-19)
(1.69753 0.314487 1.14142e-19)
(-0.241494 0.674902 -2.69286e-19)
(0.829789 -0.753996 0)
(0.550863 0.324516 1.5101e-19)
(1.67704 -0.284449 -5.97297e-19)
(-0.410325 -0.280065 -4.6503e-19)
(1.28301 0.248093 6.01463e-20)
(2.01705 -0.469321 0)
(-0.0864043 -0.0365964 -3.11892e-19)
(0.715073 -0.090002 6.92897e-20)
(1.5331 0.866429 0)
(-0.264205 0.767407 -3.00677e-19)
(0.865634 0.74267 -2.40717e-19)
(-0.945003 0.446623 4.60183e-19)
(1.03012 -0.0229546 0)
(1.38073 0.25907 -7.5788e-20)
(-0.322329 0.618203 0)
(0.710992 -0.51548 -9.27256e-20)
(-0.828411 0.456544 -2.45363e-19)
(0.802249 -0.731896 0)
(0.452015 -0.310188 3.66908e-19)
(0.558176 -0.478885 2.44145e-19)
(0.419799 -0.380033 0)
(0.999316 -0.794593 -9.99174e-20)
(0.814103 0.388995 0)
(-0.133 0.787643 -1.47333e-19)
(0.825649 -0.71241 1.176e-19)
(2.4631 -0.281887 3.32212e-19)
(2.2743 0.186119 0)
(-0.102349 -0.210055 0)
(0.668288 0.620686 -2.97855e-19)
(1.80768 -0.640488 1.91757e-20)
(-0.210223 -0.269403 0)
(0.999995 -0.82013 -1.10338e-20)
(1.15545 -0.106472 0)
(1.10043 -0.129 3.38184e-19)
(2.16045 -0.199472 -1.44222e-19)
(-0.41852 0.536756 0)
(1.24239 -0.564059 -4.34748e-20)
(-0.257181 0.322906 -4.10563e-20)
(-0.195266 0.464403 0)
(1.11008 -0.826697 1.24182e-20)
(1.00594 0.00465509 -5.29411e-19)
(0.665895 -0.502392 -9.15399e-21)
(0.828962 -0.534723 0)
(1.21814 -0.741823 -7.23867e-20)
(0.649884 0.219652 2.32967e-19)
(1.22475 0.106357 0)
(1.48068 0.103283 -1.84118e-19)
(1.21504 -0.868578 -1.41282e-19)
(-0.0857284 -0.183724 -1.15783e-19)
(-0.210646 -0.422175 -2.14787e-19)
(1.0647 -0.000602416 1.98638e-19)
(0.930393 -0.483203 -8.75622e-20)
(1.22707 0.00585561 6.66479e-22)
(1.3184 0.00708496 -2.08655e-21)
(0.712554 -0.0964772 1.27104e-19)
(-0.196509 -0.0397977 -2.78378e-19)
(1.41781 -0.443759 0)
(1.40198 -0.526382 5.04251e-20)
(1.42791 0.640096 1.10878e-19)
(0.822678 -0.631186 -1.81404e-19)
(0.995469 0.00848939 1.08532e-20)
(0.735423 -0.550863 2.54879e-19)
(1.27954 0.785688 1.0412e-19)
(1.85576 0.109918 2.15518e-20)
(-0.466436 0.458717 0)
(1.07885 0.049467 -2.05808e-19)
(-0.816662 -0.200634 -3.06348e-19)
(1.05589 0.483244 6.97533e-20)
(0.0392182 -0.0903441 1.68218e-19)
(1.14851 0.0275722 -3.7509e-20)
(-0.150813 0.173472 -1.56999e-19)
(1.2794 0.576411 -6.4331e-20)
(1.11357 0.867275 0)
(-0.523412 0.453091 -9.78879e-20)
(-0.169766 -0.0847768 0)
(0.634496 0.542824 -2.46658e-19)
(2.04067 0.265563 -2.40997e-20)
(-0.398834 -0.435134 1.67001e-19)
(-0.814894 0.175819 -6.53101e-19)
(0.727571 0.0587183 2.19271e-19)
(2.14381 0.0885795 -6.69666e-20)
(0.994239 -0.366966 -2.5867e-20)
(-0.0332263 -0.056794 0)
(-1.03647 -0.0644117 3.61017e-19)
(1.30008 0.952925 -6.77072e-21)
(0.837741 0.0592572 -1.19665e-19)
(0.539523 0.505687 1.71327e-19)
(0.416808 0.190827 0)
(-0.196081 -0.447927 -2.48401e-19)
(-0.61066 -0.169945 2.0249e-19)
(1.31522 -0.971263 1.76575e-22)
(0.988283 -0.0416264 -1.6431e-19)
(-0.177087 -0.132876 7.49848e-21)
(-0.121709 0.165407 1.49191e-19)
(-0.305847 -0.123629 -2.01776e-19)
(2.00066 -0.471967 0)
(1.12731 0.0426994 -2.76305e-19)
(2.3017 0.119625 2.73717e-19)
(1.2961 -0.631892 7.436e-20)
(0.302894 -0.101641 1.70039e-20)
(0.580782 0.305424 0)
(0.921782 0.731399 -1.41934e-20)
(0.666075 0.612075 1.61532e-19)
(0.910306 -0.580222 1.25723e-19)
(0.667447 0.481663 0)
(1.01928 0.00159907 7.04608e-21)
(0.89679 -0.679072 1.7879e-19)
(0.827148 0.413088 -4.03943e-19)
(1.25154 -0.114182 0)
(-0.178696 -0.166422 -3.12437e-19)
(-0.039981 0.354733 -9.53899e-20)
(1.56496 0.71349 0)
(1.36932 -0.952602 -1.51127e-22)
(-0.671838 0.552063 0)
(-0.34778 0.554656 1.13896e-19)
(0.715987 0.632866 -8.64217e-20)
(0.858601 -0.235671 0)
(-0.190193 -0.202836 0)
(1.60543 -0.472164 0)
(-0.953136 -0.156516 6.60945e-19)
(1.231 -0.897363 9.27865e-20)
(1.19584 -0.617897 4.82764e-20)
(1.07705 -0.1647 -1.35469e-19)
(0.893997 -0.708219 -1.40398e-19)
(0.190591 -0.194953 0)
(-1.23357 0.292358 0)
(1.01734 -0.527266 1.456e-19)
(-0.168746 -0.291875 0)
(-0.309392 0.708286 0)
(-0.402369 -0.254173 3.97488e-19)
(0.771937 0.651078 7.49739e-20)
(0.990047 0.774919 0)
(0.677635 0.533101 -7.52914e-20)
(0.836334 -0.0551896 -1.96556e-19)
(0.727351 0.543622 -2.01001e-19)
(0.573905 0.532734 -1.47569e-19)
(-0.273372 -0.506132 2.54205e-21)
(0.731728 -0.656639 0)
(0.891553 0.158302 -2.83544e-19)
(-0.348496 -0.500288 6.67239e-20)
(0.586488 0.543385 3.31015e-19)
(0.934562 0.777563 0)
(-0.852864 -0.04579 4.88103e-19)
(-0.0568102 -0.473795 3.5558e-19)
(0.0349329 -0.385435 -1.85995e-19)
(0.644175 0.548871 -1.30942e-20)
(0.970785 -0.00895551 5.12026e-20)
(-0.387126 -0.445045 0)
(2.38456 -0.0145543 -3.47458e-19)
(1.76198 -0.699415 -2.04211e-19)
(0.664405 -0.616 -6.35148e-20)
(-0.548223 0.413508 1.67663e-20)
(1.17767 0.456407 1.54992e-19)
(0.871718 0.404007 0)
(1.07202 -0.192213 1.62147e-19)
(0.112108 -0.49847 -8.44697e-21)
(-0.0554638 0.0831601 3.64536e-19)
(0.930078 0.0176941 -4.53143e-20)
(1.11518 0.134125 0)
(1.96527 -0.0597774 -3.38747e-19)
(1.92923 0.132485 0)
(0.537072 0.229084 -4.0934e-19)
(-0.131525 0.198319 0)
(-0.29445 -0.457283 2.87256e-19)
(0.711835 0.0953692 0)
(0.636498 -0.535539 -1.57235e-19)
(1.13077 0.0208355 1.79952e-19)
(-0.446058 0.590427 4.25133e-20)
(2.17816 -0.112832 2.94175e-21)
(2.13682 -0.29604 -1.50386e-19)
(1.10397 0.224344 -1.89944e-19)
(-0.356149 -0.487648 -1.29574e-19)
(1.09181 -0.864144 0)
(0.803543 0.0166884 -1.30987e-19)
(0.939231 -0.398876 -2.48299e-19)
(1.7531 -0.587214 -8.97091e-21)
(1.75327 0.0274433 3.10596e-19)
(1.07193 -0.00934784 3.30997e-19)
(0.0471856 -0.440935 -1.82656e-19)
(1.01034 -0.458757 -1.05926e-19)
(0.2014 -0.194311 2.22378e-19)
(1.00778 -0.00765291 0)
(1.00367 -0.00621698 0)
(1.15474 -0.68275 8.61857e-20)
(-0.0409467 0.721997 -9.8845e-20)
(0.178076 -0.120796 -1.51052e-19)
(1.97133 -0.123391 1.50813e-20)
(1.26083 -0.266605 0)
(2.04401 0.0724756 -1.84017e-19)
(0.958429 -0.833969 -5.65597e-20)
(1.81778 -0.575771 -9.02179e-20)
(1.08083 0.817325 0)
(0.484449 -0.468258 0)
(0.585656 0.496608 -1.57282e-19)
(1.08502 0.277783 -3.49617e-19)
(2.31238 -0.283176 4.867e-22)
(0.858827 0.144182 1.21784e-19)
(-0.095278 -0.416904 -5.32539e-19)
(1.05937 -0.250367 -3.97296e-20)
(-0.296595 -0.378308 0)
(-0.0890773 -0.215765 0)
(-0.434643 -0.369 0)
(1.36 -0.734755 -5.40642e-20)
(-0.202502 0.467824 -2.14586e-19)
(-0.0462366 0.128793 0)
(1.26145 0.954478 -2.45813e-20)
(1.10386 0.144928 -3.63812e-19)
(1.79231 0.465318 -4.47839e-20)
(1.05519 0.900922 6.61763e-20)
(-0.211952 0.657815 1.38385e-19)
(0.534232 -0.118262 0)
(-0.440416 -0.318761 -3.45198e-19)
(-0.275744 0.630109 2.60234e-19)
(0.779345 0.0193927 1.61236e-19)
(1.50255 0.929552 1.32948e-20)
(1.63414 0.483903 -1.36746e-20)
(-0.132807 0.335147 -3.05816e-21)
(0.757878 -0.691747 -3.019e-20)
(1.12251 0.00389622 0)
(1.72203 -0.0722806 0)
(1.04505 0.047856 0)
(-1.40544 0.322484 -2.16127e-19)
(-0.415415 -0.378808 1.26082e-19)
(1.02253 0.823418 0)
(0.999937 -0.0109263 4.41719e-19)
(0.748128 0.584816 -2.01284e-19)
(-1.76583 0.051036 -1.935e-19)
(0.861773 0.00604286 -3.5978e-20)
(0.727083 -0.664209 -1.8189e-19)
(1.36213 0.694595 -2.45201e-20)
(0.579651 -0.475838 -2.54529e-19)
(1.12513 -0.00042075 -3.97658e-19)
(0.820513 0.0404439 3.8287e-20)
(1.54638 -0.18874 4.20922e-20)
(1.20677 -0.130914 -4.42097e-20)
(-0.0681786 -0.0975586 -1.33437e-22)
(1.0621 0.459982 -2.32433e-19)
(1.29075 0.601809 7.72983e-20)
(-0.026786 -0.447187 0)
(-0.0955062 -0.374387 1.96433e-19)
(-0.244597 -0.212002 1.3122e-19)
(-0.196277 -0.06707 -1.44417e-19)
(0.459298 0.285843 0)
(1.40773 -0.711764 0)
(0.0225331 -0.0204381 -1.32887e-19)
(-0.306658 -0.514431 -7.25337e-20)
(1.04542 -0.0296317 1.57644e-19)
(-0.410833 0.440903 -4.50311e-20)
(1.64353 -0.252706 -6.4258e-19)
(-0.0736897 0.735056 0)
(0.846711 -0.750698 -2.43414e-19)
(0.851056 -0.139651 5.95352e-20)
(-0.43996 -0.374861 1.90879e-19)
(0.717263 0.145506 2.91141e-19)
(0.620525 0.115631 9.45871e-20)
(0.513133 -0.487577 1.74048e-19)
(-0.234049 -0.322579 -1.51927e-19)
(1.45442 0.486865 0)
(0.375278 0.316387 -1.74083e-19)
(1.02423 -0.0170437 -2.50873e-19)
(-0.900321 0.164604 2.54327e-19)
(1.40157 0.48023 -9.48603e-20)
(-0.19357 -0.353292 -5.75529e-20)
(0.698762 -0.637852 -2.22799e-20)
(0.81156 0.173719 -1.81741e-19)
(0.959379 0.416602 1.99476e-20)
(1.1549 -0.147248 2.92004e-20)
(0.615656 -0.255859 -2.63334e-19)
(2.04074 -0.386267 -1.94143e-19)
(1.40751 -0.182218 0)
(1.399 0.410059 -2.95931e-20)
(1.79195 0.107198 -2.08178e-20)
(0.89161 -0.28195 1.52383e-19)
(0.906671 0.342847 -1.81648e-19)
(0.891355 0.0527379 4.33076e-20)
(0.401864 0.367409 -2.25086e-19)
(-0.219217 0.451388 2.82124e-19)
(1.99506 -0.203441 0)
(0.929503 0.00501212 0)
(0.886958 -0.784375 4.53576e-20)
(-0.0647384 -0.527649 -3.88954e-19)
(-0.957076 0.253157 -3.26275e-19)
(-0.0940352 -0.145963 -2.46937e-19)
(-0.436378 0.721293 -1.80843e-19)
(-0.34154 -0.395408 0)
(-0.0717832 -0.160238 4.37442e-20)
(0.179108 0.467285 -8.8697e-20)
(-0.141481 0.190793 -3.41037e-19)
(0.809336 -0.12572 0)
(1.5006 -0.670193 7.99584e-20)
(-0.236054 -0.25282 0)
(0.994113 0.0239426 3.1851e-19)
(-0.205986 -0.445562 2.27719e-20)
(0.555654 -0.448219 3.41111e-19)
(-0.882687 -0.234939 5.07711e-19)
(-1.63869 0.095854 0)
(0.244572 0.683144 1.08687e-19)
(1.00617 0.0223231 -9.56665e-21)
(-0.169732 -0.145295 0)
(1.00614 -0.00744734 -4.96517e-20)
(0.874468 -0.739589 -2.36129e-19)
(1.47355 -0.770036 0)
(0.943482 -0.290268 1.77438e-19)
(0.123922 0.732526 2.51214e-19)
(-0.0121749 -0.011929 0)
(-0.236442 -0.407098 -7.09983e-21)
(0.739509 -0.648669 -3.59682e-19)
(0.96666 -0.0291109 -2.27031e-19)
(-0.0938107 -0.534677 4.9166e-19)
(-0.239866 -0.450653 1.76493e-19)
(-0.319318 -0.399879 0)
(0.940754 0.465277 0)
(-0.392333 -0.478428 2.41392e-19)
(1.89057 0.0793334 -2.53014e-19)
(1.05078 0.875655 1.55072e-20)
(1.06371 0.207608 -1.0712e-19)
(1.15672 0.00180953 -1.86125e-19)
(1.0639 -0.0639563 -6.39886e-20)
(-0.11091 -0.521131 -4.50871e-19)
(2.0282 0.0806284 5.30342e-19)
(0.670534 0.0259462 1.77245e-19)
(1.99305 -0.0964916 1.66184e-19)
(1.06863 -0.158625 0)
(-0.159207 0.411595 4.43021e-19)
(1.1326 0.0245372 -4.31673e-19)
(1.72418 0.615013 -3.6317e-21)
(0.751743 -0.474826 -1.38881e-19)
(-0.0681853 -0.0311334 2.33208e-19)
(0.810418 -0.711668 3.11767e-19)
(1.22774 0.194151 6.28762e-20)
(1.00369 -0.0086094 2.20028e-19)
(-0.00918143 -0.432556 -1.99035e-19)
(1.02413 0.00898677 0)
(1.60102 0.160097 -2.19432e-19)
(-0.022484 -0.018653 0)
(1.02386 0.0149905 -1.29354e-19)
(-1.39929 -0.0929853 -7.21178e-19)
(1.67756 0.322047 2.0106e-20)
(-0.362362 -0.200761 1.67955e-19)
(1.60835 -0.000102994 -1.9316e-20)
(1.01221 -0.0176979 4.55321e-20)
(1.3466 -0.0899384 0)
(1.46976 -0.618124 -8.92175e-20)
(1.02022 0.0253318 -1.34786e-19)
(1.4171 0.774107 -3.61586e-20)
(1.39525 -0.0596496 0)
(0.683221 -0.117876 -1.65199e-20)
(0.0212194 -0.0225869 0)
(1.36819 0.04971 0)
(-0.408417 -0.415283 0)
(1.22842 0.433336 0)
(1.83007 0.309546 5.23986e-20)
(0.721086 0.59644 3.5266e-19)
(0.297864 -0.29991 -2.06013e-19)
(-0.285617 -0.519625 -4.23946e-19)
(-0.0311762 -0.0588671 0)
(1.60027 -0.524419 9.01821e-20)
(1.30456 0.512171 0)
(1.43717 0.297953 0)
(-0.466911 -0.293526 1.52366e-19)
(0.788287 0.695765 1.11298e-19)
(1.70949 -0.0204698 0)
(-0.352486 -0.429915 9.60771e-20)
(0.896719 0.206005 1.66454e-19)
(1.72533 -0.45323 -4.3068e-20)
(1.21565 0.907909 3.65129e-20)
(0.93549 -0.841561 -2.16721e-20)
(1.04177 -0.187475 -1.83506e-20)
(0.774796 0.699611 1.13854e-19)
(1.15375 0.906596 0)
(2.32581 -0.37976 1.78327e-19)
(1.19479 0.634969 0)
(1.35931 -0.578448 2.62e-20)
(0.910449 0.0873966 1.8245e-19)
(1.00673 -0.00576397 0)
(-0.119215 0.191868 4.32658e-19)
(0.897211 -0.185726 4.13439e-20)
(0.642545 -0.431045 0)
(0.67961 -0.403849 1.84395e-19)
(1.22179 0.547886 -2.85591e-20)
(0.460036 0.433033 2.45948e-19)
(-0.172418 0.266123 4.05779e-20)
(0.0397452 -0.00128416 9.18159e-20)
(0.764629 0.0647978 0)
(1.34166 -0.912403 -3.47607e-20)
(1.04051 -0.0422792 3.4974e-19)
(1.4636 0.331468 1.43973e-19)
(-0.367176 -0.429321 8.30339e-20)
(-0.927145 -0.195202 0)
(1.24402 -0.248689 -9.28365e-20)
(-0.0115051 -0.015399 -2.01485e-19)
(-0.0133815 0.165378 -5.6079e-20)
(-0.126458 0.0348999 -5.29974e-22)
(-0.200492 0.0866839 2.96364e-19)
(1.28736 -0.062829 -1.69739e-21)
(2.41592 -0.0594294 4.65237e-19)
(1.17948 0.457536 -2.49935e-19)
(0.872246 -0.0356375 0)
(1.92503 -0.125129 2.87368e-19)
(1.87052 0.125351 1.40267e-19)
(0.925257 -0.777562 1.1392e-19)
(1.17237 -0.988165 -1.49084e-20)
(0.464567 0.43061 1.64528e-19)
(1.45628 0.356386 0)
(1.73389 0.573514 3.78744e-20)
(-0.0175862 -0.03195 -4.10506e-19)
(0.864205 0.753238 0)
(1.28387 0.382613 0)
(0.299561 -0.299752 -3.84995e-21)
(0.308341 0.277514 0)
(-1.26691 -0.00407808 -4.75703e-19)
(-0.263514 0.44572 -1.18664e-19)
(1.75502 -0.435975 0)
(1.26341 0.0872629 1.28622e-19)
(-0.724683 0.246698 2.73042e-19)
(0.543983 -0.517419 -3.93706e-19)
(1.99924 -0.0966231 -5.96905e-20)
(0.622296 -0.56594 0)
(1.02313 0.117888 0)
(1.36638 -0.249095 0)
(1.11232 0.223154 -2.01526e-19)
(1.32969 0.108673 2.83645e-19)
(-1.38664 0.0798697 0)
(0.880839 -0.0600553 0)
(2.11024 -0.129498 4.12351e-21)
(-0.0681052 0.144756 1.01251e-19)
(2.60381 -0.113567 -3.62623e-19)
(1.07799 -0.521049 2.105e-19)
(2.03294 -0.0199694 -3.69247e-19)
(-1.15253 0.299832 -2.05796e-19)
(2.01188 0.140723 -2.43598e-19)
(1.01845 -0.0288209 3.58403e-19)
(1.50046 0.596592 0)
(-0.305978 0.596235 3.18506e-20)
(1.01848 -0.840817 1.3494e-19)
(0.862387 -0.0269292 4.20538e-20)
(0.647655 -0.453628 0)
(1.92863 -0.554151 9.5822e-21)
(1.22919 -0.191368 1.19248e-19)
(1.59054 -0.638488 0)
(0.617434 -0.573362 3.59966e-19)
(0.647604 0.104721 -3.22931e-20)
(2.47419 -0.0927944 6.59524e-19)
(-0.0974926 0.240476 -2.09811e-19)
(1.31573 0.608893 1.23416e-19)
(1.13445 0.400097 3.17958e-21)
(0.891777 0.365454 1.9783e-19)
(1.96339 0.162636 -2.66928e-19)
(-0.140393 -0.500795 -5.24839e-21)
(0.879732 -0.189994 0)
(-0.155044 -0.0944445 3.84749e-19)
(1.10652 -0.962816 0)
(1.07762 -0.663626 1.74869e-20)
(1.196 -0.0276858 -7.58943e-19)
(1.39969 0.0763331 -3.37749e-21)
(-0.608762 -0.265151 -4.35585e-19)
(0.97178 0.475798 1.53156e-19)
(-0.283808 0.314477 2.3908e-19)
(0.698954 -0.03602 0)
(1.74278 -0.164083 0)
(1.45648 0.162812 2.33779e-20)
(0.769891 -0.0101639 0)
(1.38868 -0.21358 -1.22704e-19)
(-1.63782 0.224798 6.12485e-19)
(1.90536 0.493985 2.80675e-20)
(1.04564 -0.0296581 0)
(0.565982 -0.37456 9.04358e-20)
(1.00757 0.0240482 1.70969e-19)
(0.660368 0.807869 -2.20491e-19)
(-0.468175 0.717426 0)
(1.12781 -0.491535 3.97746e-19)
(1.58701 -0.110112 -4.31995e-22)
(1.11671 -0.513366 -1.73343e-19)
(2.33584 0.26654 1.90555e-19)
(1.26673 0.77527 0)
(0.862998 0.0199978 0)
(-0.40003 -0.402165 -2.06195e-19)
(0.0227585 -0.0198683 1.4948e-19)
(0.934885 0.360477 -1.82186e-19)
(0.174459 -0.372489 -1.80766e-19)
(0.634609 0.390951 2.15862e-19)
(0.820864 -0.0695309 0)
(0.546916 -0.508596 0)
(0.992442 -0.18517 3.81167e-21)
(1.25083 -0.520798 -7.80246e-20)
(0.62099 -0.0310785 1.45502e-20)
(0.736395 -0.171577 1.0379e-19)
(-0.040735 0.072041 -2.67819e-19)
(1.34445 0.225704 3.48228e-19)
(0.644031 0.59984 0)
(1.25084 0.682403 0)
(1.59023 0.260702 0)
(-0.428351 -0.361254 -1.88962e-19)
(1.22789 0.548626 2.0463e-19)
(2.02672 0.0878592 5.82223e-20)
(0.932566 -0.00284845 0)
(1.33273 -0.446459 0)
(2.20816 -0.105703 -4.07726e-19)
(0.608758 0.368902 2.52668e-19)
(1.008 0.00130442 -1.71031e-19)
(1.47703 0.460998 0)
(-0.306793 0.698496 0)
(1.23657 0.3181 2.46865e-19)
(1.0057 0.519129 -1.13071e-19)
(1.07025 0.0242038 0)
(1.71266 0.214075 0)
(1.94587 0.66965 -3.05251e-19)
(-0.103206 0.456869 -1.85323e-21)
(0.996881 0.0135872 0)
(0.694284 0.456905 -2.95615e-20)
(0.948921 -0.836082 0)
(1.01146 0.0167034 3.96608e-20)
(1.00336 -0.454397 3.98313e-20)
(0.912865 -0.341583 2.60788e-19)
(0.973638 -0.227305 -6.52249e-20)
(2.23218 -0.139313 4.21219e-19)
(1.26314 0.135478 8.95161e-20)
(0.782556 -0.0249843 0)
(1.01938 0.00961887 0)
(-0.636756 -0.369682 0)
(0.649224 0.621213 -1.6451e-19)
(-0.00690319 0.0248525 1.80888e-19)
(1.15891 0.34195 -3.96511e-19)
(-0.590745 0.466416 0)
(0.810487 0.625294 1.47798e-19)
(1.01843 -0.352903 0)
(1.00554 -0.00208734 1.00075e-19)
(0.156351 0.0490025 6.4675e-20)
(1.019 0.39949 2.23571e-19)
(1.4734 0.264379 0)
(2.17457 0.219399 -9.83995e-20)
(0.829854 -0.122308 -3.16859e-19)
(-1.26315 0.0242802 -6.49209e-19)
(1.10168 0.254524 0)
(0.868757 0.230543 1.54403e-19)
(2.08141 -0.154798 0)
(0.761166 0.506827 3.20366e-19)
(-1.6784 0.182939 2.59805e-19)
(-0.0206405 0.0663055 0)
(0.574978 0.546202 -6.22891e-20)
(1.03905 -0.652011 -1.22888e-19)
(0.492977 -0.276581 -1.07786e-19)
(1.02202 -0.019347 0)
(-0.458805 0.425752 -2.71517e-19)
(0.650222 -0.582865 6.95365e-20)
(0.89317 0.279199 0)
(1.63943 -0.686941 1.1389e-19)
(0.961787 0.81855 2.08632e-20)
(1.04042 -0.405508 -3.16016e-20)
(0.261583 -0.295967 -2.8497e-19)
(0.24106 -0.0860302 -4.92053e-19)
(-0.134134 -0.285599 1.06758e-20)
(0.808015 0.349152 2.17872e-19)
(-0.220859 0.513188 -5.33189e-21)
(1.43468 -0.659151 3.56806e-21)
(1.02651 0.00429724 -2.96006e-19)
(-0.49977 -0.355968 0)
(1.02899 0.0254829 -3.50675e-19)
(2.15326 0.243093 2.21927e-19)
(0.868076 0.672206 2.46426e-19)
(1.13216 -0.073013 1.36015e-19)
(1.00441 -0.0338052 1.37144e-19)
(1.46369 0.0850973 3.17935e-21)
(-0.323511 -0.351483 -5.17037e-23)
(1.74901 -0.885353 1.54384e-20)
(1.14825 -0.141669 -5.93996e-20)
(0.80568 0.0501438 6.78306e-20)
(0.917903 -0.310996 7.72486e-20)
(0.83708 0.178651 0)
(0.941463 0.716465 0)
(0.706147 0.30046 -7.71129e-20)
(2.06021 0.19218 -3.2756e-20)
(-1.17165 -0.0388189 2.22375e-19)
(1.04173 -0.55284 -4.24925e-19)
(0.629678 -0.550519 3.35862e-19)
(1.19569 0.261376 -1.60583e-19)
(0.291144 -0.431205 2.07227e-20)
(1.44684 -0.403328 0)
(0.75385 0.10234 -5.95755e-21)
(1.44476 -0.52828 -5.08834e-20)
(1.01836 0.743612 0)
(1.2778 -0.542445 0)
(0.583682 0.163861 0)
(-0.232148 -0.365839 -6.97979e-20)
(-0.142832 0.159323 0)
(1.53031 0.665823 2.87519e-19)
(1.21399 0.179162 5.47483e-21)
(-1.19018 0.190441 2.64506e-19)
(1.66155 0.548865 1.85434e-20)
(1.79617 0.469691 -7.77536e-20)
(2.1737 -0.345079 -4.35884e-20)
(-0.171458 0.00212547 -2.09009e-19)
(-0.23875 -0.414054 5.29335e-21)
(0.95531 0.0883811 0)
(0.679356 -0.0336782 0)
(0.998737 0.000922577 1.84537e-22)
(-0.446741 -0.359547 0)
(1.53943 0.00499721 -1.41466e-19)
(0.680311 -0.0316958 0)
(1.06156 0.00267067 1.08879e-19)
(0.998024 0.0157883 -3.88527e-20)
(1.27753 0.186958 2.18306e-19)
(1.06317 -0.0169271 -8.00682e-22)
(0.954087 -0.20238 -4.67079e-20)
(1.02832 -0.036 3.17466e-19)
(0.683616 -0.624044 1.56249e-19)
(-0.771744 -0.179851 -2.73268e-19)
(1.12497 0.389485 3.62356e-20)
(0.0230781 -0.0140875 0)
(1.10342 0.776827 0)
(1.02983 -0.0107541 0)
(1.01587 -0.785291 -8.32934e-20)
(1.05319 -0.902165 1.60548e-20)
(0.772585 0.106861 -4.17083e-20)
(-0.0259613 0.263579 -8.70571e-19)
(1.27011 -0.306314 9.60709e-21)
(0.59889 -0.407101 -5.50858e-19)
(1.16874 0.427582 -4.74558e-20)
(0.994291 -0.0453494 -6.74529e-20)
(2.10068 -0.3527 1.35564e-19)
(0.387407 0.0771898 -3.18765e-20)
(-0.338687 -0.440099 -1.45523e-19)
(1.09692 0.542925 1.70101e-19)
(-0.0298382 -0.389388 0)
(0.0814492 -0.434853 4.41827e-19)
(-0.0704133 -0.128717 -4.49957e-23)
(1.0362 -0.0430637 2.86714e-19)
(1.02526 0.000630254 -7.35094e-21)
(1.10395 -0.0121406 -7.9342e-20)
(1.31089 -0.00573548 -1.0388e-20)
(1.6075 0.315083 4.27284e-20)
(0.410577 -0.386772 -2.72085e-19)
(0.761869 0.0392961 7.68332e-20)
(1.03577 -0.00201696 -2.09368e-19)
(0.961478 0.250499 -3.7299e-20)
(1.25414 -0.031857 0)
(1.09147 0.58061 -3.18529e-19)
(1.00446 -0.00502352 8.17223e-20)
(0.656673 0.585271 2.29097e-19)
(1.29191 -0.162531 6.02639e-22)
(1.065 -0.0141667 -2.60783e-20)
(1.12681 0.0119549 7.39613e-22)
(2.54014 0.0318055 2.37089e-20)
(0.181226 0.0562569 0)
(1.05316 -0.0416239 0)
(1.05877 -0.034752 5.03332e-19)
(1.00132 -0.00463099 0)
(-0.0481012 -0.0937199 0)
(0.963972 -0.587854 0)
(1.00086 -0.00127907 -4.75156e-19)
(1.17194 -0.692083 6.39525e-20)
(1.02429 -0.00378468 9.94166e-21)
(1.31719 0.937992 -1.87181e-20)
(1.49783 0.986672 -3.9724e-20)
(1.16356 -0.120225 -1.48858e-20)
(1.53342 0.293146 2.29148e-19)
(1.26153 0.258099 0)
(0.0159327 0.564506 0)
(2.20479 -0.0297454 5.55081e-19)
(1.25438 -0.711261 0)
(1.0021 -0.00589541 -1.47413e-19)
(1.00953 -0.000531266 2.86263e-19)
(1.42588 0.146758 -5.89615e-20)
(0.00092813 -0.12434 2.97526e-19)
(0.968565 -0.00148535 1.55467e-19)
(0.263311 -0.0469019 4.56884e-20)
(0.270006 0.0587182 -3.98452e-20)
(1.32898 -0.00562153 -1.44499e-22)
(0.928212 0.0169789 -1.55976e-19)
(1.00151 0.00313555 1.84715e-19)
(0.999744 -0.000173515 1.09088e-20)
(0.789238 -0.0132657 0)
(0.726321 -0.0276265 0)
(0.723067 -0.0281761 6.55891e-22)
(0.70002 -0.0292993 0)
(0.662321 -0.166332 0)
(0.0875871 0.00390967 0)
(0.13215 -0.0141631 3.66754e-20)
(0.344772 0.124838 -2.27523e-20)
(1.09339 0.0811955 0)
(1.33314 0.0344006 1.29657e-21)
(1.30766 -0.0289071 0)
(0.137195 0.00641855 0)
(-0.0160823 0.00130256 0)
(-0.000249896 0.0321032 8.51363e-22)
(0.510237 0.142236 6.27068e-20)
(0.792909 0.023505 0)
(0.795575 0.0207477 0)
(0.96668 0.0184856 -1.92343e-19)
(0.823476 0.00707152 3.60332e-19)
(1.0063 -0.00100004 0)
(0.999721 -0.000782362 3.41089e-19)
(0.999826 -7.41177e-05 -3.21958e-22)
(0.796162 0.0229373 3.05275e-19)
(0.990948 -0.00658511 -1.78519e-19)
(0.303879 -0.0266507 0)
(-0.004505 -0.00790655 3.98805e-20)
(1.00111 -0.00117141 -1.72547e-19)
(1.00049 9.70833e-05 -2.95855e-19)
(1.08835 -0.116064 0)
(1.00017 0.0020957 0)
(0.999478 0.000282331 0)
(1.38879 -0.277872 2.12454e-20)
(1.06942 -0.0243143 1.12271e-20)
(0.923431 0.218607 0)
(-0.37122 0.435312 2.10181e-19)
(-0.869012 0.428371 -4.23534e-19)
(1.02079 -0.0159528 -2.29665e-19)
(-0.364665 -0.458237 -1.31616e-19)
(1.02085 0.000329387 -1.84401e-19)
(1.19676 -0.218343 -7.46189e-20)
(0.807456 -0.489825 2.58968e-19)
(-0.070565 -0.10999 -9.98354e-20)
(1.0285 0.0114263 0)
(1.05116 -0.00825827 -5.01362e-20)
(0.862614 0.0231863 0)
(-0.0232598 0.0287488 2.6374e-19)
(1.22899 -0.627223 0)
(-0.45918 -0.349268 -3.29109e-19)
(0.284971 -0.0166443 -4.30066e-20)
(1.63377 0.675424 2.48357e-20)
(-0.0544652 -0.0484145 0)
(1.06173 -0.0379075 1.55527e-19)
(1.21872 -0.148567 1.74467e-21)
(0.92564 -0.0202577 2.45427e-19)
(1.01386 -0.00822351 -1.56489e-19)
(1.64585 0.85024 4.94827e-20)
(0.506519 0.47401 0)
(0.428952 0.377903 1.81843e-19)
(1.3269 -0.334009 -5.25277e-21)
(1.14237 0.124346 1.6742e-19)
(1.09933 -0.721725 0)
(1.02275 0.00351301 0)
(1.00129 -0.017873 -3.6091e-19)
(1.01632 0.0129478 -3.50743e-19)
(-0.178134 -0.4126 0)
(1.19901 0.804088 -1.06294e-19)
(1.34268 -0.136758 -6.4159e-22)
(1.01384 0.0013862 1.3521e-19)
(1.00733 0.015647 -1.69531e-19)
(-0.508591 -0.284997 -3.22802e-20)
(1.18638 -0.0164108 -3.62071e-20)
(1.01653 -0.0175029 5.77012e-19)
(1.21144 -0.0176204 0)
(1.83143 0.646866 -6.00697e-20)
(1.0159 -0.0142453 -1.79674e-19)
(1.98559 0.121667 -1.51673e-19)
(1.06106 0.00858427 -4.14712e-22)
(1.00867 -0.0110632 3.59864e-20)
(2.12005 -0.26238 -3.47803e-19)
(1.0155 0.00631992 1.74085e-19)
(1.25422 0.186626 6.64772e-21)
(1.01571 0.00240109 0)
(0.923933 0.135967 4.3396e-20)
(-1.3633 0.189917 6.55153e-21)
(0.998258 0.0204173 1.73046e-19)
(1.03672 0.0220912 -6.59629e-22)
(1.25841 -0.0705322 -5.79424e-22)
(1.24727 0.312921 3.48919e-19)
(0.999401 0.015046 1.18691e-19)
(1.01744 -0.0132652 3.7318e-22)
(1.71681 0.258827 -1.33012e-20)
(1.73582 0.92471 -1.04255e-19)
(0.785333 -0.704714 4.69226e-20)
(0.465143 -0.350854 -2.68081e-19)
(1.00723 -0.0115717 0)
(1.01971 0.00228791 4.32894e-20)
(1.00943 -0.00609872 9.13099e-20)
(1.20845 0.106267 3.3392e-21)
(1.01235 0.00425696 -1.81302e-19)
(1.02871 -0.0283114 2.06589e-19)
(1.00906 -0.00719211 -1.70797e-19)
(1.01451 0.00292985 -5.47432e-22)
(1.01362 0.0043609 -3.50585e-22)
(1.02348 0.0129468 1.73381e-19)
(0.897431 0.0727185 4.46111e-19)
(1.73867 0.602361 0)
(0.485989 0.0284842 2.83765e-19)
(1.01242 -0.00415766 0)
(1.02242 -0.0190898 -5.03168e-20)
(1.52328 0.448143 -5.87786e-20)
(1.84077 -0.0153561 0)
(2.05237 -0.422284 -9.41955e-20)
(1.31124 0.58886 -4.6423e-20)
(0.763889 -0.0141211 0)
(1.98059 -0.0619827 0)
(0.259281 0.297442 -1.52518e-19)
(1.3442 0.0628343 -1.27419e-21)
(1.01721 -0.0057762 -1.82686e-19)
(1.13238 -0.574945 -4.87638e-20)
(1.263 -0.0108738 -8.25794e-21)
(1.50577 0.479665 0)
(1.31079 -0.29193 0)
(1.81157 0.471301 0)
(0.170292 0.551971 9.33873e-20)
(1.35833 0.187205 3.41766e-20)
(-0.0378267 0.230909 0)
(-0.0614649 0.6559 -3.30739e-19)
(1.66938 0.953007 -7.27107e-20)
(1.00976 -0.00366841 -3.57115e-19)
(1.31585 0.117204 7.44767e-21)
(1.02223 0.00623482 2.35955e-19)
(0.696517 -0.0391603 0)
(-0.13369 -0.37912 -3.05996e-20)
(0.599481 0.414443 -3.04e-19)
(1.75725 0.654692 8.45044e-20)
(0.113714 0.700503 0)
(0.800809 0.0942382 6.27423e-20)
(0.505187 0.482003 4.58967e-20)
(1.16333 0.866794 -2.84531e-20)
(-0.0301408 -0.0185694 1.48449e-19)
(1.01847 0.00900918 0)
(1.44834 0.290959 2.09776e-20)
(1.01016 -0.00198481 1.34132e-19)
(2.44324 0.160828 0)
(1.01015 0.00672764 2.24807e-19)
(0.140846 -0.436646 -2.1003e-19)
(1.02097 0.010674 -1.39081e-19)
(1.43552 0.244207 0)
(1.84013 -0.45823 4.67243e-22)
(1.01007 0.00580944 -9.3417e-20)
(0.994785 -0.0330178 2.46709e-19)
(1.08842 0.0948295 -2.44217e-21)
(1.25857 0.281207 -3.55078e-20)
(-0.152244 -0.0616835 3.88428e-19)
(1.95961 0.341685 1.96449e-19)
(0.821701 0.183631 4.12135e-20)
(0.809277 0.0136356 -3.37418e-19)
(0.804379 0.0237009 0)
(0.93472 0.0703905 4.25761e-20)
(1.02407 -0.0134735 -2.70395e-20)
(0.970694 0.018526 0)
(1.04856 -0.0012801 -1.71854e-19)
(0.508518 -0.396101 -5.30514e-20)
(-1.57878 0.106412 2.91834e-19)
(2.17485 -0.606203 0)
(-1.0172 0.00404499 -8.90957e-19)
(1.54144 -0.350613 0)
(1.03772 -0.0188286 5.04373e-20)
(1.02651 -0.0842355 1.75341e-21)
(1.01563 -0.00217565 1.44994e-19)
(-1.10077 0.199771 5.51466e-19)
(1.01776 0.00308774 0)
(0.991346 0.00436643 -3.506e-19)
(1.00864 0.00703421 1.84432e-19)
(0.888933 0.122578 0)
(0.795601 -0.157513 -7.8506e-21)
(0.961204 -0.00104641 -1.58122e-19)
(-0.302538 -0.476785 4.58022e-19)
(1.00437 -0.00139994 -1.80009e-19)