/*--------------------------------*- C++ -*----------------------------------*\
| =========                 |                                                 |
| \\      /  F ield         | OpenFOAM: The Open Source CFD Toolbox           |
|  \\    /   O peration     | Version:  2306                                  |
|   \\  /    A nd           | Website:  www.openfoam.com                      |
|    \\/     M anipulation  |                                                 |
\*---------------------------------------------------------------------------*/
FoamFile
{
    version     2.0;
    format      ascii;
    arch        "LSB;label=32;scalar=64";
    class       volScalarField;
    location    "0.6";
    object      p;
}
// * * * * * * * * * * * * * * * * * * * * * * * * * * * * * * * * * * * * * //

dimensions      [0 2 -2 0 0 0 0];

internalField   nonuniform List<scalar> 
2186
(
0.770254
-0.813952
-0.266865
1.09668
0.255917
0.0453364
0.646227
0.116057
0.0721691
1.34627
1.05193
-1.51762
0.175363
1.21747
-0.984592
1.16341
1.2536
0.273748
0.0149309
-0.636908
1.43923
-1.41677
1.20059
-2.40409
1.15859
1.06079
1.28843
0.906826
0.513219
1.20825
-1.06232
1.18707
-0.181392
0.13777
-0.593603
-0.113616
0.140306
1.42543
0.0543466
0.0514708
0.186384
-0.915184
-1.28155
-0.550899
0.838057
1.32591
0.189385
0.458945
0.13457
0.189093
-0.723098
0.871347
-0.873099
1.35866
-0.238884
0.967307
-1.79989
0.993251
0.0407082
0.863528
0.108046
0.633975
0.502523
0.0234511
0.537039
0.419465
0.604439
1.34505
1.23497
0.0665876
0.102071
0.0867486
1.30548
1.02908
1.23005
1.18863
0.133993
1.23111
-0.397474
-0.156839
0.172045
0.0307668
1.21557
0.580946
1.17218
1.19236
1.32735
0.0585776
0.0738135
-2.49257
0.947225
-0.0769976
1.102
1.21232
1.21927
0.34064
-0.469991
0.561189
0.21743
1.007
0.166955
0.161167
0.627531
1.17553
1.2667
-0.0044747
1.23997
0.117104
0.933107
0.114458
-0.279277
0.145372
0.480368
1.35159
0.0591383
0.33375
0.0596555
0.110416
-2.37621
1.30418
-0.358326
0.16618
0.826511
0.25875
1.17568
0.0342465
0.196842
1.17598
0.276699
0.62142
1.4242
1.27443
0.0282208
0.605373
0.149747
0.148601
0.938664
0.0528411
0.0393777
-0.190122
0.753892
-0.184388
0.0806538
0.671301
1.04328
1.1819
0.0596979
0.270028
0.592176
-0.433297
0.076249
0.530695
1.24439
1.21527
1.06812
0.492685
1.32532
0.47021
0.425247
0.346587
-0.237606
0.226495
1.12135
0.994103
0.0255687
0.00908215
-1.61991
-1.02339
0.0834295
0.0785526
0.347564
0.998139
1.25906
1.14408
0.318479
0.0442154
0.306629
1.12273
0.251213
0.837956
-0.858199
1.19994
-0.423128
0.466118
0.394443
0.32232
0.357707
1.15487
-0.00219427
0.243207
0.353898
1.30818
0.141872
0.972572
-0.3267
0.117029
-0.291052
1.23678
1.08314
-2.5269
0.13365
0.138905
-0.164449
1.15849
-3.13146
0.151352
-2.15168
0.102623
1.10059
0.0985669
0.534618
0.0723637
1.33952
0.791599
0.909066
0.948096
1.20689
1.16688
0.913195
1.11991
0.453546
0.338256
-0.0986502
-0.0803332
-0.0155284
0.267486
0.203599
1.04598
1.17925
-0.163867
-1.13192
0.12806
0.286938
0.64
0.800967
0.914126
1.16042
0.26438
0.925311
-0.0606065
0.223441
0.354038
1.00095
0.667867
1.17358
1.26863
1.1284
1.10871
0.030465
0.827157
1.18832
0.120905
0.987564
0.726688
0.156467
-0.1129
-0.0136831
1.17748
1.2223
0.22609
0.103009
0.0741381
0.974978
0.241449
0.726677
1.0917
1.08116
0.0344597
-0.433713
1.15826
0.649052
0.0455196
0.0767074
1.38579
0.130748
0.0558259
1.10851
1.21871
1.18514
0.260525
0.10478
0.047406
0.896828
0.162871
0.479777
1.199
1.02168
-0.229425
0.115313
1.12994
0.0729085
0.939309
1.23935
1.24847
1.24665
0.103078
0.112607
-3.17676
0.121884
0.143377
0.131182
0.24769
-0.550353
0.50926
1.21104
1.23681
0.88287
0.111657
1.24187
0.161611
0.0627576
0.216271
-0.269485
0.288397
0.22729
0.0455214
-0.0753845
-0.134047
0.942207
0.0694969
0.212168
0.0879555
0.106064
0.31176
0.146228
1.2667
-0.386804
0.0627751
-0.134336
0.783061
0.687472
0.0909835
0.591767
0.143003
0.270615
0.583757
1.17402
1.08775
0.118148
1.2314
0.902251
0.249922
1.28029
1.19922
1.1186
0.37389
0.0949326
-0.162585
0.842237
-2.80066
-0.0976095
0.19142
0.349066
-2.3654
1.40546
0.0889256
-0.683084
0.103177
1.21122
0.31298
0.141572
0.0933788
0.74898
0.0868695
0.252559
1.30009
1.35733
1.16437
0.100526
0.0770405
1.42244
1.16047
0.339921
0.439774
-0.0276104
-0.0624498
1.20561
0.994156
0.977815
1.34058
-0.0964051
0.0956427
0.0605046
0.0741197
0.149264
-1.15148
0.0475328
1.35102
0.233373
0.0649145
1.17118
0.536335
-0.0673093
0.240769
-0.122173
0.229719
0.236063
-0.354507
0.000708599
0.169078
1.23116
0.0923492
0.324433
1.20088
0.203788
1.3002
0.273772
0.215224
0.114945
1.20146
-0.548468
1.22997
0.854603
0.128602
1.1002
0.166911
-0.678375
0.16699
1.03909
1.12172
-0.0201001
-0.0146455
0.235322
1.00066
0.231765
0.15355
0.376803
1.04379
1.04275
0.721773
0.00208384
0.0864948
0.856656
0.0724024
1.06105
0.118867
1.20432
-0.1254
1.15924
-1.99692
0.862676
0.68775
1.26079
0.136317
1.14733
0.0607054
-0.779876
1.20303
0.124872
0.244949
0.370203
0.107748
1.1822
0.224978
0.229655
1.13563
0.0596438
0.107772
0.000929686
-0.818147
0.423011
0.2391
0.684799
-0.0980672
1.08675
1.17838
0.0562386
-0.378288
0.0904495
-1.81297
0.428733
0.325311
0.807702
0.147343
0.195298
1.15174
0.0938755
0.193534
0.126657
0.0837232
0.758315
0.1622
0.0778206
0.12585
0.0905639
-0.522496
1.21187
0.125811
1.165
1.2612
1.24444
0.605343
1.19756
0.178561
-0.231433
1.08767
0.0589156
1.15825
-0.597321
0.233996
0.237551
0.832258
-0.587537
0.2256
-3.66317
-3.63707
0.0645818
0.0969255
0.710834
0.760663
0.107232
0.00603651
0.737717
-0.213576
1.16286
0.122298
-0.283843
-0.515547
0.714083
0.039678
1.21904
1.44005
0.242485
0.183543
-0.72796
0.324441
0.230956
1.07081
0.0295922
1.02188
0.79654
-0.530439
0.840987
0.862113
0.225449
1.07818
0.122919
-0.178989
0.105649
-2.75239
0.121901
0.274221
0.10216
1.1641
0.148249
0.162188
0.536361
1.23764
1.25024
-0.311288
0.785751
0.0894561
0.775621
0.0520476
0.106012
-0.0709563
0.428654
0.796314
1.08964
0.1504
0.0406113
0.137218
-3.3755
-0.530528
0.711077
0.164366
-0.00173405
0.296917
0.958428
0.132963
1.10522
0.0936471
0.0898307
1.14587
0.667769
0.266313
-0.190442
1.11271
1.33306
1.22824
0.113937
0.24705
0.800102
0.10521
0.763215
0.113794
0.352193
1.12341
0.274208
-0.587679
1.05057
0.137051
1.27282
0.0374083
0.887229
0.0525434
0.630253
-0.288846
1.28724
-0.327045
0.167452
0.967111
0.45561
0.495096
0.257927
-3.00066
0.0926744
0.823541
0.0841197
0.103801
0.116668
1.1982
0.336329
0.214796
0.738544
0.883575
1.13301
0.131112
-1.9116
-0.0142374
1.20631
1.20221
0.421161
1.2039
0.0692945
1.08988
0.067305
0.0948228
0.0924688
1.07621
1.16959
0.244645
0.831513
-0.32556
0.816166
0.308132
1.00854
0.975504
1.24136
0.117487
0.902287
0.147603
0.0279661
1.23646
0.22695
0.128409
1.13797
0.106997
1.12579
0.223997
-0.179276
1.06297
0.766378
1.40327
1.16939
0.225873
1.12058
1.11641
0.0987405
0.557639
0.060834
-0.0385185
1.54664
-0.13118
1.16851
0.112925
0.260763
1.1665
0.277375
1.16122
0.135746
0.916998
1.13438
1.14574
0.014806
0.264264
-1.29222
0.592192
0.614829
1.11605
0.0824774
0.805761
0.135001
0.0284197
0.267664
0.861376
1.18698
0.064715
0.055254
0.0687765
1.27249
0.0802985
0.687533
0.0933983
0.182196
0.0367565
-1.59043
0.103699
0.843148
0.141129
0.0762386
-0.210242
-0.0394125
-3.90289
0.196336
0.0501149
1.13236
1.23804
0.275535
0.151797
1.1536
1.12589
1.21596
0.165246
1.13765
1.12472
1.15033
1.09515
0.120682
0.0535556
-0.505405
0.535691
1.15308
0.701243
-0.0853531
0.0761792
0.162738
0.0750367
1.29915
0.0490763
0.0486195
-0.0278428
0.0757766
0.146428
0.768613
-0.175444
0.194813
-0.567607
1.1842
1.18251
1.17757
0.0209503
0.368247
1.28374
0.0361736
1.16005
0.0385581
0.0317151
0.733027
1.29109
1.11683
0.0909637
1.11714
1.12782
0.103193
0.0605232
1.20491
1.25538
1.27015
-0.404726
-2.97259
1.29946
0.572353
1.19591
-0.0328022
-0.58815
0.0467304
0.111307
0.0634686
0.0395009
0.118358
0.0774867
1.2327
1.34799
0.785834
-3.07943
1.18538
0.0619136
0.0359297
-0.00413762
1.22593
1.21411
1.20811
1.34005
1.20985
1.2001
1.1864
0.0858954
0.0257306
0.0512508
0.0794822
0.00937466
-0.00301082
-0.0149548
0.0313921
0.00876265
0.0583489
0.0812809
1.23128
1.20886
1.21396
1.32337
1.33356
1.3072
1.33028
1.19974
1.20911
0.0333256
0.0665466
1.20639
1.22984
0.0094549
1.31117
1.28351
0.0507293
0.048048
0.047177
0.30123
0.120604
1.19254
0.179635
1.17191
0.60634
1.10538
-0.19658
1.21899
1.08804
1.15871
-0.459881
0.079643
0.278093
0.0549878
-0.232398
-2.4568
1.22102
0.0461981
1.18943
1.20095
-0.562049
1.21618
1.37342
0.0783121
0.904412
0.627742
1.1791
1.21267
1.20922
-0.0997025
0.394445
0.0399509
1.2316
1.22618
0.318343
0.0409334
1.18496
0.0552944
-0.615242
1.21544
0.0564504
1.14017
1.2597
0.0845732
1.2044
0.0531096
1.17961
1.1547
0.197898
1.20663
1.23225
0.0377467
0.692105
1.2063
1.183
0.273202
-2.03942
0.706535
1.39736
1.21621
1.20944
1.21265
0.0387766
1.20298
1.15007
1.22694
1.20285
1.19586
1.20361
1.19968
0.0838758
0.189826
1.20289
1.18872
0.261067
0.11722
0.114047
0.0910477
1.02833
0.125382
0.103517
0.0104752
1.18851
0.730882
0.0505753
0.0587691
0.0800729
0.0814013
0.0744002
0.0410773
0.103318
0.189971
-0.925326
1.21036
0.0463424
1.19933
1.10468
-0.207225
1.28947
0.0767712
0.143726
0.787235
1.1719
0.320826
-1.18359
1.16233
0.0660433
1.20908
0.132305
1.21163
0.1703
1.17937
0.0617146
0.112692
1.22069
1.18885
1.0733
0.0701251
-2.72432
0.0129472
0.0675268
1.20717
1.06338
0.0610612
1.16023
1.15088
1.15761
0.0783898
0.215316
-0.555339
0.202497
0.347747
1.1916
0.0193154
1.22459
0.217309
1.1784
1.33715
1.20942
-0.01649
-0.0101591
1.28109
0.125581
1.2236
1.16661
-0.0380203
0.131692
0.959714
1.18583
1.19458
1.17795
0.0734936
0.098658
1.18523
0.347562
1.21322
0.849221
0.347499
0.0507066
0.966822
1.28162
1.1561
0.245418
0.098878
0.0620734
0.136842
0.102489
1.15122
0.139985
1.13107
0.293975
-0.278781
0.189048
0.42321
0.104598
0.089634
0.093989
1.1861
-0.934917
0.92371
-0.0999951
-0.593447
0.0887484
0.0492291
0.0945333
1.1424
0.0707201
-0.276975
0.087974
0.0795221
1.18188
0.101675
0.0405174
0.184092
1.12966
0.0827501
-0.0996701
1.18322
1.15998
1.16544
0.52456
-0.507368
1.17147
1.15179
0.128693
0.0387219
1.21055
0.797359
1.2997
1.23682
0.0858999
0.112304
0.0334665
0.301117
0.333551
-0.608675
0.0802002
0.102226
0.793718
-0.36786
1.16055
1.27224
1.17503
-3.00201
0.11225
1.1741
0.108901
0.115831
1.1942
0.0430698
0.347659
0.220968
0.0630957
1.08953
1.08014
0.110674
0.956545
0.643268
0.128138
1.16233
0.214358
0.876464
-0.067833
1.03559
0.140172
0.412777
1.16955
1.13668
0.177222
0.262534
0.89395
1.42162
1.25813
1.04895
0.118257
1.29405
-0.0749711
0.0833838
-1.21792
0.40948
0.158354
1.21317
1.19377
-0.0391286
0.114024
1.14698
0.0782521
0.818456
1.24082
1.06161
0.158709
1.17787
0.002654
1.23092
0.00706902
0.0929627
-0.610405
1.17578
0.0334383
-0.82306
0.0941614
1.14791
0.0961135
1.22979
0.108467
1.37451
1.01817
0.081632
1.14723
-0.12164
1.09893
1.1398
0.0780582
0.0967049
1.16391
1.1483
1.27335
1.10595
0.0220791
1.09675
1.1651
0.845291
1.1751
0.0133292
0.283036
0.115137
1.1774
0.135736
0.112539
-0.233951
0.112705
0.0896688
0.0321946
0.883256
0.0849731
1.15771
1.14485
0.0600267
0.0916338
0.0810362
0.134171
0.0474374
-0.10625
1.17217
0.127501
1.14731
1.26807
1.15278
-0.0131467
1.25394
1.0981
0.144908
1.10718
1.14832
0.352448
1.1355
0.964309
0.0765113
0.126213
1.51348
0.125602
0.319461
0.215909
0.0646984
1.21327
0.309587
0.112514
-1.9592
1.18812
0.116533
0.864847
1.15166
1.14041
0.0974087
1.12338
0.146213
1.20629
1.25722
-0.0830526
1.24846
0.418081
1.15865
0.744902
0.196458
0.00229998
-0.00665957
0.0769323
1.28825
0.0652986
1.13774
1.44772
0.106408
0.0241429
1.35092
-0.00318359
1.2774
0.0158819
-0.00996798
1.28189
1.33527
0.336151
0.196139
0.759695
-0.233548
0.0781003
-1.44435
1.14015
1.11898
1.47638
-1.22209
0.10874
0.740442
0.300102
1.17141
1.04435
1.12337
1.14963
1.16179
0.23264
-0.445286
0.265197
0.861187
1.07483
0.17498
-0.0417163
-0.0434212
1.21075
1.17242
0.0834006
0.250869
1.15573
0.13228
0.292897
0.773913
0.95164
0.0568857
0.251721
-0.00610059
0.285556
-0.322701
0.190144
0.137003
1.42725
1.42218
0.30148
0.305931
1.27055
1.17126
0.315746
-0.107978
-0.946318
0.629018
1.20488
0.115958
1.19378
0.136138
0.225891
0.120561
0.322223
-3.74274
1.13443
0.272819
0.141962
1.4153
0.244904
1.20349
1.27769
-0.0113605
1.08678
1.30597
0.213296
1.30277
0.212907
0.201744
1.06631
0.0727467
1.05328
1.23056
0.181744
1.1677
0.0174139
0.237918
1.17141
1.07303
-2.50279
0.270242
1.07189
1.17372
0.0635758
0.194788
1.34484
0.150947
1.03211
0.0754673
1.10048
-0.822468
0.197475
-0.0832491
0.245064
1.14237
1.14941
1.3439
1.2653
1.02213
1.18523
1.11605
-0.141063
1.18929
1.19823
0.113458
0.104013
0.345629
1.3849
0.122735
0.173849
0.0834163
0.975777
0.146759
0.326853
1.06715
1.06204
-0.0324424
-0.00780945
0.160667
0.0504653
0.184253
0.184849
-0.209491
0.926297
0.922543
-0.157689
-0.290249
-2.26106
0.864809
0.146434
0.273859
-0.290218
0.981245
0.216457
0.0352189
1.38319
1.08142
0.434187
1.24568
0.098424
1.0231
1.14759
1.23509
1.26305
0.0604174
0.668594
1.04396
0.0906313
-0.379398
1.48184
1.12084
0.965873
1.1651
0.0753345
0.200772
0.897474
0.834876
1.17543
0.219917
0.197788
1.17339
-0.140427
0.81691
0.0799538
1.47415
-0.501059
0.735943
0.743715
-0.372581
-0.630628
0.15219
1.08702
-0.283833
-0.723983
0.696845
0.59119
0.319512
1.17536
0.834068
-0.217943
0.345632
1.07037
0.209082
-0.829746
0.0992807
-1.3605
0.119739
1.07935
1.15627
0.17279
0.595358
1.16599
1.39574
0.193803
0.139257
0.0609598
0.889535
-0.886861
-0.487379
0.119498
-0.179733
-0.629963
1.10146
-0.219394
-0.0294314
-1.12138
0.500607
0.535017
-0.917149
0.632657
0.151772
0.436384
-1.33705
0.401204
-0.412986
0.294252
-2.00806
0.281374
-1.92557
0.84908
0.231048
-2.54441
-3.15799
-0.343321
1.24952
-0.176896
-3.45422
-3.08758
-0.250456
0.201022
-0.3109
-0.232223
-3.48868
-0.513144
-3.16347
-0.54146
-3.21109
-0.964172
-3.50644
-0.884353
0.979351
0.0443089
0.228106
1.07308
0.260505
0.046728
0.436437
1.17469
0.196714
0.219151
-2.87701
0.284732
0.965087
1.47507
0.0664298
0.0720446
-0.150518
0.277356
0.0249993
-0.692478
1.08323
0.353651
1.1215
0.122456
1.54768
0.407761
1.47739
-0.0545653
1.24307
-0.675913
1.0336
0.107384
-2.46667
1.12676
1.17247
0.188357
-0.964819
-3.8164
1.05467
0.0630796
1.15633
0.13082
0.0592143
-0.0625183
1.36405
1.10869
1.15831
1.11007
1.20007
0.0817074
0.0214785
1.26163
0.169184
0.32222
1.47357
-0.00516988
1.03014
1.00746
1.42516
1.48134
0.0303858
0.19024
1.1332
0.198001
-1.04378
-2.88187
0.101242
0.166726
0.00799789
0.549774
0.306613
1.25597
0.119315
1.08335
1.17887
1.12913
0.157712
-0.165347
0.333275
1.18322
0.358445
1.23257
-0.62196
0.355939
1.29355
1.3552
-1.47251
-0.113622
1.15666
0.319386
0.330387
0.668278
1.33097
1.24263
0.239637
1.00798
0.867914
-1.20091
1.2723
0.188655
-0.103213
0.102712
0.0303277
0.0368232
1.15831
0.38167
0.119594
0.0654675
0.0818474
0.365391
-0.342475
1.11424
0.20021
1.10237
-0.0431428
-0.0654749
0.679685
0.331028
-1.20103
-1.72669
-3.57421
0.0589597
0.0253548
0.1313
0.96691
0.225483
0.166038
1.08222
0.295113
0.131751
1.26178
0.0186042
1.00376
0.0354304
-0.0913712
-0.12182
0.806709
-0.170948
0.154116
0.922895
0.0299383
1.18549
-1.69766
0.361006
0.292776
-1.65697
1.54732
0.199771
1.16634
0.0517844
1.13509
1.24866
0.736765
1.14078
1.21212
0.0628066
0.156462
1.14217
1.12192
1.40892
0.255966
1.1628
0.668646
0.229781
0.778944
1.26241
-1.34134
1.40316
0.127619
0.313379
0.837429
0.196555
-3.03674
1.14222
-1.21982
1.18875
1.10052
1.05588
0.287875
0.941173
1.32389
0.299025
-0.0895852
0.188416
-3.59281
0.352121
-0.755794
1.40637
0.75275
0.229734
0.937661
0.163535
0.374824
1.32676
1.28497
0.184433
0.280907
-1.48842
-0.0132476
1.13002
0.196075
0.0337788
-0.109388
0.0155058
1.18489
0.0785434
1.44788
1.16532
0.941441
1.14267
1.36558
0.343304
0.132126
1.10793
1.17849
0.360994
1.1707
0.198483
-0.106959
0.0315429
1.13404
1.16673
-0.0538506
0.230412
0.54079
0.0513701
0.134528
1.10206
1.00053
0.29572
1.04577
1.09234
0.155531
0.125487
0.258533
-0.172443
0.00989475
1.35986
0.0876841
0.950474
0.169984
1.36293
1.01556
0.894176
0.9969
0.186337
0.081475
-0.24619
0.472612
0.0140539
0.951175
0.139716
-0.033285
0.899404
1.04527
1.26116
1.12053
0.0134131
1.24037
0.0104353
0.446493
0.826166
-0.265312
0.0938
-3.35401
-0.901061
1.21584
1.0042
1.22843
0.177927
-2.33609
-0.332391
-2.44149
1.20307
1.34012
1.22639
0.055244
0.39534
0.32497
-1.11856
-1.40674
-1.72623
-0.495358
1.14108
0.336339
-0.186771
0.0106582
-0.345831
0.707709
0.164098
-0.427321
0.103543
0.978788
1.48436
0.0311498
1.21802
1.54762
0.631719
1.26102
0.152504
0.0651749
1.45213
-0.55605
0.315184
-0.0307642
0.0101606
-3.40631
-0.320879
1.06635
0.728155
1.24866
1.20995
0.00585467
0.797742
0.0664538
0.0609049
-0.721741
1.21573
0.710747
1.23089
1.28112
-0.00639212
0.00382313
1.24523
0.0694241
-1.67211
-0.250024
-3.32193
0.620817
-0.421109
1.16504
0.656156
-0.503979
1.28591
0.0844408
-0.915907
1.18754
0.386202
0.346042
0.178133
0.549297
-0.129469
0.15012
0.944481
1.26814
0.0687284
0.105136
0.20518
-0.948313
0.129657
0.175365
-0.0015027
0.565345
0.347037
-0.546117
1.3183
0.0652153
0.21669
-0.746117
0.0440546
1.16552
1.08675
0.454128
0.484866
-1.09984
0.295954
-0.298058
0.347047
0.362729
-1.595
0.945085
-0.1221
-2.25581
1.50332
-2.89486
0.153579
-0.0153158
-2.76942
0.856554
-3.38655
0.233239
-3.15282
-0.30686
-3.49492
-0.373455
0.320922
0.0258744
1.22227
-3.47717
-0.657887
-3.20864
-0.716722
1.39702
1.44842
1.28385
1.21945
1.26053
-1.11548
1.17262
0.100693
1.07921
-3.03136
-0.0206346
1.3123
0.112888
0.488914
0.204449
1.44866
0.116762
1.38189
0.545819
0.791765
-0.0791957
0.0158843
-2.20807
0.116031
1.36307
1.2389
1.14328
0.626389
1.18701
0.888492
0.817726
-2.13807
-0.0396148
0.372259
0.0305119
0.780022
1.193
-0.309788
-0.0252856
-3.08408
0.1714
-2.71735
0.129046
1.39481
1.23481
1.25035
-0.000937486
-0.00369988
1.19061
0.109933
-0.963997
0.187034
0.246436
0.768082
-0.183412
-0.823645
-0.618158
1.12477
0.204542
-0.00636413
1.18187
0.577147
0.728976
1.18385
-1.28106
0.872903
1.20937
0.85616
-1.77137
1.18844
0.23468
0.347872
0.369851
-0.319609
1.50244
0.287533
0.0751736
0.18198
0.92099
1.07433
0.306176
0.284753
0.0462931
0.0446577
-2.59177
0.247566
0.0576633
1.15742
0.263363
1.08151
1.31807
1.13551
1.07011
1.1207
1.18455
1.1944
0.299142
-1.68085
-1.2529
-3.21595
0.0180372
-1.1095
1.20165
1.08591
0.168516
1.09734
0.374584
0.0855709
-2.41688
0.086853
0.544665
0.136025
1.16026
0.920187
0.161172
-1.19272
1.39143
0.192409
0.110188
0.0637083
0.26541
-3.17976
1.18307
0.766199
1.14235
0.307142
0.0828245
-3.31593
-0.716359
0.186286
0.121955
0.310376
0.214574
0.920517
-0.153693
1.50889
-3.59892
-0.299152
-3.16616
-1.51028
1.01068
-3.20319
0.324945
0.0311263
0.0275775
1.24297
1.25747
0.182814
0.113151
0.823777
-3.12274
-0.0637513
1.14278
0.15446
0.154408
0.097432
0.733937
-0.167479
0.20055
1.15607
0.0661883
0.0526264
1.14685
0.388821
0.295687
0.279509
-3.38129
0.15035
0.217458
1.36602
-0.438323
0.20321
-3.18258
0.777183
-0.0446658
0.385454
0.598883
0.788662
1.15112
1.12843
1.22235
-3.85392
0.955483
0.550683
0.313217
1.04935
-1.10112
-0.0412363
0.21367
1.21536
1.19842
0.0157215
0.385443
0.333163
1.04651
0.373614
0.117905
0.121027
-0.614577
1.32697
1.04141
-0.0313172
0.290942
0.0107425
-0.129774
1.04047
0.138972
0.997329
0.0800437
0.676699
0.831123
-2.28651
0.379348
0.957211
-1.28883
-0.00174132
1.33983
-0.243207
-0.142542
0.810536
0.296609
0.264389
0.0621737
0.316012
1.40225
-0.268062
0.258973
-0.0081731
1.35479
0.0598899
0.306116
0.592231
0.124015
-3.08885
1.38215
0.632557
1.04711
0.248332
1.28208
0.0775233
0.0395675
0.2147
0.225803
0.0809915
1.31476
0.50402
0.00501781
0.0394935
0.230071
1.17683
0.344149
1.32808
-2.80879
0.744515
-0.252625
0.224049
0.455893
0.408122
0.298141
0.0906707
0.331347
1.03864
0.196313
-1.84591
0.0835638
0.272164
1.37048
0.0286147
0.283959
0.115891
-0.216517
0.0639195
-3.17352
-0.287196
0.862107
0.200845
-0.0758722
1.43864
0.214747
0.273401
1.40591
-0.15687
-0.112736
0.361625
-1.63167
-0.364745
1.41111
-3.75105
1.32234
-0.427948
0.372095
1.21336
0.09649
0.3361
0.488068
0.302002
-0.346564
-0.0795516
-0.268763
0.865339
0.059613
-0.219079
-1.36973
-2.11787
-3.21468
0.885362
-0.666159
-0.0325289
-0.0534174
1.35514
-2.09642
0.276314
-2.32857
-0.419994
-3.43397
-2.79572
-0.103087
0.198366
1.29644
0.106124
-3.407
0.260259
-0.0547616
-0.797429
-3.23946
1.44026
1.36789
0.289875
0.370692
-3.29927
0.164658
-3.40313
1.45357
-0.0210679
1.11464
0.663201
1.33179
-0.207807
-3.43664
0.370733
-0.490493
0.21166
-0.479654
-0.156984
-0.364675
1.34618
0.0537253
0.00367716
0.0947574
-2.39776
0.36119
)
;

boundaryField
{
    frontback
    {
        type            empty;
    }
    Top
    {
        type            zeroGradient;
    }
    outlet
    {
        type            fixedValue;
        value           uniform 0;
    }
    bottom
    {
        type            zeroGradient;
    }
    Inlet
    {
        type            zeroGradient;
    }
    rectangle
    {
        type            zeroGradient;
    }
}


// ************************************************************************* //
