/*--------------------------------*- C++ -*----------------------------------*\
| =========                 |                                                 |
| \\      /  F ield         | OpenFOAM: The Open Source CFD Toolbox           |
|  \\    /   O peration     | Version:  2306                                  |
|   \\  /    A nd           | Website:  www.openfoam.com                      |
|    \\/     M anipulation  |                                                 |
\*---------------------------------------------------------------------------*/
FoamFile
{
    version     2.0;
    format      ascii;
    arch        "LSB;label=32;scalar=64";
    class       volVectorField;
    location    "28.5";
    object      U;
}
// * * * * * * * * * * * * * * * * * * * * * * * * * * * * * * * * * * * * * //

dimensions      [0 1 -1 0 0 0 0];

internalField   nonuniform List<vector> 
2186
(
(1.28649 -0.0620868 2.55905e-19)
(1.60513 -0.926644 -2.0651e-20)
(1.44825 -0.903897 7.46793e-21)
(0.727647 -0.565934 -1.64801e-19)
(-0.207623 0.361708 -1.63207e-19)
(1.61135 -0.210176 0)
(0.717163 -0.662058 0)
(-0.0358407 0.0228753 6.93894e-20)
(1.60272 -0.0450099 1.19244e-19)
(0.541837 -0.286683 -2.29774e-21)
(0.695856 0.629368 0)
(0.868371 -0.278713 -9.27581e-20)
(-0.0248268 0.0709095 -2.72623e-20)
(1.20491 0.0258837 -4.15165e-19)
(1.79234 -0.672309 -3.07853e-20)
(1.01444 -0.000253922 1.9548e-19)
(0.980516 0.0121448 0)
(-0.0021271 0.610537 0)
(1.37307 -0.0892119 0)
(-0.0862152 0.269704 -5.46931e-20)
(0.489186 0.126759 -1.23483e-19)
(-0.193249 0.202869 7.41146e-20)
(1.19319 0.0290927 3.42372e-19)
(-0.190502 -0.105037 6.36068e-21)
(1.03107 0.0118817 -2.69511e-19)
(0.778443 -0.541628 0)
(0.760789 -0.0105128 1.59486e-19)
(0.606071 -0.585486 -1.94208e-19)
(1.23635 0.733491 0)
(0.964012 0.0251084 -3.67657e-19)
(-0.0275708 0.0881925 0)
(1.02445 -0.00753509 1.27453e-20)
(-0.105595 0.206177 0)
(2.0504 -0.104593 8.10523e-20)
(-0.186869 -0.175873 -6.62226e-22)
(1.56864 0.796466 1.10303e-19)
(1.89612 0.00754023 7.48795e-20)
(0.518195 0.17437 -3.68218e-19)
(1.94137 0.270472 -2.27317e-19)
(1.53715 -0.200703 -1.12985e-20)
(-0.0484998 0.0731217 0)
(-0.151915 0.17618 0)
(1.87563 -0.860168 6.1834e-20)
(-0.414891 0.202435 0)
(1.12634 0.293757 1.7374e-19)
(0.588022 -0.269284 3.09211e-19)
(0.915134 -0.778675 0)
(1.17326 -0.7761 1.36024e-19)
(2.39184 -0.134191 0)
(-0.205824 0.403054 1.40509e-19)
(-0.0208252 0.14846 8.08525e-20)
(0.644495 0.595204 9.07221e-20)
(2.06121 -0.729732 5.76267e-20)
(0.606591 0.301511 -2.97068e-19)
(-0.288749 0.0466043 2.86094e-20)
(0.753631 -0.63935 0)
(1.66633 -0.954729 1.86396e-20)
(0.575754 -0.535708 0)
(2.34857 0.24573 7.32357e-20)
(1.12247 -0.160649 -4.13857e-19)
(2.03067 -0.0824476 1.59781e-19)
(1.37631 0.315116 -2.10677e-19)
(1.37298 0.552626 0)
(1.57908 -0.205494 1.23778e-20)
(1.3915 0.401179 -1.32252e-19)
(1.23837 -0.71981 -1.94757e-19)
(1.19488 0.681821 6.13222e-20)
(0.682309 0.0942769 -6.04936e-19)
(0.820604 0.0756097 0)
(2.20165 -0.063882 -3.74195e-20)
(-0.0660708 0.0157575 -8.20722e-20)
(2.49126 -0.136082 -1.51246e-19)
(0.724997 -0.0150476 -2.67089e-19)
(0.863713 -0.502874 0)
(0.834631 0.199149 -9.91331e-20)
(0.539384 -0.498066 -3.30718e-19)
(2.38447 -0.140622 0)
(1.007 0.00956674 4.01904e-19)
(-0.194366 -0.179521 0)
(2.04881 0.39453 0)
(0.610139 0.286287 7.0609e-20)
(1.44984 -0.159083 1.0354e-20)
(1.02243 0.00829072 4.47755e-20)
(1.34236 0.43253 3.28176e-20)
(0.969467 0.0251839 4.69667e-19)
(1.03855 0.0306211 -1.11347e-20)
(0.67495 0.201318 -3.6043e-19)
(1.30402 -0.0875501 3.94479e-21)
(1.34762 -0.0936906 0)
(-0.0738803 -0.0787428 6.94573e-20)
(0.849596 -0.608919 -1.86829e-19)
(-0.164967 0.241817 -1.54945e-21)
(1.10712 -0.0683068 2.7771e-19)
(0.810933 -0.165618 0)
(0.97357 0.0235986 4.47919e-20)
(1.39303 0.663939 0)
(1.61087 -0.936405 0)
(1.32865 0.230561 0)
(-0.237998 0.440096 0)
(0.779611 -0.652225 3.28605e-19)
(0.246099 0.296236 -2.48942e-19)
(0.607681 0.251284 1.38448e-19)
(1.6004 0.20149 0)
(1.14277 -0.0949026 -2.53875e-19)
(1.12455 0.0238554 1.98746e-19)
(-0.134786 0.27484 9.96742e-20)
(0.657557 0.529912 0)
(2.08754 -0.120354 -5.65362e-20)
(0.955082 -0.463701 9.20341e-20)
(-1.19281 -0.333278 1.34328e-19)
(1.77017 0.331478 9.45166e-20)
(-0.22094 0.337568 -2.20222e-19)
(0.810576 -0.736105 0)
(0.583206 0.37687 1.79382e-19)
(1.7489 -0.118614 -3.61988e-19)
(0.102075 0.326714 -3.02248e-19)
(1.49861 0.940863 1.91724e-20)
(2.02336 -0.132964 0)
(-0.0982027 -0.112279 -2.07484e-19)
(0.706718 -0.0512119 8.45686e-20)
(1.59008 0.902668 0)
(-0.110812 0.423876 -1.87401e-19)
(0.907897 0.781938 -3.04203e-19)
(0.0147818 0.636422 2.64782e-19)
(1.03055 -0.0233101 0)
(1.59731 0.932038 -2.4167e-20)
(-0.226711 0.345397 0)
(0.685904 -0.477386 -1.1879e-19)
(0.00677028 0.650926 -1.43876e-19)
(0.782752 -0.713888 0)
(0.422011 -0.245835 4.4893e-19)
(0.529381 -0.43861 3.07562e-19)
(0.411612 -0.372425 0)
(0.974067 -0.77201 -1.53099e-19)
(0.242168 0.269233 0)
(-0.166478 0.379822 -1.10135e-19)
(0.801094 -0.68653 1.5907e-19)
(2.2312 -0.123876 1.45623e-19)
(2.23798 0.190059 0)
(-0.106173 -0.0677167 0)
(0.700506 0.650911 -3.83026e-19)
(1.76751 -0.60178 -1.68449e-20)
(-0.0202196 -0.000241721 0)
(0.973448 -0.795938 -1.63754e-20)
(1.13738 -0.0925434 0)
(1.07519 -0.113796 4.39297e-19)
(2.00759 -0.107013 -5.27274e-20)
(-0.224423 0.466067 0)
(1.20925 -0.542036 -6.54395e-20)
(-0.19559 0.342599 -3.57011e-20)
(-0.186157 0.217934 0)
(1.08455 -0.803019 1.22764e-20)
(1.00675 0.00453576 -6.71312e-19)
(0.639426 -0.462092 -1.16253e-20)
(0.806755 -0.500333 0)
(1.18857 -0.71837 -1.13763e-19)
(0.667986 0.261384 2.78586e-19)
(1.25465 0.118339 0)
(1.5295 0.0907319 -3.25823e-19)
(1.1879 -0.844894 -2.627e-19)
(-0.114023 -0.0802762 -7.24258e-20)
(-0.435184 0.0273227 -1.00924e-19)
(1.07639 0.0106443 2.53075e-19)
(0.908101 -0.449046 -1.15741e-19)
(1.34862 -0.112884 -3.65207e-21)
(0.596182 0.260024 -5.8381e-20)
(0.774706 -0.136377 8.38797e-20)
(-0.0667901 -0.116395 -1.94684e-19)
(1.74581 -0.266453 0)
(2.35808 -0.280681 8.97975e-20)
(1.47374 0.667676 1.71276e-19)
(0.797688 -0.600364 -2.39671e-19)
(0.994727 0.00892693 1.3752e-20)
(0.709222 -0.515236 3.26603e-19)
(1.33065 0.82116 1.52256e-19)
(1.9015 0.0629932 8.65364e-21)
(-0.201164 0.527093 0)
(1.09007 0.0620954 -2.62893e-19)
(-0.659209 0.392515 -1.36369e-19)
(1.09266 0.506427 8.89027e-20)
(0.189632 -0.163046 1.17646e-19)
(1.1625 0.0287749 -4.77154e-20)
(-0.181633 0.208021 -1.32556e-19)
(1.31928 0.600688 -9.21031e-20)
(1.16163 0.906916 0)
(-0.175746 0.648818 -8.52579e-20)
(0.165723 0.291562 0)
(0.672262 0.581485 -2.99563e-19)
(2.15631 0.205738 -1.48784e-20)
(0.00315751 0.142634 9.18975e-20)
(-0.152439 0.665565 -4.53503e-19)
(0.727987 0.0972649 2.65866e-19)
(2.04103 0.119653 -4.12725e-20)
(0.971597 -0.332746 -3.36688e-20)
(-0.0806596 -0.0698597 0)
(-1.0654 -0.448513 2.83483e-19)
(1.35296 0.99228 -3.90838e-20)
(0.843378 0.0932269 -1.46664e-19)
(0.569072 0.534841 2.09304e-19)
(0.431951 0.193245 0)
(-0.24107 0.00258768 -1.32873e-19)
(-1.1217 -0.737679 2.53422e-19)
(1.28842 -0.948068 6.89195e-22)
(0.987902 -0.0219899 -2.09093e-19)
(-0.144164 -0.172921 4.89134e-21)
(-0.0374121 0.0373035 1.34081e-19)
(-0.193856 -0.24149 -1.3622e-19)
(2.02307 -0.247011 0)
(1.1399 0.0499915 -3.54289e-19)
(2.54663 0.117326 2.044e-19)
(1.26218 -0.605636 1.24591e-19)
(1.04967 -0.0586424 6.14886e-21)
(0.607634 0.355967 0)
(0.965041 0.769778 -1.81075e-20)
(0.698832 0.64396 2.02471e-19)
(0.887098 -0.549735 1.68486e-19)
(0.704463 0.523684 0)
(1.02217 0.00514416 8.98006e-21)
(0.871721 -0.651105 2.40478e-19)
(0.85552 0.441951 -4.94351e-19)
(1.19449 -0.105252 0)
(0.101141 0.172863 -2.2483e-19)
(-0.0864339 0.234426 -8.15895e-20)
(1.61831 0.742508 0)
(1.33964 -0.926416 -5.89809e-22)
(-0.0157484 0.56961 0)
(-0.206948 0.273752 1.00943e-19)
(0.755277 0.671629 -1.06565e-19)
(0.844212 -0.200518 0)
(-0.194821 -0.158022 0)
(1.64013 -0.446657 0)
(-0.00474774 0.163785 5.10335e-19)
(1.20219 -0.872949 1.71827e-19)
(1.16561 -0.591274 7.26802e-20)
(1.04114 -0.162349 -1.89466e-19)
(0.867005 -0.681011 -1.90778e-19)
(0.185389 -0.188878 0)
(-0.158762 0.628383 0)
(0.991461 -0.497802 2.00723e-19)
(-0.076235 -0.0385847 0)
(-0.187927 0.435727 0)
(0.0712098 0.393038 2.63084e-19)
(0.812288 0.689712 9.2474e-20)
(1.03436 0.81334 0)
(0.716409 0.575309 -9.1355e-20)
(0.83041 -0.0239572 -2.42139e-19)
(0.764918 0.582611 -2.45221e-19)
(0.605822 0.564823 -1.80176e-19)
(-0.107423 -0.0222747 -4.70861e-22)
(0.712766 -0.638329 0)
(0.90907 0.191532 -3.50261e-19)
(-0.0967337 0.0187023 3.63523e-20)
(0.616579 0.572621 4.09048e-19)
(0.978382 0.816814 0)
(-0.0494107 -0.120047 3.68942e-19)
(-0.255676 -0.101299 2.30697e-19)
(-0.214164 0.00937606 -1.2472e-19)
(0.683425 0.590902 -1.58422e-20)
(0.968899 -0.00754765 6.50386e-20)
(-0.0564875 0.124381 0)
(2.00659 -0.0129586 -1.0695e-19)
(1.6456 -0.529535 -2.49787e-19)
(0.645599 -0.596627 -8.5217e-20)
(0.16587 0.588189 9.16003e-21)
(1.21363 0.47551 2.04863e-19)
(0.90281 0.431715 0)
(1.04051 -0.162807 2.16159e-19)
(-0.263056 -0.115577 4.01942e-21)
(-0.105188 0.146992 3.07658e-19)
(0.914491 0.0200945 -5.82205e-20)
(1.14713 0.146731 0)
(1.73632 0.0233012 -9.24686e-20)
(1.9581 0.0819811 0)
(0.557065 0.282635 -4.86335e-19)
(-0.0651181 0.0554929 0)
(-0.0710316 -0.0071308 1.61128e-19)
(0.681343 0.0951576 0)
(0.608042 -0.49671 -2.00215e-19)
(1.13774 0.02053 2.30778e-19)
(-0.216246 0.487284 3.45757e-20)
(2.16172 -0.0681964 4.76369e-21)
(2.06492 -0.155584 -7.87609e-20)
(1.1289 0.239982 -2.42365e-19)
(-0.0981519 0.0525638 -6.81384e-20)
(1.06503 -0.840683 0)
(0.810001 0.0170269 -1.67881e-19)
(0.918093 -0.361549 -3.19452e-19)
(1.70302 -0.564026 7.29254e-22)
(1.65983 -0.0140039 6.17452e-20)
(1.08705 -0.00365399 4.23117e-19)
(-0.208782 -0.051109 -1.06813e-19)
(0.985552 -0.423895 -1.41975e-19)
(0.194406 -0.186843 2.81957e-19)
(1.00803 -0.00705111 0)
(1.00466 -0.00584793 0)
(0.665719 -0.380131 7.22992e-20)
(-0.166191 0.331928 -7.67064e-20)
(0.200079 -0.113221 -1.04034e-19)
(2.02049 -0.0515962 -1.42461e-21)
(1.22286 0.0261873 0)
(1.93186 0.106237 -1.26871e-19)
(0.937595 -0.814179 -1.04348e-19)
(1.78483 -0.551541 -4.35143e-20)
(1.12733 0.856085 0)
(0.464135 -0.444216 0)
(0.624151 0.53986 -1.88792e-19)
(1.11465 0.293109 -4.4704e-19)
(2.15567 -0.175432 2.01019e-22)
(0.870852 0.175019 1.50295e-19)
(-0.305322 -0.00971805 -2.81383e-19)
(1.56241 -0.136682 -9.36271e-21)
(-0.290239 0.0963402 0)
(-0.145157 -0.0907342 0)
(-0.0530694 0.235415 0)
(1.32777 -0.71051 -1.18294e-19)
(-0.194196 0.229176 -1.8243e-19)
(-0.0936682 0.115574 0)
(1.31231 0.99417 -4.52479e-20)
(1.12554 0.159866 -4.66045e-19)
(2.5356 0.0414949 -1.14178e-19)
(1.10004 0.939992 1.02145e-19)
(-0.219426 0.310512 1.11905e-19)
(1.21612 -0.0238754 0)
(-0.0328559 0.291791 -2.00613e-19)
(-0.233427 0.309714 2.16042e-19)
(0.779799 0.0507235 1.97667e-19)
(1.56098 0.967108 -2.93376e-20)
(1.61784 0.719319 -1.07941e-19)
(-0.184055 0.231775 -2.20196e-21)
(0.738897 -0.67334 -4.26942e-20)
(1.15077 -0.0144831 0)
(1.74989 -0.0379428 0)
(0.991558 0.0478167 0)
(-0.785993 -0.40906 -2.10016e-19)
(-0.113063 0.211909 6.54034e-20)
(1.06828 0.863044 0)
(0.997072 0.0053073 5.60975e-19)
(0.787362 0.62535 -2.45902e-19)
(-1.13491 -0.546786 -1.21331e-19)
(0.865385 0.03452 -4.46038e-20)
(0.706962 -0.643705 -2.47869e-19)
(1.41119 0.727118 -4.07652e-20)
(0.549853 -0.430089 -3.18428e-19)
(1.1287 0.00373461 -5.06048e-19)
(0.800785 0.0396675 4.98103e-20)
(1.49095 -0.164966 9.16377e-20)
(1.61119 -0.100349 -8.64805e-20)
(-0.0594541 -0.0494261 -3.1182e-22)
(1.09729 0.485042 -2.9588e-19)
(1.34536 0.631076 6.01197e-20)
(-0.23159 -0.0211334 0)
(-0.341726 0.00813237 1.02723e-19)
(0.157452 0.360656 9.67223e-20)
(-0.148511 -0.188686 -9.66042e-20)
(0.49531 0.348454 0)
(1.69688 -0.51449 0)
(-0.0084652 0.0123417 -1.11991e-19)
(-0.1389 -0.00269641 -3.57396e-20)
(1.04886 -0.0289859 2.00592e-19)
(-0.182949 0.453947 -4.3241e-20)
(1.44285 0.0679599 -4.42233e-19)
(-0.162348 0.311244 0)
(0.825028 -0.730241 -3.47554e-19)
(1.36169 -0.0809197 1.24616e-19)
(-0.587234 0.206536 8.24828e-20)
(0.726819 0.182332 3.51393e-19)
(0.630404 0.165761 1.13001e-19)
(0.493663 -0.465517 2.22916e-19)
(-0.02141 0.0127374 -8.44426e-20)
(1.9783 0.700179 0)
(0.411932 0.375682 -2.04657e-19)
(1.03005 -0.013564 -3.19041e-19)
(-0.129602 0.668359 1.80771e-19)
(1.44324 0.498086 -1.46552e-19)
(-0.0790248 -0.0329915 -3.359e-20)
(0.685052 -0.624443 -8.26181e-20)
(0.826704 0.204795 -2.22182e-19)
(0.993704 0.441437 2.50905e-20)
(1.14296 -0.130934 3.89217e-20)
(0.600101 -0.205667 -3.24534e-19)
(1.99215 -0.295637 -7.3791e-20)
(1.7125 -0.0522034 0)
(2.24752 -0.0424596 -7.95268e-20)
(1.77961 -0.114597 7.27369e-21)
(0.682835 0.146429 7.02223e-20)
(0.950198 0.361401 -1.5035e-19)
(1.66962 -0.16464 -1.79567e-20)
(0.435321 0.409518 -2.6654e-19)
(0.0800592 0.466212 1.55203e-19)
(1.99449 0.0509514 0)
(0.943579 0.00806098 0)
(0.86576 -0.765053 6.97707e-20)
(-0.242417 -0.0928525 -2.53241e-19)
(0.174257 0.596372 -1.88281e-19)
(-0.0631263 -0.0475169 -1.49291e-19)
(-0.118157 0.510323 -1.16785e-19)
(-0.397485 0.0895099 0)
(-0.145412 -0.104519 2.81488e-20)
(0.0328847 0.307887 -7.63384e-20)
(-0.0366739 0.0381888 -3.06348e-19)
(0.798803 -0.0914655 0)
(1.48836 -0.48927 9.67241e-20)
(0.1119 0.212544 0)
(0.994555 0.024057 4.04561e-19)
(-0.356382 0.0168888 9.95713e-21)
(0.526272 -0.401896 4.26888e-19)
(-0.667337 0.401547 2.26393e-19)
(-1.00058 -0.33516 0)
(-0.0100194 0.273848 8.3594e-20)
(1.00216 0.0251439 -1.21926e-20)
(0.00712011 -0.15843 0)
(1.00489 -0.0087384 -6.29163e-20)
(0.849425 -0.715163 -3.27138e-19)
(1.52663 -0.569088 0)
(0.927375 -0.256323 2.28534e-19)
(-0.0572107 0.35124 1.56385e-19)
(-0.0795894 -0.0794256 0)
(-0.248871 0.0247929 -3.62145e-21)
(0.714829 -0.620853 -4.71103e-19)
(0.943865 -0.0204209 -2.95176e-19)
(-0.261247 -0.0882306 3.05021e-19)
(-0.105389 -0.0392827 1.02281e-19)
(-0.329275 0.122419 0)
(0.976069 0.491866 0)
(-0.477082 0.0513412 1.04187e-19)
(1.46916 -0.0917211 -6.33267e-20)
(1.09564 0.915228 2.17387e-20)
(1.08324 0.2235 -1.36437e-19)
(1.11978 0.00779226 -2.48132e-19)
(1.02945 -0.0635797 -9.03443e-20)
(-0.25037 -0.0717915 -2.70117e-19)
(1.98132 0.0685755 3.8328e-19)
(0.700014 0.0392223 2.3305e-19)
(1.6681 -0.0162388 6.17084e-20)
(1.0343 -0.139626 0)
(-0.119751 -0.149645 1.8909e-19)
(1.144 0.0267044 -5.48134e-19)
(1.78249 0.637862 2.96273e-20)
(0.72915 -0.436487 -1.76178e-19)
(-0.103161 -0.113754 1.5513e-19)
(0.788333 -0.689835 4.27975e-19)
(1.25911 0.203759 8.48441e-20)
(1.00705 -0.00815846 2.78583e-19)
(-0.279296 0.0145357 -1.1078e-19)
(1.02822 0.0230982 0)
(1.95068 -0.0157836 -1.57522e-19)
(-0.100987 -0.0964126 0)
(1.01387 0.0147719 -1.64793e-19)
(-0.791449 -0.501736 -5.49093e-19)
(1.7694 0.326666 5.10205e-20)
(0.130181 0.436097 1.32177e-19)
(1.64812 0.0240495 1.11157e-20)
(1.01512 -0.0170768 5.78126e-20)
(1.26627 -0.0879879 0)
(1.42892 -0.595923 -1.83676e-19)
(1.02634 0.0426401 -1.71055e-19)
(1.46841 0.809036 -8.37556e-20)
(1.2702 -0.043335 0)
(0.523764 0.481026 2.99575e-20)
(-0.0123278 0.0152916 0)
(1.29613 0.054579 0)
(-0.0989362 0.139411 0)
(1.26502 0.460459 0)
(1.90312 0.297499 3.66855e-20)
(0.761071 0.635949 4.31254e-19)
(0.288775 -0.290128 -2.63909e-19)
(-0.139473 -0.0269544 -2.37185e-19)
(-0.0929007 -0.0790728 0)
(2.43391 -0.353623 1.3021e-19)
(1.36149 0.533473 0)
(1.48858 0.303048 0)
(-0.0745921 0.351137 8.73495e-20)
(0.826197 0.730744 1.42487e-19)
(1.62011 -0.00410613 0)
(0.00317362 0.0777798 5.26857e-20)
(0.920284 0.237942 2.05481e-19)
(2.03191 -0.218259 -7.89895e-20)
(1.26597 0.947485 5.46231e-20)
(0.915139 -0.822467 -4.76019e-20)
(1.48178 -0.111366 -4.42657e-20)
(0.811888 0.733987 1.47127e-19)
(1.20137 0.944993 0)
(2.29161 -0.198505 1.67922e-19)
(0.3203 -0.251439 0)
(1.48719 -0.292598 5.76574e-20)
(1.01057 0.10518 1.52965e-19)
(1.00573 -0.00422754 0)
(-0.528514 -0.399116 1.79671e-19)
(0.884003 -0.154708 5.23545e-20)
(0.617028 -0.386823 0)
(0.658025 -0.359577 2.30344e-19)
(1.26247 0.574075 -3.82184e-20)
(0.48843 0.462167 2.959e-19)
(-0.051944 0.0686995 3.69049e-20)
(0.14536 -0.00887051 7.8756e-20)
(0.743304 0.0581099 0)
(1.31281 -0.888228 -1.15534e-19)
(1.03554 -0.0438283 4.45533e-19)
(1.53115 0.345852 1.19106e-19)
(0.0182022 0.127934 4.46218e-20)
(-0.73991 0.412484 0)
(1.21876 -0.227473 -1.2845e-19)
(-0.080915 -0.0756061 -1.29221e-19)
(-0.713005 -0.490542 -1.72051e-20)
(-0.133758 0.0447401 -6.64971e-22)
(-0.21041 0.0946264 2.54916e-19)
(0.692244 0.0520048 -1.8869e-20)
(2.13052 -0.0470435 1.43263e-19)
(1.21509 0.476918 -3.30373e-19)
(0.887915 -0.0558664 0)
(1.91695 -0.0964242 1.81348e-19)
(1.72054 0.0473788 4.19021e-20)
(0.900353 -0.754485 1.62269e-19)
(1.14979 -0.965654 -6.30757e-20)
(0.492061 0.45787 1.99644e-19)
(0.651024 -0.0232071 0)
(1.79263 0.594225 1.0731e-20)
(-0.0920463 -0.0861718 -2.62842e-19)
(0.903782 0.789538 0)
(1.70681 0.803797 0)
(0.289184 -0.288149 -3.77229e-21)
(0.3434 0.333789 0)
(-0.740136 0.319428 -2.43551e-19)
(-0.153545 0.176169 -1.04247e-19)
(1.74011 -0.421409 0)
(1.29947 0.0765838 2.41824e-19)
(0.0954426 0.55515 1.56432e-19)
(0.526726 -0.499287 -5.14247e-19)
(1.70366 0.00680812 -1.97653e-20)
(0.603983 -0.546588 0)
(1.05706 0.131323 0)
(1.37794 -0.266026 0)
(1.13235 0.238236 -2.60931e-19)
(1.37896 0.114358 3.72313e-19)
(-0.881499 -0.124408 0)
(0.868943 -0.0499767 0)
(2.12771 -0.0996931 -8.81279e-21)
(-0.125744 0.157461 8.58724e-20)
(2.43378 -0.00800672 -2.67409e-19)
(1.08302 -0.505071 1.34233e-19)
(2.00049 -0.00203215 -2.83831e-19)
(0.0302619 0.629913 -1.14051e-19)
(2.01891 0.0795883 -1.52107e-19)
(1.01627 -0.0154763 4.57023e-19)
(1.54713 0.620362 0)
(-0.225391 0.30543 2.82296e-20)
(0.99276 -0.818241 2.05957e-19)
(0.856297 0.00170746 5.21353e-20)
(0.620932 -0.410433 0)
(1.88567 -0.497135 -7.78793e-22)
(1.19377 -0.186283 1.70725e-19)
(1.49251 -0.264371 0)
(0.601742 -0.558408 5.09343e-19)
(1.78726 0.143404 -5.52213e-20)
(2.43191 -0.00598879 4.32129e-19)
(-0.14229 0.174441 -1.79449e-19)
(1.35931 0.6374 1.76733e-19)
(1.16925 0.422023 4.09894e-21)
(0.92176 0.392195 2.44021e-19)
(1.59535 -0.00902911 -5.29982e-20)
(-0.247376 -0.0488962 2.74747e-22)
(0.746657 0.0514783 0)
(-0.125479 -0.112706 2.52485e-19)
(1.08691 -0.942777 0)
(1.0507 -0.638838 2.48625e-20)
(0.426895 0.0609978 -8.99641e-20)
(1.56469 0.926875 -2.58064e-20)
(-0.352097 0.335203 -2.10999e-19)
(1.0085 0.502802 1.92135e-19)
(-0.910544 -0.64508 2.31853e-19)
(0.70221 -0.0412077 0)
(1.93827 -0.0491299 0)
(1.73661 -0.156181 -9.57337e-21)
(0.774025 -0.00824294 0)
(1.33579 -0.196597 -1.75674e-19)
(-0.249638 0.595314 3.58225e-19)
(1.96987 0.514315 -1.89073e-20)
(1.05044 -0.0325986 0)
(0.539088 -0.323653 1.14415e-19)
(1.0089 0.0262415 2.16968e-19)
(0.124269 -0.640058 -1.56671e-19)
(-0.0232908 0.563934 0)
(1.09442 -0.461833 5.53857e-19)
(1.84804 -0.0863096 -5.22813e-22)
(1.08697 -0.482418 -2.40908e-19)
(2.38012 0.259318 1.24279e-19)
(1.31431 0.81203 0)
(0.880712 0.0238207 0)
(0.00242838 0.195969 -1.13965e-19)
(-0.0106754 0.0127366 1.26012e-19)
(0.967538 0.384195 -2.27089e-19)
(-0.28393 -0.0750736 -1.06845e-19)
(0.665011 0.434126 2.57797e-19)
(0.683109 0.494187 0)
(0.532635 -0.494956 0)
(-0.276343 0.113743 -1.14115e-21)
(1.21666 -0.492491 -1.14736e-19)
(0.84452 -0.0612742 1.14092e-20)
(0.728562 -0.129733 1.27842e-19)
(-0.100579 0.128974 -2.26011e-19)
(1.07328 0.148228 2.08023e-19)
(0.677099 0.631914 0)
(1.29729 0.715362 0)
(1.65369 0.268788 0)
(-0.280693 0.198907 -9.24359e-20)
(1.28351 0.579009 1.70838e-19)
(1.84835 0.037493 1.92873e-20)
(0.951908 -0.0149486 0)
(2.30486 -0.269398 0)
(2.17156 -0.0687738 -2.90217e-19)
(0.129646 -0.500782 1.95291e-19)
(1.00521 0.00454569 -2.17076e-19)
(1.52844 0.492982 0)
(-0.0710233 0.47434 0)
(1.26589 0.332877 3.25842e-19)
(1.04451 0.546419 -1.4408e-19)
(1.07492 0.0314654 0)
(1.08822 -0.067779 0)
(2.03228 0.690814 -2.41725e-19)
(-0.183857 0.261502 -9.49009e-22)
(0.99434 0.0140534 0)
(0.727532 0.497516 -3.57912e-20)
(0.926928 -0.815873 0)
(1.00177 0.0165782 5.04528e-20)
(-0.51977 -0.476863 -6.31005e-20)
(0.893721 -0.305361 3.37102e-19)
(-0.209166 -0.714782 3.531e-20)
(2.01027 -0.0434588 1.57969e-19)
(2.02368 0.0583783 9.26417e-20)
(0.779556 -0.018929 0)
(1.0069 0.0119934 0)
(-0.637934 0.310226 0)
(0.680495 0.651888 -2.08099e-19)
(-0.064835 0.0802541 1.52652e-19)
(1.18891 0.363209 -5.21305e-19)
(-0.162572 0.619112 0)
(0.850503 0.66459 1.82387e-19)
(0.99694 -0.317653 0)
(1.00538 -0.000463183 1.27034e-19)
(-0.216598 -0.150282 1.94514e-20)
(1.05409 0.421199 2.84758e-19)
(1.33128 0.227711 0)
(2.26585 0.157973 -6.40499e-20)
(0.822233 -0.0920025 -3.94624e-19)
(-0.794319 0.261182 -3.23798e-19)
(0.364791 -0.109473 0)
(0.892182 0.260624 1.89415e-19)
(1.90483 -0.0179963 0)
(0.795792 0.544064 3.90623e-19)
(-0.573945 0.394036 1.48733e-19)
(-0.0792631 0.10123 0)
(0.606011 0.577004 -7.65596e-20)
(1.014 -0.626548 -1.73613e-19)
(0.465407 -0.214167 -1.31409e-19)
(1.02014 -0.00897375 0)
(0.098845 0.543479 -1.42133e-19)
(0.626293 -0.554721 8.95234e-20)
(0.920854 0.307546 0)
(1.82087 -0.322484 1.37945e-19)
(1.00449 0.856677 2.74288e-20)
(0.658175 -0.211569 3.04508e-20)
(0.243789 0.032769 -2.06295e-19)
(0.218055 0.0197844 -5.877e-19)
(-0.108164 -0.0595309 6.46678e-21)
(0.834671 0.379192 2.66444e-19)
(-0.195783 0.23681 -4.54671e-21)
(1.39701 -0.63342 3.48463e-21)
(1.02242 0.0168995 -3.7762e-19)
(-0.410922 0.214692 0)
(1.03444 0.0419469 -4.46775e-19)
(1.80388 -0.131895 4.40688e-20)
(0.909397 0.710741 3.09081e-19)
(1.12716 -0.0611481 1.76379e-19)
(1.0031 -0.0188706 1.74679e-19)
(1.50946 0.974586 2.24946e-20)
(0.0653517 0.126717 6.60156e-22)
(1.72559 -0.854506 1.53293e-20)
(1.11359 -0.125009 -8.86861e-20)
(0.767444 0.0449136 1.02323e-19)
(0.899136 -0.275238 9.80654e-20)
(1.95401 0.104767 0)
(0.984295 0.755231 0)
(0.0629274 -0.225813 -2.31987e-20)
(2.05327 0.200103 -1.31526e-20)
(-0.558242 0.415635 1.20741e-19)
(1.01756 -0.52404 -5.79118e-19)
(0.603766 -0.517132 4.27032e-19)
(1.26447 0.205017 -1.06384e-19)
(-0.175411 -0.023123 1.25391e-20)
(1.56658 -0.228437 0)
(0.757994 0.138326 -7.2416e-21)
(1.6149 -0.175901 -1.09503e-19)
(1.06259 0.781957 0)
(0.672918 -0.255591 0)
(0.697682 0.432324 0)
(-0.0527229 -0.00964836 -3.95031e-20)
(-0.14353 0.173696 0)
(0.879704 -0.506455 2.21112e-19)
(1.24176 0.187978 7.20115e-21)
(-0.721293 -0.303335 1.9713e-19)
(1.92317 0.525405 5.96275e-20)
(1.86173 0.476249 -3.52488e-20)
(2.05753 -0.27038 -2.02151e-20)
(-0.178393 0.0092477 -1.77454e-19)
(-0.291649 0.027918 2.70118e-21)
(1.94985 0.147172 0)
(0.682014 -0.035642 0)
(1.0007 0.000692473 2.10491e-22)
(-0.3239 0.236134 0)
(1.36831 0.0429032 -2.0838e-20)
(0.680982 -0.0320682 0)
(1.04386 0.00954603 1.41887e-19)
(0.989757 0.0156735 -4.93366e-20)
(1.15397 0.200221 1.25288e-19)
(1.06795 -0.0147878 -1.0215e-21)
(0.940131 -0.176679 -5.9148e-20)
(1.02106 -0.0237297 4.057e-19)
(0.65941 -0.59544 2.03191e-19)
(-0.796912 -0.488225 -2.57213e-19)
(1.78067 0.508938 2.51662e-20)
(-0.0144705 0.0261106 0)
(1.14941 0.815011 0)
(1.0248 0.00276243 0)
(0.989978 -0.760664 -1.2245e-19)
(1.03133 -0.882336 6.79139e-20)
(1.45639 0.591088 4.38444e-20)
(-0.840178 -0.407396 -3.68998e-19)
(0.237133 0.183742 1.52258e-20)
(0.571357 -0.357338 -6.85085e-19)
(2.09695 0.209972 -1.3426e-19)
(-0.103157 0.0765209 2.73808e-20)
(2.04357 -0.231059 5.57428e-20)
(1.4854 0.132239 -3.11596e-20)
(-0.0234221 0.0420721 -7.99532e-20)
(1.13514 0.570689 2.21835e-19)
(-0.261128 -0.192212 0)
(-0.316094 -0.0439285 2.12616e-19)
(-0.170506 -0.136864 -1.41716e-23)
(1.02834 -0.0445457 3.64771e-19)
(1.02285 0.00759289 -9.36867e-21)
(1.108 -0.00867178 -1.00755e-19)
(1.18214 0.76531 9.58569e-21)
(1.66656 0.328379 7.66121e-20)
(0.389102 -0.36256 -3.42229e-19)
(1.01656 0.565966 -8.82657e-20)
(1.03182 0.00944364 -2.67521e-19)
(1.9829 0.59912 -2.59261e-20)
(1.03364 0.795941 0)
(1.1324 0.6098 -4.16664e-19)
(1.00261 -0.00375565 1.03634e-19)
(0.694723 0.624178 2.78101e-19)
(1.0409 -0.190672 -2.54975e-21)
(1.07298 -0.00620888 -3.33129e-20)
(1.13116 0.0189658 9.43592e-22)
(2.39479 0.0686397 1.53475e-20)
(1.41715 0.286711 0)
(1.04332 -0.0403601 0)
(1.04818 -0.034699 6.37372e-19)
(1.00258 -0.00262318 0)
(-0.122322 -0.0950476 0)
(0.966165 -0.578428 0)
(1.00081 -0.000476147 -6.02779e-19)
(1.14268 -0.668219 1.00506e-19)
(1.02296 -0.000791502 1.26705e-20)
(1.3702 0.977144 -3.71645e-20)
(1.55636 1.02637 6.50514e-20)
(0.273261 -0.172315 -2.42543e-20)
(1.06144 -0.112009 6.32659e-20)
(1.97472 -0.0652489 0)
(-0.150971 0.285953 0)
(1.88862 0.111446 1.03509e-19)
(1.1133 -0.235041 0)
(0.999758 -0.00483207 -1.86445e-19)
(1.01082 -0.00114702 3.62399e-19)
(1.48346 0.149072 -7.95632e-20)
(0.0157225 -0.110467 1.98558e-19)
(0.980684 0.0021757 1.97598e-19)
(0.64957 0.115375 -5.56572e-20)
(0.944861 -0.0498318 2.83925e-21)
(1.15228 0.797189 6.80743e-23)
(0.927735 0.018172 -1.98813e-19)
(1.00369 0.00409053 2.34132e-19)
(1.0003 -0.000397186 1.38338e-20)
(0.789689 -0.0133998 0)
(0.728286 -0.0269659 0)
(0.723906 -0.0273533 7.11041e-22)
(0.700611 -0.0298311 0)
(1.31688 -0.0732752 0)
(1.19963 -0.104663 0)
(0.905741 -0.0652276 -1.97836e-20)
(0.841198 -0.0627519 1.05245e-20)
(1.62126 -0.26981 0)
(1.26658 0.447682 3.4397e-20)
(1.21368 0.65105 0)
(0.322178 0.217093 0)
(0.567278 0.111064 0)
(0.99261 0.258893 1.09333e-20)
(1.77049 0.211301 8.49063e-20)
(0.774462 0.0241326 0)
(0.785864 0.0200667 0)
(0.966272 0.0210119 -2.44964e-19)
(0.814758 0.00770781 4.56236e-19)
(1.00777 -0.0012375 0)
(1.00012 -0.000464743 4.32756e-19)
(1.00028 -0.0006371 -3.30391e-22)
(0.784035 0.0226 3.88963e-19)
(0.998435 -0.00477796 -2.2677e-19)
(0.339523 0.14321 0)
(1.05712 -0.0786222 -2.84137e-21)
(1.00061 -0.00114808 -2.18724e-19)
(0.999643 0.00106167 -3.75364e-19)
(0.703581 0.464015 0)
(0.998971 0.00158229 0)
(0.999657 0.000294705 0)
(1.67319 -0.264908 -9.63385e-21)
(0.224517 0.393989 3.74999e-20)
(1.45226 0.6149 0)
(-0.156742 0.310144 2.01097e-19)
(-0.360027 -0.164502 -1.77019e-19)
(1.02011 -0.0114595 -2.92019e-19)
(-0.141281 0.0632634 -6.67399e-20)
(1.01851 0.00792895 -2.35021e-19)
(1.15156 -0.208751 -1.22687e-19)
(0.785814 -0.453459 3.33212e-19)
(-0.0742906 -0.0586716 -6.14761e-20)
(1.02971 0.0149393 0)
(1.06563 -0.00993775 -6.42798e-20)
(0.845859 0.0240439 0)
(-0.0704679 0.0893803 2.21915e-19)
(1.12667 -0.444945 0)
(-0.155088 0.239377 -1.69699e-19)
(1.04882 0.127081 4.00629e-20)
(1.68986 0.702429 -5.62735e-20)
(-0.0551324 -0.0092381 0)
(1.05201 -0.0379266 1.97204e-19)
(-0.124062 0.253954 3.17219e-21)
(0.929462 0.00631515 3.07536e-19)
(1.01241 -0.00663682 -1.98922e-19)
(1.70782 0.883479 1.33808e-20)
(0.538709 0.507959 0)
(0.46586 0.429328 2.14238e-19)
(2.12136 -0.260269 -2.56561e-21)
(1.16593 0.132823 2.16782e-19)
(1.07351 -0.697922 0)
(1.02393 0.00696902 0)
(0.999925 -0.0175973 -4.57606e-19)
(1.01851 0.0172554 -4.46036e-19)
(-0.136875 -0.0686147 0)
(1.24685 0.842531 -1.55417e-19)
(1.15867 -0.122798 2.71456e-21)
(1.01616 0.00664968 1.71913e-19)
(1.01177 0.0145106 -2.15212e-19)
(-0.134706 0.365565 -1.73029e-20)
(0.172361 0.0582448 -6.13844e-20)
(1.01882 -0.0111398 7.33233e-19)
(1.42229 -0.109376 0)
(1.89396 0.669993 -1.70204e-20)
(1.01605 -0.00851943 -2.28338e-19)
(1.86507 0.0065594 -5.84134e-20)
(1.06486 0.0134774 -5.28207e-22)
(1.00955 -0.00927313 4.56303e-20)
(1.96041 -0.0694854 -1.40579e-19)
(1.0162 0.00738995 2.2132e-19)
(0.857695 0.836975 9.55588e-21)
(1.01819 0.00742018 0)
(0.943695 0.166703 5.40753e-20)
(-0.858548 -0.128172 3.18115e-21)
(0.998777 0.022649 2.19664e-19)
(1.03988 0.0213342 -5.99987e-22)
(0.785705 -0.14665 -1.88933e-20)
(1.28029 0.32734 4.74314e-19)
(0.994729 0.0176368 1.5124e-19)
(1.01716 -0.0119184 4.77927e-22)
(1.79072 0.258972 -3.37517e-20)
(1.80928 0.966133 -9.16994e-20)
(0.766029 -0.686583 6.73501e-20)
(0.433503 -0.292002 -3.30384e-19)
(1.00752 -0.00877667 0)
(1.02019 0.0047062 5.49687e-20)
(1.01137 -0.00758183 1.16036e-19)
(0.968586 0.773998 1.88644e-20)
(1.01462 0.00866625 -2.3049e-19)
(1.02636 -0.0174685 2.64038e-19)
(1.00812 -0.00714662 -2.16887e-19)
(1.01373 0.00791828 -5.01011e-22)
(1.0129 0.00407241 -3.454e-22)
(1.02483 0.0164275 2.20686e-19)
(0.907691 0.104865 5.53859e-19)
(1.65607 -0.249536 0)
(-0.352653 -0.0723955 5.03846e-20)
(1.01112 -0.000697039 0)
(1.02228 -0.0130897 -6.40423e-20)
(1.56617 0.459697 -1.07871e-19)
(1.6156 -0.0457575 0)
(2.17681 -0.210787 -1.36011e-19)
(1.00242 -0.372456 -5.26615e-20)
(0.776389 -0.019475 0)
(1.7438 -0.00961618 0)
(-0.283773 -0.557564 -3.28951e-19)
(1.42039 0.672484 -4.26464e-20)
(1.01789 -0.00085784 -2.32328e-19)
(1.10353 -0.549662 -6.86976e-20)
(0.250628 0.00974315 -5.19573e-20)
(0.815137 0.737939 0)
(1.43062 -0.211953 0)
(2.12583 -0.122719 0)
(-0.0781918 0.189717 7.27868e-20)
(0.831047 0.735099 -1.20259e-20)
(-1.10667 -0.905651 0)
(0.024504 0.390179 -1.82196e-19)
(1.73208 0.990785 -1.96577e-20)
(1.00767 -0.00127666 -4.53802e-19)
(0.800439 0.687092 3.61889e-20)
(1.02106 0.013408 3.00726e-19)
(0.701866 -0.0450158 0)
(-0.182333 -0.09724 -1.96541e-20)
(0.634081 0.461063 -3.64021e-19)
(1.668 -0.0911654 2.9554e-19)
(-0.0568173 0.321626 0)
(0.766906 0.0752903 8.85649e-20)
(0.534649 0.51279 5.54702e-20)
(1.2116 0.905927 -4.25573e-20)
(-0.0954147 -0.101794 9.74541e-20)
(1.02365 0.0194329 0)
(0.78175 0.697103 -4.11667e-20)
(1.01205 0.000253856 1.70434e-19)
(2.38313 0.141405 0)
(1.01214 0.00956642 2.85732e-19)
(-0.188582 -0.00841571 -1.02703e-19)
(1.01852 0.0142473 -1.77062e-19)
(1.60034 1.09686 0)
(2.48484 -0.296255 5.65444e-22)
(1.00897 0.00484706 -1.18627e-19)
(0.996719 -0.0172608 3.12778e-19)
(1.10532 0.106009 -2.88996e-21)
(0.877081 0.722186 8.91551e-20)
(-0.109491 -0.147508 2.59203e-19)
(2.05472 0.284212 1.36448e-19)
(0.0761932 0.36167 -1.01818e-19)
(0.799564 0.0145988 -4.28146e-19)
(0.821587 0.0313887 0)
(0.410764 0.337503 1.13345e-21)
(1.0228 -0.00859946 -3.44164e-20)
(0.971722 0.0390867 0)
(1.05259 0.00571372 -2.18674e-19)
(-1.04496 -0.0443525 6.18177e-20)
(-0.774532 0.13355 1.26565e-19)
(2.13709 -0.533227 0)
(-0.139395 0.0264592 -6.66124e-19)
(1.48693 -0.332976 0)
(1.04114 -0.0166867 6.40574e-20)
(0.704937 0.56819 -1.12287e-21)
(1.01346 0.00269549 1.84331e-19)
(-0.0811508 0.503724 3.44621e-19)
(1.01974 0.0050698 0)
(0.99445 0.00362903 -4.42601e-19)
(1.00876 0.00856338 2.34302e-19)
(1.39384 -0.249783 0)
(0.198819 0.248096 7.53632e-21)
(0.956365 -0.00125065 -2.00068e-19)