/*--------------------------------*- C++ -*----------------------------------*\
| =========                 |                                                 |
| \\      /  F ield         | OpenFOAM: The Open Source CFD Toolbox           |
|  \\    /   O peration     | Version:  2306                                  |
|   \\  /    A nd           | Website:  www.openfoam.com                      |
|    \\/     M anipulation  |                                                 |
\*---------------------------------------------------------------------------*/
FoamFile
{
    version     2.0;
    format      ascii;
    arch        "LSB;label=32;scalar=64";
    class       volScalarField;
    location    "48.7";
    object      p;
}
// * * * * * * * * * * * * * * * * * * * * * * * * * * * * * * * * * * * * * //

dimensions      [0 2 -2 0 0 0 0];

internalField   nonuniform List<scalar> 
2186
(
1.05647
0.160263
0.425385
1.33153
-1.62232
-0.0474641
1.02618
-0.598319
0.127709
1.49846
0.909078
-0.414704
-0.597311
1.12352
-0.0349315
1.08336
1.13512
-1.84942
0.0102643
-1.80654
1.46888
-1.71707
1.12588
-0.463642
1.11738
1.3125
1.33125
1.20473
0.312569
1.12141
-1.77038
1.1173
-1.86822
-0.0784209
-0.386863
-0.325945
0.218668
1.44075
-0.964669
-0.237435
-0.595855
-1.67921
-0.134768
-1.85716
0.776647
1.47973
0.757288
0.901116
0.556286
-1.96771
-1.79357
0.702917
-0.134499
1.33102
-1.87438
1.24216
-0.181012
1.26392
-0.89301
1.0743
0.522019
0.412518
0.28209
0.0154947
0.328452
0.851959
0.412939
1.366
1.25752
0.0451889
-0.617315
0.554018
1.37417
1.27361
1.19224
1.39742
0.431569
1.1268
-0.395389
-1.35354
-1.29574
-0.0802508
1.115
0.385638
1.11865
1.11744
1.32921
0.100123
0.39782
-0.370589
1.24177
-1.82984
1.12423
1.33943
1.12439
0.091083
0.319255
0.355981
-1.7836
1.27328
-0.632893
-0.868314
0.436597
1.14616
1.13821
-1.85424
1.15023
0.141052
1.21864
-1.97026
-1.32617
-1.8759
0.919078
1.30424
0.0658745
-0.675355
-0.106137
0.511107
-0.373343
1.39194
-0.517374
-2.16493
0.651839
-1.72254
1.09084
-0.126877
-1.7734
1.38579
-1.79885
1.01197
1.5571
1.45858
0.665334
1.00552
-0.967629
-2.05444
1.22066
-0.0171971
-0.448864
-0.443877
0.575786
0.298177
-0.583101
1.0473
1.13489
1.16695
0.144819
-1.61744
0.973881
-1.80877
-1.808
0.951281
1.13021
1.41544
1.30923
0.907842
1.30311
0.208921
0.0975664
0.821895
-0.408834
-0.524656
1.01562
1.26047
0.207098
0.00276678
-0.371409
-0.479763
0.203885
0.484978
0.0260704
1.2762
1.13491
1.36284
0.08967
-0.417247
-1.49919
1.01233
-1.08965
0.684943
-0.463051
1.1274
-1.80616
0.261264
0.216009
-1.46925
-0.827534
1.03782
-0.521471
-0.58629
-1.10636
1.32688
-0.148849
1.24012
-0.369016
-1.71898
-0.39599
1.23069
0.948606
-1.82335
-0.669423
-1.25606
0.527832
1.16074
-0.381664
-1.73022
-0.424721
0.653897
0.957802
0.0522875
0.904775
0.610534
1.29551
0.615326
0.742925
1.23995
1.11359
1.11637
1.20325
1.02297
0.81371
-0.735148
-1.8444
-0.333051
0.621501
-1.94485
-1.72882
0.907588
1.32224
-0.526825
-0.361811
-0.988288
0.776902
1.00908
1.06558
1.2057
1.3754
-1.51415
1.18804
-0.535669
-1.91844
-0.707928
0.855425
0.484763
1.06804
1.29996
1.01441
0.979124
-0.63636
1.14815
1.11581
-0.645448
0.834917
0.547151
-1.10191
-0.423046
-0.349314
1.06764
1.11649
-0.574811
-0.165374
0.399136
1.24963
-1.74155
0.543992
0.982991
1.1032
-0.419197
-1.80806
1.12333
0.442697
0.186807
-0.437649
1.36793
-1.74431
-0.613733
1.08412
1.42127
1.12339
-1.70612
0.0155813
-0.00413007
0.817431
-0.623088
0.923441
1.11381
1.27513
0.31701
0.274193
0.981386
-0.407543
1.21244
1.4312
1.11507
1.11306
0.162775
-1.99842
-0.429155
0.416575
0.534738
0.122805
0.782053
-0.0166521
0.323104
1.41131
1.14329
0.80576
0.059048
1.16612
-0.418069
0.215294
-0.596035
-0.398096
-0.579439
0.765553
-1.82016
-1.80832
-0.277005
0.85509
-0.0868983
0.0201766
-1.88569
0.536494
-0.60293
-1.84282
1.30575
-0.516433
-0.175707
-1.8254
1.12135
0.356124
-0.445267
0.919177
-1.12305
-0.563501
0.392998
1.14706
0.962288
-1.44127
1.24062
1.19869
0.030237
1.46421
1.07252
1.11643
0.810064
0.695921
-0.438231
0.708968
-1.92845
-0.441703
-0.485948
-0.792872
-0.399133
1.371
0.239513
-1.80087
-0.694793
1.07354
-1.44044
0.343279
-1.99591
1.09892
0.558339
-0.710533
1.29065
1.36603
1.38085
-0.587912
-0.143728
1.38471
1.08512
-1.21875
0.152825
-0.558381
0.609488
1.18492
0.872865
1.11762
1.47664
0.111379
0.715044
-0.103167
0.148706
-0.107705
-1.69934
0.098821
1.28577
-2.13232
-0.0247082
1.05605
0.955561
-0.48386
-1.44305
-0.4646
-2.0047
-0.589473
-0.370629
-1.79778
-1.70448
1.34912
0.412507
-0.707892
1.12769
-0.426459
1.47609
-1.0443
-1.92149
-2.01519
1.11469
-0.473187
1.11578
1.16725
0.25002
1.26809
-2.19445
-0.331873
-0.688993
1.29335
1.11957
-0.52776
-0.596613
-0.57797
0.864046
-0.569241
-0.710594
0.19173
0.89485
1.09989
1.02267
-0.612651
-0.0866326
0.740096
0.117627
1.0743
-1.92243
1.13214
-0.502978
1.37513
-0.364697
1.17125
0.529576
1.12176
-0.484896
1.0542
0.253874
-0.326805
1.11744
-1.37785
-0.157823
-0.754834
-0.340825
1.08878
0.631037
0.724242
1.0611
-0.154703
0.476708
0.342574
-1.80124
0.725132
-0.564186
0.505119
-1.17994
0.957838
1.38816
-0.683569
-0.354826
0.751734
-1.77799
0.152109
-0.623254
0.632163
0.539417
-0.593277
1.08123
0.611661
0.00757416
0.715865
0.651455
0.581762
-0.0278181
0.606826
-1.28642
-0.0999993
-1.71343
1.11404
-1.6934
1.29703
1.44829
1.43326
0.409371
1.08934
-1.69093
-1.7676
1.10229
0.651116
1.05805
-1.52657
-0.594336
-1.17504
1.09178
-0.330723
-1.75041
-1.87579
-1.94506
-0.384399
-0.0409973
0.529041
0.561613
-0.345177
0.0956428
1.09103
0.523981
1.0452
-1.35815
-0.682164
-0.328962
0.531979
-0.106443
1.4161
1.4061
-1.30134
-1.72131
-0.332847
0.0385642
-1.58179
1.31449
0.101654
1.2817
0.635857
-0.503497
0.776463
0.74018
-1.8089
1.09998
0.243233
-1.81262
0.185607
-0.340828
0.14442
-1.53683
-0.301544
1.12122
-0.165187
-1.8054
0.961906
1.25919
1.44102
0.18927
1.06283
0.0244204
1.11346
0.0367518
0.198537
-1.81258
0.195706
0.642561
0.986146
-0.78486
-0.669213
-0.0734066
-0.386715
0.358619
1.07519
-0.805566
-0.104418
-0.675226
0.804867
-1.27392
0.978708
0.608793
0.324972
1.11741
1.00102
-1.41055
-0.642081
1.00386
1.49465
1.13316
-0.833664
-2.12065
1.12599
0.658636
1.11124
-0.848784
0.122889
0.998631
-0.589097
-1.80136
0.933052
-0.229852
1.20914
0.286303
1.19316
-1.06428
0.986027
-0.322139
1.38684
-1.8076
-0.22819
0.808513
0.227737
0.242367
-0.574624
-1.86767
0.099884
0.672478
0.104078
-0.182268
-0.830635
1.11656
0.0948566
-2.15111
0.575441
0.738984
1.03211
-1.11043
-1.62162
-1.83996
1.12467
1.11386
0.879994
1.12304
-0.919753
1.29597
-1.05821
0.1033
0.197108
1.11774
1.12757
-0.796031
0.658217
-1.80879
0.661332
-1.56855
0.867368
1.21485
1.11423
-1.68927
0.796287
-0.642072
-0.490378
1.31278
-1.52766
-1.11356
1.09341
-0.0704972
1.01802
-1.42689
-1.81111
0.922939
1.1142
1.5375
1.11235
-1.92695
1.34932
1.04027
0.628174
0.368508
-0.984745
-0.23049
1.60212
-0.477841
1.07994
-1.80365
0.734404
1.11355
-0.651469
1.04085
-0.507611
0.763718
1.13695
1.1382
-0.264625
-0.620578
-0.0718195
0.949195
0.998848
1.29391
-0.0389702
0.633695
-1.59442
-0.480959
-1.20328
1.15222
1.39629
-1.33285
-0.214443
-0.535924
1.29036
-0.302037
0.507891
-0.500854
-0.62671
-0.585828
-1.75693
-0.447949
0.693703
-1.87479
0.0161481
-0.800601
0.119581
-1.90695
-0.576949
-0.00156508
1.01533
1.12355
-0.581143
0.308024
1.04386
1.12474
1.12943
-0.219366
1.03502
1.26338
1.13415
1.33198
-1.19999
0.150277
-1.80332
0.352805
1.13777
1.05925
0.594612
0.0915093
-2.05437
-0.883996
1.47319
0.0369298
-1.07679
0.0334739
0.0737227
-0.593391
0.599923
-0.433968
-0.311155
-0.3491
1.07735
1.11829
1.09141
0.0100353
0.0475043
1.46577
0.175155
1.12693
0.0282454
0.113763
0.558273
1.11663
0.991004
-0.647272
1.01552
1.02535
-0.0907444
0.119361
1.09356
1.11201
1.11695
-0.344344
-0.42176
1.12016
0.979915
1.11541
-0.203413
-0.667144
-0.929267
-1.02988
0.164702
-1.86287
-0.454731
-0.109107
1.12011
1.12368
0.624642
-0.381952
1.07619
0.268876
0.470142
-0.0177284
1.12308
1.13046
1.1209
1.12305
1.09484
1.08311
1.06627
0.515117
0.679256
0.0342656
-0.00136873
-0.0586669
-0.00731191
-0.0199176
0.45328
0.364822
0.202067
0.0868815
1.12171
1.1302
1.12678
1.14207
1.13614
1.12258
1.11975
1.12467
1.0903
0.417116
0.283663
1.11849
1.12352
0.0208997
1.12702
1.11979
-0.390365
-0.850656
0.0804626
-1.4665
-1.62753
1.09793
-0.634712
1.10971
0.986924
1.33623
-0.422341
1.11415
0.964115
1.10704
-1.79814
-0.444001
-0.561687
0.120669
-0.513734
-1.80798
1.10318
-0.782442
1.18959
1.09737
-0.711807
1.11249
1.31654
0.0347538
0.807665
1.02559
1.08744
1.10804
1.11887
-0.521849
0.177797
-0.413293
1.09955
1.12311
-0.616013
-0.679437
1.09779
-0.123236
-0.910033
1.10334
0.108191
1.04948
1.11074
0.0230706
1.12183
-0.857932
1.10951
1.0925
-2.03277
1.13284
1.13781
-0.591207
0.507935
1.11864
1.10245
-0.186028
-1.60261
1.06723
1.54088
1.10692
1.11755
1.1089
-0.699108
1.11248
1.1249
1.10536
1.10703
1.10451
1.11607
1.15729
0.00410459
-1.24768
1.11524
1.09403
-0.0118836
0.0769475
0.709021
-0.224541
0.846001
-0.325248
-0.53715
-0.0363587
1.10545
1.07386
-0.0780614
-0.578149
-0.426208
-0.0810873
-1.94347
-0.68903
-0.731501
-2.22534
-0.956624
1.11743
-0.412532
1.10362
0.925944
-0.447583
1.22066
0.131569
-2.14535
1.04939
1.05737
0.137323
-0.342648
1.07826
-0.743776
1.11186
-0.379769
1.11494
-0.188416
1.10017
-0.514383
0.702963
1.11297
1.13465
0.917177
-0.887606
-0.381095
-1.18589
-0.953903
1.13704
0.898327
-1.03088
1.0902
1.14289
1.06824
-0.883539
-1.5585
-0.111034
-1.42826
0.779064
1.09538
0.222535
1.11421
-1.30682
1.09415
1.13345
1.11788
-0.0843384
0.0560219
1.14799
-0.717777
1.12078
1.12071
0.494122
-0.582705
0.803496
1.10718
1.09911
1.07169
-0.841246
-0.642155
1.11724
0.818437
1.11614
1.16908
-1.37259
-0.576023
0.81032
1.41372
1.08672
0.765154
-0.25847
-1.11752
-0.494308
-0.619559
1.1245
0.276772
1.05504
-1.4095
-0.378117
-1.69675
0.214329
-0.42372
-0.131076
-0.553599
1.09692
-0.357288
0.765558
-0.481007
0.311517
-0.757022
-0.155868
-0.576201
1.03077
-1.05845
-0.333176
-0.650722
-0.76972
1.12328
-0.585612
-0.00793926
-0.423698
1.04277
0.0029869
-0.495368
1.16335
1.12008
1.12306
0.884389
-0.39834
1.08542
1.09442
-0.590039
-1.78952
1.09831
1.13151
1.24505
1.10841
0.608793
-0.50366
-1.84246
-0.748992
-1.39393
-0.331142
-0.820524
-0.116376
1.13499
0.444882
1.12776
1.23489
1.07953
-0.381913
-0.608477
1.096
-0.193847
-0.304614
1.12042
0.390842
-1.26238
-1.39266
-0.522763
0.962077
0.923218
-0.334017
1.09556
0.470214
-0.770436
1.12716
-0.540412
0.739903
-1.79414
1.23141
-0.431437
0.83581
1.09947
1.01096
0.00332544
-1.29737
0.77857
1.46605
1.11741
0.916544
-0.753368
1.47246
-0.188572
-0.44699
-0.278925
0.867847
0.0968795
1.19837
1.39459
-0.519644
-0.428408
1.08152
-0.429164
1.16007
1.12481
0.979469
0.160682
1.0952
0.128339
1.13873
0.118454
-0.544832
-0.665374
1.10125
0.0103884
-1.08651
-0.276301
1.19757
-0.536002
1.15777
0.692108
1.33046
0.870777
-0.67811
1.13286
-1.81641
1.00923
1.03435
-0.548091
-0.472487
1.06828
1.05866
1.19344
0.994938
0.559734
0.979296
1.13997
0.794763
1.09772
-0.129745
-1.70815
-0.613218
1.27573
-0.391831
-0.4518
-1.81335
-0.600757
-0.294221
0.0299465
0.716603
-0.471139
1.12464
1.19144
-1.78888
0.0238571
-0.493246
-0.192441
-1.16512
-1.80539
1.07632
-0.114039
1.11043
1.44407
1.16374
-0.547463
1.11672
0.957416
-0.376148
1.14454
1.04312
-1.2627
1.04991
0.819045
-0.0443486
-0.200507
1.58376
0.239009
-1.11736
-0.592109
0.670188
1.11846
-1.40197
0.0350843
-1.79535
1.18802
-0.336658
0.70378
1.07778
1.14656
-0.187313
1.16886
-0.22189
1.10247
1.1198
-0.835275
1.11414
0.232357
1.14969
1.05544
-0.99095
-0.129091
-0.0305437
-0.931185
1.25069
0.313955
1.08182
1.4429
0.0774268
-0.0112012
1.17919
0.00518241
1.17628
0.19534
0.407984
1.15666
1.16155
0.828669
-0.353259
0.58552
-1.6941
-1.90969
-1.43062
1.10837
1.16857
1.58949
-0.347769
-0.17958
1.09061
-0.57627
1.1136
0.927654
1.17472
1.06856
1.1199
-1.64681
-0.35909
-0.66555
0.708771
0.922394
-0.471369
-1.80043
-0.589962
1.12655
1.18976
-0.0961808
-1.34913
1.12555
0.0613141
-0.031764
0.597348
0.793449
0.0371983
-0.565928
-0.500905
-0.620452
-1.494
-1.07084
0.094381
1.56584
1.37603
-1.40864
-0.675531
1.12221
1.10271
-1.56386
0.454394
0.148665
0.444693
1.16615
-0.0993866
1.09844
0.464439
-0.587256
-0.704302
-1.24532
-1.99741
1.15541
-0.642591
-0.275017
1.39548
-0.621847
1.10117
1.22609
-1.79623
1.32552
1.47977
-1.63312
1.21815
-0.610363
-0.635383
0.97781
-0.614181
1.30399
1.10917
-0.602013
1.22566
0.609428
-1.86696
1.1214
1.3169
-0.325873
-0.714349
0.948461
1.09182
-0.575041
-0.632251
1.27013
-0.594369
0.902408
-0.419848
1.14227
-0.423189
-1.95629
-0.486085
-1.57233
1.01989
1.20182
1.50677
1.17061
0.869151
1.14277
0.982168
-0.444528
1.07415
1.40092
-1.74663
-0.590005
-1.27593
1.32341
0.294179
-0.675766
-1.19095
0.815817
-1.71973
-1.30241
0.925329
1.30891
-0.523679
-1.79375
-0.688179
-0.333217
-0.926813
-1.67938
-0.404529
0.755135
1.21317
-1.80858
-0.972493
-0.291356
0.690567
-0.588564
-1.49948
-0.370707
1.25391
-0.621886
-1.78325
1.53565
1.10719
0.834456
1.4382
-0.869091
1.27946
1.08825
1.27994
1.44988
0.0302483
0.483313
0.918807
0.700106
-0.344003
1.51405
1.17687
1.1738
1.24401
-1.76848
-0.7052
1.12858
0.686438
1.1247
-1.34346
-1.64226
1.11753
-0.508209
1.11833
-0.280357
1.44362
-0.330727
0.555438
1.0911
-1.807
-0.322577
-1.59542
1.32159
-1.80867
-0.358202
1.06247
0.400647
-0.885065
1.13685
1.14457
-1.80909
-1.19498
0.950985
-1.38726
-0.328942
-0.74694
-1.79189
0.0742037
0.979645
1.16992
-2.08745
0.995196
1.11958
1.40059
0.71896
-0.0314401
-0.334393
1.20067
0.0765942
-1.8047
0.477343
-1.0366
-1.80287
1.04871
-1.82532
-0.179366
-0.336231
0.310975
0.957685
-1.80092
1.01199
-1.2555
0.897733
-1.80234
0.212416
-1.80323
0.806403
-0.361647
0.10103
-1.80949
1.15831
-0.813125
-1.82683
-1.85809
-0.387206
1.11658
0.550547
-1.91086
-0.38384
-0.361546
-0.121884
-1.82737
-0.424952
-1.96757
0.3648
-0.395595
-0.587948
-0.423427
-0.882832
-2.06142
0.216683
0.855277
0.126799
-1.19463
1.00782
-0.264425
-0.0198495
0.86111
1.12627
-1.7128
-1.83099
-0.378309
-1.08351
1.1545
1.46931
0.187899
-0.0682346
0.506204
-0.628388
-0.569081
0.166712
0.977489
-1.25661
1.13251
-0.136573
1.53112
0.876834
1.59791
-1.80119
1.43585
-1.12499
1.28501
0.0398472
-0.371354
1.35001
1.14531
-0.994874
-0.342097
-1.86393
0.927363
-1.9415
1.0568
-0.504318
-0.724102
-0.508734
1.3845
1.0469
1.37726
1.02921
1.13049
-0.195568
0.210719
1.1717
-1.11509
-0.678946
1.45004
-1.834
0.908969
1.20224
1.48541
1.57819
-1.86413
-0.262498
1.17244
0.682449
0.0646578
-1.82222
-0.109895
-1.96545
-1.79716
0.943162
-1.16671
1.44561
-0.154009
0.968954
1.13509
1.0232
-0.686701
-0.427899
-0.663456
1.20872
-0.717639
1.1274
-1.33795
-0.992999
1.21595
1.51556
-0.4355
-0.290826
1.11889
-0.795742
-1.38941
1.02327
1.26023
1.40851
-1.9205
0.855447
0.710903
-0.387621
1.42689
-0.0246702
-1.80554
0.594387
0.108576
-0.0991731
1.06882
-0.806198
-0.0654511
-0.391399
-0.809103
-0.945125
-0.416694
1.03134
-1.28112
1.01404
-0.475962
0.548947
1.04348
0.730964
-0.41049
-1.34549
-0.571981
0.0908027
-0.249527
-0.44509
0.819914
-1.01684
-0.64883
0.977352
-0.597107
-1.75102
1.12066
0.0632913
0.869582
0.110492
-0.546295
0.228844
1.11001
-0.188636
-0.30077
1.1735
-0.697001
1.2266
-0.0403098
-0.792832
-0.656622
-0.365673
1.64019
-1.45924
1.3464
-0.465683
1.12091
1.24306
1.06411
1.22337
1.11025
-0.357203
0.469765
1.14517
1.34081
1.53042
-0.631298
1.08996
0.478675
-0.615415
1.12589
1.44921
-1.26261
1.34893
-0.181184
-1.35794
1.16283
-0.607745
-1.83639
1.1406
-1.10406
1.20052
1.33485
0.943515
-1.45777
0.817856
1.24365
-1.72124
-0.714492
-1.19678
-2.27701
-0.718102
-0.337138
1.55236
1.09898
-1.60606
1.22451
-0.601421
-0.786595
1.49441
1.19528
-1.31385
-0.855852
-0.348522
-0.649252
1.18755
-1.65967
0.568152
-1.58878
-0.780835
1.19449
-0.586422
1.41008
1.10262
1.15883
1.05254
1.29614
-0.918331
-0.592126
1.22949
1.37829
-1.06578
1.15598
-1.62613
-0.469045
-0.564095
1.00621
1.04704
-0.509875
-1.67155
0.935775
0.455324
-1.43358
1.02776
0.844943
-1.06464
0.898227
0.954574
-0.0495045
-1.73395
-1.53876
-0.424274
-0.546889
1.51601
-0.0759058
0.784539
-1.70265
1.52138
0.848287
0.720564
0.874911
-1.87022
-0.00571409
-0.384465
0.282844
-1.79016
1.23145
0.721381
-0.947829
0.769883
1.29636
1.13624
1.05241
-0.0125835
1.15492
0.325276
0.833387
0.710573
-1.10662
-1.76013
-1.97698
-1.39525
1.11924
1.2697
1.12106
-0.42285
-0.246179
-0.353109
-1.76986
1.09987
1.28132
1.11588
-1.77761
-0.958537
-0.964099
-1.2026
-0.345654
-0.358925
-0.705314
1.04221
-1.24617
-1.80956
-0.128366
0.393057
0.524944
-2.13034
-0.33285
0.140315
0.873916
1.54071
-0.38806
1.2472
1.56259
0.443863
1.21843
-1.74202
-0.436769
1.583
-0.324019
0.750301
-1.79893
-0.559073
-1.85388
-1.80859
1.20736
1.08562
1.14892
1.09897
-0.00991494
1.12044
-0.308703
-0.0926755
-0.321266
1.23876
0.527976
1.11398
1.12971
0.475542
-0.000548965
1.14715
-0.00688546
-0.381788
-1.80985
-1.85391
0.969683
-1.80643
1.11652
1.03246
-0.335861
1.46478
-1.77308
-0.918384
1.11987
-0.884704
-0.671712
-0.80702
0.358614
-1.80832
-2.05854
0.780117
1.12203
-0.297483
0.55516
-1.19418
-0.329053
-0.164533
-2.10169
0.35429
0.979694
-0.811243
-1.80464
1.24731
-0.0981209
0.0392206
-1.80157
-0.56323
1.11041
1.32649
0.264209
0.926429
-1.80045
-0.644575
-0.148625
0.161286
0.848077
-1.80329
0.790476
-0.259053
-1.81397
1.48196
-1.83693
-0.423085
-0.547191
-1.76145
1.17099
-1.87964
-1.61061
-0.387709
0.471619
-1.93883
-0.460719
-1.37152
0.203669
1.15073
-2.00668
0.311136
-0.409091
-0.714914
1.34703
1.57136
1.20026
1.11036
1.16832
-1.63342
1.08252
-1.75658
1.32304
-0.381073
-0.216862
1.48601
0.00823256
0.892777
-1.85174
1.55024
-0.382572
1.50194
0.356964
0.656544
-1.80434
-1.78605
-0.368044
-1.9381
1.42273
1.18084
1.06715
0.994067
1.10877
1.19014
0.6427
-1.79369
-0.623674
-0.0330696
-0.407015
0.607954
1.10411
0.43844
-1.81462
-1.82626
-0.147581
-0.375043
0.406909
1.54264
1.12508
1.09943
0.456667
-0.0340398
1.1431
-0.0775574
-0.338696
-1.58126
-0.612375
0.59166
-1.80626
-1.79737
0.200188
1.03393
-0.604312
-0.542736
1.1038
0.985514
1.03725
1.0836
-0.341441
0.717242
1.37937
1.17017
-0.355574
1.12186
0.773295
0.161806
-0.860716
-1.8057
1.51404
0.723812
-1.02007
0.553135
0.773038
0.926419
-0.654489
-0.775926
0.140289
-1.76849
-0.311947
-1.59944
-0.130789
1.07276
-1.79596
1.00615
1.45408
1.36023
0.965458
1.02164
1.10576
1.09233
-0.939461
-0.120897
-1.07123
-0.445932
-0.0315127
-1.80026
1.1378
0.969874
-0.590488
1.1881
-1.10199
-0.709765
-1.82149
0.0286379
0.933372
0.0219868
1.06251
0.757583
-1.99575
0.111442
1.42908
-0.415338
-0.0155459
0.141642
-1.57907
-1.84153
1.18856
0.590984
1.33034
-0.647975
0.144354
-0.348524
-0.936022
-0.594861
-0.324477
-1.54656
-0.995113
0.772832
-0.0848838
1.61595
-2.17842
-0.00192622
-0.401136
-1.79868
1.17001
-0.430221
-0.681907
0.00986931
0.297437
1.14482
1.42502
-1.5691
-0.216206
0.65698
-0.392305
-0.164655
1.32028
-1.01512
0.138378
-1.65634
0.55827
0.137931
-0.600232
1.07291
-0.232153
-1.51318
1.05917
-1.06119
-1.30903
-1.81575
-1.99065
0.469518
-0.589819
1.31272
-0.338557
0.644297
-0.381026
0.610375
-1.55435
-0.854078
0.411509
1.08411
1.17767
1.14349
1.17204
-1.90528
1.11096
0.93574
-1.54302
0.881018
-1.00193
-1.77286
-0.748567
1.39391
1.37478
-1.44973
-0.941562
-0.757037
0.900137
-1.15073
-0.132699
0.0816291
-1.79531
1.27035
0.918689
-1.79631
-1.46461
-1.80957
-1.80608
0.880409
-1.76874
0.869633
-0.133203
0.490537
0.668943
-1.78802
-1.03136
0.818889
-1.79465
-0.062103
1.38484
-0.395024
-1.80674
0.637789
-1.72265
-1.54432
0.369705
-0.65464
1.47865
-0.0315785
0.648187
-1.79253
1.51468
-1.77386
-1.42674
0.404787
0.0993774
-0.380409
1.4879
0.444624
1.29591
-1.5851
1.19359
0.0953915
-0.010049
-1.64051
-1.63963
-1.76685
1.23671
0.314639
-0.56774
-1.78259
-0.609477
1.09869
-1.25964
1.4975
-0.377049
0.569056
-1.80778
0.0427984
0.26562
0.220198
0.112328
0.631852
-1.3227
0.919803
-1.66121
-1.47374
0.102199
0.725221
1.52602
0.287216
-1.52588
-1.78086
-1.80812
-0.100682
-2.11547
-1.80688
1.17276
0.657801
-1.80077
1.57106
-0.603474
-1.3308
1.49717
-1.8061
-0.255953
-1.19746
-1.80568
-1.80562
1.55307
-1.88257
1.4411
-1.80467
-1.1425
1.1552
0.38823
-1.34354
0.301336
-0.634346
-0.44177
0.178146
-1.80782
1.11533
-0.637382
-1.80767
-1.8013
-1.81213
-0.385138
1.1339
-0.683108
0.218092
-1.79909
1.4553
-0.298754
-1.51079
-1.69661
0.325592
-2.02275
-1.8114
-1.80478
0.466205
1.21347
-1.76639
-0.377569
-1.97303
-0.0074596
-0.789819
-0.388461
1.52834
1.44765
0.101657
-1.04141
-0.383591
-0.0126977
-0.380167
1.52182
-0.176229
1.34606
0.478722
1.49979
-0.336972
-2.01767
-0.945357
-0.55092
-1.65691
-0.549434
0.378071
-1.80339
1.43665
0.371777
-0.158699
0.298765
-0.383747
-1.15222
)
;

boundaryField
{
    frontback
    {
        type            empty;
    }
    Top
    {
        type            zeroGradient;
    }
    outlet
    {
        type            fixedValue;
        value           uniform 0;
    }
    bottom
    {
        type            zeroGradient;
    }
    Inlet
    {
        type            zeroGradient;
    }
    rectangle
    {
        type            zeroGradient;
    }
}


// ************************************************************************* //
