/*--------------------------------*- C++ -*----------------------------------*\
| =========                 |                                                 |
| \\      /  F ield         | OpenFOAM: The Open Source CFD Toolbox           |
|  \\    /   O peration     | Version:  2306                                  |
|   \\  /    A nd           | Website:  www.openfoam.com                      |
|    \\/     M anipulation  |                                                 |
\*---------------------------------------------------------------------------*/
FoamFile
{
    version     2.0;
    format      ascii;
    arch        "LSB;label=32;scalar=64";
    class       surfaceScalarField;
    location    "48.7";
    object      phi;
}
// * * * * * * * * * * * * * * * * * * * * * * * * * * * * * * * * * * * * * //

dimensions      [0 3 -1 0 0 0 0];

oriented        oriented;

internalField   nonuniform List<scalar> 
3181
(
-1.01839
0.394236
0.624157
-0.376098
0.354103
0.0219954
0.505031
-0.347466
-0.157565
0.113423
-0.189293
0.0758697
-0.0592142
0.071948
-0.0127338
0.544407
1.3165
-1.86091
0.139874
-0.134031
-0.00584393
-0.0292859
-0.0267305
0.0560164
0.519169
-0.680441
0.161272
-0.0761369
0.127529
-0.0513918
-0.0112426
-0.0559805
0.067223
0.112941
0.0526073
-0.165548
0.0521247
0.0156549
-0.0677795
-1.09644
0.152147
0.94429
-0.318498
0.67888
-0.360382
-1.12662
0.642378
0.484238
0.0826078
-0.928506
0.845898
-0.0304788
-0.118503
0.148981
-1.13181
0.264861
-0.0100639
0.0609688
-0.0509049
0.0538203
-0.09682
0.0429997
0.0295886
-0.0358829
0.00629427
1.06256
-1.03909
-0.0234652
0.0396636
0.0334215
-0.0730851
-0.954639
0.327695
0.626944
-0.105386
0.218809
0.302287
-0.257943
-0.0443434
0.0274453
0.0576999
-0.0851452
-0.434398
0.353964
0.0804345
-0.0338816
-0.00395585
-0.00284497
0.00680082
-0.0391323
-0.915507
0.131846
-0.0852112
-0.0466344
-0.0232216
1.42021
-1.39698
-0.0949841
0.0353089
0.0596752
0.204433
0.277537
-0.48197
1.21638
-1.2396
0.0785158
-0.0246955
1.50512
-0.93479
-0.570328
-0.38053
0.924937
0.0631408
-0.0110161
0.0188589
0.0107297
-0.394534
0.0760357
-0.102818
0.121676
-0.65427
0.131263
0.523006
-0.137997
0.0618603
-0.160068
0.16378
-0.00371169
-0.260015
-0.0754713
0.335486
0.151424
0.498151
-0.649575
0.0511286
0.0821247
-0.133253
-0.0140197
-0.109928
0.116739
-0.00681139
0.501942
0.176938
-0.0954269
0.155024
-0.059597
0.0418487
0.0899969
-0.162602
0.186988
-0.0243853
0.157478
0.0530279
-0.210506
0.101129
-0.10669
0.0055612
0.903652
0.601465
-0.842143
-0.176251
-0.168808
-0.750756
0.919563
0.574534
0.233695
-0.808229
-0.471711
-0.206886
0.678597
-0.997603
0.617073
-0.2719
0.846434
-0.310732
-0.101931
0.412663
-0.220957
-0.213441
-0.182995
0.172798
0.0101967
0.154658
0.276924
-0.431582
-0.195272
0.714441
0.0681777
-0.0974636
-1.04944
0.880633
0.170877
0.13141
-0.166928
-0.11045
0.277378
-0.267909
0.369401
-0.101492
-0.0739858
0.082121
-0.0081352
-0.898016
-0.921111
0.0129727
0.908138
0.0336388
-0.128623
-1.2186
0.741126
0.477479
0.378127
-0.773783
0.395655
-0.906583
-0.0910202
1.09744
-0.945293
-0.743611
1.14481
-0.200518
1.05831
0.181636
-0.171725
-0.00991056
1.33957
-0.0230642
1.95761
-1.95761
-0.00877378
-0.00261716
0.0113909
-0.200963
-0.0527511
0.253714
0.0965466
-0.069616
-0.0269305
-0.453987
0.819458
-0.365471
-0.0338734
-0.216825
0.250699
-1.08142
0.0423292
0.353435
0.0707679
-0.424203
0.128933
-0.882855
1.11655
0.0704466
0.0306572
-0.101104
-0.017846
-0.144756
-0.341234
0.770269
-0.429036
-0.813069
0.471836
0.111488
-0.994343
0.316061
-0.770048
0.923334
-0.840727
0.0291177
0.0530292
-0.0821469
0.0919057
0.0557636
-0.147669
-1.30968
-0.119018
1.4287
-0.230799
0.394534
-0.163735
0.545358
0.108047
-0.653405
-0.466709
-0.751896
0.110931
-0.059802
-0.144787
0.139409
0.00537728
-0.0807776
-0.0191388
0.0999164
-0.523125
-0.157316
0.010661
-0.00856771
-0.00209326
-0.412463
0.174153
0.23831
0.515986
-0.0178344
-0.0213188
0.012545
0.0205463
0.150331
-0.206859
0.411292
-0.0162482
-0.00330805
0.0195562
0.147539
0.0740564
-0.221595
0.295993
-0.582297
0.286304
-0.595737
-0.530879
-0.217306
-0.195157
-0.0393369
0.109784
-0.0966377
0.174062
-0.0774245
0.265515
0.0232138
0.116661
-0.055588
0.0624763
-0.00688839
-0.0885769
-0.0189006
0.107478
0.0698059
-0.0698059
-0.177309
0.200523
-0.434942
0.0658766
0.0990809
0.0879069
-1.20469
1.00941
-1.21312
-0.0952229
1.30834
-0.058091
0.0441183
0.0139727
-0.0293293
-0.0570639
0.0863932
0.52152
-0.0199647
-0.501556
0.065751
-0.0611017
-0.0046493
-0.19078
0.0134713
0.166112
0.653346
-0.354615
0.520727
-0.128115
-1.18157
-0.0755999
0.0163858
0.469489
-0.290903
-0.178586
0.106659
-0.0927112
-0.0139482
0.0469889
-0.307004
0.0216614
-0.942772
0.0474288
-0.144066
-0.272314
-0.386203
0.0862089
1.37323
-0.927027
-0.446201
1.03117
0.342055
0.0648067
0.270679
-0.0647548
0.00666376
-0.361536
0.300687
0.060849
-0.251603
-0.597
0.848603
-0.341249
0.20776
1.34151
-1.07665
0.152604
0.0293889
-0.0397742
0.0103853
-1.44523
-0.530013
1.97524
0.255531
-1.70076
-0.33507
0.688505
-0.906845
-0.0152307
-0.000539521
-0.28164
0.28218
1.23585
-1.42828
0.192426
-0.0769744
0.00137452
0.580732
-0.832335
-0.43367
-0.0600591
0.493729
-0.308635
-0.124778
0.433414
0.181993
-1.00812
-0.0732969
-0.0269139
-0.023991
-0.584152
0.377266
-0.264496
0.0218076
0.242688
-0.0337261
-0.0432484
-0.0197306
0.0197306
-0.129453
0.142372
-0.0129192
-0.0316409
-1.18148
-0.00893549
-0.0265806
0.0355161
-0.19514
0.135392
0.0597482
-0.23258
0.0495854
0.95214
0.131529
-1.08367
-0.176883
0.431595
-0.254712
-0.0320539
0.0278821
0.00417186
0.930323
-0.384965
-0.207112
-0.00300371
0.210115
-0.163979
0.318638
-0.111957
0.110088
0.00186878
0.07265
0.0669069
-0.139557
-0.0930241
0.119535
-0.0265109
-0.940324
-0.390242
1.33057
-0.211056
-0.048492
0.259548
-0.683052
0.661459
0.0215927
-0.0126842
0.0461058
0.0426542
-0.044269
0.00161471
-0.02049
-0.0525951
0.460743
0.0552429
0.172084
-0.891372
0.719288
-0.131287
1.12931
-0.998026
0.367558
0.932467
1.02514
0.0742462
0.218262
-0.070723
-0.078684
-0.031244
0.224627
0.169328
-0.0774221
0.733399
-0.405704
0.0587887
0.194925
0.057151
-0.176997
0.119846
-0.75173
-0.12661
0.87834
0.0177456
-0.0177456
-0.0560935
-0.30329
0.580827
0.0116587
-0.222715
-0.184274
0.0657713
0.0350985
-0.0744354
0.146148
-0.15739
-0.34718
0.313307
0.0587128
-0.0439639
-0.0147489
0.379146
-0.326539
0.161542
-0.161124
-0.000418858
-0.197732
0.262539
0.181665
-0.472568
-0.203296
0.597532
0.15787
-0.0297469
0.0297469
-0.827252
0.188109
0.639142
0.366517
0.0280174
0.0644589
-0.0688012
0.00434236
-0.102596
0.00294344
0.00771752
-0.0523608
0.198508
-0.192134
0.258371
-0.0662369
0.140149
0.0291784
-0.382731
0.124788
0.204522
-0.0643729
-0.0499551
-0.0620015
0.0504653
-0.0790273
0.028562
0.138645
-0.0990019
-0.0396434
-0.0313603
0.414139
-0.382778
0.0881402
-0.0199625
0.114709
-0.119557
0.00484743
0.0261279
0.602079
-0.440537
-0.0417939
0.0963878
-0.0545939
-0.0489246
0.197966
-0.149041
-0.100274
0.0954614
-0.720036
0.624575
0.0542053
-1.46268
-0.422496
1.88517
-0.928812
1.22622
-0.297409
0.0767436
-0.0679621
-0.514335
0.286818
0.268701
-0.555519
-0.214087
0.271238
0.130834
-0.868996
0.738163
-0.155225
0.106301
-0.0338889
0.00697502
-0.983589
0.440484
0.543105
0.927027
-0.81554
-1.57977
1.46075
-1.23585
1.14063
0.0372761
-0.0968731
0.00880575
0.0338485
-0.0469983
0.776556
-0.645723
0.113849
-0.0664202
0.412037
0.732772
-0.084718
-0.966244
0.834957
-0.656004
-0.548682
-0.245631
-0.408639
0.0771241
-0.158205
0.205194
-0.571552
-0.356617
0.179734
0.750449
-0.228929
-0.839094
-0.740677
0.752816
-0.071341
-0.0838842
0.26786
0.0335491
-0.0335491
0.667786
0.152291
-0.820077
-0.228591
0.896377
1.03179
-0.570792
-0.460997
0.0936163
-0.0277398
0.00754595
0.00421643
-0.0117624
-0.750756
-0.106008
0.0881736
0.373789
0.57835
-0.0332716
-0.126797
-0.235169
0.737111
-0.210066
-0.0544296
-0.00265847
-0.0713273
-0.0593526
0.115116
0.390304
-0.25904
-0.784119
-0.299269
-0.231972
0.0240754
0.207897
-1.00732
1.93979
-0.147041
0.237252
-0.090211
-0.0271055
-0.0376493
-0.01518
0.038374
-0.023194
0.00983014
0.402833
0.0702156
0.0364438
0.0176587
0.0191882
-0.036847
-0.0230269
-0.184085
-0.744917
0.38387
0.361047
0.409085
-1.02654
0.617455
0.148974
-0.173344
0.0243705
0.00121296
0.109718
-0.216559
-1.74105
-0.00257873
-0.0126013
-0.0954525
0.0356506
0.166216
-0.373075
-0.242867
-0.0416529
0.28452
0.0404531
0.0872887
0.0513566
-0.75173
-1.70723
0.766903
-0.0142984
0.0526724
0.0483046
-0.641049
-0.0420028
0.0649736
0.139549
0.540081
0.0232768
-0.454859
0.115352
0.377255
-0.306487
-0.106576
0.0179993
0.2235
0.841747
-1.06525
0.105093
-0.706705
0.601613
-0.914536
0.787926
-1.14536
-0.340155
1.48552
0.0425354
-0.044875
0.0023396
0.178788
-0.487424
0.272335
-0.164031
-0.108304
0.0840748
0.113891
0.0156972
-0.247669
-0.00198496
0.0185678
-0.0390578
0.0204445
0.0908832
-0.111328
0.102978
0.00520509
-0.00561886
0.000413766
-0.0750592
0.0550967
0.865878
0.0490545
-0.0476799
0.373579
-0.479587
0.104701
-0.011085
0.00678083
0.0805079
-1.48552
1.74105
0.335557
-0.00883568
-0.326722
-0.266731
0.095006
0.121569
-0.131479
-0.00114376
0.0832647
0.0390204
-0.630021
0.387154
-0.05343
0.0738745
0.742915
-0.258677
-0.11968
-0.0754602
0.343527
0.00556132
0.0588976
-0.0074164
0.0772223
0.14248
0.22692
0.160716
-0.347875
0.187159
0.10398
0.549366
-0.0281393
-0.109858
0.893972
-0.239497
-0.654475
-1.14536
-0.263645
0.67273
1.21638
0.0263045
0.262926
-0.289231
0.465451
-0.036974
-0.428477
0.446005
-1.35259
-0.0823827
0.0837401
-0.0013574
0.226861
0.0807268
-0.307588
0.479138
-0.892242
0.413104
0.0405124
0.662545
-0.703057
-0.0423181
-0.102469
-0.103972
0.0621776
-0.589212
-0.23804
0.0404513
0.00208413
-0.0621431
0.0650792
-0.00293617
-0.082134
-0.279402
0.0157168
-0.0428223
0.182642
-0.129612
-0.0384019
-0.00586706
0.204845
-0.42167
0.710796
0.515424
-0.0109313
-0.0068143
-0.988842
-0.0192806
0.316385
-0.0674049
-0.0391713
-0.472413
0.0387436
-0.323325
0.150673
0.172653
-0.0773596
0.182061
-0.933528
-0.0117649
0.0189386
-0.650829
0.74629
-0.0163503
0.17422
-0.77099
0.200198
0.188119
-0.428064
0.239944
0.148758
-0.152066
-0.00793306
0.00567127
0.00226178
0.0104175
-0.103442
-0.0193319
-0.125425
0.741117
-0.636024
0.00232904
-0.073466
-0.229175
0.327433
-0.166717
0.396407
1.37235
-0.391132
-0.981218
-0.130078
0.151886
-0.515201
-0.229716
-0.552935
0.590292
-0.573261
-0.0170308
-0.0501095
0.0524385
-0.966244
0.551813
-0.551813
-1.62617
1.62617
0.776556
1.0903
-0.885052
-0.205253
-0.898602
-0.0902402
0.67463
-0.366624
-0.308006
0.149832
-0.227257
-0.0161977
-0.00512102
-0.91281
-0.0815323
-0.9339
0.213864
0.0807283
-0.0566529
0.698681
-0.103395
-0.595286
0.720153
0.496224
-0.0134621
0.00552901
-0.956994
-0.258719
0.0975956
-0.159014
-0.570107
0.729121
0.000958485
-0.813809
-0.614468
0.220703
-0.816439
-0.87834
1.29763
-0.419293
-0.135026
0.270254
-0.135228
-0.0332413
0.731922
-0.104715
-0.956355
0.956355
-0.841064
-0.136881
0.977945
-0.000474447
0.00567954
0.0399069
-0.456793
0.95267
-0.211544
-0.0924166
-0.0308907
-0.0464972
-0.0220153
-0.0100387
0.989963
-1.33012
-0.424494
0.497144
-0.670349
1.04561
-0.375258
0.0394345
-0.0420132
0.135028
-0.0609713
0.341278
-0.0150184
0.0306732
0.361195
0.0529441
0.0491422
-0.26778
0.218637
0.131758
0.0320217
0.105698
0.198116
1.06359
-0.182957
0.312766
1.39337
-1.70613
-1.56434
1.03433
0.477589
-0.355912
0.0715983
-0.764288
0.69269
1.40307
0.112562
-0.459742
-0.0741602
0.126067
-0.0519069
0.118717
-0.192877
-0.473773
-0.110379
-0.0798923
0.0834887
-0.0035964
-0.00530057
-0.0331013
0.300902
-0.210905
0.645723
-0.601613
-0.0441101
-0.28051
0.292168
0.88226
0.822621
-0.35717
0.00741186
-0.0339925
-0.552122
0.492063
0.162581
-0.561405
0.398823
0.00218715
0.00348413
0.658872
0.0420325
-0.700904
0.0183937
-0.0259071
0.0075134
-0.0387306
0.0315488
0.00718182
-1.88632
1.86325
-0.160965
-1.30171
-0.205073
-0.81554
1.14063
1.46075
-0.184
-0.164166
0.115674
-0.0705695
0.0772275
-0.00665805
-0.241703
1.53926
-1.29756
0.54188
0.13275
-0.0135588
0.0157459
0.131826
-0.258959
0.0308907
-0.0582195
0.00478947
-0.0919227
-0.460199
-0.0483001
0.0833986
-0.228804
0.60795
1.03117
-0.657174
-0.0558171
0.000869545
0.0549476
1.78714
-0.326386
-0.0569125
-0.0497777
-0.987376
0.171837
0.404713
-0.22272
-0.490341
-0.138239
0.62858
0.832083
-0.37085
-0.461233
-0.480205
0.156879
-0.834957
0.0842018
-0.0135097
-0.0398899
0.0533997
0.315499
0.813814
-0.16002
0.167566
0.474413
1.42751
-0.28688
-0.674696
0.0473463
0.62735
0.385215
0.014331
-0.359454
0.51528
0.786739
-1.04892
0.0707993
-0.0194427
-0.135806
-0.0959044
0.23171
0.689288
0.0668204
-0.0491617
-0.0469372
-0.37673
0.115951
-0.330038
1.06224
0.310114
0.00961676
-0.0597262
0.311413
-0.285108
-0.0283592
0.015675
0.10522
-0.139808
0.0345881
-0.287266
0.299379
-0.0121129
0.48259
-0.873723
-0.437497
-0.744037
1.18153
0.226702
-0.194662
-0.0320404
0.286391
0.0410421
-0.689122
-1.01811
-0.664052
0.664052
0.919563
0.720153
-0.706705
0.313134
0.473605
0.13832
0.500822
0.980215
-0.438335
0.00882214
-0.879493
0.870671
0.119312
0.00821683
0.0247323
-1.83497
1.14584
0.0425869
-0.166332
-0.113498
0.27983
-0.225797
-0.493132
0.3268
-0.96643
-0.307026
-0.655229
0.0123221
-0.00498399
-0.000634862
-0.231923
-0.00401776
0.211915
0.0329488
-0.157926
0.124977
-0.0582143
-0.78285
-0.00503122
0.0627311
-1.18398
1.15959
0.0243966
-0.544841
0.366256
-0.144508
0.100544
0.225391
-0.0106616
-0.0232273
-0.69987
0.831398
0.037475
0.0772344
-0.15218
-0.0769944
0.256226
0.0161094
-0.435563
1.75868
0.461263
-0.441601
0.86465
-0.793052
0.814703
-0.471176
-0.634554
0.177761
0.161613
-0.800151
0.775964
0.0241868
1.50143
-0.439194
-0.277469
-0.147026
-0.0808701
0.011254
0.947737
-0.837778
-0.109959
-0.197021
0.119599
0.0258102
0.113599
0.87444
1.27504
-0.330028
-0.945013
-0.316009
-0.0406078
-0.638756
-0.545226
0.142246
1.28646
0.399451
0.320702
0.163601
0.549821
-0.713421
0.484893
0.0557681
-0.0192205
0.0085589
-0.530695
-0.103858
0.0589341
-0.0926602
-0.199859
0.147498
-0.512689
0.257977
-0.992878
-1.12675
-0.300265
-1.13481
1.15074
0.157602
-0.296882
-0.640414
0.548492
-0.166868
0.316
0.0451949
1.28916
-0.810018
-0.203358
0.138985
0.491621
-0.908617
0.416995
-0.0258196
0.0123098
0.0541074
-0.0602812
-0.226984
-0.10698
0.697976
-0.423547
-0.274429
-0.433608
0.12493
-0.0904831
-0.0344467
0.248491
0.0675084
0.492325
-0.789734
-0.103692
0.151996
0.883179
0.391862
-0.0191756
-0.129866
-0.0272509
0.0111775
0.0160734
-0.0225988
0.0667171
-0.255354
0.0783571
-0.0570607
-0.535877
0.40085
0.0232801
-0.00256571
0.229268
-0.700395
1.67197
-1.36185
0.0168558
-0.205653
0.188797
-0.144072
-0.528033
0.672104
0.0678104
-0.70886
-1.35163
0.914133
0.021451
0.000281689
-0.0217327
-0.237056
-0.590292
-0.161439
-0.12789
-0.135806
-0.246102
0.175379
-0.467883
-0.989055
-0.0951161
0.469905
-0.374789
0.253019
0.105714
0.213439
0.716977
-0.930416
-0.150233
0.078892
1.25397
0.0801229
-1.33409
-0.217146
-0.564824
1.59915
-0.257173
0.190936
-1.31585
0.751029
0.155099
0.61517
0.0278623
-0.0748606
-0.0728568
1.24548
-1.68708
0.740974
0.0911093
-0.43181
-0.198211
0.338104
0.642111
0.8964
-0.00242736
-0.0203369
-0.399451
-0.655229
-0.710638
0.72361
-0.154746
-0.839094
0.662545
0.597045
-0.928018
0.402363
-0.00435926
-0.795792
-0.315501
0.637576
-0.764372
0.126796
0.0753749
0.0495548
0.637677
-0.00667376
0.399561
-0.392887
0.000271787
-0.00525578
-0.280726
0.226297
0.705387
0.212164
-0.198693
-0.171582
0.298472
-0.12432
-0.522196
0.316943
0.0638626
1.4971
-1.56097
-0.687003
0.591099
1.13976
0.0198276
0.11228
0.225036
-0.23171
-0.0117631
0.228341
0.0693259
0.238036
0.0783491
0.0324062
-0.0226654
-0.00974077
-1.02972
-0.035523
0.309852
-0.809022
0.432041
1.12295
-1.55499
0.391975
0.653632
-0.0444078
0.0472488
-0.00284099
0.112517
0.185956
-0.717026
0.140602
1.109
-0.676957
0.331335
-0.102995
-0.582101
-0.410778
-1.85466
1.91852
-0.0563708
-0.883852
-1.23886
0.240829
0.225036
0.0504422
-0.859464
0.831935
-0.647545
-0.18439
-0.981977
0.399876
-0.00629845
0.106992
-0.00062293
-0.106369
-0.971488
0.56071
-0.204539
0.91051
-0.922275
0.202945
-0.225972
-0.0994598
0.265676
1.5215
0.203869
-0.0932319
-1.46831
0.48709
0.242601
-1.29152
-0.551865
-0.519165
1.07103
0.448135
0.0152257
-0.0110092
-0.73858
0.703057
0.353835
-0.241319
-1.02514
0.425443
0.599695
-0.37977
1.50272
0.77207
-0.805952
-0.494258
-0.448514
-0.47263
-0.498858
0.804585
-0.804585
0.688138
-0.688138
-0.73858
-0.334422
0.334422
-0.425443
-0.580185
0.364746
-1.29347
-0.71864
0.71864
0.353835
-0.241319
0.77207
0.763622
-0.763622
0.805952
0.758171
-0.758171
0.505742
0.52737
0.480835
-0.364804
-0.501142
-0.551486
1.07886
0.386457
-2.27039
0.41573
-0.33809
1.47785
0.0162824
-0.0111427
0.0601971
-0.886444
0.0915209
0.794923
0.039402
0.0377221
-0.993602
0.587898
0.893635
-0.580501
-0.122482
-0.0309023
-0.00499681
-0.8143
-0.0770722
-0.543105
-0.0126762
0.0196512
-1.07325
-0.0637974
0.11647
0.214203
0.000900945
-0.0208273
0.0199264
-0.813855
0.0679423
0.745913
1.74143
-0.219925
-0.528322
0.425856
0.102466
0.917616
-0.746253
-0.171363
0.103891
0.307401
-0.0148419
-0.0650503
-0.0683724
-0.0140103
1.01642
-2.02374
-0.861191
0.09484
-0.744873
0.796663
-0.0517896
0.119196
-0.900544
0.781348
-0.803845
0.901353
-0.0975078
0.0601088
-0.0827076
0.0250914
-0.306731
-0.187725
2.10624
-0.0919531
-0.79449
0.913804
-0.0877858
-0.826018
0.111604
-0.0721699
1.40334
0.825663
-2.04863
0.527965
-0.395215
0.0986353
-0.893126
1.2396
0.386576
-0.797086
0.00129399
1.01778
-0.898581
1.15166
0.759795
0.0583032
-0.818099
-0.880474
-0.113128
-0.428094
0.0453156
0.329887
-0.157235
-0.782903
0.782903
-0.630468
-0.0825537
-0.864153
0.1179
-0.995687
0.836672
0.0651565
-0.229188
-0.0535226
0.0508224
0.011654
0.184972
0.832805
0.818799
0.775226
0.13466
-0.909885
0.437097
1.04075
-0.782805
-0.102666
0.88547
0.166266
-0.883292
-0.679181
0.885858
-0.787223
-0.103475
0.463248
-0.00853801
-0.45471
0.357812
0.874672
-1.23248
0.424486
-0.696536
0.27205
-0.88628
-0.830929
0.0860553
0.517148
0.297555
-0.837793
1.60329
-0.584659
0.584659
-0.86666
-0.601647
-0.648866
1.79471
-1.47821
0.734172
0.783192
-0.192737
1.70237
0.160884
0.354347
-0.273811
-0.0805369
0.158785
-1.18533
0.105282
1.19689
-0.844133
1.61104
-0.158829
0.341037
-0.237145
0.78179
-0.879298
-0.711735
1.75249
-0.147708
0.735606
0.586979
-0.586979
0.0268896
-0.0645389
0.119328
-0.086379
0.838212
0.0364601
0.0299947
-0.00580342
0.0090032
-0.00319978
-0.673939
0.694028
-0.0200891
0.492839
-0.434536
0.104491
-0.891713
-0.816571
0.777592
0.038979
0.234018
0.874713
-0.00882614
0.501665
-0.757053
0.611445
-0.653448
-0.675348
0.160147
-0.0801885
0.0311128
0.382342
-0.600626
0.520438
0.0023198
-0.798271
0.066139
0.730524
0.690739
-0.0792938
0.0745147
0.791363
-1.08972
0.916589
0.173128
-0.148793
0.508307
0.121874
-0.919524
0.70363
0.215894
-0.685876
-0.130563
0.972118
0.611518
-0.849558
-0.0360059
0.485765
0.514235
-0.771701
-0.107597
-0.344753
-0.325644
-1.35857
-0.027679
0.401103
0.598897
0.0371462
0.0179505
-0.859487
-0.058896
-0.594552
-0.153362
-0.238424
0.391786
0.0394796
-0.000459157
0.120609
0.0778999
-0.129638
-0.125717
0.761585
-0.64755
0.722064
0.399466
-1.00009
0.690251
0.706842
-1.39709
-0.744562
-0.188999
0.933561
-0.231004
0.220585
-0.02566
-0.0516285
0.00838019
-0.0332393
0.717038
-0.132379
0.110745
0.114646
-0.736854
0.0629152
0.954423
-0.277833
-0.141906
0.141487
0.950577
-0.284728
1.0175
-0.00572282
0.180435
0.293978
0.0345458
-0.0536007
-0.0031559
-0.280264
1.23469
-1.45283
0.783285
0.669543
0.84764
-0.0499344
0.023185
0.0267494
0.137464
0.0414844
-0.00103313
0.207204
-0.101984
-0.625724
-0.852486
-0.785626
-0.667202
0.00731525
0.260205
1.49013
-1.10855
1.01865
0.089893
-0.77358
0.827084
-0.0535037
0.82541
-0.519438
0.674537
-0.0815471
0.557948
-0.467134
-0.0611881
0.272938
0.442401
0.182339
-0.624739
0.38523
0.0334935
0.660535
-0.573078
0.573425
-0.000346854
1.44627
-1.61314
-0.0385355
0.0482469
-0.00971139
0.699933
-0.00977978
-0.0836799
0.0180791
0.277786
-0.451093
1.2765
0.0714286
-0.277532
0.0828698
0.00560943
0.102186
-0.107796
0.012549
0.0198572
1.22301
-1.14289
0.0616816
0.210805
-0.0241346
-0.0815096
0.237486
0.095365
0.00275353
0.0628821
0.766072
-0.999825
0.388527
0.611297
0.685038
-1.27497
0.589933
0.638085
0.117261
-0.0516579
-0.00534337
0.0570013
-0.297098
0.442159
-0.715969
-0.00853348
0.761349
0.721608
-0.240808
0.517325
0.120352
0.804351
0.270264
0.126143
-0.896796
0.17129
-0.272744
0.375418
-0.168319
0.695625
0.0704464
0.015226
0.0214009
-0.540839
-0.555315
0.165225
0.0128421
-0.109662
0.420201
-0.0603102
0.879473
-0.0633084
0.0813684
1.40328
-0.718242
-0.1496
0.39498
-0.0290032
-0.10854
-0.0458268
-0.00264271
0.0484695
-1.5908
-0.0223417
-0.00633056
0.863864
-0.225272
-0.62535
0.654887
-0.0295368
-0.138476
0.758541
-0.851039
-0.546055
0.0911454
-0.190605
0.637382
0.121159
0.752892
1.1869
-0.255113
0.783078
0.567663
0.667024
-0.589005
0.352301
0.236704
-1.51824
-0.072044
0.039824
0.0717444
-0.0523338
1.06125
0.732561
0.0717896
0.633883
0.21472
-0.876537
-0.0837592
-0.681121
0.682415
-0.0283414
-0.563314
0.409952
0.859357
0.670876
-0.0509735
-0.0257839
-0.138073
-0.32167
1.38693
0.285042
-0.605428
0.0301724
1.10399
-0.436964
0.671935
-0.433625
-0.0841308
0.557933
-0.728037
0.919147
-0.19111
-0.414449
-0.174556
-0.0524838
-0.177801
0.0472928
0.814904
0.0259749
-0.00678665
0.627294
-0.0473914
0.188879
0.61198
-0.131017
0.223606
0.676711
0.327855
-1.00457
0.275969
-0.923514
0.0546784
-1.41653
-0.166262
0.75296
-0.586698
-0.676208
-0.0895142
0.0378857
-0.0581548
-1.60263
0.00727769
-0.0345286
0.0407822
-0.204479
-0.126634
0.331112
0.0793089
-0.571552
0.324159
-0.143724
-1.0737
-0.00882807
0.00972902
0.671076
-0.057305
-0.601146
0.0280674
0.56583
0.293527
0.95573
0.929443
-0.231556
-0.387489
0.619046
0.583859
-0.620196
0.620196
-0.0807837
-0.969966
1.05075
0.0336166
-0.163695
0.671256
-0.105426
-0.218041
-0.18588
-0.663678
1.09892
-0.111936
-0.337953
0.189656
-0.103447
-0.423019
0.484457
0.0889685
0.0740516
0.00446421
-0.864624
-0.409818
-0.216033
0.693207
0.306793
-0.409818
0.693207
-0.866287
-0.802619
-0.866287
-0.696577
0.696577
0.303423
-0.0131973
0.348613
-0.0817937
0.266684
0.0819779
-0.532582
0.638127
-0.0261479
0.646005
-0.504994
-0.141011
-0.0469087
0.0429177
0.003991
-0.0222719
0.0164685
1.0596
0.0172767
0.047807
-0.436632
-0.370821
0.138898
0.0409431
0.827135
-0.277314
0.160588
0.387904
-0.0654877
-0.0501343
-0.00768897
0.69104
0.0703096
0.143322
-0.0359517
-0.000895293
-0.0133572
0.0821201
0.553064
-0.480542
-0.0725216
1.70525
0.558834
-0.159693
0.909123
0.0128622
-0.0699262
0.115375
-0.0142729
0.0394754
1.11628
-0.43957
-0.00543197
0.0177541
0.907077
0.215726
0.0178558
-0.0178558
0.0247524
-0.0247524
-0.0255125
0.0255125
-0.0109313
0.368218
0.461177
-0.0870508
-0.692222
0.463293
0.179832
0.0273717
-0.0897905
-0.483714
0.724516
0.113551
-0.799427
-0.311751
0.511949
0.118784
0.0242854
0.0072634
0.00723485
-0.00723485
0.122869
0.00695316
-0.00695316
0.702242
0.105976
-0.0260876
-0.00986407
0.0059465
-0.0617636
-0.0194113
0.0194113
-0.0195023
0.0195023
-0.0258042
0.0258042
0.00642719
-0.00642719
0.0285733
-0.303313
-0.0762444
0.217196
0.00839646
-0.00839646
-0.378507
0.499107
-0.1206
0.482561
-0.212307
-0.307607
0.468195
0.558487
-0.376856
0.0820364
0.57285
0.566986
0.0170036
-0.0170036
0.817859
0.0288972
-0.0288972
0.0118951
-0.0118951
0.773076
-0.203983
0.0542475
0.52877
-0.486738
-0.0203792
0.0203792
0.022398
-0.022398
0.0209099
-0.0209099
0.019845
-0.019845
-0.0270353
0.0270353
0.0397783
-0.0397783
0.497299
-0.0361359
0.0361359
0.0214123
-0.0214123
0.027568
-0.027568
-0.013728
0.013728
-0.0123543
0.0123543
0.012672
-0.0302546
0.0302546
0.256508
-0.0748683
-0.0446257
0.0446257
0.0121133
-0.0121133
0.0261736
-0.0261736
0.0380047
-0.0380047
0.0227478
-0.0227478
-0.0177365
0.0177365
-0.00871376
0.00871376
-1.56422
0.631979
-0.0179803
0.0179803
0.0190727
-0.0190727
-0.0431761
0.0431761
-0.0250774
0.0250774
0.00469126
-0.00469126
-0.38534
0.723444
0.243602
-0.0363648
0.0363648
0.0277165
-0.02323
0.02323
0.0154291
-0.0154291
0.033479
-0.033479
-0.325281
0.451424
0.0106396
-0.0106396
-0.0193207
0.0193207
-0.477124
0.0410573
-0.771885
-0.0279178
0.0279178
-0.434955
0.03027
0.0169789
0.207832
-0.639642
-0.0417849
0.0417849
-0.21293
0.152619
-0.0377842
0.0112573
-0.0112573
-0.014645
0.0576448
0.264431
-0.321693
-0.263675
0.585367
0.177438
-0.0123538
0.0123538
-0.179814
0.591488
-0.411674
0.751102
-0.377987
-0.373115
-0.480589
-0.656247
0.516526
-0.128623
0.464841
-0.613634
-0.57344
-0.0558181
0.189698
-0.328816
0.0199629
-0.0199629
0.00555003
-0.00555003
0.0350689
-0.0350689
0.0236911
-0.0236911
-0.00202044
0.00202044
0.0020659
-0.0020659
-0.765788
-0.00799437
0.161515
-0.283997
0.00287014
-0.00287014
-0.0409678
0.0409678
-0.0459021
0.0459021
0.251859
-0.216233
-0.0356263
0.0135852
0.298601
-0.523873
-0.00380204
0.00380204
-0.0254523
0.0254523
-0.102498
0.0691287
0.447398
-0.000195886
0.000195886
-0.00856042
0.00788469
0.960069
-0.490602
-0.0904815
0.581083
-0.621553
-0.00657488
0.336462
-0.0351239
0.0351239
-0.676062
0.267605
0.0571398
-0.0571398
-0.68277
0.374764
0.252644
0.117047
-0.00145327
0.00145327
-0.83268
-0.000818416
0.000818416
0.321504
0.410418
0.0706254
-0.0621623
0.0621623
-0.00252512
0.00252512
-0.0483121
0.0483121
-0.0493159
0.0493159
-0.00123218
0.00123218
-0.0546932
0.0546932
-0.00249021
0.00249021
-0.0521919
0.0521919
-0.0124044
-0.0414959
0.0414959
0.0064073
-0.0064073
0.0552697
-0.0552697
-0.00476798
0.00476798
0.0431338
-0.0431338
0.159612
-0.00775826
0.00775826
-0.00938803
0.00938803
-0.0318489
0.0772223
-0.0169014
0.0169014
0.00520677
-0.00520677
-0.0695185
0.0695185
0.339016
-0.0240833
0.0240833
-0.0530877
0.0530877
-0.00694227
0.00694227
-0.0793842
0.0793842
-0.0123853
0.0123853
-0.0960213
0.0960213
-0.0262611
0.0262611
-0.0876758
0.0876758
-0.701044
0.36344
-0.540957
0.511421
-0.813809
-0.265059
-0.543474
0.375155
0.233846
-0.667454
0.00467173
-0.00467173
-0.00250841
-0.69968
0.050565
-0.0461008
-0.640085
1.13631
0.76578
0.244137
0.016019
0.127225
-0.380347
-0.5931
-0.0432777
0.391115
-0.84284
-0.0276174
0.0276174
-0.732197
0.0151685
-0.0151685
-0.00710363
0.00710363
0.397739
-0.341643
-0.00379014
0.00379014
0.0168013
0.0129456
0.599961
-0.0485078
0.000913074
-0.016479
-0.00385795
-0.105762
0.510692
-0.40493
0.47266
-0.367378
0.00620719
1.05763
0.00105634
0.0413191
-0.41197
0.457285
-0.502451
-0.954497
-0.227072
-0.0790787
0.0197262
-0.282948
-0.413588
-0.015382
-0.00765446
-0.00944148
0.791917
-0.536419
-0.0464427
0.0592847
-0.039631
0.207754
0.140859
0.415635
0.245824
-0.162463
0.201827
0.0915824
-0.0246755
-1.31451
0.0221593
0.293377
-0.420011
-0.0165703
-1.34231
-0.0739441
0.272115
-0.356131
0.409075
-0.214793
-0.920019
0.059297
-0.0825935
0.0104236
-0.355876
0.458342
-0.0032621
-0.0310336
0.0342957
-0.0311644
0.0311644
0.109236
-0.466406
0.0632715
0.0721206
-0.0886138
0.0602723
-0.0590392
-0.0043802
0.0634194
-0.0422099
-0.17013
-0.0256723
-0.183256
-0.28325
-0.340255
0.623505
0.0173423
0.0663978
0.149373
-0.0386286
-0.037517
0.0720321
-0.165636
0.327248
-0.0120376
0.038787
-0.017301
0.166674
0.00733493
0.274845
0.00595371
-0.00595371
0.237063
0.434873
0.0977834
-0.181543
-0.0086788
0.00963729
-0.435513
0.937178
0.0337666
-0.014036
-0.536224
-0.00473283
-0.705682
0.101155
-0.71378
0.275445
-0.0552978
0.365046
-0.648296
0.204262
0.499368
-0.109921
0.109921
-0.000622931
-0.76138
1.16224
-0.400855
-0.224754
0.1666
0.523052
-0.30854
-0.565182
-0.106939
-0.0386094
0.0474152
0.928928
0.0874142
-0.138388
-0.072135
0.347977
-1.02493
0.00635954
-0.263408
0.778688
0.558296
-0.259696
-0.292837
0.553042
-0.179387
0.442313
-0.265896
-0.0454409
-0.456667
0.336067
0.115048
-0.115048
0.0858556
-0.0239225
-0.0619331
-0.0036965
0.000270738
0.0111775
-0.753853
0.456755
0.215703
-0.185417
-0.0302862
0.529739
-1.05404
-0.0397127
-0.439874
0.684642
-0.108901
-0.175096
-0.02697
-0.0800097
-0.498042
0.06141
-0.303232
-0.000525971
-0.0165703
0.406193
-0.00550218
0.000661161
0.00196927
0.0275369
-0.0155246
-0.0120123
-0.0979437
-0.0285306
-0.186189
0.21472
-0.113554
-0.343113
0.0168013
0.351368
0.00228249
-0.39055
0.0902849
0.00309298
0.000465683
-0.0875165
-0.0128511
0.0128511
-0.00146494
0.00289564
-0.0084016
0.00349865
-0.0397124
0.000433768
-0.00123107
0.293986
-0.255243
-0.00336142
0.00336142
-0.058798
0.501135
0.00152199
-0.28227
0.744163
1.17797
-0.46943
0.319471
-0.441041
-0.114879
0.178151
0.214237
-0.217441
0.00831428
-0.0388447
0.00560532
-0.0024874
-0.177219
-0.37202
0.835314
0.0152214
-0.78101
0.290869
-0.00177362
0.0814768
0.152541
0.000832005
-0.00633823
-0.0325064
-1.18854
0.00144957
-0.0005243
0.731571
-0.659539
-0.251652
-0.0185433
1.06516
-0.00364358
0.00192589
-0.0377842
-0.00516993
0.817659
-0.433752
0.522721
-0.541677
0.905691
-0.830298
0.55823
-0.183074
0.71969
0.00137422
0.00217782
0.0221076
-0.0686674
0.135876
-0.359201
0.00867825
0.0187256
0.0712715
-0.0577341
-0.0135374
0.00171413
0.00439869
0.0244941
-0.0288928
-0.126389
0.0081669
0.000836294
0.00304588
0.521603
-0.438485
-0.000721318
0.000889216
0.640854
0.521381
0.373069
-0.00671598
-0.00570725
0.0336717
0.0280099
-0.0491737
-0.0988873
-0.0115439
-0.00411713
0.134039
0.0447892
-0.00268729
0.395766
0.00161013
0.0113982
-0.0113982
-0.00440179
-0.0120772
0.000849708
-0.322181
-0.00412913
0.0796773
-0.108008
-0.147647
-0.0753959
-0.064964
0.000931896
0.00162977
0.446287
0.000567162
-0.00300911
-0.0494747
-0.00241002
0.00126244
-0.408628
0.438622
-0.70965
0.456738
-0.828758
-0.34446
-0.00232924
-0.598606
0.271799
-0.430628
0.571905
-0.014192
0.154228
-0.00502249
-0.00187009
-0.554903
-0.0038798
-0.00125803
0.0123225
0.913657
-0.528427
-0.00307782
-0.00227777
-0.0073562
-0.00299028
0.1092
-0.0200461
0.0200461
-0.040085
0.0429806
-0.0017355
-0.0098657
0.0453366
-0.0446755
-0.175229
0.103185
-0.00544304
-0.0166371
0.0360293
-0.0188064
0.0691795
-0.0494533
-0.626345
0.574555
0.0352227
-0.000535044
0.295704
-0.214335
-0.0628746
-0.660198
-0.0666011
-0.108149
-0.103695
0.101285
0.712001
0.00114992
0.0261422
-0.0242163
0.0640327
0.068343
-0.141606
0.0732632
-0.0692534
-0.615375
0.838651
-0.531623
0.0222067
0.014158
-0.0129426